<event>
 7    1  0.3046295E-009  0.4614232E+02  0.7816164E-02  0.1320468E+00
        -11   -1    0    0    0    0  0.00000000000E+00  0.00000000000E+00  0.45593999997E+02  0.45594000000E+02  0.51100000000E-03 0.  1.
         11   -1    0    0    0    0 -0.00000000000E+00 -0.00000000000E+00 -0.45593999997E+02  0.45594000000E+02  0.51100000000E-03 0. -1.
    9900012    2    1    2    0    0  0.20845050065E+02 -0.29294932846E+02  0.27136770475E+02  0.46142317471E+02  0.99999973587E+01 0.  0.
         12    1    1    2    0    0 -0.20845050065E+02  0.29294932846E+02 -0.27136770475E+02  0.45045682529E+02  0.00000000000E+00 0. -1.
         11    1    3    3    0    0  0.20545793342E+00 -0.10185872521E+01 -0.18305381378E+00  0.10551027971E+01  0.51100000000E-03 0. -1.
        -11    1    3    3    0    0  0.76878365141E+00 -0.39312527329E-01 -0.34477180482E+00  0.84346999710E+00  0.51100000000E-03 0.  1.
        -12    1    3    3    0    0  0.19870808480E+02 -0.28237033067E+02  0.27664596094E+02  0.44243744677E+02  0.00000000000E+00 0.  1.
</event>
<event>
 7    1  0.3046295E-009  0.4614232E+02  0.7816164E-02  0.1320468E+00
        -11   -1    0    0    0    0  0.00000000000E+00  0.00000000000E+00  0.45593999997E+02  0.45594000000E+02  0.51100000000E-03 0. -1.
         11   -1    0    0    0    0 -0.00000000000E+00 -0.00000000000E+00 -0.45593999997E+02  0.45594000000E+02  0.51100000000E-03 0.  1.
    9900012    2    1    2    0    0  0.51927231864E+01 -0.43917535153E+02 -0.85673330183E+01  0.46142318042E+02  0.10000002560E+02 0.  0.
         12    1    1    2    0    0 -0.51927231864E+01  0.43917535153E+02  0.85673330183E+01  0.45045681958E+02  0.00000000000E+00 0. -1.
         11    1    3    3    0    0 -0.36338506374E+00 -0.58916140015E+01 -0.23986777090E+01  0.63715633293E+01  0.51100000000E-03 0. -1.
        -11    1    3    3    0    0  0.27203123646E+01 -0.56548383643E+01  0.13465636102E+01  0.64179848944E+01  0.51100000000E-03 0.  1.
        -12    1    3    3    0    0  0.28357958855E+01 -0.32371082787E+02 -0.75152189195E+01  0.33352769818E+02  0.00000000000E+00 0.  1.
</event>
<event>
 7    1  0.3046295E-009  0.4614232E+02  0.7816164E-02  0.1320468E+00
        -11   -1    0    0    0    0  0.00000000000E+00  0.00000000000E+00  0.45593999997E+02  0.45594000000E+02  0.51100000000E-03 0.  1.
         11   -1    0    0    0    0 -0.00000000000E+00 -0.00000000000E+00 -0.45593999997E+02  0.45594000000E+02  0.51100000000E-03 0. -1.
    9900012    2    1    2    0    0  0.19714884957E+02  0.12288882829E+02  0.38593006836E+02  0.46142317558E+02  0.99999981466E+01 0.  0.
         12    1    1    2    0    0 -0.19714884957E+02 -0.12288882829E+02 -0.38593006836E+02  0.45045682442E+02  0.00000000000E+00 0. -1.
         11    1    3    3    0    0  0.91660084544E+01  0.68046325088E+01  0.23406077023E+02  0.26041566321E+02  0.51100000000E-03 0. -1.
        -11    1    3    3    0    0  0.35070664358E+01 -0.37045148351E+00  0.69052214856E+01  0.77536335555E+01  0.51100000000E-03 0.  1.
        -12    1    3    3    0    0  0.70418100670E+01  0.58547018036E+01  0.82817083268E+01  0.12347117681E+02  0.00000000000E+00 0.  1.
</event>
<event>
 7    1  0.3046295E-009  0.4614232E+02  0.7816164E-02  0.1320468E+00
        -11   -1    0    0    0    0  0.00000000000E+00  0.00000000000E+00  0.45593999997E+02  0.45594000000E+02  0.51100000000E-03 0.  1.
         11   -1    0    0    0    0 -0.00000000000E+00 -0.00000000000E+00 -0.45593999997E+02  0.45594000000E+02  0.51100000000E-03 0. -1.
    9900012    2    1    2    0    0  0.19139530368E+01 -0.17277655641E+02  0.41556382473E+02  0.46142317356E+02  0.99999963039E+01 0.  0.
         12    1    1    2    0    0 -0.19139530368E+01  0.17277655641E+02 -0.41556382473E+02  0.45045682644E+02  0.00000000000E+00 0. -1.
         11    1    3    3    0    0 -0.83637894626E+00 -0.11081695412E+02  0.18211955824E+02  0.21334920626E+02  0.51100000000E-03 0. -1.
        -11    1    3    3    0    0  0.17924345224E+01 -0.41209560759E+01  0.21208006661E+02  0.21678898665E+02  0.51100000000E-03 0.  1.
        -12    1    3    3    0    0  0.95789746059E+00 -0.20750041527E+01  0.21364199878E+01  0.31284980650E+01  0.00000000000E+00 0.  1.
</event>
<event>
 7    1  0.3046295E-009  0.4614232E+02  0.7816164E-02  0.1320468E+00
        -11   -1    0    0    0    0  0.00000000000E+00  0.00000000000E+00  0.45593999997E+02  0.45594000000E+02  0.51100000000E-03 0.  1.
         11   -1    0    0    0    0 -0.00000000000E+00 -0.00000000000E+00 -0.45593999997E+02  0.45594000000E+02  0.51100000000E-03 0. -1.
    9900012    2    1    2    0    0 -0.19455667111E+02  0.33990334742E+02 -0.22254160485E+02  0.46142317659E+02  0.99999990707E+01 0.  0.
         12    1    1    2    0    0  0.19455667111E+02 -0.33990334742E+02  0.22254160485E+02  0.45045682341E+02  0.00000000000E+00 0. -1.
         11    1    3    3    0    0 -0.13764703064E+01  0.86972542788E+01 -0.76666584573E+01  0.11675382420E+02  0.51100000000E-03 0. -1.
        -11    1    3    3    0    0 -0.12793083785E+02  0.16964138734E+02 -0.11322886561E+02  0.24075978818E+02  0.51100000000E-03 0.  1.
        -12    1    3    3    0    0 -0.52861130201E+01  0.83289417297E+01 -0.32646154669E+01  0.10390956421E+02  0.00000000000E+00 0.  1.
</event>
<event>
 7    1  0.3046295E-009  0.4614232E+02  0.7816164E-02  0.1320468E+00
        -11   -1    0    0    0    0  0.00000000000E+00  0.00000000000E+00  0.45593999997E+02  0.45594000000E+02  0.51100000000E-03 0. -1.
         11   -1    0    0    0    0 -0.00000000000E+00 -0.00000000000E+00 -0.45593999997E+02  0.45594000000E+02  0.51100000000E-03 0.  1.
    9900012    2    1    2    0    0 -0.35558906386E+02 -0.27329417716E+02  0.42167115124E+01  0.46142317054E+02  0.99999935541E+01 0.  0.
         12    1    1    2    0    0  0.35558906386E+02  0.27329417716E+02 -0.42167115124E+01  0.45045682946E+02  0.00000000000E+00 0. -1.
         11    1    3    3    0    0 -0.20437855726E+02 -0.14782484435E+02  0.28441337519E+00  0.25225159741E+02  0.51100000000E-03 0. -1.
        -11    1    3    3    0    0 -0.95222195437E+01 -0.45331959777E+01  0.50622892185E+00  0.10558352087E+02  0.51100000000E-03 0.  1.
         12    1    3    3    0    0 -0.55988311162E+01 -0.80137373037E+01  0.34260692153E+01  0.10358805226E+02  0.00000000000E+00 0. -1.
</event>
<event>
 7    1  0.3046295E-009  0.4614232E+02  0.7816164E-02  0.1320468E+00
        -11   -1    0    0    0    0  0.00000000000E+00  0.00000000000E+00  0.45593999997E+02  0.45594000000E+02  0.51100000000E-03 0. -1.
         11   -1    0    0    0    0 -0.00000000000E+00 -0.00000000000E+00 -0.45593999997E+02  0.45594000000E+02  0.51100000000E-03 0.  1.
    9900012    2    1    2    0    0  0.26732884483E+02 -0.32203103607E+02 -0.16656120877E+02  0.46142319216E+02  0.10000013264E+02 0.  0.
         12    1    1    2    0    0 -0.26732884483E+02  0.32203103607E+02  0.16656120877E+02  0.45045680784E+02  0.00000000000E+00 0. -1.
         11    1    3    3    0    0  0.28317211379E+01 -0.38364747585E+01 -0.53313022589E+01  0.71526196050E+01  0.51100000000E-03 0. -1.
        -11    1    3    3    0    0  0.21540271837E+02 -0.26669816777E+02 -0.11251832958E+02  0.36081382774E+02  0.51100000000E-03 0.  1.
         12    1    3    3    0    0  0.23608915076E+01 -0.16968120710E+01 -0.72985660121E-01  0.29083168365E+01  0.00000000000E+00 0. -1.
</event>
<event>
 7    1  0.3046295E-009  0.4614231E+02  0.7816164E-02  0.1320468E+00
        -11   -1    0    0    0    0  0.00000000000E+00  0.00000000000E+00  0.45593999997E+02  0.45594000000E+02  0.51100000000E-03 0. -1.
         11   -1    0    0    0    0 -0.00000000000E+00 -0.00000000000E+00 -0.45593999997E+02  0.45594000000E+02  0.51100000000E-03 0.  1.
    9900012    2    1    2    0    0  0.36543898835E+02 -0.19385692211E+02 -0.17828418403E+02  0.46142310892E+02  0.99999373584E+01 0.  0.
         12    1    1    2    0    0 -0.36543898835E+02  0.19385692211E+02  0.17828418403E+02  0.45045689108E+02  0.00000000000E+00 0. -1.
         11    1    3    3    0    0  0.12282202967E+02 -0.51012110452E+01 -0.85099690569E+01  0.15789060689E+02  0.51100000000E-03 0. -1.
        -11    1    3    3    0    0  0.17751308167E+02 -0.13491643835E+02 -0.77982695236E+01  0.23620889120E+02  0.51100000000E-03 0.  1.
         12    1    3    3    0    0  0.65103877011E+01 -0.79283733073E+00 -0.15201798221E+01  0.67323610823E+01  0.00000000000E+00 0. -1.
</event>
<event>
 7    1  0.3046295E-009  0.4614232E+02  0.7816164E-02  0.1320468E+00
        -11   -1    0    0    0    0  0.00000000000E+00  0.00000000000E+00  0.45593999997E+02  0.45594000000E+02  0.51100000000E-03 0.  1.
         11   -1    0    0    0    0 -0.00000000000E+00 -0.00000000000E+00 -0.45593999997E+02  0.45594000000E+02  0.51100000000E-03 0. -1.
    9900012    2    1    2    0    0  0.40889428657E+02  0.16357973038E+02  0.94649329566E+01  0.46142316370E+02  0.99999873176E+01 0.  0.
         12    1    1    2    0    0 -0.40889428657E+02 -0.16357973038E+02 -0.94649329566E+01  0.45045683630E+02  0.00000000000E+00 0. -1.
         11    1    3    3    0    0  0.72383733626E+01  0.56201250969E+01  0.10433029219E+00  0.91646462077E+01  0.51100000000E-03 0. -1.
        -11    1    3    3    0    0  0.24678215072E+02  0.51766950274E+01  0.67535284894E+01  0.26104072822E+02  0.51100000000E-03 0.  1.
        -12    1    3    3    0    0  0.89728402217E+01  0.55611529140E+01  0.26070741750E+01  0.10873597341E+02  0.00000000000E+00 0.  1.
</event>
<event>
 7    1  0.3046295E-009  0.4614232E+02  0.7816164E-02  0.1320468E+00
        -11   -1    0    0    0    0  0.00000000000E+00  0.00000000000E+00  0.45593999997E+02  0.45594000000E+02  0.51100000000E-03 0.  1.
         11   -1    0    0    0    0 -0.00000000000E+00 -0.00000000000E+00 -0.45593999997E+02  0.45594000000E+02  0.51100000000E-03 0. -1.
    9900012    2    1    2    0    0 -0.57833456000E+01  0.31957572220E+02  0.31215059545E+02  0.46142318177E+02  0.10000003794E+02 0.  0.
         12    1    1    2    0    0  0.57833456000E+01 -0.31957572220E+02 -0.31215059545E+02  0.45045681823E+02  0.00000000000E+00 0. -1.
         11    1    3    3    0    0 -0.31064988755E+01  0.79766572897E+01  0.82430476412E+01  0.11883822258E+02  0.51100000000E-03 0. -1.
        -11    1    3    3    0    0 -0.36054434558E+01  0.79616694846E+01  0.46382608498E+01  0.98944867207E+01  0.51100000000E-03 0.  1.
        -12    1    3    3    0    0  0.92859673132E+00  0.16019245445E+02  0.18333751054E+02  0.24364009199E+02  0.00000000000E+00 0.  1.
</event>
<event>
 7    1  0.3046295E-009  0.4614232E+02  0.7816164E-02  0.1320468E+00
        -11   -1    0    0    0    0  0.00000000000E+00  0.00000000000E+00  0.45593999997E+02  0.45594000000E+02  0.51100000000E-03 0. -1.
         11   -1    0    0    0    0 -0.00000000000E+00 -0.00000000000E+00 -0.45593999997E+02  0.45594000000E+02  0.51100000000E-03 0.  1.
    9900012    2    1    2    0    0  0.19916066628E+02 -0.50945111372E+00 -0.40400547180E+02  0.46142318045E+02  0.10000002586E+02 0.  0.
         12    1    1    2    0    0 -0.19916066628E+02  0.50945111372E+00  0.40400547180E+02  0.45045681955E+02  0.00000000000E+00 0. -1.
         11    1    3    3    0    0  0.17032656181E+01  0.11562934277E+01 -0.91382604504E+01  0.93672798922E+01  0.51100000000E-03 0. -1.
        -11    1    3    3    0    0  0.11011961546E+02  0.11416056136E+01 -0.22600485120E+02  0.25166415883E+02  0.51100000000E-03 0.  1.
         12    1    3    3    0    0  0.72008394637E+01 -0.28073501550E+01 -0.86618016097E+01  0.11608622270E+02  0.00000000000E+00 0. -1.
</event>
<event>
 7    1  0.3046295E-009  0.4614232E+02  0.7816164E-02  0.1320468E+00
        -11   -1    0    0    0    0  0.00000000000E+00  0.00000000000E+00  0.45593999997E+02  0.45594000000E+02  0.51100000000E-03 0.  1.
         11   -1    0    0    0    0 -0.00000000000E+00 -0.00000000000E+00 -0.45593999997E+02  0.45594000000E+02  0.51100000000E-03 0. -1.
    9900012    2    1    2    0    0  0.36594810172E+02  0.59117665546E+00  0.26259929421E+02  0.46142317470E+02  0.99999973454E+01 0.  0.
         12    1    1    2    0    0 -0.36594810172E+02 -0.59117665546E+00 -0.26259929421E+02  0.45045682530E+02  0.00000000000E+00 0. -1.
         11    1    3    3    0    0  0.12710506371E+02  0.33966245558E+01  0.91989687647E+01  0.16053506071E+02  0.51100000000E-03 0. -1.
        -11    1    3    3    0    0  0.23971943687E+02 -0.31773900220E+01  0.17207997269E+02  0.29679370979E+02  0.51100000000E-03 0.  1.
         12    1    3    3    0    0 -0.87639886050E-01  0.37194212166E+00 -0.14703661201E+00  0.40944041906E+00  0.00000000000E+00 0. -1.
</event>
<event>
 7    1  0.3046295E-009  0.4614232E+02  0.7816164E-02  0.1320468E+00
        -11   -1    0    0    0    0  0.00000000000E+00  0.00000000000E+00  0.45593999997E+02  0.45594000000E+02  0.51100000000E-03 0. -1.
         11   -1    0    0    0    0 -0.00000000000E+00 -0.00000000000E+00 -0.45593999997E+02  0.45594000000E+02  0.51100000000E-03 0.  1.
    9900012    2    1    2    0    0  0.30090637095E+02 -0.33511579187E+02 -0.80068087806E+00  0.46142317962E+02  0.10000001833E+02 0.  0.
         12    1    1    2    0    0 -0.30090637095E+02  0.33511579187E+02  0.80068087806E+00  0.45045682038E+02  0.00000000000E+00 0. -1.
         11    1    3    3    0    0  0.13421293265E+02 -0.12549636233E+02 -0.68320779959E+00  0.18387257970E+02  0.51100000000E-03 0. -1.
        -11    1    3    3    0    0  0.15507830342E+02 -0.15536073799E+02 -0.16061136393E+01  0.22010042987E+02  0.51100000000E-03 0.  1.
         12    1    3    3    0    0  0.11615134877E+01 -0.54258691555E+01  0.14886405609E+01  0.57450170056E+01  0.00000000000E+00 0. -1.
</event>
<event>
 7    1  0.3046295E-009  0.4614232E+02  0.7816164E-02  0.1320468E+00
        -11   -1    0    0    0    0  0.00000000000E+00  0.00000000000E+00  0.45593999997E+02  0.45594000000E+02  0.51100000000E-03 0.  1.
         11   -1    0    0    0    0 -0.00000000000E+00 -0.00000000000E+00 -0.45593999997E+02  0.45594000000E+02  0.51100000000E-03 0. -1.
    9900012    2    1    2    0    0 -0.14257545747E+02 -0.40550632507E+02  0.13471533241E+02  0.46142316352E+02  0.99999871533E+01 0.  0.
         12    1    1    2    0    0  0.14257545747E+02  0.40550632507E+02 -0.13471533241E+02  0.45045683648E+02  0.00000000000E+00 0. -1.
         11    1    3    3    0    0 -0.49809541327E+01 -0.10728815861E+02  0.82203343463E+00  0.11857197522E+02  0.51100000000E-03 0. -1.
        -11    1    3    3    0    0  0.75499876945E+00 -0.13149872130E+01 -0.19901820259E-01  0.15164467864E+01  0.51100000000E-03 0.  1.
        -12    1    3    3    0    0 -0.10031590383E+02 -0.28506829433E+02  0.12669401627E+02  0.32768672044E+02  0.00000000000E+00 0.  1.
</event>
<event>
 7    1  0.3046295E-009  0.4614232E+02  0.7816164E-02  0.1320468E+00
        -11   -1    0    0    0    0  0.00000000000E+00  0.00000000000E+00  0.45593999997E+02  0.45594000000E+02  0.51100000000E-03 0. -1.
         11   -1    0    0    0    0 -0.00000000000E+00 -0.00000000000E+00 -0.45593999997E+02  0.45594000000E+02  0.51100000000E-03 0.  1.
    9900012    2    1    2    0    0  0.34973062281E+02  0.11604823508E+02 -0.25909967767E+02  0.46142318257E+02  0.10000004523E+02 0.  0.
         12    1    1    2    0    0 -0.34973062281E+02 -0.11604823508E+02  0.25909967767E+02  0.45045681743E+02  0.00000000000E+00 0. -1.
         11    1    3    3    0    0  0.29356656934E+01 -0.10494644836E+01 -0.69421672160E+00  0.31939702384E+01  0.51100000000E-03 0. -1.
        -11    1    3    3    0    0  0.78355558587E+01  0.44787418561E+01 -0.86546604823E+01  0.12504327753E+02  0.51100000000E-03 0.  1.
         12    1    3    3    0    0  0.24201840729E+02  0.81755461358E+01 -0.16561090564E+02  0.30444020266E+02  0.00000000000E+00 0. -1.
</event>
<event>
 7    1  0.3046295E-009  0.4614232E+02  0.7816164E-02  0.1320468E+00
        -11   -1    0    0    0    0  0.00000000000E+00  0.00000000000E+00  0.45593999997E+02  0.45594000000E+02  0.51100000000E-03 0.  1.
         11   -1    0    0    0    0 -0.00000000000E+00 -0.00000000000E+00 -0.45593999997E+02  0.45594000000E+02  0.51100000000E-03 0. -1.
    9900012    2    1    2    0    0  0.12916803106E+01 -0.14457255770E+02  0.42643086081E+02  0.46142317932E+02  0.10000001559E+02 0.  0.
         12    1    1    2    0    0 -0.12916803106E+01  0.14457255770E+02 -0.42643086081E+02  0.45045682068E+02  0.00000000000E+00 0. -1.
         11    1    3    3    0    0  0.14954448086E+00  0.91009202335E+00  0.36048479838E+01  0.37209622801E+01  0.51100000000E-03 0. -1.
        -11    1    3    3    0    0 -0.14887134025E+01 -0.38091170765E+01  0.55283964298E+01  0.68766858183E+01  0.51100000000E-03 0.  1.
        -12    1    3    3    0    0  0.26308492322E+01 -0.11558230717E+02  0.33509841668E+02  0.35544669834E+02  0.00000000000E+00 0.  1.
</event>
<event>
 7    1  0.3046295E-009  0.4614232E+02  0.7816164E-02  0.1320468E+00
        -11   -1    0    0    0    0  0.00000000000E+00  0.00000000000E+00  0.45593999997E+02  0.45594000000E+02  0.51100000000E-03 0.  1.
         11   -1    0    0    0    0 -0.00000000000E+00 -0.00000000000E+00 -0.45593999997E+02  0.45594000000E+02  0.51100000000E-03 0. -1.
    9900012    2    1    2    0    0  0.49143270666E+01  0.14783373162E+01  0.44752400701E+02  0.46142318073E+02  0.10000002843E+02 0.  0.
         12    1    1    2    0    0 -0.49143270666E+01 -0.14783373162E+01 -0.44752400701E+02  0.45045681927E+02  0.00000000000E+00 0. -1.
         11    1    3    3    0    0  0.17768048199E+01  0.92826814313E+00  0.99048556961E+00  0.22360185684E+01  0.51100000000E-03 0. -1.
        -11    1    3    3    0    0  0.42163333172E+00 -0.46912419459E+00  0.10070698115E+02  0.10090431752E+02  0.51100000000E-03 0.  1.
         12    1    3    3    0    0  0.27158889150E+01  0.10191933676E+01  0.33691217017E+02  0.33815867752E+02  0.00000000000E+00 0. -1.
</event>
<event>
 7    1  0.3046295E-009  0.4614232E+02  0.7816164E-02  0.1320468E+00
        -11   -1    0    0    0    0  0.00000000000E+00  0.00000000000E+00  0.45593999997E+02  0.45594000000E+02  0.51100000000E-03 0.  1.
         11   -1    0    0    0    0 -0.00000000000E+00 -0.00000000000E+00 -0.45593999997E+02  0.45594000000E+02  0.51100000000E-03 0. -1.
    9900012    2    1    2    0    0  0.19647569440E+02 -0.45903487286E+01  0.40274252693E+02  0.46142315231E+02  0.99999769273E+01 0.  0.
         12    1    1    2    0    0 -0.19647569440E+02  0.45903487286E+01 -0.40274252693E+02  0.45045684769E+02  0.00000000000E+00 0. -1.
         11    1    3    3    0    0  0.11752382643E+02 -0.34964380959E+01  0.16786334817E+02  0.20787607222E+02  0.51100000000E-03 0. -1.
        -11    1    3    3    0    0  0.35148423408E+01  0.20509825264E+01  0.84416839232E+01  0.93713752312E+01  0.51100000000E-03 0.  1.
         12    1    3    3    0    0  0.43803444560E+01 -0.31448931591E+01  0.15046233953E+02  0.15983332778E+02  0.00000000000E+00 0. -1.
</event>
<event>
 7    1  0.3046295E-009  0.4614232E+02  0.7816164E-02  0.1320468E+00
        -11   -1    0    0    0    0  0.00000000000E+00  0.00000000000E+00  0.45593999997E+02  0.45594000000E+02  0.51100000000E-03 0.  1.
         11   -1    0    0    0    0 -0.00000000000E+00 -0.00000000000E+00 -0.45593999997E+02  0.45594000000E+02  0.51100000000E-03 0. -1.
    9900012    2    1    2    0    0  0.27314937140E+02  0.31216943775E+02 -0.17564457675E+02  0.46142317155E+02  0.99999944686E+01 0.  0.
         12    1    1    2    0    0 -0.27314937140E+02 -0.31216943775E+02  0.17564457675E+02  0.45045682845E+02  0.00000000000E+00 0. -1.
         11    1    3    3    0    0  0.79454583258E+01  0.76095624715E+01 -0.55114128925E+01  0.12304934837E+02  0.51100000000E-03 0. -1.
        -11    1    3    3    0    0  0.96434490110E+01  0.12838345847E+02 -0.19922335143E+01  0.16179871061E+02  0.51100000000E-03 0.  1.
        -12    1    3    3    0    0  0.97260298032E+01  0.10769035456E+02 -0.10060811268E+02  0.17657511256E+02  0.00000000000E+00 0.  1.
</event>
<event>
 7    1  0.3046295E-009  0.4614232E+02  0.7816164E-02  0.1320468E+00
        -11   -1    0    0    0    0  0.00000000000E+00  0.00000000000E+00  0.45593999997E+02  0.45594000000E+02  0.51100000000E-03 0. -1.
         11   -1    0    0    0    0 -0.00000000000E+00 -0.00000000000E+00 -0.45593999997E+02  0.45594000000E+02  0.51100000000E-03 0.  1.
    9900012    2    1    2    0    0  0.11800546285E+02 -0.34255230099E+02 -0.26766389194E+02  0.46142320160E+02  0.10000021875E+02 0.  0.
         12    1    1    2    0    0 -0.11800546285E+02  0.34255230099E+02  0.26766389194E+02  0.45045679840E+02  0.00000000000E+00 0. -1.
         11    1    3    3    0    0  0.72140959770E+01 -0.12840286686E+02 -0.13226666279E+02  0.19795475343E+02  0.51100000000E-03 0. -1.
        -11    1    3    3    0    0  0.33932668656E+01 -0.20940365933E+02 -0.13307208330E+02  0.25041864532E+02  0.51100000000E-03 0.  1.
        -12    1    3    3    0    0  0.11931834428E+01 -0.47457747929E+00 -0.23251458591E+00  0.13049802852E+01  0.00000000000E+00 0.  1.
</event>
<event>
 7    1  0.3046295E-009  0.4614232E+02  0.7816164E-02  0.1320468E+00
        -11   -1    0    0    0    0  0.00000000000E+00  0.00000000000E+00  0.45593999997E+02  0.45594000000E+02  0.51100000000E-03 0. -1.
         11   -1    0    0    0    0 -0.00000000000E+00 -0.00000000000E+00 -0.45593999997E+02  0.45594000000E+02  0.51100000000E-03 0.  1.
    9900012    2    1    2    0    0  0.44297649540E+02 -0.70609705465E+01 -0.41199974600E+01  0.46142318311E+02  0.10000005010E+02 0.  0.
         12    1    1    2    0    0 -0.44297649540E+02  0.70609705465E+01  0.41199974600E+01  0.45045681689E+02  0.00000000000E+00 0. -1.
         11    1    3    3    0    0  0.15866590729E+02 -0.73874096165E+01 -0.13254904198E+01  0.17552192095E+02  0.51100000000E-03 0. -1.
        -11    1    3    3    0    0  0.11371559351E+02  0.62927380837E-01 -0.16425478008E+01  0.11489746971E+02  0.51100000000E-03 0.  1.
         12    1    3    3    0    0  0.17059499460E+02  0.26351168918E+00 -0.11519592395E+01  0.17100379245E+02  0.00000000000E+00 0. -1.
</event>
<event>
 7    1  0.3046295E-009  0.4614232E+02  0.7816164E-02  0.1320468E+00
        -11   -1    0    0    0    0  0.00000000000E+00  0.00000000000E+00  0.45593999997E+02  0.45594000000E+02  0.51100000000E-03 0.  1.
         11   -1    0    0    0    0 -0.00000000000E+00 -0.00000000000E+00 -0.45593999997E+02  0.45594000000E+02  0.51100000000E-03 0. -1.
    9900012    2    1    2    0    0 -0.79981445649E+01  0.83231665114E+01  0.43541567448E+02  0.46142317487E+02  0.99999975007E+01 0.  0.
         12    1    1    2    0    0  0.79981445649E+01 -0.83231665114E+01 -0.43541567448E+02  0.45045682513E+02  0.00000000000E+00 0. -1.
         11    1    3    3    0    0 -0.28682613563E+01 -0.26562758531E+00  0.29772900224E+01  0.41426727316E+01  0.51100000000E-03 0. -1.
        -11    1    3    3    0    0 -0.28063905643E+01  0.10758541157E+01  0.12282817895E+02  0.12645192991E+02  0.51100000000E-03 0.  1.
         12    1    3    3    0    0 -0.23234926443E+01  0.75129399809E+01  0.28281459531E+02  0.29354451765E+02  0.00000000000E+00 0. -1.
</event>
<event>
 7    1  0.3902920E-009  0.4614232E+02  0.7816164E-02  0.1320468E+00
        -11   -1    0    0    0    0  0.00000000000E+00  0.00000000000E+00  0.45593999997E+02  0.45594000000E+02  0.51100000000E-03 0.  1.
         11   -1    0    0    0    0 -0.00000000000E+00 -0.00000000000E+00 -0.45593999997E+02  0.45594000000E+02  0.51100000000E-03 0. -1.
    9900012    2    1    2    0    0  0.15943696566E+02 -0.40649190282E+02 -0.11070479531E+02  0.46142315991E+02  0.99999838602E+01 0.  0.
         12    1    1    2    0    0 -0.15943696566E+02  0.40649190282E+02  0.11070479531E+02  0.45045684009E+02  0.00000000000E+00 0. -1.
         11    1    3    3    0    0 -0.43181791420E+00 -0.11470572983E+01 -0.96044113377E+00  0.15571302416E+01  0.51100000000E-03 0. -1.
        -11    1    3    3    0    0  0.88393165691E+01 -0.29125930763E+02 -0.88557358003E+01  0.31699801530E+02  0.51100000000E-03 0.  1.
        -12    1    3    3    0    0  0.75361979109E+01 -0.10376202221E+02 -0.12543025969E+01  0.12885384220E+02  0.00000000000E+00 0.  1.
</event>
<event>
 7    1  0.3046295E-009  0.4614232E+02  0.7816164E-02  0.1320468E+00
        -11   -1    0    0    0    0  0.00000000000E+00  0.00000000000E+00  0.45593999997E+02  0.45594000000E+02  0.51100000000E-03 0. -1.
         11   -1    0    0    0    0 -0.00000000000E+00 -0.00000000000E+00 -0.45593999997E+02  0.45594000000E+02  0.51100000000E-03 0.  1.
    9900012    2    1    2    0    0  0.35133416236E+02  0.11626033403E+02 -0.25682519598E+02  0.46142318719E+02  0.10000008738E+02 0.  0.
         12    1    1    2    0    0 -0.35133416236E+02 -0.11626033403E+02  0.25682519598E+02  0.45045681281E+02  0.00000000000E+00 0. -1.
         11    1    3    3    0    0  0.71726172708E+01  0.94605202763E+00 -0.33049744350E+01  0.79538864230E+01  0.51100000000E-03 0. -1.
        -11    1    3    3    0    0  0.14486579206E+02  0.14038439010E+01 -0.11406191120E+02  0.18491429121E+02  0.51100000000E-03 0.  1.
         12    1    3    3    0    0  0.13474219760E+02  0.92761374745E+01 -0.10971354043E+02  0.19697003176E+02  0.00000000000E+00 0. -1.
</event>
<event>
 7    1  0.3057096E-009  0.4614232E+02  0.7816164E-02  0.1320468E+00
        -11   -1    0    0    0    0  0.00000000000E+00  0.00000000000E+00  0.45593999997E+02  0.45594000000E+02  0.51100000000E-03 0. -1.
         11   -1    0    0    0    0 -0.00000000000E+00 -0.00000000000E+00 -0.45593999997E+02  0.45594000000E+02  0.51100000000E-03 0.  1.
    9900012    2    1    2    0    0  0.54437492165E+01 -0.36953660660E+02 -0.25177489843E+02  0.46142318337E+02  0.10000005253E+02 0.  0.
         12    1    1    2    0    0 -0.54437492165E+01  0.36953660660E+02  0.25177489843E+02  0.45045681663E+02  0.00000000000E+00 0. -1.
         11    1    3    3    0    0  0.36305919976E+01 -0.73788082962E+01 -0.54339693563E+01  0.98567760120E+01  0.51100000000E-03 0. -1.
        -11    1    3    3    0    0  0.13386368139E+01 -0.22991932298E+02 -0.18563657833E+02  0.29580910934E+02  0.51100000000E-03 0.  1.
        -12    1    3    3    0    0  0.47452040503E+00 -0.65829200659E+01 -0.11798626536E+01  0.67046313911E+01  0.00000000000E+00 0.  1.
</event>
<event>
 7    1  0.3046295E-009  0.4614232E+02  0.7816164E-02  0.1320468E+00
        -11   -1    0    0    0    0  0.00000000000E+00  0.00000000000E+00  0.45593999997E+02  0.45594000000E+02  0.51100000000E-03 0.  1.
         11   -1    0    0    0    0 -0.00000000000E+00 -0.00000000000E+00 -0.45593999997E+02  0.45594000000E+02  0.51100000000E-03 0. -1.
    9900012    2    1    2    0    0 -0.30626016229E+01  0.18191656025E+02  0.41094982435E+02  0.46142318087E+02  0.10000002973E+02 0.  0.
         12    1    1    2    0    0  0.30626016229E+01 -0.18191656025E+02 -0.41094982435E+02  0.45045681913E+02  0.00000000000E+00 0. -1.
         11    1    3    3    0    0 -0.17811026415E-01  0.16156267075E+02  0.27561286028E+02  0.31947609783E+02  0.51100000000E-03 0. -1.
        -11    1    3    3    0    0 -0.98504193200E+00  0.19714295828E+01  0.63671496604E+01  0.67377620370E+01  0.51100000000E-03 0.  1.
         12    1    3    3    0    0 -0.20597486645E+01  0.63959366912E-01  0.71665467470E+01  0.74569462677E+01  0.00000000000E+00 0. -1.
</event>
<event>
 7    1  0.3046295E-009  0.4614232E+02  0.7816164E-02  0.1320468E+00
        -11   -1    0    0    0    0  0.00000000000E+00  0.00000000000E+00  0.45593999997E+02  0.45594000000E+02  0.51100000000E-03 0. -1.
         11   -1    0    0    0    0 -0.00000000000E+00 -0.00000000000E+00 -0.45593999997E+02  0.45594000000E+02  0.51100000000E-03 0.  1.
    9900012    2    1    2    0    0 -0.32871336937E+01 -0.39345479286E+02 -0.21685053312E+02  0.46142317351E+02  0.99999962571E+01 0.  0.
         12    1    1    2    0    0  0.32871336937E+01  0.39345479286E+02  0.21685053312E+02  0.45045682649E+02  0.00000000000E+00 0. -1.
         11    1    3    3    0    0 -0.39056068337E+01 -0.26839338404E+02 -0.17632962514E+02  0.32350042009E+02  0.51100000000E-03 0. -1.
        -11    1    3    3    0    0 -0.15673874326E+01 -0.82482137887E+01 -0.26828873381E+01  0.88140580210E+01  0.51100000000E-03 0.  1.
         12    1    3    3    0    0  0.21858605725E+01 -0.42579270936E+01 -0.13692034605E+01  0.49782173208E+01  0.00000000000E+00 0. -1.
</event>
<event>
 7    1  0.3046295E-009  0.4614232E+02  0.7816164E-02  0.1320468E+00
        -11   -1    0    0    0    0  0.00000000000E+00  0.00000000000E+00  0.45593999997E+02  0.45594000000E+02  0.51100000000E-03 0.  1.
         11   -1    0    0    0    0 -0.00000000000E+00 -0.00000000000E+00 -0.45593999997E+02  0.45594000000E+02  0.51100000000E-03 0. -1.
    9900012    2    1    2    0    0 -0.29650192538E+02 -0.33886078148E+02 -0.13089182152E+01  0.46142317891E+02  0.10000001182E+02 0.  0.
         12    1    1    2    0    0  0.29650192538E+02  0.33886078148E+02  0.13089182152E+01  0.45045682109E+02  0.00000000000E+00 0. -1.
         11    1    3    3    0    0 -0.40054640592E+00 -0.35177380456E+01 -0.10732673398E+01  0.36995704378E+01  0.51100000000E-03 0. -1.
        -11    1    3    3    0    0 -0.18515174687E+02 -0.15799826957E+02  0.20975758919E+00  0.24341122079E+02  0.51100000000E-03 0.  1.
        -12    1    3    3    0    0 -0.10734471445E+02 -0.14568513146E+02 -0.44540846456E+00  0.18101625374E+02  0.00000000000E+00 0.  1.
</event>
<event>
 7    1  0.3165032E-009  0.4614232E+02  0.7816164E-02  0.1320468E+00
        -11   -1    0    0    0    0  0.00000000000E+00  0.00000000000E+00  0.45593999997E+02  0.45594000000E+02  0.51100000000E-03 0.  1.
         11   -1    0    0    0    0 -0.00000000000E+00 -0.00000000000E+00 -0.45593999997E+02  0.45594000000E+02  0.51100000000E-03 0. -1.
    9900012    2    1    2    0    0 -0.12166025585E+02 -0.32390082742E+02  0.28844129664E+02  0.46142318135E+02  0.10000003412E+02 0.  0.
         12    1    1    2    0    0  0.12166025585E+02  0.32390082742E+02 -0.28844129664E+02  0.45045681865E+02  0.00000000000E+00 0. -1.
         11    1    3    3    0    0  0.96477307905E+00 -0.24214221544E+01  0.16138091319E+01  0.30656895667E+01  0.51100000000E-03 0. -1.
        -11    1    3    3    0    0 -0.97308925859E+01 -0.15109059507E+02  0.16842286531E+02  0.24629993210E+02  0.51100000000E-03 0.  1.
        -12    1    3    3    0    0 -0.33999060777E+01 -0.14859601081E+02  0.10388034002E+02  0.18446635358E+02  0.00000000000E+00 0.  1.
</event>
<event>
 7    1  0.3046295E-009  0.4614232E+02  0.7816164E-02  0.1320468E+00
        -11   -1    0    0    0    0  0.00000000000E+00  0.00000000000E+00  0.45593999997E+02  0.45594000000E+02  0.51100000000E-03 0. -1.
         11   -1    0    0    0    0 -0.00000000000E+00 -0.00000000000E+00 -0.45593999997E+02  0.45594000000E+02  0.51100000000E-03 0.  1.
    9900012    2    1    2    0    0  0.40319733867E+02 -0.19476382523E+02  0.49094872604E+01  0.46142317849E+02  0.10000000798E+02 0.  0.
         12    1    1    2    0    0 -0.40319733867E+02  0.19476382523E+02 -0.49094872604E+01  0.45045682151E+02  0.00000000000E+00 0. -1.
         11    1    3    3    0    0  0.86477156826E+01 -0.96120188905E+00 -0.10396466334E+01  0.87628626021E+01  0.51100000000E-03 0.  1.
        -11    1    3    3    0    0  0.16093698409E+02 -0.76504457605E+01  0.41887403296E+01  0.18305245003E+02  0.51100000000E-03 0. -1.
         12    1    3    3    0    0  0.15578319776E+02 -0.10864734874E+02  0.17603935642E+01  0.19074210244E+02  0.00000000000E+00 0. -1.
</event>
<event>
 7    1  0.3046295E-009  0.4614231E+02  0.7816164E-02  0.1320468E+00
        -11   -1    0    0    0    0  0.00000000000E+00  0.00000000000E+00  0.45593999997E+02  0.45594000000E+02  0.51100000000E-03 0.  1.
         11   -1    0    0    0    0 -0.00000000000E+00 -0.00000000000E+00 -0.45593999997E+02  0.45594000000E+02  0.51100000000E-03 0. -1.
    9900012    2    1    2    0    0 -0.27737034925E+02 -0.14477849201E+02  0.32406216093E+02  0.46142311356E+02  0.99999415974E+01 0.  0.
         12    1    1    2    0    0  0.27737034925E+02  0.14477849201E+02 -0.32406216093E+02  0.45045688644E+02  0.00000000000E+00 0. -1.
         11    1    3    3    0    0 -0.27759451638E+02 -0.14930240344E+02  0.30813239267E+02  0.44078962628E+02  0.51100000000E-03 0.  1.
        -11    1    3    3    0    0  0.39187209647E+00  0.10285579443E+00  0.14904311452E+01  0.15445155597E+01  0.51100000000E-03 0. -1.
        -12    1    3    3    0    0 -0.36945538357E+00  0.34953534888E+00  0.10254568081E+00  0.51883316896E+00  0.00000000000E+00 0.  1.
</event>
<event>
 7    1  0.3046295E-009  0.4614232E+02  0.7816164E-02  0.1320468E+00
        -11   -1    0    0    0    0  0.00000000000E+00  0.00000000000E+00  0.45593999997E+02  0.45594000000E+02  0.51100000000E-03 0.  1.
         11   -1    0    0    0    0 -0.00000000000E+00 -0.00000000000E+00 -0.45593999997E+02  0.45594000000E+02  0.51100000000E-03 0. -1.
    9900012    2    1    2    0    0 -0.13712515582E+02  0.20290117852E+02  0.37807294524E+02  0.46142317795E+02  0.10000000312E+02 0.  0.
         12    1    1    2    0    0  0.13712515582E+02 -0.20290117852E+02 -0.37807294524E+02  0.45045682205E+02  0.00000000000E+00 0. -1.
         11    1    3    3    0    0 -0.87961885296E+00 -0.35833560006E+00  0.49563768955E+01  0.50465637735E+01  0.51100000000E-03 0. -1.
        -11    1    3    3    0    0 -0.57120795642E+01  0.79063875995E+01  0.99115103431E+01  0.13906000696E+02  0.51100000000E-03 0.  1.
         12    1    3    3    0    0 -0.71208171651E+01  0.12742065852E+02  0.22939407286E+02  0.27189753326E+02  0.00000000000E+00 0. -1.
</event>
<event>
 7    1  0.3046295E-009  0.4614232E+02  0.7816164E-02  0.1320468E+00
        -11   -1    0    0    0    0  0.00000000000E+00  0.00000000000E+00  0.45593999997E+02  0.45594000000E+02  0.51100000000E-03 0.  1.
         11   -1    0    0    0    0 -0.00000000000E+00 -0.00000000000E+00 -0.45593999997E+02  0.45594000000E+02  0.51100000000E-03 0. -1.
    9900012    2    1    2    0    0 -0.64496681222E+01  0.36683501273E+01  0.44430378816E+02  0.46142316819E+02  0.99999914092E+01 0.  0.
         12    1    1    2    0    0  0.64496681222E+01 -0.36683501273E+01 -0.44430378816E+02  0.45045683181E+02  0.00000000000E+00 0. -1.
         11    1    3    3    0    0 -0.29874806171E+00  0.96810299809E+00  0.13808265794E+02  0.13845384730E+02  0.51100000000E-03 0. -1.
        -11    1    3    3    0    0 -0.57190341843E+01 -0.13536852374E+01  0.14028194652E+02  0.15209538494E+02  0.51100000000E-03 0.  1.
        -12    1    3    3    0    0 -0.43188587627E+00  0.40539323667E+01  0.16593918369E+02  0.17087393596E+02  0.00000000000E+00 0.  1.
</event>
<event>
 7    1  0.3046295E-009  0.4614232E+02  0.7816164E-02  0.1320468E+00
        -11   -1    0    0    0    0  0.00000000000E+00  0.00000000000E+00  0.45593999997E+02  0.45594000000E+02  0.51100000000E-03 0.  1.
         11   -1    0    0    0    0 -0.00000000000E+00 -0.00000000000E+00 -0.45593999997E+02  0.45594000000E+02  0.51100000000E-03 0. -1.
    9900012    2    1    2    0    0  0.31041246252E+02  0.63554617988E+00 -0.32636646422E+02  0.46142316772E+02  0.99999909800E+01 0.  0.
         12    1    1    2    0    0 -0.31041246252E+02 -0.63554617988E+00  0.32636646422E+02  0.45045683228E+02  0.00000000000E+00 0. -1.
         11    1    3    3    0    0  0.95267403754E+01 -0.43720502815E+01 -0.10370462340E+02  0.14745171930E+02  0.51100000000E-03 0. -1.
        -11    1    3    3    0    0  0.13316370399E+00 -0.81478744799E-01 -0.18490771045E+00  0.24199686035E+00  0.51100000000E-03 0.  1.
         12    1    3    3    0    0  0.21381342173E+02  0.50890752062E+01 -0.22081276372E+02  0.31155147982E+02  0.00000000000E+00 0. -1.
</event>
<event>
 7    1  0.3046295E-009  0.4614232E+02  0.7816164E-02  0.1320468E+00
        -11   -1    0    0    0    0  0.00000000000E+00  0.00000000000E+00  0.45593999997E+02  0.45594000000E+02  0.51100000000E-03 0.  1.
         11   -1    0    0    0    0 -0.00000000000E+00 -0.00000000000E+00 -0.45593999997E+02  0.45594000000E+02  0.51100000000E-03 0. -1.
    9900012    2    1    2    0    0 -0.13420761702E+02  0.29091016993E+02  0.31665586535E+02  0.46142317799E+02  0.10000000346E+02 0.  0.
         12    1    1    2    0    0  0.13420761702E+02 -0.29091016993E+02 -0.31665586535E+02  0.45045682201E+02  0.00000000000E+00 0. -1.
         11    1    3    3    0    0  0.41464984964E+00  0.77548202120E+00  0.92896346118E+00  0.12791716993E+01  0.51100000000E-03 0. -1.
        -11    1    3    3    0    0 -0.56260934795E+01  0.19454082044E+02  0.16005652987E+02  0.25812693850E+02  0.51100000000E-03 0.  1.
        -12    1    3    3    0    0 -0.82093180719E+01  0.88614529274E+01  0.14730970087E+02  0.19050452249E+02  0.00000000000E+00 0.  1.
</event>
<event>
 7    1  0.3046295E-009  0.4614232E+02  0.7816164E-02  0.1320468E+00
        -11   -1    0    0    0    0  0.00000000000E+00  0.00000000000E+00  0.45593999997E+02  0.45594000000E+02  0.51100000000E-03 0.  1.
         11   -1    0    0    0    0 -0.00000000000E+00 -0.00000000000E+00 -0.45593999997E+02  0.45594000000E+02  0.51100000000E-03 0. -1.
    9900012    2    1    2    0    0 -0.44512111602E+02  0.23975736495E+01  0.64835944879E+01  0.46142318341E+02  0.10000005288E+02 0.  0.
         12    1    1    2    0    0  0.44512111602E+02 -0.23975736495E+01 -0.64835944879E+01  0.45045681659E+02  0.00000000000E+00 0. -1.
         11    1    3    3    0    0 -0.10461728541E+02  0.31094269668E-01 -0.17734709069E+01  0.10611028708E+02  0.51100000000E-03 0. -1.
        -11    1    3    3    0    0 -0.33087016907E+02  0.30881445766E+01  0.73759464113E+01  0.34039563900E+02  0.51100000000E-03 0.  1.
         12    1    3    3    0    0 -0.96336615327E+00 -0.72166519675E+00  0.88111898345E+00  0.14917257337E+01  0.00000000000E+00 0. -1.
</event>
<event>
 7    1  0.3046295E-009  0.4614232E+02  0.7816164E-02  0.1320468E+00
        -11   -1    0    0    0    0  0.00000000000E+00  0.00000000000E+00  0.45593999997E+02  0.45594000000E+02  0.51100000000E-03 0.  1.
         11   -1    0    0    0    0 -0.00000000000E+00 -0.00000000000E+00 -0.45593999997E+02  0.45594000000E+02  0.51100000000E-03 0. -1.
    9900012    2    1    2    0    0  0.10933222009E+02 -0.15413796277E+02  0.40890008236E+02  0.46142320599E+02  0.10000025876E+02 0.  0.
         12    1    1    2    0    0 -0.10933222009E+02  0.15413796277E+02 -0.40890008236E+02  0.45045679401E+02  0.00000000000E+00 0. -1.
         11    1    3    3    0    0  0.92967468919E+01 -0.74296861334E+01  0.17399373122E+02  0.21080036151E+02  0.51100000000E-03 0. -1.
        -11    1    3    3    0    0  0.14961880006E+00 -0.64106237343E+01  0.15278195794E+02  0.16569301416E+02  0.51100000000E-03 0.  1.
         12    1    3    3    0    0  0.14868563175E+01 -0.15734864090E+01  0.82124393205E+01  0.84929830319E+01  0.00000000000E+00 0. -1.
</event>
<event>
 7    1  0.3046295E-009  0.4614232E+02  0.7816164E-02  0.1320468E+00
        -11   -1    0    0    0    0  0.00000000000E+00  0.00000000000E+00  0.45593999997E+02  0.45594000000E+02  0.51100000000E-03 0. -1.
         11   -1    0    0    0    0 -0.00000000000E+00 -0.00000000000E+00 -0.45593999997E+02  0.45594000000E+02  0.51100000000E-03 0.  1.
    9900012    2    1    2    0    0  0.12900869108E+02 -0.30765629329E+02 -0.30268082679E+02  0.46142320953E+02  0.10000029103E+02 0.  0.
         12    1    1    2    0    0 -0.12900869108E+02  0.30765629329E+02  0.30268082679E+02  0.45045679047E+02  0.00000000000E+00 0. -1.
         11    1    3    3    0    0  0.22775830987E+00  0.38896587558E+00 -0.12375598576E+01  0.13170888210E+01  0.51100000000E-03 0. -1.
        -11    1    3    3    0    0  0.90916283043E+01 -0.27257462054E+02 -0.25849366884E+02  0.38649925116E+02  0.51100000000E-03 0.  1.
         12    1    3    3    0    0  0.35814824934E+01 -0.38971331506E+01 -0.31811559376E+01  0.61753070161E+01  0.00000000000E+00 0. -1.
</event>
<event>
 7    1  0.3046295E-009  0.4614232E+02  0.7816164E-02  0.1320468E+00
        -11   -1    0    0    0    0  0.00000000000E+00  0.00000000000E+00  0.45593999997E+02  0.45594000000E+02  0.51100000000E-03 0. -1.
         11   -1    0    0    0    0 -0.00000000000E+00 -0.00000000000E+00 -0.45593999997E+02  0.45594000000E+02  0.51100000000E-03 0.  1.
    9900012    2    1    2    0    0  0.71280706354E+01 -0.57216718665E-01 -0.44478094626E+02  0.46142316896E+02  0.99999921106E+01 0.  0.
         12    1    1    2    0    0 -0.71280706354E+01  0.57216718665E-01  0.44478094626E+02  0.45045683104E+02  0.00000000000E+00 0. -1.
         11    1    3    3    0    0  0.46371334031E+01  0.21566306741E+01 -0.10377872516E+02  0.11569541922E+02  0.51100000000E-03 0. -1.
        -11    1    3    3    0    0 -0.10286483985E+01 -0.18651959991E+01 -0.11151079618E+02  0.11352693537E+02  0.51100000000E-03 0.  1.
         12    1    3    3    0    0  0.35195856308E+01 -0.34865139364E+00 -0.22949142492E+02  0.23220081436E+02  0.00000000000E+00 0. -1.
</event>
<event>
 7    1  0.3046295E-009  0.4614232E+02  0.7816164E-02  0.1320468E+00
        -11   -1    0    0    0    0  0.00000000000E+00  0.00000000000E+00  0.45593999997E+02  0.45594000000E+02  0.51100000000E-03 0.  1.
         11   -1    0    0    0    0 -0.00000000000E+00 -0.00000000000E+00 -0.45593999997E+02  0.45594000000E+02  0.51100000000E-03 0. -1.
    9900012    2    1    2    0    0  0.41349152273E+02 -0.13080445836E+02  0.12176328625E+02  0.46142318345E+02  0.10000005322E+02 0.  0.
         12    1    1    2    0    0 -0.41349152273E+02  0.13080445836E+02 -0.12176328625E+02  0.45045681655E+02  0.00000000000E+00 0. -1.
         11    1    3    3    0    0  0.72945309652E+01 -0.46469362142E+01  0.47111011204E+01  0.98487903932E+01  0.51100000000E-03 0. -1.
        -11    1    3    3    0    0  0.22093786903E+02 -0.49203623789E+01  0.74431030735E+01  0.23827403746E+02  0.51100000000E-03 0.  1.
         12    1    3    3    0    0  0.11960834405E+02 -0.35131472432E+01  0.22124431298E-01  0.12466124205E+02  0.00000000000E+00 0. -1.
</event>
<event>
 7    1  0.3046295E-009  0.4614232E+02  0.7816164E-02  0.1320468E+00
        -11   -1    0    0    0    0  0.00000000000E+00  0.00000000000E+00  0.45593999997E+02  0.45594000000E+02  0.51100000000E-03 0.  1.
         11   -1    0    0    0    0 -0.00000000000E+00 -0.00000000000E+00 -0.45593999997E+02  0.45594000000E+02  0.51100000000E-03 0. -1.
    9900012    2    1    2    0    0  0.34240188509E+01  0.34116803202E+02  0.29213582300E+02  0.46142317003E+02  0.99999930904E+01 0.  0.
         12    1    1    2    0    0 -0.34240188509E+01 -0.34116803202E+02 -0.29213582300E+02  0.45045682997E+02  0.00000000000E+00 0. -1.
         11    1    3    3    0    0 -0.75319504926E+00  0.24410408947E+02  0.19348124962E+02  0.31157427807E+02  0.51100000000E-03 0. -1.
        -11    1    3    3    0    0  0.68521113919E+00  0.56955870068E+01  0.65987829758E+01  0.87437499210E+01  0.51100000000E-03 0.  1.
         12    1    3    3    0    0  0.34920027609E+01  0.40108072484E+01  0.32666743622E+01  0.62411392754E+01  0.00000000000E+00 0. -1.
</event>
<event>
 7    1  0.3046295E-009  0.4614232E+02  0.7816164E-02  0.1320468E+00
        -11   -1    0    0    0    0  0.00000000000E+00  0.00000000000E+00  0.45593999997E+02  0.45594000000E+02  0.51100000000E-03 0.  1.
         11   -1    0    0    0    0 -0.00000000000E+00 -0.00000000000E+00 -0.45593999997E+02  0.45594000000E+02  0.51100000000E-03 0. -1.
    9900012    2    1    2    0    0 -0.11256819362E+02  0.41438803416E+02  0.13609664947E+02  0.46142318845E+02  0.10000009883E+02 0.  0.
         12    1    1    2    0    0  0.11256819362E+02 -0.41438803416E+02 -0.13609664947E+02  0.45045681155E+02  0.00000000000E+00 0. -1.
         11    1    3    3    0    0 -0.11372069483E+01  0.84050271314E+01 -0.66849491941E+00  0.85079143414E+01  0.51100000000E-03 0. -1.
        -11    1    3    3    0    0 -0.63485026725E+01  0.25279557317E+02  0.92760901026E+01  0.27665960171E+02  0.51100000000E-03 0.  1.
         12    1    3    3    0    0 -0.37711097417E+01  0.77542189683E+01  0.50020697642E+01  0.99684443330E+01  0.00000000000E+00 0. -1.
</event>
<event>
 7    1  0.3046295E-009  0.4614232E+02  0.7816164E-02  0.1320468E+00
        -11   -1    0    0    0    0  0.00000000000E+00  0.00000000000E+00  0.45593999997E+02  0.45594000000E+02  0.51100000000E-03 0. -1.
         11   -1    0    0    0    0 -0.00000000000E+00 -0.00000000000E+00 -0.45593999997E+02  0.45594000000E+02  0.51100000000E-03 0.  1.
    9900012    2    1    2    0    0  0.43391986968E+02 -0.59479951849E+01  0.10529500692E+02  0.46142316915E+02  0.99999922869E+01 0.  0.
         12    1    1    2    0    0 -0.43391986968E+02  0.59479951849E+01 -0.10529500692E+02  0.45045683085E+02  0.00000000000E+00 0. -1.
         11    1    3    3    0    0  0.18016731890E+02 -0.47741274236E+01  0.47037866954E+01  0.19222916798E+02  0.51100000000E-03 0.  1.
        -11    1    3    3    0    0  0.48007043659E+01  0.44988038014E+00  0.38807033875E+01  0.61894275832E+01  0.51100000000E-03 0. -1.
        -12    1    3    3    0    0  0.20574550712E+02 -0.16237481415E+01  0.19450106093E+01  0.20729972535E+02  0.00000000000E+00 0.  1.
</event>
<event>
 7    1  0.3046295E-009  0.4614232E+02  0.7816164E-02  0.1320468E+00
        -11   -1    0    0    0    0  0.00000000000E+00  0.00000000000E+00  0.45593999997E+02  0.45594000000E+02  0.51100000000E-03 0.  1.
         11   -1    0    0    0    0 -0.00000000000E+00 -0.00000000000E+00 -0.45593999997E+02  0.45594000000E+02  0.51100000000E-03 0. -1.
    9900012    2    1    2    0    0  0.10238108364E+02 -0.23909953037E+02  0.36777828945E+02  0.46142318531E+02  0.10000007020E+02 0.  0.
         12    1    1    2    0    0 -0.10238108364E+02  0.23909953037E+02 -0.36777828945E+02  0.45045681469E+02  0.00000000000E+00 0. -1.
         11    1    3    3    0    0 -0.25427746309E+00 -0.70310580048E+00  0.12698494149E+01  0.14736120903E+01  0.51100000000E-03 0. -1.
        -11    1    3    3    0    0  0.10249815960E+02 -0.19750926633E+02  0.24353665665E+02  0.32988768720E+02  0.51100000000E-03 0.  1.
        -12    1    3    3    0    0  0.24256986690E+00 -0.34559206034E+01  0.11154313865E+02  0.11679937720E+02  0.00000000000E+00 0.  1.
</event>
<event>
 7    1  0.3046295E-009  0.4614231E+02  0.7816164E-02  0.1320468E+00
        -11   -1    0    0    0    0  0.00000000000E+00  0.00000000000E+00  0.45593999997E+02  0.45594000000E+02  0.51100000000E-03 0. -1.
         11   -1    0    0    0    0 -0.00000000000E+00 -0.00000000000E+00 -0.45593999997E+02  0.45594000000E+02  0.51100000000E-03 0.  1.
    9900012    2    1    2    0    0 -0.88161432379E+01 -0.15814887764E+02 -0.41246560653E+02  0.46142314055E+02  0.99999662055E+01 0.  0.
         12    1    1    2    0    0  0.88161432379E+01  0.15814887764E+02  0.41246560653E+02  0.45045685945E+02  0.00000000000E+00 0. -1.
         11    1    3    3    0    0 -0.28022080816E+01 -0.55908476535E+01 -0.13344704052E+02  0.14737403914E+02  0.51100000000E-03 0. -1.
        -11    1    3    3    0    0 -0.58236964462E+01 -0.11611155325E+02 -0.25686473981E+02  0.28784185139E+02  0.51100000000E-03 0.  1.
        -12    1    3    3    0    0 -0.19023871009E+00  0.13871152149E+01 -0.22153826191E+01  0.26207250019E+01  0.00000000000E+00 0.  1.
</event>
<event>
 7    1  0.3046295E-009  0.4614232E+02  0.7816164E-02  0.1320468E+00
        -11   -1    0    0    0    0  0.00000000000E+00  0.00000000000E+00  0.45593999997E+02  0.45594000000E+02  0.51100000000E-03 0.  1.
         11   -1    0    0    0    0 -0.00000000000E+00 -0.00000000000E+00 -0.45593999997E+02  0.45594000000E+02  0.51100000000E-03 0. -1.
    9900012    2    1    2    0    0 -0.35969564207E+02  0.24871650668E+02  0.10803005653E+02  0.46142317772E+02  0.10000000104E+02 0.  0.
         12    1    1    2    0    0  0.35969564207E+02 -0.24871650668E+02 -0.10803005653E+02  0.45045682228E+02  0.00000000000E+00 0. -1.
         11    1    3    3    0    0 -0.18876001586E+02  0.72921265048E+01  0.64160117565E+01  0.21228371392E+02  0.51100000000E-03 0. -1.
        -11    1    3    3    0    0 -0.83885559278E+01  0.88297728533E+01  0.23753252766E+01  0.12408663491E+02  0.51100000000E-03 0.  1.
         12    1    3    3    0    0 -0.87050066932E+01  0.87497513097E+01  0.20116686202E+01  0.12505282890E+02  0.00000000000E+00 0. -1.
</event>
<event>
 7    1  0.3046295E-009  0.4614232E+02  0.7816164E-02  0.1320468E+00
        -11   -1    0    0    0    0  0.00000000000E+00  0.00000000000E+00  0.45593999997E+02  0.45594000000E+02  0.51100000000E-03 0.  1.
         11   -1    0    0    0    0 -0.00000000000E+00 -0.00000000000E+00 -0.45593999997E+02  0.45594000000E+02  0.51100000000E-03 0. -1.
    9900012    2    1    2    0    0  0.23795567391E+02  0.35612316740E+02 -0.13951603589E+02  0.46142319033E+02  0.10000011601E+02 0.  0.
         12    1    1    2    0    0 -0.23795567391E+02 -0.35612316740E+02  0.13951603589E+02  0.45045680967E+02  0.00000000000E+00 0. -1.
         11    1    3    3    0    0  0.20351678940E+01  0.91394723113E+01 -0.25073272018E+01  0.96932219847E+01  0.51100000000E-03 0. -1.
        -11    1    3    3    0    0  0.18665668041E+02  0.21674679145E+02 -0.77040905126E+01  0.29623502331E+02  0.51100000000E-03 0.  1.
         12    1    3    3    0    0  0.30947314552E+01  0.47981652833E+01 -0.37401858750E+01  0.68255947173E+01  0.00000000000E+00 0. -1.
</event>
<event>
 7    1  0.3046295E-009  0.4614232E+02  0.7816164E-02  0.1320468E+00
        -11   -1    0    0    0    0  0.00000000000E+00  0.00000000000E+00  0.45593999997E+02  0.45594000000E+02  0.51100000000E-03 0.  1.
         11   -1    0    0    0    0 -0.00000000000E+00 -0.00000000000E+00 -0.45593999997E+02  0.45594000000E+02  0.51100000000E-03 0. -1.
    9900012    2    1    2    0    0 -0.94524072438E+01  0.40910664912E+02  0.16312049519E+02  0.46142318012E+02  0.10000002289E+02 0.  0.
         12    1    1    2    0    0  0.94524072438E+01 -0.40910664912E+02 -0.16312049519E+02  0.45045681988E+02  0.00000000000E+00 0. -1.
         11    1    3    3    0    0 -0.26980953418E+01  0.78712904436E+01  0.10294048830E+01  0.83843071506E+01  0.51100000000E-03 0. -1.
        -11    1    3    3    0    0 -0.82399048059E+01  0.27706261802E+02  0.11825027650E+02  0.31230822171E+02  0.51100000000E-03 0.  1.
         12    1    3    3    0    0  0.14855929038E+01  0.53331126659E+01  0.34576169860E+01  0.65271886908E+01  0.00000000000E+00 0. -1.
</event>
<event>
 7    1  0.3046295E-009  0.4614232E+02  0.7816164E-02  0.1320468E+00
        -11   -1    0    0    0    0  0.00000000000E+00  0.00000000000E+00  0.45593999997E+02  0.45594000000E+02  0.51100000000E-03 0.  1.
         11   -1    0    0    0    0 -0.00000000000E+00 -0.00000000000E+00 -0.45593999997E+02  0.45594000000E+02  0.51100000000E-03 0. -1.
    9900012    2    1    2    0    0  0.35281140636E+01  0.44889475317E+02  0.12652730308E+01  0.46142317644E+02  0.99999989324E+01 0.  0.
         12    1    1    2    0    0 -0.35281140636E+01 -0.44889475317E+02 -0.12652730308E+01  0.45045682356E+02  0.00000000000E+00 0. -1.
         11    1    3    3    0    0 -0.41569072773E-01  0.43984976461E-01  0.61918750111E+00  0.62213831952E+00  0.51100000000E-03 0. -1.
        -11    1    3    3    0    0  0.83978253390E+00  0.39481088235E+02  0.29974165587E+00  0.39491156076E+02  0.51100000000E-03 0.  1.
        -12    1    3    3    0    0  0.27299006024E+01  0.53644021053E+01  0.34634387381E+00  0.60290232481E+01  0.00000000000E+00 0.  1.
</event>
<event>
 7    1  0.3046295E-009  0.4614232E+02  0.7816164E-02  0.1320468E+00
        -11   -1    0    0    0    0  0.00000000000E+00  0.00000000000E+00  0.45593999997E+02  0.45594000000E+02  0.51100000000E-03 0.  1.
         11   -1    0    0    0    0 -0.00000000000E+00 -0.00000000000E+00 -0.45593999997E+02  0.45594000000E+02  0.51100000000E-03 0. -1.
    9900012    2    1    2    0    0 -0.20916028303E+02 -0.19298675084E+02  0.34916964078E+02  0.46142317850E+02  0.10000000811E+02 0.  0.
         12    1    1    2    0    0  0.20916028303E+02  0.19298675084E+02 -0.34916964078E+02  0.45045682150E+02  0.00000000000E+00 0. -1.
         11    1    3    3    0    0 -0.70534407649E+01 -0.29412755454E+01  0.84068605522E+01  0.11361224981E+02  0.51100000000E-03 0. -1.
        -11    1    3    3    0    0 -0.10659788737E+02 -0.16062969602E+02  0.23225541077E+02  0.30184032980E+02  0.51100000000E-03 0.  1.
        -12    1    3    3    0    0 -0.32027988015E+01 -0.29442993629E+00  0.32845624486E+01  0.45970598897E+01  0.00000000000E+00 0.  1.
</event>
<event>
 7    1  0.3046295E-009  0.4614232E+02  0.7816164E-02  0.1320468E+00
        -11   -1    0    0    0    0  0.00000000000E+00  0.00000000000E+00  0.45593999997E+02  0.45594000000E+02  0.51100000000E-03 0.  1.
         11   -1    0    0    0    0 -0.00000000000E+00 -0.00000000000E+00 -0.45593999997E+02  0.45594000000E+02  0.51100000000E-03 0. -1.
    9900012    2    1    2    0    0  0.28275138842E+02 -0.14182932713E+02  0.32069835636E+02  0.46142318580E+02  0.10000007469E+02 0.  0.
         12    1    1    2    0    0 -0.28275138842E+02  0.14182932713E+02 -0.32069835636E+02  0.45045681420E+02  0.00000000000E+00 0. -1.
         11    1    3    3    0    0  0.21222795741E+02 -0.82936553799E+01  0.26339263354E+02  0.34827411229E+02  0.51100000000E-03 0. -1.
        -11    1    3    3    0    0  0.40976725901E+01 -0.51001863827E+01  0.48128047618E+01  0.81219401457E+01  0.51100000000E-03 0.  1.
         12    1    3    3    0    0  0.29546705105E+01 -0.78909095071E+00  0.91776752025E+00  0.31929672055E+01  0.00000000000E+00 0. -1.
</event>
<event>
 7    1  0.3046295E-009  0.4614232E+02  0.7816164E-02  0.1320468E+00
        -11   -1    0    0    0    0  0.00000000000E+00  0.00000000000E+00  0.45593999997E+02  0.45594000000E+02  0.51100000000E-03 0.  1.
         11   -1    0    0    0    0 -0.00000000000E+00 -0.00000000000E+00 -0.45593999997E+02  0.45594000000E+02  0.51100000000E-03 0. -1.
    9900012    2    1    2    0    0 -0.23501577015E+02  0.27986756891E+02  0.26334977085E+02  0.46142315395E+02  0.99999784275E+01 0.  0.
         12    1    1    2    0    0  0.23501577015E+02 -0.27986756891E+02 -0.26334977085E+02  0.45045684605E+02  0.00000000000E+00 0. -1.
         11    1    3    3    0    0 -0.51040710762E+00 -0.10194828951E+00  0.34107721905E+00  0.62228835737E+00  0.51100000000E-03 0. -1.
        -11    1    3    3    0    0 -0.23077857616E+02  0.25384217151E+02  0.25555547818E+02  0.42778873490E+02  0.51100000000E-03 0.  1.
        -12    1    3    3    0    0  0.86687708597E-01  0.27044880289E+01  0.43835204786E+00  0.27411535483E+01  0.00000000000E+00 0.  1.
</event>
<event>
 7    1  0.3046295E-009  0.4614232E+02  0.7816164E-02  0.1320468E+00
        -11   -1    0    0    0    0  0.00000000000E+00  0.00000000000E+00  0.45593999997E+02  0.45594000000E+02  0.51100000000E-03 0.  1.
         11   -1    0    0    0    0 -0.00000000000E+00 -0.00000000000E+00 -0.45593999997E+02  0.45594000000E+02  0.51100000000E-03 0. -1.
    9900012    2    1    2    0    0 -0.78448163653E+01  0.43338515279E+02  0.94522708844E+01  0.46142317907E+02  0.10000001327E+02 0.  0.
         12    1    1    2    0    0  0.78448163653E+01 -0.43338515279E+02 -0.94522708844E+01  0.45045682093E+02  0.00000000000E+00 0. -1.
         11    1    3    3    0    0  0.15885362972E+00  0.16551965001E+01  0.17976021037E+01  0.24487310008E+01  0.51100000000E-03 0. -1.
        -11    1    3    3    0    0 -0.46647101992E+01  0.13827698405E+02  0.53537506452E+01  0.15544369098E+02  0.51100000000E-03 0.  1.
        -12    1    3    3    0    0 -0.33389597958E+01  0.27855620374E+02  0.23009181355E+01  0.28149217808E+02  0.00000000000E+00 0.  1.
</event>
<event>
 7    1  0.3046295E-009  0.4614232E+02  0.7816164E-02  0.1320468E+00
        -11   -1    0    0    0    0  0.00000000000E+00  0.00000000000E+00  0.45593999997E+02  0.45594000000E+02  0.51100000000E-03 0.  1.
         11   -1    0    0    0    0 -0.00000000000E+00 -0.00000000000E+00 -0.45593999997E+02  0.45594000000E+02  0.51100000000E-03 0. -1.
    9900012    2    1    2    0    0 -0.98649251922E+01  0.21392804682E+02  0.38394591608E+02  0.46142317566E+02  0.99999982184E+01 0.  0.
         12    1    1    2    0    0  0.98649251922E+01 -0.21392804682E+02 -0.38394591608E+02  0.45045682434E+02  0.00000000000E+00 0. -1.
         11    1    3    3    0    0 -0.28885367628E+01  0.96616842458E+01  0.91796941566E+01  0.13636662794E+02  0.51100000000E-03 0. -1.
        -11    1    3    3    0    0 -0.48464494812E+01  0.72250301253E+01  0.13880702808E+02  0.16381790000E+02  0.51100000000E-03 0.  1.
         12    1    3    3    0    0 -0.21299389482E+01  0.45060903106E+01  0.15334194643E+02  0.16123864772E+02  0.00000000000E+00 0. -1.
</event>
<event>
 7    1  0.3046295E-009  0.4614232E+02  0.7816164E-02  0.1320468E+00
        -11   -1    0    0    0    0  0.00000000000E+00  0.00000000000E+00  0.45593999997E+02  0.45594000000E+02  0.51100000000E-03 0.  1.
         11   -1    0    0    0    0 -0.00000000000E+00 -0.00000000000E+00 -0.45593999997E+02  0.45594000000E+02  0.51100000000E-03 0. -1.
    9900012    2    1    2    0    0 -0.30566302696E+02  0.19028544722E+02  0.27068966930E+02  0.46142319349E+02  0.10000014477E+02 0.  0.
         12    1    1    2    0    0  0.30566302696E+02 -0.19028544722E+02 -0.27068966930E+02  0.45045680651E+02  0.00000000000E+00 0. -1.
         11    1    3    3    0    0 -0.30490799353E+01  0.50461476559E+00 -0.20993264441E+00  0.30976759821E+01  0.51100000000E-03 0. -1.
        -11    1    3    3    0    0 -0.15305046789E+02  0.10957091652E+02  0.17174253100E+02  0.25480527555E+02  0.51100000000E-03 0.  1.
         12    1    3    3    0    0 -0.12212175972E+02  0.75668383039E+01  0.10104646474E+02  0.17564115812E+02  0.00000000000E+00 0. -1.
</event>
<event>
 7    1  0.3046295E-009  0.4614232E+02  0.7816164E-02  0.1320468E+00
        -11   -1    0    0    0    0  0.00000000000E+00  0.00000000000E+00  0.45593999997E+02  0.45594000000E+02  0.51100000000E-03 0.  1.
         11   -1    0    0    0    0 -0.00000000000E+00 -0.00000000000E+00 -0.45593999997E+02  0.45594000000E+02  0.51100000000E-03 0. -1.
    9900012    2    1    2    0    0  0.31104970580E+01  0.49541166514E+01  0.44664248047E+02  0.46142317440E+02  0.99999970708E+01 0.  0.
         12    1    1    2    0    0 -0.31104970580E+01 -0.49541166514E+01 -0.44664248047E+02  0.45045682560E+02  0.00000000000E+00 0. -1.
         11    1    3    3    0    0  0.37815277269E+01  0.36960100268E+01  0.10945499697E+02  0.12155838348E+02  0.51100000000E-03 0. -1.
        -11    1    3    3    0    0  0.11013794985E+01  0.35448360029E-01  0.24290455363E+02  0.24315437800E+02  0.51100000000E-03 0.  1.
         12    1    3    3    0    0 -0.17724101674E+01  0.12226582645E+01  0.94282929866E+01  0.96710412922E+01  0.00000000000E+00 0. -1.
</event>
<event>
 7    1  0.3046295E-009  0.4614232E+02  0.7816164E-02  0.1320468E+00
        -11   -1    0    0    0    0  0.00000000000E+00  0.00000000000E+00  0.45593999997E+02  0.45594000000E+02  0.51100000000E-03 0. -1.
         11   -1    0    0    0    0 -0.00000000000E+00 -0.00000000000E+00 -0.45593999997E+02  0.45594000000E+02  0.51100000000E-03 0.  1.
    9900012    2    1    2    0    0 -0.34301913208E+02  0.27885785783E+02  0.86530502722E+01  0.46142316772E+02  0.99999909800E+01 0.  0.
         12    1    1    2    0    0  0.34301913208E+02 -0.27885785783E+02 -0.86530502722E+01  0.45045683228E+02  0.00000000000E+00 0. -1.
         11    1    3    3    0    0 -0.88632292197E+01  0.53563091844E+01  0.33014265875E+01  0.10869512319E+02  0.51100000000E-03 0. -1.
        -11    1    3    3    0    0 -0.83319330766E+01  0.55375748040E+01 -0.17079718976E+01  0.10149039943E+02  0.51100000000E-03 0.  1.
         12    1    3    3    0    0 -0.17106750911E+02  0.16991901795E+02  0.70595955823E+01  0.25123764510E+02  0.00000000000E+00 0. -1.
</event>
<event>
 7    1  0.3046295E-009  0.4614232E+02  0.7816164E-02  0.1320468E+00
        -11   -1    0    0    0    0  0.00000000000E+00  0.00000000000E+00  0.45593999997E+02  0.45594000000E+02  0.51100000000E-03 0. -1.
         11   -1    0    0    0    0 -0.00000000000E+00 -0.00000000000E+00 -0.45593999997E+02  0.45594000000E+02  0.51100000000E-03 0.  1.
    9900012    2    1    2    0    0 -0.31623783382E+02 -0.12494523676E+02 -0.29545503894E+02  0.46142316548E+02  0.99999889408E+01 0.  0.
         12    1    1    2    0    0  0.31623783382E+02  0.12494523676E+02  0.29545503894E+02  0.45045683452E+02  0.00000000000E+00 0. -1.
         11    1    3    3    0    0 -0.20800396152E+02 -0.10657820655E+02 -0.14646231164E+02  0.27581836573E+02  0.51100000000E-03 0. -1.
        -11    1    3    3    0    0 -0.40251475683E+01 -0.34604358503E-02 -0.52554772176E+01  0.66198086050E+01  0.51100000000E-03 0.  1.
         12    1    3    3    0    0 -0.67982396611E+01 -0.18332425856E+01 -0.96437955129E+01  0.11940671370E+02  0.00000000000E+00 0. -1.
</event>
<event>
 7    1  0.3046295E-009  0.4614232E+02  0.7816164E-02  0.1320468E+00
        -11   -1    0    0    0    0  0.00000000000E+00  0.00000000000E+00  0.45593999997E+02  0.45594000000E+02  0.51100000000E-03 0. -1.
         11   -1    0    0    0    0 -0.00000000000E+00 -0.00000000000E+00 -0.45593999997E+02  0.45594000000E+02  0.51100000000E-03 0.  1.
    9900012    2    1    2    0    0 -0.43923079123E+02  0.44226570252E+01 -0.89619638020E+01  0.46142316855E+02  0.99999917393E+01 0.  0.
         12    1    1    2    0    0  0.43923079123E+02 -0.44226570252E+01  0.89619638020E+01  0.45045683145E+02  0.00000000000E+00 0. -1.
         11    1    3    3    0    0 -0.18130728589E+01  0.17798447325E+01 -0.10625906479E+01  0.27539389263E+01  0.51100000000E-03 0.  1.
        -11    1    3    3    0    0 -0.22160067751E+02  0.26015481156E+01 -0.71291909391E+01  0.23423535579E+02  0.51100000000E-03 0. -1.
        -12    1    3    3    0    0 -0.19949938513E+02  0.41264177047E-01 -0.77018221507E+00  0.19964842350E+02  0.00000000000E+00 0.  1.
</event>
<event>
 7    1  0.3046295E-009  0.4614232E+02  0.7816164E-02  0.1320468E+00
        -11   -1    0    0    0    0  0.00000000000E+00  0.00000000000E+00  0.45593999997E+02  0.45594000000E+02  0.51100000000E-03 0.  1.
         11   -1    0    0    0    0 -0.00000000000E+00 -0.00000000000E+00 -0.45593999997E+02  0.45594000000E+02  0.51100000000E-03 0. -1.
    9900012    2    1    2    0    0 -0.24709738707E+02 -0.37294292648E+02 -0.52609952580E+01  0.46142317386E+02  0.99999965792E+01 0.  0.
         12    1    1    2    0    0  0.24709738707E+02  0.37294292648E+02  0.52609952580E+01  0.45045682614E+02  0.00000000000E+00 0. -1.
         11    1    3    3    0    0 -0.74546536527E+00 -0.22691171608E+01 -0.54962456836E+00  0.24508567334E+01  0.51100000000E-03 0. -1.
        -11    1    3    3    0    0 -0.20532703877E+01 -0.87619319545E+01 -0.28418093480E+01  0.94373328590E+01  0.51100000000E-03 0.  1.
        -12    1    3    3    0    0 -0.21911002954E+02 -0.26263243533E+02 -0.18695613417E+01  0.34254127794E+02  0.00000000000E+00 0.  1.
</event>
<event>
 7    1  0.3046295E-009  0.4614232E+02  0.7816164E-02  0.1320468E+00
        -11   -1    0    0    0    0  0.00000000000E+00  0.00000000000E+00  0.45593999997E+02  0.45594000000E+02  0.51100000000E-03 0.  1.
         11   -1    0    0    0    0 -0.00000000000E+00 -0.00000000000E+00 -0.45593999997E+02  0.45594000000E+02  0.51100000000E-03 0. -1.
    9900012    2    1    2    0    0  0.41575134614E+01 -0.32137965975E+02  0.31288653090E+02  0.46142316662E+02  0.99999899810E+01 0.  0.
         12    1    1    2    0    0 -0.41575134614E+01  0.32137965975E+02 -0.31288653090E+02  0.45045683338E+02  0.00000000000E+00 0. -1.
         11    1    3    3    0    0  0.11585857531E+01 -0.28696229239E+01  0.18449983145E+01  0.36029259935E+01  0.51100000000E-03 0. -1.
        -11    1    3    3    0    0 -0.32018835432E+00 -0.21421199343E+01 -0.25428849998E+00  0.21807937311E+01  0.51100000000E-03 0.  1.
        -12    1    3    3    0    0  0.33191160626E+01 -0.27126223116E+02  0.29697943276E+02  0.40358596938E+02  0.00000000000E+00 0.  1.
</event>
<event>
 7    1  0.3046295E-009  0.4614232E+02  0.7816164E-02  0.1320468E+00
        -11   -1    0    0    0    0  0.00000000000E+00  0.00000000000E+00  0.45593999997E+02  0.45594000000E+02  0.51100000000E-03 0. -1.
         11   -1    0    0    0    0 -0.00000000000E+00 -0.00000000000E+00 -0.45593999997E+02  0.45594000000E+02  0.51100000000E-03 0.  1.
    9900012    2    1    2    0    0  0.20913591326E+02 -0.10886944481E+02 -0.38382412131E+02  0.46142318484E+02  0.10000006590E+02 0.  0.
         12    1    1    2    0    0 -0.20913591326E+02  0.10886944481E+02  0.38382412131E+02  0.45045681516E+02  0.00000000000E+00 0. -1.
         11    1    3    3    0    0  0.77365596609E+01 -0.36964091975E+01 -0.67144473028E+01  0.10890436134E+02  0.51100000000E-03 0. -1.
        -11    1    3    3    0    0  0.41979021593E+01 -0.44002205389E+01 -0.12132720557E+02  0.13571559663E+02  0.51100000000E-03 0.  1.
         12    1    3    3    0    0  0.89791295056E+01 -0.27903147445E+01 -0.19535244271E+02  0.21680322687E+02  0.00000000000E+00 0. -1.
</event>
<event>
 7    1  0.3046295E-009  0.4614232E+02  0.7816164E-02  0.1320468E+00
        -11   -1    0    0    0    0  0.00000000000E+00  0.00000000000E+00  0.45593999997E+02  0.45594000000E+02  0.51100000000E-03 0.  1.
         11   -1    0    0    0    0 -0.00000000000E+00 -0.00000000000E+00 -0.45593999997E+02  0.45594000000E+02  0.51100000000E-03 0. -1.
    9900012    2    1    2    0    0 -0.31789915914E+02 -0.26471745847E+02 -0.17825866096E+02  0.46142316699E+02  0.99999903136E+01 0.  0.
         12    1    1    2    0    0  0.31789915914E+02  0.26471745847E+02  0.17825866096E+02  0.45045683301E+02  0.00000000000E+00 0. -1.
         11    1    3    3    0    0 -0.14771777727E+02 -0.15293839456E+02 -0.10999139868E+02  0.23939256893E+02  0.51100000000E-03 0. -1.
        -11    1    3    3    0    0 -0.52978008056E+01 -0.66137475055E+01 -0.18307559169E+01  0.86694876971E+01  0.51100000000E-03 0.  1.
         12    1    3    3    0    0 -0.11720337381E+02 -0.45641588859E+01 -0.49959703114E+01  0.13533572108E+02  0.00000000000E+00 0. -1.
</event>
<event>
 7    1  0.3046295E-009  0.4614232E+02  0.7816164E-02  0.1320468E+00
        -11   -1    0    0    0    0  0.00000000000E+00  0.00000000000E+00  0.45593999997E+02  0.45594000000E+02  0.51100000000E-03 0. -1.
         11   -1    0    0    0    0 -0.00000000000E+00 -0.00000000000E+00 -0.45593999997E+02  0.45594000000E+02  0.51100000000E-03 0.  1.
    9900012    2    1    2    0    0  0.21123850312E+02  0.30453853830E+02  0.25601937579E+02  0.46142317932E+02  0.10000001560E+02 0.  0.
         12    1    1    2    0    0 -0.21123850312E+02 -0.30453853830E+02 -0.25601937579E+02  0.45045682068E+02  0.00000000000E+00 0. -1.
         11    1    3    3    0    0  0.14964066876E+02  0.16298644617E+02  0.11881356106E+02  0.25114452751E+02  0.51100000000E-03 0. -1.
        -11    1    3    3    0    0  0.61674837801E+01  0.10206996718E+02  0.94865510477E+01  0.15238611788E+02  0.51100000000E-03 0.  1.
         12    1    3    3    0    0 -0.77003434927E-02  0.39482124956E+01  0.42340304260E+01  0.57892533935E+01  0.00000000000E+00 0. -1.
</event>
<event>
 7    1  0.5038197E-009  0.4614232E+02  0.7816164E-02  0.1320468E+00
        -11   -1    0    0    0    0  0.00000000000E+00  0.00000000000E+00  0.45593999997E+02  0.45594000000E+02  0.51100000000E-03 0.  1.
         11   -1    0    0    0    0 -0.00000000000E+00 -0.00000000000E+00 -0.45593999997E+02  0.45594000000E+02  0.51100000000E-03 0. -1.
    9900012    2    1    2    0    0 -0.19623588380E+02  0.36785353399E+02  0.17054795454E+02  0.46142317703E+02  0.99999994742E+01 0.  0.
         12    1    1    2    0    0  0.19623588380E+02 -0.36785353399E+02 -0.17054795454E+02  0.45045682297E+02  0.00000000000E+00 0. -1.
         11    1    3    3    0    0 -0.12577047081E+00  0.52748198263E+00  0.12092399756E+01  0.13252611188E+01  0.51100000000E-03 0. -1.
        -11    1    3    3    0    0 -0.18640556148E+02  0.29164724290E+02  0.11594177997E+02  0.36503101788E+02  0.51100000000E-03 0.  1.
        -12    1    3    3    0    0 -0.85726176128E+00  0.70931471259E+01  0.42513774814E+01  0.83139547970E+01  0.00000000000E+00 0.  1.
</event>
<event>
 7    1  0.3046295E-009  0.4614232E+02  0.7816164E-02  0.1320468E+00
        -11   -1    0    0    0    0  0.00000000000E+00  0.00000000000E+00  0.45593999997E+02  0.45594000000E+02  0.51100000000E-03 0. -1.
         11   -1    0    0    0    0 -0.00000000000E+00 -0.00000000000E+00 -0.45593999997E+02  0.45594000000E+02  0.51100000000E-03 0.  1.
    9900012    2    1    2    0    0 -0.13859035958E+02  0.33808906630E+02 -0.26343850399E+02  0.46142317643E+02  0.99999989205E+01 0.  0.
         12    1    1    2    0    0  0.13859035958E+02 -0.33808906630E+02  0.26343850399E+02  0.45045682357E+02  0.00000000000E+00 0. -1.
         11    1    3    3    0    0 -0.42202963250E+01  0.35714062221E+01 -0.64844758877E+01  0.85214007812E+01  0.51100000000E-03 0. -1.
        -11    1    3    3    0    0 -0.44431052421E+01  0.86388851146E+01 -0.53926974026E+01  0.11110927313E+02  0.51100000000E-03 0.  1.
         12    1    3    3    0    0 -0.51956343913E+01  0.21598615293E+02 -0.14466677108E+02  0.26509989549E+02  0.00000000000E+00 0. -1.
</event>
<event>
 7    1  0.3046295E-009  0.4614233E+02  0.7816164E-02  0.1320468E+00
        -11   -1    0    0    0    0  0.00000000000E+00  0.00000000000E+00  0.45593999997E+02  0.45594000000E+02  0.51100000000E-03 0. -1.
         11   -1    0    0    0    0 -0.00000000000E+00 -0.00000000000E+00 -0.45593999997E+02  0.45594000000E+02  0.51100000000E-03 0.  1.
    9900012    2    1    2    0    0 -0.17768772609E+02  0.30284122243E+02  0.28217993935E+02  0.46142328491E+02  0.10000097839E+02 0.  0.
         12    1    1    2    0    0  0.17768772609E+02 -0.30284122243E+02 -0.28217993935E+02  0.45045671509E+02  0.00000000000E+00 0. -1.
         11    1    3    3    0    0 -0.91762991801E+01  0.12122937482E+02  0.91359743199E+01  0.17737984859E+02  0.51100000000E-03 0. -1.
        -11    1    3    3    0    0 -0.40055663226E+01  0.25188664852E+01  0.39833394126E+01  0.61851631403E+01  0.51100000000E-03 0.  1.
         12    1    3    3    0    0 -0.45869071060E+01  0.15642318276E+02  0.15098680203E+02  0.22219180491E+02  0.00000000000E+00 0. -1.
</event>
<event>
 7    1  0.3046295E-009  0.4614232E+02  0.7816164E-02  0.1320468E+00
        -11   -1    0    0    0    0  0.00000000000E+00  0.00000000000E+00  0.45593999997E+02  0.45594000000E+02  0.51100000000E-03 0. -1.
         11   -1    0    0    0    0 -0.00000000000E+00 -0.00000000000E+00 -0.45593999997E+02  0.45594000000E+02  0.51100000000E-03 0.  1.
    9900012    2    1    2    0    0 -0.14337737735E+02  0.15570708277E+02 -0.39762995275E+02  0.46142317933E+02  0.10000001572E+02 0.  0.
         12    1    1    2    0    0  0.14337737735E+02 -0.15570708277E+02  0.39762995275E+02  0.45045682067E+02  0.00000000000E+00 0. -1.
         11    1    3    3    0    0 -0.30525707479E+01  0.95446751219E+01 -0.16270424248E+02  0.19108786377E+02  0.51100000000E-03 0. -1.
        -11    1    3    3    0    0 -0.72812059655E+01  0.47266670314E+01 -0.18931068602E+02  0.20826490348E+02  0.51100000000E-03 0.  1.
         12    1    3    3    0    0 -0.40039610212E+01  0.12993661240E+01 -0.45615024247E+01  0.62070412077E+01  0.00000000000E+00 0. -1.
</event>
<event>
 7    1  0.3046295E-009  0.4614232E+02  0.7816164E-02  0.1320468E+00
        -11   -1    0    0    0    0  0.00000000000E+00  0.00000000000E+00  0.45593999997E+02  0.45594000000E+02  0.51100000000E-03 0.  1.
         11   -1    0    0    0    0 -0.00000000000E+00 -0.00000000000E+00 -0.45593999997E+02  0.45594000000E+02  0.51100000000E-03 0. -1.
    9900012    2    1    2    0    0 -0.21545134506E+02 -0.62851329491E+01  0.39056599429E+02  0.46142315678E+02  0.99999810090E+01 0.  0.
         12    1    1    2    0    0  0.21545134506E+02  0.62851329491E+01 -0.39056599429E+02  0.45045684322E+02  0.00000000000E+00 0. -1.
         11    1    3    3    0    0 -0.11079483000E+01 -0.15939748652E+01  0.20195582531E+00  0.19516894534E+01  0.51100000000E-03 0. -1.
        -11    1    3    3    0    0 -0.85315430327E+01 -0.27634150689E+01  0.15577508854E+02  0.17974495034E+02  0.51100000000E-03 0.  1.
         12    1    3    3    0    0 -0.11905643173E+02 -0.19277430151E+01  0.23277134749E+02  0.26216131191E+02  0.00000000000E+00 0. -1.
</event>
<event>
 7    1  0.3046295E-009  0.4614232E+02  0.7816164E-02  0.1320468E+00
        -11   -1    0    0    0    0  0.00000000000E+00  0.00000000000E+00  0.45593999997E+02  0.45594000000E+02  0.51100000000E-03 0.  1.
         11   -1    0    0    0    0 -0.00000000000E+00 -0.00000000000E+00 -0.45593999997E+02  0.45594000000E+02  0.51100000000E-03 0. -1.
    9900012    2    1    2    0    0  0.19146690531E+02 -0.60181757236E+00  0.40769538703E+02  0.46142320643E+02  0.10000026282E+02 0.  0.
         12    1    1    2    0    0 -0.19146690531E+02  0.60181757236E+00 -0.40769538703E+02  0.45045679357E+02  0.00000000000E+00 0. -1.
         11    1    3    3    0    0  0.88912640339E+00 -0.15165131752E+01  0.23383787796E+01  0.29254697999E+01  0.51100000000E-03 0. -1.
        -11    1    3    3    0    0  0.56400970572E+01  0.38283355049E+01  0.13044430136E+02  0.14718152241E+02  0.51100000000E-03 0.  1.
        -12    1    3    3    0    0  0.12617467071E+02 -0.29136399021E+01  0.25386729787E+02  0.28498698603E+02  0.00000000000E+00 0.  1.
</event>
<event>
 7    1  0.3046295E-009  0.4614232E+02  0.7816164E-02  0.1320468E+00
        -11   -1    0    0    0    0  0.00000000000E+00  0.00000000000E+00  0.45593999997E+02  0.45594000000E+02  0.51100000000E-03 0.  1.
         11   -1    0    0    0    0 -0.00000000000E+00 -0.00000000000E+00 -0.45593999997E+02  0.45594000000E+02  0.51100000000E-03 0. -1.
    9900012    2    1    2    0    0  0.13524346090E+02  0.40981601828E+02  0.12911773458E+02  0.46142317417E+02  0.99999968607E+01 0.  0.
         12    1    1    2    0    0 -0.13524346090E+02 -0.40981601828E+02 -0.12911773458E+02  0.45045682583E+02  0.00000000000E+00 0. -1.
         11    1    3    3    0    0  0.35401159671E+01  0.25067451970E+02  0.59913484244E+01  0.26015492029E+02  0.51100000000E-03 0. -1.
        -11    1    3    3    0    0  0.63842420536E+01  0.10231918310E+02  0.33780577827E+01  0.12524455020E+02  0.51100000000E-03 0.  1.
         12    1    3    3    0    0  0.35999880695E+01  0.56822315484E+01  0.35423672511E+01  0.76023703680E+01  0.00000000000E+00 0. -1.
</event>
<event>
 7    1  0.3046295E-009  0.4614232E+02  0.7816164E-02  0.1320468E+00
        -11   -1    0    0    0    0  0.00000000000E+00  0.00000000000E+00  0.45593999997E+02  0.45594000000E+02  0.51100000000E-03 0.  1.
         11   -1    0    0    0    0 -0.00000000000E+00 -0.00000000000E+00 -0.45593999997E+02  0.45594000000E+02  0.51100000000E-03 0. -1.
    9900012    2    1    2    0    0 -0.36566044149E+02 -0.18004402685E+02  0.19180178143E+02  0.46142319470E+02  0.10000015587E+02 0.  0.
         12    1    1    2    0    0  0.36566044149E+02  0.18004402685E+02 -0.19180178143E+02  0.45045680530E+02  0.00000000000E+00 0. -1.
         11    1    3    3    0    0 -0.79611677381E+00 -0.20354649129E+01  0.25256802454E+01  0.33400569295E+01  0.51100000000E-03 0. -1.
        -11    1    3    3    0    0 -0.17272450744E+02 -0.91623358127E+01  0.63264347610E+01  0.20550175895E+02  0.51100000000E-03 0.  1.
         12    1    3    3    0    0 -0.18497476631E+02 -0.68066019591E+01  0.10328063137E+02  0.22252086646E+02  0.00000000000E+00 0. -1.
</event>
<event>
 7    1  0.3046295E-009  0.4614232E+02  0.7816164E-02  0.1320468E+00
        -11   -1    0    0    0    0  0.00000000000E+00  0.00000000000E+00  0.45593999997E+02  0.45594000000E+02  0.51100000000E-03 0.  1.
         11   -1    0    0    0    0 -0.00000000000E+00 -0.00000000000E+00 -0.45593999997E+02  0.45594000000E+02  0.51100000000E-03 0. -1.
    9900012    2    1    2    0    0  0.29218667031E+01 -0.27438751949E+02  0.35604650304E+02  0.46142317223E+02  0.99999950967E+01 0.  0.
         12    1    1    2    0    0 -0.29218667031E+01  0.27438751949E+02 -0.35604650304E+02  0.45045682777E+02  0.00000000000E+00 0. -1.
         11    1    3    3    0    0  0.22591772669E+01 -0.79380325348E+01  0.80141450928E+01  0.11504032522E+02  0.51100000000E-03 0. -1.
        -11    1    3    3    0    0  0.32927407164E+01 -0.16337226983E+02  0.23722786635E+02  0.28991683858E+02  0.51100000000E-03 0.  1.
        -12    1    3    3    0    0 -0.26300512802E+01 -0.31634924311E+01  0.38677185760E+01  0.56466008431E+01  0.00000000000E+00 0.  1.
</event>
<event>
 7    1  0.3046295E-009  0.4614232E+02  0.7816164E-02  0.1320468E+00
        -11   -1    0    0    0    0  0.00000000000E+00  0.00000000000E+00  0.45593999997E+02  0.45594000000E+02  0.51100000000E-03 0.  1.
         11   -1    0    0    0    0 -0.00000000000E+00 -0.00000000000E+00 -0.45593999997E+02  0.45594000000E+02  0.51100000000E-03 0. -1.
    9900012    2    1    2    0    0  0.41416257915E+02 -0.11100949128E+01  0.17679784284E+02  0.46142317602E+02  0.99999985517E+01 0.  0.
         12    1    1    2    0    0 -0.41416257915E+02  0.11100949128E+01 -0.17679784284E+02  0.45045682398E+02  0.00000000000E+00 0. -1.
         11    1    3    3    0    0  0.65425807312E+01  0.78386388922E+00 -0.71183864737E-01  0.65897551263E+01  0.51100000000E-03 0. -1.
        -11    1    3    3    0    0  0.26596377122E+01  0.99078524378E+00  0.45201441071E+00  0.28739598897E+01  0.51100000000E-03 0.  1.
        -12    1    3    3    0    0  0.32214039471E+02 -0.28847440458E+01  0.17298953738E+02  0.36678602586E+02  0.00000000000E+00 0.  1.
</event>
<event>
 7    1  0.3046295E-009  0.4614232E+02  0.7816164E-02  0.1320468E+00
        -11   -1    0    0    0    0  0.00000000000E+00  0.00000000000E+00  0.45593999997E+02  0.45594000000E+02  0.51100000000E-03 0. -1.
         11   -1    0    0    0    0 -0.00000000000E+00 -0.00000000000E+00 -0.45593999997E+02  0.45594000000E+02  0.51100000000E-03 0.  1.
    9900012    2    1    2    0    0 -0.11577490460E+02 -0.13804921828E+02 -0.41285577005E+02  0.46142322952E+02  0.10000047339E+02 0.  0.
         12    1    1    2    0    0  0.11577490460E+02  0.13804921828E+02  0.41285577005E+02  0.45045677048E+02  0.00000000000E+00 0. -1.
         11    1    3    3    0    0  0.12868507518E+01 -0.38027942398E-01 -0.19165875941E+01  0.23088393727E+01  0.51100000000E-03 0. -1.
        -11    1    3    3    0    0 -0.19969397959E+01 -0.42470036704E+01 -0.12004992873E+02  0.12889711512E+02  0.51100000000E-03 0.  1.
         12    1    3    3    0    0 -0.10867401416E+02 -0.95198902150E+01 -0.27363996538E+02  0.30943772067E+02  0.00000000000E+00 0. -1.
</event>
<event>
 7    1  0.3046295E-009  0.4614232E+02  0.7816164E-02  0.1320468E+00
        -11   -1    0    0    0    0  0.00000000000E+00  0.00000000000E+00  0.45593999997E+02  0.45594000000E+02  0.51100000000E-03 0.  1.
         11   -1    0    0    0    0 -0.00000000000E+00 -0.00000000000E+00 -0.45593999997E+02  0.45594000000E+02  0.51100000000E-03 0. -1.
    9900012    2    1    2    0    0 -0.79693871463E+01 -0.33221406802E+02  0.29358822676E+02  0.46142317962E+02  0.10000001828E+02 0.  0.
         12    1    1    2    0    0  0.79693871463E+01  0.33221406802E+02 -0.29358822676E+02  0.45045682038E+02  0.00000000000E+00 0. -1.
         11    1    3    3    0    0  0.69945685303E+00 -0.11431505202E+02  0.11348660527E+02  0.16123295168E+02  0.51100000000E-03 0. -1.
        -11    1    3    3    0    0 -0.90484054307E+01 -0.20925041808E+02  0.18043387685E+02  0.29073954924E+02  0.51100000000E-03 0.  1.
         12    1    3    3    0    0  0.37956143129E+00 -0.86485979287E+00 -0.33225536628E-01  0.94506786938E+00  0.00000000000E+00 0. -1.
</event>
<event>
 7    1  0.3046295E-009  0.4614232E+02  0.7816164E-02  0.1320468E+00
        -11   -1    0    0    0    0  0.00000000000E+00  0.00000000000E+00  0.45593999997E+02  0.45594000000E+02  0.51100000000E-03 0. -1.
         11   -1    0    0    0    0 -0.00000000000E+00 -0.00000000000E+00 -0.45593999997E+02  0.45594000000E+02  0.51100000000E-03 0.  1.
    9900012    2    1    2    0    0  0.26702077893E+02 -0.34143160424E+01 -0.36117240419E+02  0.46142316818E+02  0.99999913972E+01 0.  0.
         12    1    1    2    0    0 -0.26702077893E+02  0.34143160424E+01  0.36117240419E+02  0.45045683182E+02  0.00000000000E+00 0. -1.
         11    1    3    3    0    0  0.11296377753E+02  0.23172234925E+01 -0.15677037939E+02  0.19461428361E+02  0.51100000000E-03 0. -1.
        -11    1    3    3    0    0  0.10562215879E+01  0.46769268185E+00 -0.31311491216E+00  0.11968214975E+01  0.51100000000E-03 0.  1.
        -12    1    3    3    0    0  0.14349478552E+02 -0.61992322168E+01 -0.20127087568E+02  0.25484066959E+02  0.00000000000E+00 0.  1.
</event>
<event>
 7    1  0.3046295E-009  0.4614232E+02  0.7816164E-02  0.1320468E+00
        -11   -1    0    0    0    0  0.00000000000E+00  0.00000000000E+00  0.45593999997E+02  0.45594000000E+02  0.51100000000E-03 0.  1.
         11   -1    0    0    0    0 -0.00000000000E+00 -0.00000000000E+00 -0.45593999997E+02  0.45594000000E+02  0.51100000000E-03 0. -1.
    9900012    2    1    2    0    0  0.36397709530E+02  0.16630512932E+02  0.20682028214E+02  0.46142317516E+02  0.99999977637E+01 0.  0.
         12    1    1    2    0    0 -0.36397709530E+02 -0.16630512932E+02 -0.20682028214E+02  0.45045682484E+02  0.00000000000E+00 0. -1.
         11    1    3    3    0    0  0.62018067977E+01  0.15009355001E+01  0.65258977081E+01  0.91270233970E+01  0.51100000000E-03 0. -1.
        -11    1    3    3    0    0  0.40594154489E+01  0.36311086441E+01  0.38009486958E+01  0.66416123812E+01  0.51100000000E-03 0.  1.
        -12    1    3    3    0    0  0.26136487284E+02  0.11498468788E+02  0.10355181810E+02  0.30373681738E+02  0.00000000000E+00 0.  1.
</event>
<event>
 7    1  0.3046295E-009  0.4614231E+02  0.7816164E-02  0.1320468E+00
        -11   -1    0    0    0    0  0.00000000000E+00  0.00000000000E+00  0.45593999997E+02  0.45594000000E+02  0.51100000000E-03 0.  1.
         11   -1    0    0    0    0 -0.00000000000E+00 -0.00000000000E+00 -0.45593999997E+02  0.45594000000E+02  0.51100000000E-03 0. -1.
    9900012    2    1    2    0    0 -0.28670607036E+02 -0.25407777450E+02  0.23697151019E+02  0.46142313978E+02  0.99999655066E+01 0.  0.
         12    1    1    2    0    0  0.28670607036E+02  0.25407777450E+02 -0.23697151019E+02  0.45045686022E+02  0.00000000000E+00 0. -1.
         11    1    3    3    0    0 -0.20448802771E+02 -0.14573353956E+02  0.16624412658E+02  0.30114901241E+02  0.51100000000E-03 0.  1.
        -11    1    3    3    0    0  0.56711567080E+00 -0.73629891632E+00  0.10449515886E+00  0.93524102647E+00  0.51100000000E-03 0. -1.
        -12    1    3    3    0    0 -0.87889199354E+01 -0.10098124578E+02  0.69682432021E+01  0.15092171711E+02  0.00000000000E+00 0.  1.
</event>
<event>
 7    1  0.3046295E-009  0.4614232E+02  0.7816164E-02  0.1320468E+00
        -11   -1    0    0    0    0  0.00000000000E+00  0.00000000000E+00  0.45593999997E+02  0.45594000000E+02  0.51100000000E-03 0.  1.
         11   -1    0    0    0    0 -0.00000000000E+00 -0.00000000000E+00 -0.45593999997E+02  0.45594000000E+02  0.51100000000E-03 0. -1.
    9900012    2    1    2    0    0  0.15405525059E+02  0.41409511630E+02 -0.87769919948E+01  0.46142318250E+02  0.10000004461E+02 0.  0.
         12    1    1    2    0    0 -0.15405525059E+02 -0.41409511630E+02  0.87769919948E+01  0.45045681750E+02  0.00000000000E+00 0. -1.
         11    1    3    3    0    0  0.72239900129E+01  0.27146074317E+02 -0.38775715020E+01  0.28357202675E+02  0.51100000000E-03 0.  1.
        -11    1    3    3    0    0  0.33562763141E+01  0.24381097452E+01 -0.12581286926E+00  0.41502769746E+01  0.51100000000E-03 0. -1.
        -12    1    3    3    0    0  0.48252587324E+01  0.11825327569E+02 -0.47736076235E+01  0.13634838601E+02  0.00000000000E+00 0.  1.
</event>
<event>
 7    1  0.3046295E-009  0.4614232E+02  0.7816164E-02  0.1320468E+00
        -11   -1    0    0    0    0  0.00000000000E+00  0.00000000000E+00  0.45593999997E+02  0.45594000000E+02  0.51100000000E-03 0.  1.
         11   -1    0    0    0    0 -0.00000000000E+00 -0.00000000000E+00 -0.45593999997E+02  0.45594000000E+02  0.51100000000E-03 0. -1.
    9900012    2    1    2    0    0 -0.42019692340E+02  0.15171678591E+02 -0.57688011149E+01  0.46142318276E+02  0.10000004698E+02 0.  0.
         12    1    1    2    0    0  0.42019692340E+02 -0.15171678591E+02  0.57688011149E+01  0.45045681724E+02  0.00000000000E+00 0. -1.
         11    1    3    3    0    0 -0.13109473086E+02  0.30701243741E+01 -0.22624002102E+01  0.13652926545E+02  0.51100000000E-03 0. -1.
        -11    1    3    3    0    0 -0.21145744911E+01 -0.95069363233E+00  0.61920226989E+00  0.23997198531E+01  0.51100000000E-03 0.  1.
        -12    1    3    3    0    0 -0.26795644763E+02  0.13052247849E+02 -0.41256031746E+01  0.30089671878E+02  0.00000000000E+00 0.  1.
</event>
<event>
 7    1  0.3046295E-009  0.4614232E+02  0.7816164E-02  0.1320468E+00
        -11   -1    0    0    0    0  0.00000000000E+00  0.00000000000E+00  0.45593999997E+02  0.45594000000E+02  0.51100000000E-03 0.  1.
         11   -1    0    0    0    0 -0.00000000000E+00 -0.00000000000E+00 -0.45593999997E+02  0.45594000000E+02  0.51100000000E-03 0. -1.
    9900012    2    1    2    0    0  0.14779209691E+02  0.22500770129E+02  0.36116529563E+02  0.46142318707E+02  0.10000008626E+02 0.  0.
         12    1    1    2    0    0 -0.14779209691E+02 -0.22500770129E+02 -0.36116529563E+02  0.45045681293E+02  0.00000000000E+00 0. -1.
         11    1    3    3    0    0  0.11189590099E+01  0.50684197271E+01  0.32496927460E+01  0.61238428295E+01  0.51100000000E-03 0. -1.
        -11    1    3    3    0    0  0.13427066784E+02  0.16293426190E+02  0.28311749347E+02  0.35317375480E+02  0.51100000000E-03 0.  1.
         12    1    3    3    0    0  0.23318389658E+00  0.11389242115E+01  0.45550874702E+01  0.47011003979E+01  0.00000000000E+00 0. -1.
</event>
<event>
 7    1  0.3046295E-009  0.4614232E+02  0.7816164E-02  0.1320468E+00
        -11   -1    0    0    0    0  0.00000000000E+00  0.00000000000E+00  0.45593999997E+02  0.45594000000E+02  0.51100000000E-03 0.  1.
         11   -1    0    0    0    0 -0.00000000000E+00 -0.00000000000E+00 -0.45593999997E+02  0.45594000000E+02  0.51100000000E-03 0. -1.
    9900012    2    1    2    0    0  0.54333895618E+01  0.33359602193E+01  0.44592187110E+02  0.46142317588E+02  0.99999984219E+01 0.  0.
         12    1    1    2    0    0 -0.54333895618E+01 -0.33359602193E+01 -0.44592187110E+02  0.45045682412E+02  0.00000000000E+00 0. -1.
         11    1    3    3    0    0 -0.10045161197E+01 -0.48592779925E+00  0.61183187094E+01  0.62192445323E+01  0.51100000000E-03 0. -1.
        -11    1    3    3    0    0  0.59425063859E+01  0.34489808171E+00  0.14210538979E+02  0.15406873634E+02  0.51100000000E-03 0.  1.
        -12    1    3    3    0    0  0.49539929559E+00  0.34769899369E+01  0.24263329422E+02  0.24516199422E+02  0.00000000000E+00 0.  1.
</event>
<event>
 7    1  0.3046295E-009  0.4614232E+02  0.7816164E-02  0.1320468E+00
        -11   -1    0    0    0    0  0.00000000000E+00  0.00000000000E+00  0.45593999997E+02  0.45594000000E+02  0.51100000000E-03 0.  1.
         11   -1    0    0    0    0 -0.00000000000E+00 -0.00000000000E+00 -0.45593999997E+02  0.45594000000E+02  0.51100000000E-03 0. -1.
    9900012    2    1    2    0    0 -0.36512883344E+02 -0.23670416332E+02  0.11646210863E+02  0.46142317777E+02  0.10000000148E+02 0.  0.
         12    1    1    2    0    0  0.36512883344E+02  0.23670416332E+02 -0.11646210863E+02  0.45045682223E+02  0.00000000000E+00 0. -1.
         11    1    3    3    0    0 -0.72876419395E+01 -0.55744195750E+01 -0.84233449258E+00  0.92137617885E+01  0.51100000000E-03 0. -1.
        -11    1    3    3    0    0 -0.26330076837E+02 -0.14922051426E+02  0.95956111642E+01  0.31749272730E+02  0.51100000000E-03 0.  1.
        -12    1    3    3    0    0 -0.28951645676E+01 -0.31739453316E+01  0.28929341917E+01  0.51792832592E+01  0.00000000000E+00 0.  1.
</event>
<event>
 7    1  0.3046295E-009  0.4614232E+02  0.7816164E-02  0.1320468E+00
        -11   -1    0    0    0    0  0.00000000000E+00  0.00000000000E+00  0.45593999997E+02  0.45594000000E+02  0.51100000000E-03 0.  1.
         11   -1    0    0    0    0 -0.00000000000E+00 -0.00000000000E+00 -0.45593999997E+02  0.45594000000E+02  0.51100000000E-03 0. -1.
    9900012    2    1    2    0    0  0.43523961842E+02  0.84605659781E+01 -0.79496572116E+01  0.46142317844E+02  0.10000000760E+02 0.  0.
         12    1    1    2    0    0 -0.43523961842E+02 -0.84605659781E+01  0.79496572116E+01  0.45045682156E+02  0.00000000000E+00 0. -1.
         11    1    3    3    0    0  0.19893506652E+02  0.16217267997E+01 -0.17846685180E+01  0.20039127893E+02  0.51100000000E-03 0. -1.
        -11    1    3    3    0    0  0.16070483915E+02  0.39259205637E+01 -0.11677738546E+01  0.16584239554E+02  0.51100000000E-03 0.  1.
         12    1    3    3    0    0  0.75599712745E+01  0.29129186148E+01 -0.49972148389E+01  0.95189503977E+01  0.00000000000E+00 0. -1.
</event>
<event>
 7    1  0.3046295E-009  0.4614232E+02  0.7816164E-02  0.1320468E+00
        -11   -1    0    0    0    0  0.00000000000E+00  0.00000000000E+00  0.45593999997E+02  0.45594000000E+02  0.51100000000E-03 0. -1.
         11   -1    0    0    0    0 -0.00000000000E+00 -0.00000000000E+00 -0.45593999997E+02  0.45594000000E+02  0.51100000000E-03 0.  1.
    9900012    2    1    2    0    0 -0.39433800405E+02  0.18910353194E+02 -0.10792933186E+02  0.46142317865E+02  0.10000000944E+02 0.  0.
         12    1    1    2    0    0  0.39433800405E+02 -0.18910353194E+02  0.10792933186E+02  0.45045682135E+02  0.00000000000E+00 0. -1.
         11    1    3    3    0    0 -0.57060416581E+01  0.36480120404E+01  0.86658361174E+00  0.68277280751E+01  0.51100000000E-03 0. -1.
        -11    1    3    3    0    0 -0.76129139073E+01  0.46543016766E+01 -0.31011609662E+00  0.89283343638E+01  0.51100000000E-03 0.  1.
         12    1    3    3    0    0 -0.26114844839E+02  0.10608039477E+02 -0.11349400701E+02  0.30386255426E+02  0.00000000000E+00 0. -1.
</event>
<event>
 7    1  0.3046295E-009  0.4614232E+02  0.7816164E-02  0.1320468E+00
        -11   -1    0    0    0    0  0.00000000000E+00  0.00000000000E+00  0.45593999997E+02  0.45594000000E+02  0.51100000000E-03 0.  1.
         11   -1    0    0    0    0 -0.00000000000E+00 -0.00000000000E+00 -0.45593999997E+02  0.45594000000E+02  0.51100000000E-03 0. -1.
    9900012    2    1    2    0    0  0.17699262175E+02 -0.38491290727E+02  0.15305884170E+02  0.46142318369E+02  0.10000005541E+02 0.  0.
         12    1    1    2    0    0 -0.17699262175E+02  0.38491290727E+02 -0.15305884170E+02  0.45045681631E+02  0.00000000000E+00 0. -1.
         11    1    3    3    0    0  0.79697913892E+01 -0.19562797866E+02  0.88925164813E+01  0.22919369206E+02  0.51100000000E-03 0. -1.
        -11    1    3    3    0    0  0.83967476463E+01 -0.14999856080E+02  0.22348726905E+01  0.17334812075E+02  0.51100000000E-03 0.  1.
         12    1    3    3    0    0  0.13327231399E+01 -0.39286367805E+01  0.41784949982E+01  0.58881370883E+01  0.00000000000E+00 0. -1.
</event>
<event>
 7    1  0.3046295E-009  0.4614232E+02  0.7816164E-02  0.1320468E+00
        -11   -1    0    0    0    0  0.00000000000E+00  0.00000000000E+00  0.45593999997E+02  0.45594000000E+02  0.51100000000E-03 0.  1.
         11   -1    0    0    0    0 -0.00000000000E+00 -0.00000000000E+00 -0.45593999997E+02  0.45594000000E+02  0.51100000000E-03 0. -1.
    9900012    2    1    2    0    0  0.12497844038E+02 -0.15067699730E+02  0.40569468183E+02  0.46142318416E+02  0.10000005968E+02 0.  0.
         12    1    1    2    0    0 -0.12497844038E+02  0.15067699730E+02 -0.40569468183E+02  0.45045681584E+02  0.00000000000E+00 0. -1.
         11    1    3    3    0    0  0.20256701908E+01  0.11110982869E+01  0.74088632146E+01  0.77607431035E+01  0.51100000000E-03 0. -1.
        -11    1    3    3    0    0  0.78967499547E+01 -0.12187673080E+02  0.26181702438E+02  0.29939598824E+02  0.51100000000E-03 0.  1.
        -12    1    3    3    0    0  0.25754238922E+01 -0.39911249370E+01  0.69789025310E+01  0.84419764880E+01  0.00000000000E+00 0.  1.
</event>
<event>
 7    1  0.3217972E-009  0.4614232E+02  0.7816164E-02  0.1320468E+00
        -11   -1    0    0    0    0  0.00000000000E+00  0.00000000000E+00  0.45593999997E+02  0.45594000000E+02  0.51100000000E-03 0. -1.
         11   -1    0    0    0    0 -0.00000000000E+00 -0.00000000000E+00 -0.45593999997E+02  0.45594000000E+02  0.51100000000E-03 0.  1.
    9900012    2    1    2    0    0 -0.28876836866E+02  0.29043947087E+02 -0.18753423511E+02  0.46142318041E+02  0.10000002551E+02 0.  0.
         12    1    1    2    0    0  0.28876836866E+02 -0.29043947087E+02  0.18753423511E+02  0.45045681959E+02  0.00000000000E+00 0. -1.
         11    1    3    3    0    0 -0.11091433996E+02  0.80909908503E+01 -0.29457393206E+01  0.14041418070E+02  0.51100000000E-03 0. -1.
        -11    1    3    3    0    0 -0.12307767740E+02  0.11343020423E+02 -0.11072718829E+02  0.20068641249E+02  0.51100000000E-03 0.  1.
        -12    1    3    3    0    0 -0.54776351302E+01  0.96099358137E+01 -0.47349653615E+01  0.12032258721E+02  0.00000000000E+00 0.  1.
</event>
<event>
 7    1  0.3046295E-009  0.4614232E+02  0.7816164E-02  0.1320468E+00
        -11   -1    0    0    0    0  0.00000000000E+00  0.00000000000E+00  0.45593999997E+02  0.45594000000E+02  0.51100000000E-03 0. -1.
         11   -1    0    0    0    0 -0.00000000000E+00 -0.00000000000E+00 -0.45593999997E+02  0.45594000000E+02  0.51100000000E-03 0.  1.
    9900012    2    1    2    0    0  0.74793340710E+01 -0.19212960829E+02 -0.40050408442E+02  0.46142317429E+02  0.99999969708E+01 0.  0.
         12    1    1    2    0    0 -0.74793340710E+01  0.19212960829E+02  0.40050408442E+02  0.45045682571E+02  0.00000000000E+00 0. -1.
         11    1    3    3    0    0  0.37699611129E+01 -0.92147907232E+01 -0.20559061154E+02  0.22842941375E+02  0.51100000000E-03 0. -1.
        -11    1    3    3    0    0  0.38314783889E+01 -0.52111166691E+01 -0.16322192483E+02  0.17557047910E+02  0.51100000000E-03 0.  1.
         12    1    3    3    0    0 -0.12210543087E+00 -0.47870534365E+01 -0.31691548040E+01  0.57423281439E+01  0.00000000000E+00 0. -1.
</event>
<event>
 7    1  0.3046295E-009  0.4614232E+02  0.7816164E-02  0.1320468E+00
        -11   -1    0    0    0    0  0.00000000000E+00  0.00000000000E+00  0.45593999997E+02  0.45594000000E+02  0.51100000000E-03 0.  1.
         11   -1    0    0    0    0 -0.00000000000E+00 -0.00000000000E+00 -0.45593999997E+02  0.45594000000E+02  0.51100000000E-03 0. -1.
    9900012    2    1    2    0    0  0.21363659985E+02 -0.37418232332E+02  0.13137095611E+02  0.46142319187E+02  0.10000013005E+02 0.  0.
         12    1    1    2    0    0 -0.21363659985E+02  0.37418232332E+02 -0.13137095611E+02  0.45045680813E+02  0.00000000000E+00 0. -1.
         11    1    3    3    0    0  0.23925187850E+01 -0.14721478621E+01  0.15140635794E+01  0.31911994998E+01  0.51100000000E-03 0. -1.
        -11    1    3    3    0    0  0.41472865641E+01 -0.27750393579E+01  0.91438759749E+00  0.50731582098E+01  0.51100000000E-03 0.  1.
        -12    1    3    3    0    0  0.14823854636E+02 -0.33171045112E+02  0.10708644434E+02  0.37877961478E+02  0.00000000000E+00 0.  1.
</event>
<event>
 7    1  0.3046295E-009  0.4614232E+02  0.7816164E-02  0.1320468E+00
        -11   -1    0    0    0    0  0.00000000000E+00  0.00000000000E+00  0.45593999997E+02  0.45594000000E+02  0.51100000000E-03 0.  1.
         11   -1    0    0    0    0 -0.00000000000E+00 -0.00000000000E+00 -0.45593999997E+02  0.45594000000E+02  0.51100000000E-03 0. -1.
    9900012    2    1    2    0    0  0.16060160135E+02 -0.16933473169E+02  0.38528460155E+02  0.46142317643E+02  0.99999989240E+01 0.  0.
         12    1    1    2    0    0 -0.16060160135E+02  0.16933473169E+02 -0.38528460155E+02  0.45045682357E+02  0.00000000000E+00 0. -1.
         11    1    3    3    0    0  0.19382536667E+01 -0.34443646858E+01  0.35313168143E+01  0.53000635911E+01  0.51100000000E-03 0. -1.
        -11    1    3    3    0    0  0.14712870620E+02 -0.13649881183E+02  0.31922533865E+02  0.37707240509E+02  0.51100000000E-03 0.  1.
         12    1    3    3    0    0 -0.59096415215E+00  0.16077269932E+00  0.30746094748E+01  0.31350135426E+01  0.00000000000E+00 0. -1.
</event>
<event>
 7    1  0.3046295E-009  0.4614233E+02  0.7816164E-02  0.1320468E+00
        -11   -1    0    0    0    0  0.00000000000E+00  0.00000000000E+00  0.45593999997E+02  0.45594000000E+02  0.51100000000E-03 0.  1.
         11   -1    0    0    0    0 -0.00000000000E+00 -0.00000000000E+00 -0.45593999997E+02  0.45594000000E+02  0.51100000000E-03 0. -1.
    9900012    2    1    2    0    0  0.33001082711E+02 -0.36937969383E+01  0.30436765717E+02  0.46142330916E+02  0.10000119957E+02 0.  0.
         12    1    1    2    0    0 -0.33001082711E+02  0.36937969383E+01 -0.30436765717E+02  0.45045669084E+02  0.00000000000E+00 0. -1.
         11    1    3    3    0    0  0.23307293206E+02  0.10264206726E+01  0.23630946578E+02  0.33207003665E+02  0.51100000000E-03 0. -1.
        -11    1    3    3    0    0  0.29527799588E+01 -0.41995498332E+00  0.22175680614E+01  0.37165683151E+01  0.51100000000E-03 0.  1.
         12    1    3    3    0    0  0.67410095461E+01 -0.43002626275E+01  0.45882510775E+01  0.92187589358E+01  0.00000000000E+00 0. -1.
</event>
<event>
 7    1  0.3046295E-009  0.4614232E+02  0.7816164E-02  0.1320468E+00
        -11   -1    0    0    0    0  0.00000000000E+00  0.00000000000E+00  0.45593999997E+02  0.45594000000E+02  0.51100000000E-03 0.  1.
         11   -1    0    0    0    0 -0.00000000000E+00 -0.00000000000E+00 -0.45593999997E+02  0.45594000000E+02  0.51100000000E-03 0. -1.
    9900012    2    1    2    0    0  0.27725717971E+02  0.34528241025E+02 -0.82582437964E+01  0.46142318122E+02  0.10000003291E+02 0.  0.
         12    1    1    2    0    0 -0.27725717971E+02 -0.34528241025E+02  0.82582437964E+01  0.45045681878E+02  0.00000000000E+00 0. -1.
         11    1    3    3    0    0  0.17001788808E+01  0.13687651584E+01 -0.47917801964E+00  0.22346673402E+01  0.51100000000E-03 0. -1.
        -11    1    3    3    0    0  0.14675668552E+02  0.20768067246E+02 -0.94774733981E-01  0.25430234901E+02  0.51100000000E-03 0.  1.
        -12    1    3    3    0    0  0.11349870538E+02  0.12391408620E+02 -0.76842910428E+01  0.18477415881E+02  0.00000000000E+00 0.  1.
</event>
<event>
 7    1  0.3046295E-009  0.4614232E+02  0.7816164E-02  0.1320468E+00
        -11   -1    0    0    0    0  0.00000000000E+00  0.00000000000E+00  0.45593999997E+02  0.45594000000E+02  0.51100000000E-03 0. -1.
         11   -1    0    0    0    0 -0.00000000000E+00 -0.00000000000E+00 -0.45593999997E+02  0.45594000000E+02  0.51100000000E-03 0.  1.
    9900012    2    1    2    0    0 -0.43096379218E+02  0.12337578197E+02 -0.44271611660E+01  0.46142317705E+02  0.99999994844E+01 0.  0.
         12    1    1    2    0    0  0.43096379218E+02 -0.12337578197E+02  0.44271611660E+01  0.45045682295E+02  0.00000000000E+00 0. -1.
         11    1    3    3    0    0 -0.18748310040E+02  0.22680101839E+01 -0.35173379868E+01  0.19209754458E+02  0.51100000000E-03 0.  1.
        -11    1    3    3    0    0  0.29507214693E+00  0.25178659992E+00  0.30213750326E-01  0.38907222418E+00  0.51100000000E-03 0. -1.
         12    1    3    3    0    0 -0.24643141324E+02  0.98177814137E+01 -0.94003692955E+00  0.26543491022E+02  0.00000000000E+00 0. -1.
</event>
<event>
 7    1  0.3046295E-009  0.4614232E+02  0.7816164E-02  0.1320468E+00
        -11   -1    0    0    0    0  0.00000000000E+00  0.00000000000E+00  0.45593999997E+02  0.45594000000E+02  0.51100000000E-03 0.  1.
         11   -1    0    0    0    0 -0.00000000000E+00 -0.00000000000E+00 -0.45593999997E+02  0.45594000000E+02  0.51100000000E-03 0. -1.
    9900012    2    1    2    0    0 -0.12515493578E+02 -0.11524023141E+02  0.41709384279E+02  0.46142318456E+02  0.10000006335E+02 0.  0.
         12    1    1    2    0    0  0.12515493578E+02  0.11524023141E+02 -0.41709384279E+02  0.45045681544E+02  0.00000000000E+00 0. -1.
         11    1    3    3    0    0  0.93138121249E+00 -0.12022422498E+01  0.53445490509E+01  0.55567132560E+01  0.51100000000E-03 0. -1.
        -11    1    3    3    0    0 -0.27649666988E+01 -0.72683638480E+00  0.24820175392E+01  0.37859930404E+01  0.51100000000E-03 0.  1.
        -12    1    3    3    0    0 -0.10681908092E+02 -0.95949445061E+01  0.33882817689E+02  0.36799612159E+02  0.00000000000E+00 0.  1.
</event>
<event>
 7    1  0.3046295E-009  0.4614232E+02  0.7816164E-02  0.1320468E+00
        -11   -1    0    0    0    0  0.00000000000E+00  0.00000000000E+00  0.45593999997E+02  0.45594000000E+02  0.51100000000E-03 0.  1.
         11   -1    0    0    0    0 -0.00000000000E+00 -0.00000000000E+00 -0.45593999997E+02  0.45594000000E+02  0.51100000000E-03 0. -1.
    9900012    2    1    2    0    0 -0.73039171231E+00  0.40922186958E+02  0.18813683132E+02  0.46142317294E+02  0.99999957365E+01 0.  0.
         12    1    1    2    0    0  0.73039171231E+00 -0.40922186958E+02 -0.18813683132E+02  0.45045682706E+02  0.00000000000E+00 0. -1.
         11    1    3    3    0    0 -0.23946451397E+00  0.60253285081E+01  0.14447430229E+01  0.62007426609E+01  0.51100000000E-03 0. -1.
        -11    1    3    3    0    0  0.12606551777E+01  0.85088023082E+01  0.83817346434E+01  0.12010097589E+02  0.51100000000E-03 0.  1.
        -12    1    3    3    0    0 -0.17515823760E+01  0.26388056142E+02  0.89872054657E+01  0.27931477044E+02  0.00000000000E+00 0.  1.
</event>
<event>
 7    1  0.3046295E-009  0.4614232E+02  0.7816164E-02  0.1320468E+00
        -11   -1    0    0    0    0  0.00000000000E+00  0.00000000000E+00  0.45593999997E+02  0.45594000000E+02  0.51100000000E-03 0. -1.
         11   -1    0    0    0    0 -0.00000000000E+00 -0.00000000000E+00 -0.45593999997E+02  0.45594000000E+02  0.51100000000E-03 0.  1.
    9900012    2    1    2    0    0  0.10684156105E+02  0.37863191430E+02 -0.21939491106E+02  0.46142315113E+02  0.99999758534E+01 0.  0.
         12    1    1    2    0    0 -0.10684156105E+02 -0.37863191430E+02  0.21939491106E+02  0.45045684887E+02  0.00000000000E+00 0. -1.
         11    1    3    3    0    0  0.20859433322E+01  0.17898918865E+02 -0.12798696083E+02  0.22102693903E+02  0.51100000000E-03 0.  1.
        -11    1    3    3    0    0  0.88251025862E+01  0.19570143975E+02 -0.81744320135E+01  0.22971597896E+02  0.51100000000E-03 0. -1.
         12    1    3    3    0    0 -0.22688981382E+00  0.39412859024E+00 -0.96636300954E+00  0.10680233141E+01  0.00000000000E+00 0. -1.
</event>
<event>
 7    1  0.3171600E-009  0.4614232E+02  0.7816164E-02  0.1320468E+00
        -11   -1    0    0    0    0  0.00000000000E+00  0.00000000000E+00  0.45593999997E+02  0.45594000000E+02  0.51100000000E-03 0.  1.
         11   -1    0    0    0    0 -0.00000000000E+00 -0.00000000000E+00 -0.45593999997E+02  0.45594000000E+02  0.51100000000E-03 0. -1.
    9900012    2    1    2    0    0  0.37541262832E+02  0.24728610959E+02  0.28745483289E+01  0.46142316043E+02  0.99999843370E+01 0.  0.
         12    1    1    2    0    0 -0.37541262832E+02 -0.24728610959E+02 -0.28745483289E+01  0.45045683957E+02  0.00000000000E+00 0. -1.
         11    1    3    3    0    0  0.47062281784E+01  0.63999670220E+00  0.40449205250E+00  0.47667382483E+01  0.51100000000E-03 0. -1.
        -11    1    3    3    0    0  0.23412074874E+02  0.13278164361E+02  0.68414790183E+00  0.26924021938E+02  0.51100000000E-03 0.  1.
        -12    1    3    3    0    0  0.94229597796E+01  0.10810449896E+02  0.17859083746E+01  0.14451555857E+02  0.00000000000E+00 0.  1.
</event>
<event>
 7    1  0.3327421E-009  0.4614232E+02  0.7816164E-02  0.1320468E+00
        -11   -1    0    0    0    0  0.00000000000E+00  0.00000000000E+00  0.45593999997E+02  0.45594000000E+02  0.51100000000E-03 0. -1.
         11   -1    0    0    0    0 -0.00000000000E+00 -0.00000000000E+00 -0.45593999997E+02  0.45594000000E+02  0.51100000000E-03 0.  1.
    9900012    2    1    2    0    0  0.49433586034E+01  0.34240420235E+02 -0.28849096007E+02  0.46142317493E+02  0.99999975540E+01 0.  0.
         12    1    1    2    0    0 -0.49433586034E+01 -0.34240420235E+02  0.28849096007E+02  0.45045682507E+02  0.00000000000E+00 0. -1.
         11    1    3    3    0    0  0.14982990683E+01  0.24198539656E+01 -0.39198636953E+00  0.28730205164E+01  0.51100000000E-03 0. -1.
        -11    1    3    3    0    0  0.20424913633E+01  0.17865957882E+02 -0.19984175484E+02  0.26883665897E+02  0.51100000000E-03 0.  1.
        -12    1    3    3    0    0  0.14025681719E+01  0.13954608387E+02 -0.84729341527E+01  0.16385631079E+02  0.00000000000E+00 0.  1.
</event>
<event>
 7    1  0.3046295E-009  0.4614232E+02  0.7816164E-02  0.1320468E+00
        -11   -1    0    0    0    0  0.00000000000E+00  0.00000000000E+00  0.45593999997E+02  0.45594000000E+02  0.51100000000E-03 0.  1.
         11   -1    0    0    0    0 -0.00000000000E+00 -0.00000000000E+00 -0.45593999997E+02  0.45594000000E+02  0.51100000000E-03 0. -1.
    9900012    2    1    2    0    0 -0.17163097033E+02 -0.41562826391E+02  0.26595416149E+01  0.46142316534E+02  0.99999888081E+01 0.  0.
         12    1    1    2    0    0  0.17163097033E+02  0.41562826391E+02 -0.26595416149E+01  0.45045683466E+02  0.00000000000E+00 0. -1.
         11    1    3    3    0    0 -0.19998372812E+01 -0.66911347340E+01  0.22088394632E+01  0.73245890817E+01  0.51100000000E-03 0. -1.
        -11    1    3    3    0    0  0.56691554607E+00 -0.30661296318E+01 -0.10855022437E+01  0.33016449745E+01  0.51100000000E-03 0.  1.
        -12    1    3    3    0    0 -0.15730175298E+02 -0.31805562025E+02  0.15362043954E+01  0.35516082478E+02  0.00000000000E+00 0.  1.
</event>
<event>
 7    1  0.3046295E-009  0.4614232E+02  0.7816164E-02  0.1320468E+00
        -11   -1    0    0    0    0  0.00000000000E+00  0.00000000000E+00  0.45593999997E+02  0.45594000000E+02  0.51100000000E-03 0.  1.
         11   -1    0    0    0    0 -0.00000000000E+00 -0.00000000000E+00 -0.45593999997E+02  0.45594000000E+02  0.51100000000E-03 0. -1.
    9900012    2    1    2    0    0 -0.15199873585E+01  0.13298921996E+02  0.43010949751E+02  0.46142317784E+02  0.10000000210E+02 0.  0.
         12    1    1    2    0    0  0.15199873585E+01 -0.13298921996E+02 -0.43010949751E+02  0.45045682216E+02  0.00000000000E+00 0. -1.
         11    1    3    3    0    0 -0.92369159147E+00  0.55203154701E-01  0.59542607741E+00  0.11003572235E+01  0.51100000000E-03 0. -1.
        -11    1    3    3    0    0  0.19265657585E+01  0.87115477780E+01  0.18102175923E+02  0.20181464113E+02  0.51100000000E-03 0.  1.
        -12    1    3    3    0    0 -0.25228615255E+01  0.45321710636E+01  0.24313347750E+02  0.24860496448E+02  0.00000000000E+00 0.  1.
</event>
<event>
 7    1  0.3046295E-009  0.4614231E+02  0.7816164E-02  0.1320468E+00
        -11   -1    0    0    0    0  0.00000000000E+00  0.00000000000E+00  0.45593999997E+02  0.45594000000E+02  0.51100000000E-03 0.  1.
         11   -1    0    0    0    0 -0.00000000000E+00 -0.00000000000E+00 -0.45593999997E+02  0.45594000000E+02  0.51100000000E-03 0. -1.
    9900012    2    1    2    0    0  0.25330515842E+02  0.95581596765E+01  0.36001673884E+02  0.46142312396E+02  0.99999510798E+01 0.  0.
         12    1    1    2    0    0 -0.25330515842E+02 -0.95581596765E+01 -0.36001673884E+02  0.45045687604E+02  0.00000000000E+00 0. -1.
         11    1    3    3    0    0 -0.18720246775E+00  0.21721500003E+00  0.91198185470E+00  0.95600119487E+00  0.51100000000E-03 0. -1.
        -11    1    3    3    0    0  0.37709019869E+01 -0.16337466700E+01  0.49454708362E+01  0.64301253510E+01  0.51100000000E-03 0.  1.
        -12    1    3    3    0    0  0.21746816323E+02  0.10974691346E+02  0.30144221193E+02  0.38756185851E+02  0.00000000000E+00 0.  1.
</event>
<event>
 7    1  0.3046295E-009  0.4614232E+02  0.7816164E-02  0.1320468E+00
        -11   -1    0    0    0    0  0.00000000000E+00  0.00000000000E+00  0.45593999997E+02  0.45594000000E+02  0.51100000000E-03 0.  1.
         11   -1    0    0    0    0 -0.00000000000E+00 -0.00000000000E+00 -0.45593999997E+02  0.45594000000E+02  0.51100000000E-03 0. -1.
    9900012    2    1    2    0    0  0.56476058257E+01  0.31583231512E+02  0.31618310016E+02  0.46142317714E+02  0.99999995728E+01 0.  0.
         12    1    1    2    0    0 -0.56476058257E+01 -0.31583231512E+02 -0.31618310016E+02  0.45045682286E+02  0.00000000000E+00 0. -1.
         11    1    3    3    0    0 -0.58431042049E+00  0.78465814684E+01  0.11860432356E+02  0.14233064158E+02  0.51100000000E-03 0. -1.
        -11    1    3    3    0    0  0.44192400233E+01  0.14252299492E+02  0.14949920982E+02  0.21122449215E+02  0.51100000000E-03 0.  1.
         12    1    3    3    0    0  0.18126762229E+01  0.94843505518E+01  0.48079566783E+01  0.10786804341E+02  0.00000000000E+00 0. -1.
</event>
<event>
 7    1  0.3619537E-009  0.4614232E+02  0.7816164E-02  0.1320468E+00
        -11   -1    0    0    0    0  0.00000000000E+00  0.00000000000E+00  0.45593999997E+02  0.45594000000E+02  0.51100000000E-03 0. -1.
         11   -1    0    0    0    0 -0.00000000000E+00 -0.00000000000E+00 -0.45593999997E+02  0.45594000000E+02  0.51100000000E-03 0.  1.
    9900012    2    1    2    0    0  0.18828345755E+01 -0.44542136041E+02 -0.64472165205E+01  0.46142317077E+02  0.99999937648E+01 0.  0.
         12    1    1    2    0    0 -0.18828345755E+01  0.44542136041E+02  0.64472165205E+01  0.45045682923E+02  0.00000000000E+00 0. -1.
         11    1    3    3    0    0  0.95227329376E+00 -0.38229237239E+00  0.28404870582E+00  0.10647327422E+01  0.51100000000E-03 0. -1.
        -11    1    3    3    0    0 -0.17042411549E+01 -0.32175056914E+02 -0.60839512393E+01  0.32789528638E+02  0.51100000000E-03 0.  1.
        -12    1    3    3    0    0  0.26348024367E+01 -0.11984786754E+02 -0.64731398704E+00  0.12288055697E+02  0.00000000000E+00 0.  1.
</event>
<event>
 7    1  0.3046295E-009  0.4614232E+02  0.7816164E-02  0.1320468E+00
        -11   -1    0    0    0    0  0.00000000000E+00  0.00000000000E+00  0.45593999997E+02  0.45594000000E+02  0.51100000000E-03 0. -1.
         11   -1    0    0    0    0 -0.00000000000E+00 -0.00000000000E+00 -0.45593999997E+02  0.45594000000E+02  0.51100000000E-03 0.  1.
    9900012    2    1    2    0    0  0.21103537995E+02  0.11214024554E+02 -0.38183764376E+02  0.46142317360E+02  0.99999963438E+01 0.  0.
         12    1    1    2    0    0 -0.21103537995E+02 -0.11214024554E+02  0.38183764376E+02  0.45045682640E+02  0.00000000000E+00 0. -1.
         11    1    3    3    0    0  0.12358365873E+02  0.52042848247E+01 -0.17747731812E+02  0.22244005312E+02  0.51100000000E-03 0.  1.
        -11    1    3    3    0    0 -0.91625333683E+00  0.11901252853E+01 -0.16544878723E+01  0.22345578428E+01  0.51100000000E-03 0. -1.
        -12    1    3    3    0    0  0.96614254587E+01  0.48196144443E+01 -0.18781544691E+02  0.21663754205E+02  0.00000000000E+00 0.  1.
</event>
<event>
 7    1  0.3046295E-009  0.4614232E+02  0.7816164E-02  0.1320468E+00
        -11   -1    0    0    0    0  0.00000000000E+00  0.00000000000E+00  0.45593999997E+02  0.45594000000E+02  0.51100000000E-03 0.  1.
         11   -1    0    0    0    0 -0.00000000000E+00 -0.00000000000E+00 -0.45593999997E+02  0.45594000000E+02  0.51100000000E-03 0. -1.
    9900012    2    1    2    0    0 -0.34727201133E+02  0.31921969083E+01  0.28512189851E+02  0.46142316636E+02  0.99999897423E+01 0.  0.
         12    1    1    2    0    0  0.34727201133E+02 -0.31921969083E+01 -0.28512189851E+02  0.45045683364E+02  0.00000000000E+00 0. -1.
         11    1    3    3    0    0 -0.16315799860E+01  0.80730260933E+00  0.53381699375E+01  0.56400221007E+01  0.51100000000E-03 0. -1.
        -11    1    3    3    0    0 -0.26758899772E+02  0.24393898759E+01  0.19150321153E+02  0.32995820046E+02  0.51100000000E-03 0.  1.
        -12    1    3    3    0    0 -0.63367213746E+01 -0.54495576919E-01  0.40236987599E+01  0.75064744893E+01  0.00000000000E+00 0.  1.
</event>
<event>
 7    1  0.3046295E-009  0.4614231E+02  0.7816164E-02  0.1320468E+00
        -11   -1    0    0    0    0  0.00000000000E+00  0.00000000000E+00  0.45593999997E+02  0.45594000000E+02  0.51100000000E-03 0.  1.
         11   -1    0    0    0    0 -0.00000000000E+00 -0.00000000000E+00 -0.45593999997E+02  0.45594000000E+02  0.51100000000E-03 0. -1.
    9900012    2    1    2    0    0  0.35539489953E+02  0.11878376719E+02  0.24999251809E+02  0.46142314628E+02  0.99999714333E+01 0.  0.
         12    1    1    2    0    0 -0.35539489953E+02 -0.11878376719E+02 -0.24999251809E+02  0.45045685372E+02  0.00000000000E+00 0. -1.
         11    1    3    3    0    0  0.50764958202E+01  0.13577802882E+01  0.77645640524E+01  0.93756510339E+01  0.51100000000E-03 0. -1.
        -11    1    3    3    0    0  0.15803738689E+02  0.36429622735E+01  0.74498607211E+01  0.17847401932E+02  0.51100000000E-03 0.  1.
        -12    1    3    3    0    0  0.14659255444E+02  0.68776341569E+01  0.97848270352E+01  0.18919261663E+02  0.00000000000E+00 0.  1.
</event>
<event>
 7    1  0.3046295E-009  0.4614232E+02  0.7816164E-02  0.1320468E+00
        -11   -1    0    0    0    0  0.00000000000E+00  0.00000000000E+00  0.45593999997E+02  0.45594000000E+02  0.51100000000E-03 0.  1.
         11   -1    0    0    0    0 -0.00000000000E+00 -0.00000000000E+00 -0.45593999997E+02  0.45594000000E+02  0.51100000000E-03 0. -1.
    9900012    2    1    2    0    0 -0.68173787146E+01 -0.37795139312E+02  0.23540696769E+02  0.46142316383E+02  0.99999874307E+01 0.  0.
         12    1    1    2    0    0  0.68173787146E+01  0.37795139312E+02 -0.23540696769E+02  0.45045683617E+02  0.00000000000E+00 0. -1.
         11    1    3    3    0    0 -0.75963561190E+00 -0.64056906410E+00  0.23023814533E+01  0.25076554002E+01  0.51100000000E-03 0. -1.
        -11    1    3    3    0    0 -0.43191090336E+00 -0.21081340097E+02  0.11973813661E+02  0.24248333163E+02  0.51100000000E-03 0.  1.
         12    1    3    3    0    0 -0.56258321994E+01 -0.16073230151E+02  0.92645016547E+01  0.19386327820E+02  0.00000000000E+00 0. -1.
</event>
<event>
 7    1  0.3046295E-009  0.4614232E+02  0.7816164E-02  0.1320468E+00
        -11   -1    0    0    0    0  0.00000000000E+00  0.00000000000E+00  0.45593999997E+02  0.45594000000E+02  0.51100000000E-03 0.  1.
         11   -1    0    0    0    0 -0.00000000000E+00 -0.00000000000E+00 -0.45593999997E+02  0.45594000000E+02  0.51100000000E-03 0. -1.
    9900012    2    1    2    0    0 -0.12259053758E+02  0.28069614041E+02  0.33029166630E+02  0.46142317857E+02  0.10000000877E+02 0.  0.
         12    1    1    2    0    0  0.12259053758E+02 -0.28069614041E+02 -0.33029166630E+02  0.45045682143E+02  0.00000000000E+00 0. -1.
         11    1    3    3    0    0  0.15279554009E+01  0.34136641400E+01  0.47179945870E+01  0.60205667301E+01  0.51100000000E-03 0. -1.
        -11    1    3    3    0    0 -0.11170622808E+02  0.19167227986E+02  0.23902220648E+02  0.32611065526E+02  0.51100000000E-03 0.  1.
         12    1    3    3    0    0 -0.26163863510E+01  0.54887219149E+01  0.44089513948E+01  0.75106856011E+01  0.00000000000E+00 0. -1.
</event>
<event>
 7    1  0.3046295E-009  0.4614232E+02  0.7816164E-02  0.1320468E+00
        -11   -1    0    0    0    0  0.00000000000E+00  0.00000000000E+00  0.45593999997E+02  0.45594000000E+02  0.51100000000E-03 0.  1.
         11   -1    0    0    0    0 -0.00000000000E+00 -0.00000000000E+00 -0.45593999997E+02  0.45594000000E+02  0.51100000000E-03 0. -1.
    9900012    2    1    2    0    0  0.27588116136E+02 -0.33182274288E+02  0.12920760031E+02  0.46142317425E+02  0.99999969360E+01 0.  0.
         12    1    1    2    0    0 -0.27588116136E+02  0.33182274288E+02 -0.12920760031E+02  0.45045682575E+02  0.00000000000E+00 0. -1.
         11    1    3    3    0    0  0.52332863361E+01 -0.45798447070E+01  0.20226446086E+01  0.72424688393E+01  0.51100000000E-03 0. -1.
        -11    1    3    3    0    0  0.33082581135E+01 -0.45115619146E+00  0.12820610151E+01  0.35765618074E+01  0.51100000000E-03 0.  1.
        -12    1    3    3    0    0  0.19046571687E+02 -0.28151273389E+02  0.96160544071E+01  0.35323286778E+02  0.00000000000E+00 0.  1.
</event>
<event>
 7    1  0.3046295E-009  0.4614232E+02  0.7816164E-02  0.1320468E+00
        -11   -1    0    0    0    0  0.00000000000E+00  0.00000000000E+00  0.45593999997E+02  0.45594000000E+02  0.51100000000E-03 0. -1.
         11   -1    0    0    0    0 -0.00000000000E+00 -0.00000000000E+00 -0.45593999997E+02  0.45594000000E+02  0.51100000000E-03 0.  1.
    9900012    2    1    2    0    0  0.34478960170E+02 -0.26889103362E+02 -0.10830094209E+02  0.46142317470E+02  0.99999973470E+01 0.  0.
         12    1    1    2    0    0 -0.34478960170E+02  0.26889103362E+02  0.10830094209E+02  0.45045682530E+02  0.00000000000E+00 0. -1.
         11    1    3    3    0    0  0.16839562636E+02 -0.73675742918E+01 -0.57182662251E+01  0.19249690636E+02  0.51100000000E-03 0. -1.
        -11    1    3    3    0    0  0.44492707642E+01 -0.48999001843E+01 -0.22684381604E+01  0.69964879831E+01  0.51100000000E-03 0.  1.
         12    1    3    3    0    0  0.13190126770E+02 -0.14621628886E+02 -0.28433898234E+01  0.19896138851E+02  0.00000000000E+00 0. -1.
</event>
<event>
 7    1  0.3046295E-009  0.4614232E+02  0.7816164E-02  0.1320468E+00
        -11   -1    0    0    0    0  0.00000000000E+00  0.00000000000E+00  0.45593999997E+02  0.45594000000E+02  0.51100000000E-03 0.  1.
         11   -1    0    0    0    0 -0.00000000000E+00 -0.00000000000E+00 -0.45593999997E+02  0.45594000000E+02  0.51100000000E-03 0. -1.
    9900012    2    1    2    0    0  0.25427995246E+02  0.30929749370E+02  0.20636890236E+02  0.46142316778E+02  0.99999910355E+01 0.  0.
         12    1    1    2    0    0 -0.25427995246E+02 -0.30929749370E+02 -0.20636890236E+02  0.45045683222E+02  0.00000000000E+00 0. -1.
         11    1    3    3    0    0  0.37024639140E+01  0.39906064590E+01  0.40758592322E+01  0.68004270224E+01  0.51100000000E-03 0. -1.
        -11    1    3    3    0    0  0.10692394357E+02  0.79281609335E+01  0.91213755190E+01  0.16136372718E+02  0.51100000000E-03 0.  1.
        -12    1    3    3    0    0  0.11033136975E+02  0.19010981977E+02  0.74396554853E+01  0.23205517038E+02  0.00000000000E+00 0.  1.
</event>
<event>
 7    1  0.3046295E-009  0.4614231E+02  0.7816164E-02  0.1320468E+00
        -11   -1    0    0    0    0  0.00000000000E+00  0.00000000000E+00  0.45593999997E+02  0.45594000000E+02  0.51100000000E-03 0.  1.
         11   -1    0    0    0    0 -0.00000000000E+00 -0.00000000000E+00 -0.45593999997E+02  0.45594000000E+02  0.51100000000E-03 0. -1.
    9900012    2    1    2    0    0  0.24947355777E+02 -0.27709622077E+02  0.25276871038E+02  0.46142312910E+02  0.99999557680E+01 0.  0.
         12    1    1    2    0    0 -0.24947355777E+02  0.27709622077E+02 -0.25276871038E+02  0.45045687090E+02  0.00000000000E+00 0. -1.
         11    1    3    3    0    0  0.74554706316E+01 -0.60469030985E+01  0.27343046783E+01  0.99812575238E+01  0.51100000000E-03 0. -1.
        -11    1    3    3    0    0  0.14761508506E+02 -0.19175777284E+02  0.17296114148E+02  0.29745052239E+02  0.51100000000E-03 0.  1.
        -12    1    3    3    0    0  0.27303766395E+01 -0.24869416944E+01  0.52464522115E+01  0.64160031478E+01  0.00000000000E+00 0.  1.
</event>
<event>
 7    1  0.3046295E-009  0.4614232E+02  0.7816164E-02  0.1320468E+00
        -11   -1    0    0    0    0  0.00000000000E+00  0.00000000000E+00  0.45593999997E+02  0.45594000000E+02  0.51100000000E-03 0.  1.
         11   -1    0    0    0    0 -0.00000000000E+00 -0.00000000000E+00 -0.45593999997E+02  0.45594000000E+02  0.51100000000E-03 0. -1.
    9900012    2    1    2    0    0  0.39747291462E+01  0.39237082831E+02  0.21766173328E+02  0.46142318273E+02  0.10000004667E+02 0.  0.
         12    1    1    2    0    0 -0.39747291462E+01 -0.39237082831E+02 -0.21766173328E+02  0.45045681727E+02  0.00000000000E+00 0. -1.
         11    1    3    3    0    0  0.21851864007E+01  0.16490151515E+01  0.20349700342E+01  0.34110693158E+01  0.51100000000E-03 0. -1.
        -11    1    3    3    0    0  0.29833974215E+01  0.21848098962E+02  0.12745849029E+02  0.25469526029E+02  0.51100000000E-03 0.  1.
         12    1    3    3    0    0 -0.11938546761E+01  0.15739968718E+02  0.69853542647E+01  0.17261722928E+02  0.00000000000E+00 0. -1.
</event>
<event>
 7    1  0.3046295E-009  0.4614231E+02  0.7816164E-02  0.1320468E+00
        -11   -1    0    0    0    0  0.00000000000E+00  0.00000000000E+00  0.45593999997E+02  0.45594000000E+02  0.51100000000E-03 0.  1.
         11   -1    0    0    0    0 -0.00000000000E+00 -0.00000000000E+00 -0.45593999997E+02  0.45594000000E+02  0.51100000000E-03 0. -1.
    9900012    2    1    2    0    0  0.87630894426E+01 -0.40892657615E+02  0.16736566241E+02  0.46142313937E+02  0.99999651277E+01 0.  0.
         12    1    1    2    0    0 -0.87630894426E+01  0.40892657615E+02 -0.16736566241E+02  0.45045686063E+02  0.00000000000E+00 0. -1.
         11    1    3    3    0    0  0.17644910204E+01 -0.87895539480E+01  0.17045742757E+01  0.91255279786E+01  0.51100000000E-03 0. -1.
        -11    1    3    3    0    0  0.67591608460E+01 -0.32589181245E+02  0.14731934063E+02  0.36397401982E+02  0.51100000000E-03 0.  1.
        -12    1    3    3    0    0  0.23943757609E+00  0.48607757840E+00  0.30005790214E+00  0.61938397599E+00  0.00000000000E+00 0.  1.
</event>
<event>
 7    1  0.3046295E-009  0.4614232E+02  0.7816164E-02  0.1320468E+00
        -11   -1    0    0    0    0  0.00000000000E+00  0.00000000000E+00  0.45593999997E+02  0.45594000000E+02  0.51100000000E-03 0.  1.
         11   -1    0    0    0    0 -0.00000000000E+00 -0.00000000000E+00 -0.45593999997E+02  0.45594000000E+02  0.51100000000E-03 0. -1.
    9900012    2    1    2    0    0 -0.79499313181E+01  0.43395463413E+02 -0.90964725370E+01  0.46142318016E+02  0.10000002325E+02 0.  0.
         12    1    1    2    0    0  0.79499313181E+01 -0.43395463413E+02  0.90964725370E+01  0.45045681984E+02  0.00000000000E+00 0. -1.
         11    1    3    3    0    0 -0.20658685322E+01  0.25077214569E+02 -0.84806155352E+01  0.26552878252E+02  0.51100000000E-03 0. -1.
        -11    1    3    3    0    0 -0.18988043577E+01  0.11632903125E+02 -0.67474702481E+00  0.11806149961E+02  0.51100000000E-03 0.  1.
         12    1    3    3    0    0 -0.39852584282E+01  0.66853457185E+01  0.58890023029E-01  0.77832898026E+01  0.00000000000E+00 0. -1.
</event>
<event>
 7    1  0.3046295E-009  0.4614232E+02  0.7816164E-02  0.1320468E+00
        -11   -1    0    0    0    0  0.00000000000E+00  0.00000000000E+00  0.45593999997E+02  0.45594000000E+02  0.51100000000E-03 0. -1.
         11   -1    0    0    0    0 -0.00000000000E+00 -0.00000000000E+00 -0.45593999997E+02  0.45594000000E+02  0.51100000000E-03 0.  1.
    9900012    2    1    2    0    0  0.28423973201E+02 -0.29313673515E+02 -0.19023663955E+02  0.46142317657E+02  0.99999990489E+01 0.  0.
         12    1    1    2    0    0 -0.28423973201E+02  0.29313673515E+02  0.19023663955E+02  0.45045682343E+02  0.00000000000E+00 0. -1.
         11    1    3    3    0    0  0.42514477206E+01 -0.72951001951E+01 -0.48559223507E+00  0.84574874908E+01  0.51100000000E-03 0. -1.
        -11    1    3    3    0    0  0.18330350817E+02 -0.15431918660E+02 -0.12677646056E+02  0.27108459646E+02  0.51100000000E-03 0.  1.
         12    1    3    3    0    0  0.58421746630E+01 -0.65866546608E+01 -0.58604256637E+01  0.10576370520E+02  0.00000000000E+00 0. -1.
</event>
<event>
 7    1  0.3046295E-009  0.4614231E+02  0.7816164E-02  0.1320468E+00
        -11   -1    0    0    0    0  0.00000000000E+00  0.00000000000E+00  0.45593999997E+02  0.45594000000E+02  0.51100000000E-03 0. -1.
         11   -1    0    0    0    0 -0.00000000000E+00 -0.00000000000E+00 -0.45593999997E+02  0.45594000000E+02  0.51100000000E-03 0.  1.
    9900012    2    1    2    0    0  0.18555315590E+02 -0.29778761799E+02 -0.28249591882E+02  0.46142313942E+02  0.99999651780E+01 0.  0.
         12    1    1    2    0    0 -0.18555315590E+02  0.29778761799E+02  0.28249591882E+02  0.45045686058E+02  0.00000000000E+00 0. -1.
         11    1    3    3    0    0  0.99378187730E+01 -0.10910351879E+02 -0.10903787175E+02  0.18349076138E+02  0.51100000000E-03 0. -1.
        -11    1    3    3    0    0  0.78021126495E+01 -0.10863295334E+02 -0.12984118685E+02  0.18640587051E+02  0.51100000000E-03 0.  1.
         12    1    3    3    0    0  0.81538416755E+00 -0.80051145859E+01 -0.43616860219E+01  0.91526507542E+01  0.00000000000E+00 0. -1.
</event>
<event>
 7    1  0.3046295E-009  0.4614232E+02  0.7816164E-02  0.1320468E+00
        -11   -1    0    0    0    0  0.00000000000E+00  0.00000000000E+00  0.45593999997E+02  0.45594000000E+02  0.51100000000E-03 0.  1.
         11   -1    0    0    0    0 -0.00000000000E+00 -0.00000000000E+00 -0.45593999997E+02  0.45594000000E+02  0.51100000000E-03 0. -1.
    9900012    2    1    2    0    0  0.32430875606E+02 -0.21381540037E+02  0.22807490181E+02  0.46142317018E+02  0.99999932265E+01 0.  0.
         12    1    1    2    0    0 -0.32430875606E+02  0.21381540037E+02 -0.22807490181E+02  0.45045682982E+02  0.00000000000E+00 0. -1.
         11    1    3    3    0    0  0.66051498377E+01 -0.36436647317E+01  0.78242886351E+00  0.75839628324E+01  0.51100000000E-03 0. -1.
        -11    1    3    3    0    0  0.13753064269E+02 -0.83006681158E+01  0.87960968685E+01  0.18314452991E+02  0.51100000000E-03 0.  1.
         12    1    3    3    0    0  0.12072661499E+02 -0.94372071897E+01  0.13228964449E+02  0.20243901195E+02  0.00000000000E+00 0. -1.
</event>
<event>
 7    1  0.3046295E-009  0.4614232E+02  0.7816164E-02  0.1320468E+00
        -11   -1    0    0    0    0  0.00000000000E+00  0.00000000000E+00  0.45593999997E+02  0.45594000000E+02  0.51100000000E-03 0.  1.
         11   -1    0    0    0    0 -0.00000000000E+00 -0.00000000000E+00 -0.45593999997E+02  0.45594000000E+02  0.51100000000E-03 0. -1.
    9900012    2    1    2    0    0  0.22884210038E+02 -0.33783626390E+02  0.19081220719E+02  0.46142318018E+02  0.10000002339E+02 0.  0.
         12    1    1    2    0    0 -0.22884210038E+02  0.33783626390E+02 -0.19081220719E+02  0.45045681982E+02  0.00000000000E+00 0. -1.
         11    1    3    3    0    0  0.26296161556E+01 -0.10723098757E+02  0.53072130164E+01  0.12250152584E+02  0.51100000000E-03 0. -1.
        -11    1    3    3    0    0  0.50868530076E+01 -0.70355421760E+01  0.21125485216E+01  0.89351994241E+01  0.51100000000E-03 0.  1.
         12    1    3    3    0    0  0.15167740875E+02 -0.16024985457E+02  0.11661459181E+02  0.24956966009E+02  0.00000000000E+00 0. -1.
</event>
<event>
 7    1  0.3046295E-009  0.4614232E+02  0.7816164E-02  0.1320468E+00
        -11   -1    0    0    0    0  0.00000000000E+00  0.00000000000E+00  0.45593999997E+02  0.45594000000E+02  0.51100000000E-03 0.  1.
         11   -1    0    0    0    0 -0.00000000000E+00 -0.00000000000E+00 -0.45593999997E+02  0.45594000000E+02  0.51100000000E-03 0. -1.
    9900012    2    1    2    0    0  0.50048774984E+01 -0.37702013403E+02  0.24137582859E+02  0.46142317414E+02  0.99999968312E+01 0.  0.
         12    1    1    2    0    0 -0.50048774984E+01  0.37702013403E+02 -0.24137582859E+02  0.45045682586E+02  0.00000000000E+00 0. -1.
         11    1    3    3    0    0  0.19781792450E+01 -0.55771340157E+01  0.44670726607E+01  0.74143344524E+01  0.51100000000E-03 0. -1.
        -11    1    3    3    0    0  0.21774233088E+01 -0.31093385779E+02  0.16455990010E+02  0.35246835587E+02  0.51100000000E-03 0.  1.
        -12    1    3    3    0    0  0.84927494466E+00 -0.10314936081E+01  0.32145201887E+01  0.34811473738E+01  0.00000000000E+00 0.  1.
</event>
<event>
 7    1  0.3046295E-009  0.4614232E+02  0.7816164E-02  0.1320468E+00
        -11   -1    0    0    0    0  0.00000000000E+00  0.00000000000E+00  0.45593999997E+02  0.45594000000E+02  0.51100000000E-03 0.  1.
         11   -1    0    0    0    0 -0.00000000000E+00 -0.00000000000E+00 -0.45593999997E+02  0.45594000000E+02  0.51100000000E-03 0. -1.
    9900012    2    1    2    0    0  0.36167681732E+02  0.10020649568E+01  0.26832969400E+02  0.46142316712E+02  0.99999904348E+01 0.  0.
         12    1    1    2    0    0 -0.36167681732E+02 -0.10020649568E+01 -0.26832969400E+02  0.45045683288E+02  0.00000000000E+00 0. -1.
         11    1    3    3    0    0  0.14306015536E+02 -0.82006543211E+00  0.96512052864E+01  0.17276583909E+02  0.51100000000E-03 0. -1.
        -11    1    3    3    0    0  0.16730141025E+02  0.33111714503E-01  0.16304425985E+02  0.23360929392E+02  0.51100000000E-03 0.  1.
         12    1    3    3    0    0  0.51315251706E+01  0.17890186744E+01  0.87733812822E+00  0.55048034102E+01  0.00000000000E+00 0. -1.
</event>
<event>
 7    1  0.3046295E-009  0.4614232E+02  0.7816164E-02  0.1320468E+00
        -11   -1    0    0    0    0  0.00000000000E+00  0.00000000000E+00  0.45593999997E+02  0.45594000000E+02  0.51100000000E-03 0.  1.
         11   -1    0    0    0    0 -0.00000000000E+00 -0.00000000000E+00 -0.45593999997E+02  0.45594000000E+02  0.51100000000E-03 0. -1.
    9900012    2    1    2    0    0 -0.10351470313E+02  0.43286089535E+02  0.69480216412E+01  0.46142317748E+02  0.99999998777E+01 0.  0.
         12    1    1    2    0    0  0.10351470313E+02 -0.43286089535E+02 -0.69480216412E+01  0.45045682252E+02  0.00000000000E+00 0. -1.
         11    1    3    3    0    0 -0.29117546798E+00  0.10310995783E+01  0.13430181731E+01  0.17180359624E+01  0.51100000000E-03 0. -1.
        -11    1    3    3    0    0 -0.93948309136E+01  0.41585608738E+02  0.64967337316E+01  0.43125784068E+02  0.51100000000E-03 0.  1.
        -12    1    3    3    0    0 -0.66546393176E+00  0.66938121806E+00 -0.89173026345E+00  0.12984977175E+01  0.00000000000E+00 0.  1.
</event>
<event>
 7    1  0.3046295E-009  0.4614232E+02  0.7816164E-02  0.1320468E+00
        -11   -1    0    0    0    0  0.00000000000E+00  0.00000000000E+00  0.45593999997E+02  0.45594000000E+02  0.51100000000E-03 0.  1.
         11   -1    0    0    0    0 -0.00000000000E+00 -0.00000000000E+00 -0.45593999997E+02  0.45594000000E+02  0.51100000000E-03 0. -1.
    9900012    2    1    2    0    0 -0.31429124896E+02  0.23395930063E+02  0.22225077270E+02  0.46142317689E+02  0.99999993415E+01 0.  0.
         12    1    1    2    0    0  0.31429124896E+02 -0.23395930063E+02 -0.22225077270E+02  0.45045682311E+02  0.00000000000E+00 0. -1.
         11    1    3    3    0    0 -0.11254792745E+02  0.76966114970E+01  0.38425144939E+01  0.14165913531E+02  0.51100000000E-03 0. -1.
        -11    1    3    3    0    0 -0.99185601116E+00  0.27464597415E+01  0.12352113941E+01  0.31705783239E+01  0.51100000000E-03 0.  1.
        -12    1    3    3    0    0 -0.19182476140E+02  0.12952858824E+02  0.17147351382E+02  0.28805825834E+02  0.00000000000E+00 0.  1.
</event>
<event>
 7    1  0.3046295E-009  0.4614232E+02  0.7816164E-02  0.1320468E+00
        -11   -1    0    0    0    0  0.00000000000E+00  0.00000000000E+00  0.45593999997E+02  0.45594000000E+02  0.51100000000E-03 0.  1.
         11   -1    0    0    0    0 -0.00000000000E+00 -0.00000000000E+00 -0.45593999997E+02  0.45594000000E+02  0.51100000000E-03 0. -1.
    9900012    2    1    2    0    0  0.37733319615E+02  0.18013418081E+02  0.16757888163E+02  0.46142318122E+02  0.10000003293E+02 0.  0.
         12    1    1    2    0    0 -0.37733319615E+02 -0.18013418081E+02 -0.16757888163E+02  0.45045681878E+02  0.00000000000E+00 0. -1.
         11    1    3    3    0    0  0.10234203362E+02  0.32544039268E+01  0.85870421238E+00  0.10773459823E+02  0.51100000000E-03 0. -1.
        -11    1    3    3    0    0  0.23779284308E+02  0.11469962311E+02  0.11748292103E+02  0.28897002703E+02  0.51100000000E-03 0.  1.
         12    1    3    3    0    0  0.37198319452E+01  0.32890518427E+01  0.41508918477E+01  0.64718555960E+01  0.00000000000E+00 0. -1.
</event>
<event>
 7    1  0.3046295E-009  0.4614232E+02  0.7816164E-02  0.1320468E+00
        -11   -1    0    0    0    0  0.00000000000E+00  0.00000000000E+00  0.45593999997E+02  0.45594000000E+02  0.51100000000E-03 0. -1.
         11   -1    0    0    0    0 -0.00000000000E+00 -0.00000000000E+00 -0.45593999997E+02  0.45594000000E+02  0.51100000000E-03 0.  1.
    9900012    2    1    2    0    0  0.29412162570E+02  0.34070946034E+02 -0.17911742740E+01  0.46142323448E+02  0.10000051862E+02 0.  0.
         12    1    1    2    0    0 -0.29412162570E+02 -0.34070946034E+02  0.17911742740E+01  0.45045676552E+02  0.00000000000E+00 0. -1.
         11    1    3    3    0    0  0.14424083960E+02  0.22271817912E+02 -0.12614709494E+01  0.26564626488E+02  0.51100000000E-03 0. -1.
        -11    1    3    3    0    0  0.18480074306E+01  0.14667023794E+01 -0.15627419701E+01  0.28299311051E+01  0.51100000000E-03 0.  1.
         12    1    3    3    0    0  0.13140071179E+02  0.10332425743E+02  0.10330386455E+01  0.16747765856E+02  0.00000000000E+00 0. -1.
</event>
<event>
 7    1  0.3046295E-009  0.4614232E+02  0.7816164E-02  0.1320468E+00
        -11   -1    0    0    0    0  0.00000000000E+00  0.00000000000E+00  0.45593999997E+02  0.45594000000E+02  0.51100000000E-03 0.  1.
         11   -1    0    0    0    0 -0.00000000000E+00 -0.00000000000E+00 -0.45593999997E+02  0.45594000000E+02  0.51100000000E-03 0. -1.
    9900012    2    1    2    0    0 -0.33892952088E+02  0.22673677333E+02  0.19138591191E+02  0.46142317434E+02  0.99999970163E+01 0.  0.
         12    1    1    2    0    0  0.33892952088E+02 -0.22673677333E+02 -0.19138591191E+02  0.45045682566E+02  0.00000000000E+00 0. -1.
         11    1    3    3    0    0 -0.56936743035E+01  0.83633661738E+01  0.60504015332E+01  0.11788603811E+02  0.51100000000E-03 0. -1.
        -11    1    3    3    0    0 -0.19567523210E+02  0.11224932152E+02  0.10058472952E+02  0.24699391587E+02  0.51100000000E-03 0.  1.
         12    1    3    3    0    0 -0.86317545744E+01  0.30853790075E+01  0.30297167059E+01  0.96543220358E+01  0.00000000000E+00 0. -1.
</event>
<event>
 7    1  0.3046295E-009  0.4614232E+02  0.7816164E-02  0.1320468E+00
        -11   -1    0    0    0    0  0.00000000000E+00  0.00000000000E+00  0.45593999997E+02  0.45594000000E+02  0.51100000000E-03 0. -1.
         11   -1    0    0    0    0 -0.00000000000E+00 -0.00000000000E+00 -0.45593999997E+02  0.45594000000E+02  0.51100000000E-03 0.  1.
    9900012    2    1    2    0    0 -0.16143743943E+02 -0.26632692039E+02 -0.32545242003E+02  0.46142317291E+02  0.99999957101E+01 0.  0.
         12    1    1    2    0    0  0.16143743943E+02  0.26632692039E+02  0.32545242003E+02  0.45045682709E+02  0.00000000000E+00 0. -1.
         11    1    3    3    0    0 -0.58622872430E+01 -0.16780988768E+02 -0.17604913800E+02  0.25018013229E+02  0.51100000000E-03 0. -1.
        -11    1    3    3    0    0 -0.16321871236E+01 -0.13969198766E+01 -0.35687637987E+00  0.21777926806E+01  0.51100000000E-03 0.  1.
        -12    1    3    3    0    0 -0.86492695760E+01 -0.84547833943E+01 -0.14583451823E+02  0.18946511381E+02  0.00000000000E+00 0.  1.
</event>
<event>
 7    1  0.3046295E-009  0.4614232E+02  0.7816164E-02  0.1320468E+00
        -11   -1    0    0    0    0  0.00000000000E+00  0.00000000000E+00  0.45593999997E+02  0.45594000000E+02  0.51100000000E-03 0. -1.
         11   -1    0    0    0    0 -0.00000000000E+00 -0.00000000000E+00 -0.45593999997E+02  0.45594000000E+02  0.51100000000E-03 0.  1.
    9900012    2    1    2    0    0  0.38982341329E+02 -0.11782899330E+02 -0.19252371263E+02  0.46142318172E+02  0.10000003749E+02 0.  0.
         12    1    1    2    0    0 -0.38982341329E+02  0.11782899330E+02  0.19252371263E+02  0.45045681828E+02  0.00000000000E+00 0. -1.
         11    1    3    3    0    0  0.16419673649E+02 -0.18354532184E+01 -0.74137356827E+01  0.18109059840E+02  0.51100000000E-03 0.  1.
        -11    1    3    3    0    0  0.51160262668E+01 -0.43105580200E+01 -0.54119558312E+01  0.86048766049E+01  0.51100000000E-03 0. -1.
        -12    1    3    3    0    0  0.17446641412E+02 -0.56368880914E+01 -0.64266797494E+01  0.19428381727E+02  0.00000000000E+00 0.  1.
</event>
<event>
 7    1  0.3653439E-009  0.4614231E+02  0.7816164E-02  0.1320468E+00
        -11   -1    0    0    0    0  0.00000000000E+00  0.00000000000E+00  0.45593999997E+02  0.45594000000E+02  0.51100000000E-03 0.  1.
         11   -1    0    0    0    0 -0.00000000000E+00 -0.00000000000E+00 -0.45593999997E+02  0.45594000000E+02  0.51100000000E-03 0. -1.
    9900012    2    1    2    0    0  0.18494518121E+02 -0.40760608242E+02  0.50635561822E+01  0.46142312238E+02  0.99999496351E+01 0.  0.
         12    1    1    2    0    0 -0.18494518121E+02  0.40760608242E+02 -0.50635561822E+01  0.45045687762E+02  0.00000000000E+00 0. -1.
         11    1    3    3    0    0  0.14728295971E+01 -0.18771537760E+01 -0.99870962384E+00  0.25865719582E+01  0.51100000000E-03 0. -1.
        -11    1    3    3    0    0  0.15727663475E+02 -0.28021351997E+02  0.35227985726E+01  0.32325928852E+02  0.51100000000E-03 0.  1.
        -12    1    3    3    0    0  0.12940250486E+01 -0.10862102468E+02  0.25394672334E+01  0.11229811427E+02  0.00000000000E+00 0.  1.
</event>
<event>
 7    1  0.3046295E-009  0.4614232E+02  0.7816164E-02  0.1320468E+00
        -11   -1    0    0    0    0  0.00000000000E+00  0.00000000000E+00  0.45593999997E+02  0.45594000000E+02  0.51100000000E-03 0. -1.
         11   -1    0    0    0    0 -0.00000000000E+00 -0.00000000000E+00 -0.45593999997E+02  0.45594000000E+02  0.51100000000E-03 0.  1.
    9900012    2    1    2    0    0  0.37574288735E+02  0.21964348901E+02  0.11612653662E+02  0.46142317391E+02  0.99999966283E+01 0.  0.
         12    1    1    2    0    0 -0.37574288735E+02 -0.21964348901E+02 -0.11612653662E+02  0.45045682609E+02  0.00000000000E+00 0. -1.
         11    1    3    3    0    0  0.27279643271E+02  0.17426848744E+02  0.11040488996E+02  0.34201847782E+02  0.51100000000E-03 0. -1.
        -11    1    3    3    0    0  0.66317699675E+01  0.48967275426E+01  0.51115838866E+00  0.82595155238E+01  0.51100000000E-03 0.  1.
         12    1    3    3    0    0  0.36628754965E+01 -0.35922738525E+00  0.61006277226E-01  0.36809540859E+01  0.00000000000E+00 0. -1.
</event>
<event>
 7    1  0.3046295E-009  0.4614232E+02  0.7816164E-02  0.1320468E+00
        -11   -1    0    0    0    0  0.00000000000E+00  0.00000000000E+00  0.45593999997E+02  0.45594000000E+02  0.51100000000E-03 0.  1.
         11   -1    0    0    0    0 -0.00000000000E+00 -0.00000000000E+00 -0.45593999997E+02  0.45594000000E+02  0.51100000000E-03 0. -1.
    9900012    2    1    2    0    0  0.20227802531E+02 -0.57106070458E+01  0.39841416544E+02  0.46142317628E+02  0.99999987889E+01 0.  0.
         12    1    1    2    0    0 -0.20227802531E+02  0.57106070458E+01 -0.39841416544E+02  0.45045682372E+02  0.00000000000E+00 0. -1.
         11    1    3    3    0    0  0.30132912832E+01  0.98499483383E+00  0.17424128448E+01  0.36174772927E+01  0.51100000000E-03 0. -1.
        -11    1    3    3    0    0  0.94807665276E+01 -0.53657333526E+01  0.24726183248E+02  0.27019625583E+02  0.51100000000E-03 0.  1.
         12    1    3    3    0    0  0.77337447206E+01 -0.13298685270E+01  0.13372820451E+02  0.15505214752E+02  0.00000000000E+00 0. -1.
</event>
<event>
 7    1  0.3046295E-009  0.4614232E+02  0.7816164E-02  0.1320468E+00
        -11   -1    0    0    0    0  0.00000000000E+00  0.00000000000E+00  0.45593999997E+02  0.45594000000E+02  0.51100000000E-03 0.  1.
         11   -1    0    0    0    0 -0.00000000000E+00 -0.00000000000E+00 -0.45593999997E+02  0.45594000000E+02  0.51100000000E-03 0. -1.
    9900012    2    1    2    0    0 -0.23922103657E+02  0.11637286558E+02  0.36351340448E+02  0.46142318363E+02  0.10000005486E+02 0.  0.
         12    1    1    2    0    0  0.23922103657E+02 -0.11637286558E+02 -0.36351340448E+02  0.45045681637E+02  0.00000000000E+00 0. -1.
         11    1    3    3    0    0 -0.10051097873E+02  0.61225541419E+01  0.23252960067E+02  0.26061665139E+02  0.51100000000E-03 0. -1.
        -11    1    3    3    0    0 -0.10550039456E+02  0.53656899443E+01  0.94582380280E+01  0.15150981089E+02  0.51100000000E-03 0.  1.
        -12    1    3    3    0    0 -0.33209663278E+01  0.14904247235E+00  0.36401423531E+01  0.49296721352E+01  0.00000000000E+00 0.  1.
</event>
<event>
 7    1  0.3046295E-009  0.4614231E+02  0.7816164E-02  0.1320468E+00
        -11   -1    0    0    0    0  0.00000000000E+00  0.00000000000E+00  0.45593999997E+02  0.45594000000E+02  0.51100000000E-03 0. -1.
         11   -1    0    0    0    0 -0.00000000000E+00 -0.00000000000E+00 -0.45593999997E+02  0.45594000000E+02  0.51100000000E-03 0.  1.
    9900012    2    1    2    0    0 -0.24871259643E+02  0.37549677280E+02 -0.74598044534E+00  0.46142308676E+02  0.99999171510E+01 0.  0.
         12    1    1    2    0    0  0.24871259643E+02 -0.37549677280E+02  0.74598044534E+00  0.45045691324E+02  0.00000000000E+00 0. -1.
         11    1    3    3    0    0 -0.78566937405E+01  0.79702328452E+01  0.20242851256E+01  0.11373213208E+02  0.51100000000E-03 0. -1.
        -11    1    3    3    0    0 -0.61612846216E+00  0.48047696332E+01 -0.13331096601E+01  0.50242021393E+01  0.51100000000E-03 0.  1.
        -12    1    3    3    0    0 -0.16398437440E+02  0.24774674802E+02 -0.14371559107E+01  0.29744893329E+02  0.00000000000E+00 0.  1.
</event>
<event>
 7    1  0.3046295E-009  0.4614232E+02  0.7816164E-02  0.1320468E+00
        -11   -1    0    0    0    0  0.00000000000E+00  0.00000000000E+00  0.45593999997E+02  0.45594000000E+02  0.51100000000E-03 0.  1.
         11   -1    0    0    0    0 -0.00000000000E+00 -0.00000000000E+00 -0.45593999997E+02  0.45594000000E+02  0.51100000000E-03 0. -1.
    9900012    2    1    2    0    0  0.25691174301E+02 -0.20355401740E+02  0.30898778947E+02  0.46142319215E+02  0.10000013254E+02 0.  0.
         12    1    1    2    0    0 -0.25691174301E+02  0.20355401740E+02 -0.30898778947E+02  0.45045680785E+02  0.00000000000E+00 0. -1.
         11    1    3    3    0    0  0.65744090295E+01 -0.59616356625E+01  0.11263352768E+02  0.14339702567E+02  0.51100000000E-03 0. -1.
        -11    1    3    3    0    0  0.12106633649E+02 -0.12492424644E+02  0.16186231092E+02  0.23761846078E+02  0.51100000000E-03 0.  1.
         12    1    3    3    0    0  0.70101316223E+01 -0.19013414337E+01  0.34491950874E+01  0.80407705701E+01  0.00000000000E+00 0. -1.
</event>
<event>
 7    1  0.3046295E-009  0.4614232E+02  0.7816164E-02  0.1320468E+00
        -11   -1    0    0    0    0  0.00000000000E+00  0.00000000000E+00  0.45593999997E+02  0.45594000000E+02  0.51100000000E-03 0.  1.
         11   -1    0    0    0    0 -0.00000000000E+00 -0.00000000000E+00 -0.45593999997E+02  0.45594000000E+02  0.51100000000E-03 0. -1.
    9900012    2    1    2    0    0 -0.31649778555E+02  0.17114353692E+02  0.27101732331E+02  0.46142317852E+02  0.10000000827E+02 0.  0.
         12    1    1    2    0    0  0.31649778555E+02 -0.17114353692E+02 -0.27101732331E+02  0.45045682148E+02  0.00000000000E+00 0. -1.
         11    1    3    3    0    0 -0.12570679889E+02  0.98034044804E+01  0.10906387174E+02  0.19315227509E+02  0.51100000000E-03 0. -1.
        -11    1    3    3    0    0 -0.19298909810E+02  0.63558330239E+01  0.15909607291E+02  0.25806203473E+02  0.51100000000E-03 0.  1.
        -12    1    3    3    0    0  0.21981114489E+00  0.95511618793E+00  0.28573786583E+00  0.10208868693E+01  0.00000000000E+00 0.  1.
</event>
<event>
 7    1  0.3046295E-009  0.4614232E+02  0.7816164E-02  0.1320468E+00
        -11   -1    0    0    0    0  0.00000000000E+00  0.00000000000E+00  0.45593999997E+02  0.45594000000E+02  0.51100000000E-03 0. -1.
         11   -1    0    0    0    0 -0.00000000000E+00 -0.00000000000E+00 -0.45593999997E+02  0.45594000000E+02  0.51100000000E-03 0.  1.
    9900012    2    1    2    0    0 -0.32232248788E+02  0.24867500548E+02 -0.19282192409E+02  0.46142318858E+02  0.10000010005E+02 0.  0.
         12    1    1    2    0    0  0.32232248788E+02 -0.24867500548E+02  0.19282192409E+02  0.45045681142E+02  0.00000000000E+00 0. -1.
         11    1    3    3    0    0 -0.11649212741E+02  0.12850289332E+02 -0.11486616018E+02  0.20803279578E+02  0.51100000000E-03 0. -1.
        -11    1    3    3    0    0 -0.15088789518E+02  0.80134686863E+01 -0.71140621612E+01  0.18506677989E+02  0.51100000000E-03 0.  1.
         12    1    3    3    0    0 -0.54942465292E+01  0.40037425295E+01 -0.68151422985E+00  0.68323612911E+01  0.00000000000E+00 0. -1.
</event>
<event>
 7    1  0.3046295E-009  0.4614232E+02  0.7816164E-02  0.1320468E+00
        -11   -1    0    0    0    0  0.00000000000E+00  0.00000000000E+00  0.45593999997E+02  0.45594000000E+02  0.51100000000E-03 0. -1.
         11   -1    0    0    0    0 -0.00000000000E+00 -0.00000000000E+00 -0.45593999997E+02  0.45594000000E+02  0.51100000000E-03 0.  1.
    9900012    2    1    2    0    0 -0.36656787711E+02  0.60156584513E+01 -0.25479506624E+02  0.46142317746E+02  0.99999998647E+01 0.  0.
         12    1    1    2    0    0  0.36656787711E+02 -0.60156584513E+01  0.25479506624E+02  0.45045682254E+02  0.00000000000E+00 0. -1.
         11    1    3    3    0    0 -0.63726515364E+01  0.11704743756E+01 -0.88339275247E+01  0.10955317140E+02  0.51100000000E-03 0. -1.
        -11    1    3    3    0    0 -0.72738952994E+01  0.21896240158E+01 -0.22806994337E+01  0.79313048312E+01  0.51100000000E-03 0.  1.
         12    1    3    3    0    0 -0.23010240875E+02  0.26555600598E+01 -0.14364879666E+02  0.27255695775E+02  0.00000000000E+00 0. -1.
</event>
<event>
 7    1  0.3046295E-009  0.4614232E+02  0.7816164E-02  0.1320468E+00
        -11   -1    0    0    0    0  0.00000000000E+00  0.00000000000E+00  0.45593999997E+02  0.45594000000E+02  0.51100000000E-03 0. -1.
         11   -1    0    0    0    0 -0.00000000000E+00 -0.00000000000E+00 -0.45593999997E+02  0.45594000000E+02  0.51100000000E-03 0.  1.
    9900012    2    1    2    0    0 -0.40129225143E+02  0.17599128474E+02 -0.10441723289E+02  0.46142316313E+02  0.99999867910E+01 0.  0.
         12    1    1    2    0    0  0.40129225143E+02 -0.17599128474E+02  0.10441723289E+02  0.45045683687E+02  0.00000000000E+00 0. -1.
         11    1    3    3    0    0 -0.42997697232E+01  0.39336085600E+01 -0.43561053278E+01  0.72757782995E+01  0.51100000000E-03 0. -1.
        -11    1    3    3    0    0 -0.24673423336E+02  0.88179475579E+01 -0.47621075608E+01  0.26631028649E+02  0.51100000000E-03 0.  1.
         12    1    3    3    0    0 -0.11156032084E+02  0.48475723561E+01 -0.13235104001E+01  0.12235509364E+02  0.00000000000E+00 0. -1.
</event>
<event>
 7    1  0.3046295E-009  0.4614232E+02  0.7816164E-02  0.1320468E+00
        -11   -1    0    0    0    0  0.00000000000E+00  0.00000000000E+00  0.45593999997E+02  0.45594000000E+02  0.51100000000E-03 0.  1.
         11   -1    0    0    0    0 -0.00000000000E+00 -0.00000000000E+00 -0.45593999997E+02  0.45594000000E+02  0.51100000000E-03 0. -1.
    9900012    2    1    2    0    0  0.33894085356E+02  0.19641338174E+02  0.22237856906E+02  0.46142317996E+02  0.10000002146E+02 0.  0.
         12    1    1    2    0    0 -0.33894085356E+02 -0.19641338174E+02 -0.22237856906E+02  0.45045682004E+02  0.00000000000E+00 0. -1.
         11    1    3    3    0    0  0.98583467657E+01  0.26529150827E+01  0.25305004534E+01  0.10518003242E+02  0.51100000000E-03 0. -1.
        -11    1    3    3    0    0  0.11609837284E+02  0.59533656661E+01  0.81868097292E+01  0.15403075612E+02  0.51100000000E-03 0.  1.
         12    1    3    3    0    0  0.12425901307E+02  0.11035057425E+02  0.11520546723E+02  0.20221239143E+02  0.00000000000E+00 0. -1.
</event>
<event>
 7    1  0.3046295E-009  0.4614232E+02  0.7816164E-02  0.1320468E+00
        -11   -1    0    0    0    0  0.00000000000E+00  0.00000000000E+00  0.45593999997E+02  0.45594000000E+02  0.51100000000E-03 0. -1.
         11   -1    0    0    0    0 -0.00000000000E+00 -0.00000000000E+00 -0.45593999997E+02  0.45594000000E+02  0.51100000000E-03 0.  1.
    9900012    2    1    2    0    0  0.43457225535E+02 -0.37929887038E+01 -0.11233710237E+02  0.46142318074E+02  0.10000002855E+02 0.  0.
         12    1    1    2    0    0 -0.43457225535E+02  0.37929887038E+01  0.11233710237E+02  0.45045681926E+02  0.00000000000E+00 0. -1.
         11    1    3    3    0    0  0.13613795728E+02  0.11595452304E+01 -0.23506263269E+00  0.13665110098E+02  0.51100000000E-03 0. -1.
        -11    1    3    3    0    0  0.91866346506E+01 -0.18181862412E+01 -0.55473018190E+01  0.10884512628E+02  0.51100000000E-03 0.  1.
         12    1    3    3    0    0  0.20656795156E+02 -0.31343476930E+01 -0.54513457855E+01  0.21592695349E+02  0.00000000000E+00 0. -1.
</event>
<event>
 7    1  0.3046295E-009  0.4614232E+02  0.7816164E-02  0.1320468E+00
        -11   -1    0    0    0    0  0.00000000000E+00  0.00000000000E+00  0.45593999997E+02  0.45594000000E+02  0.51100000000E-03 0. -1.
         11   -1    0    0    0    0 -0.00000000000E+00 -0.00000000000E+00 -0.45593999997E+02  0.45594000000E+02  0.51100000000E-03 0.  1.
    9900012    2    1    2    0    0 -0.94566821441E+01 -0.11505230220E+02 -0.42512519291E+02  0.46142318119E+02  0.10000003267E+02 0.  0.
         12    1    1    2    0    0  0.94566821441E+01  0.11505230220E+02  0.42512519291E+02  0.45045681881E+02  0.00000000000E+00 0. -1.
         11    1    3    3    0    0 -0.72279910743E+01 -0.96283233342E+01 -0.20648547527E+02  0.23902112468E+02  0.51100000000E-03 0. -1.
        -11    1    3    3    0    0 -0.25961370461E+01 -0.23312171684E+01 -0.18714678910E+02  0.19037166491E+02  0.51100000000E-03 0.  1.
         12    1    3    3    0    0  0.36744597633E+00  0.45431028262E+00 -0.31492928547E+01  0.32030391604E+01  0.00000000000E+00 0. -1.
</event>
<event>
 7    1  0.3046295E-009  0.4614231E+02  0.7816164E-02  0.1320468E+00
        -11   -1    0    0    0    0  0.00000000000E+00  0.00000000000E+00  0.45593999997E+02  0.45594000000E+02  0.51100000000E-03 0.  1.
         11   -1    0    0    0    0 -0.00000000000E+00 -0.00000000000E+00 -0.45593999997E+02  0.45594000000E+02  0.51100000000E-03 0. -1.
    9900012    2    1    2    0    0 -0.10504511464E+02 -0.37424100639E+02  0.22764131719E+02  0.46142314716E+02  0.99999722356E+01 0.  0.
         12    1    1    2    0    0  0.10504511464E+02  0.37424100639E+02 -0.22764131719E+02  0.45045685284E+02  0.00000000000E+00 0. -1.
         11    1    3    3    0    0 -0.76849966030E+01 -0.12506291443E+02  0.10962079989E+02  0.18320308305E+02  0.51100000000E-03 0. -1.
        -11    1    3    3    0    0 -0.24418784559E+01 -0.14328293490E+02  0.77970493312E+01  0.16494142695E+02  0.51100000000E-03 0.  1.
        -12    1    3    3    0    0 -0.37763640518E+00 -0.10589515707E+02  0.40050023991E+01  0.11327863716E+02  0.00000000000E+00 0.  1.
</event>
<event>
 7    1  0.3046295E-009  0.4614232E+02  0.7816164E-02  0.1320468E+00
        -11   -1    0    0    0    0  0.00000000000E+00  0.00000000000E+00  0.45593999997E+02  0.45594000000E+02  0.51100000000E-03 0. -1.
         11   -1    0    0    0    0 -0.00000000000E+00 -0.00000000000E+00 -0.45593999997E+02  0.45594000000E+02  0.51100000000E-03 0.  1.
    9900012    2    1    2    0    0 -0.22334090121E+02  0.34234634177E+02  0.18928599051E+02  0.46142316292E+02  0.99999866011E+01 0.  0.
         12    1    1    2    0    0  0.22334090121E+02 -0.34234634177E+02 -0.18928599051E+02  0.45045683708E+02  0.00000000000E+00 0. -1.
         11    1    3    3    0    0 -0.37327233473E+01  0.11619684220E+02  0.84780479504E+01  0.14860268580E+02  0.51100000000E-03 0. -1.
        -11    1    3    3    0    0 -0.92527247106E+01  0.12314387794E+02  0.71694532057E+01  0.16989941755E+02  0.51100000000E-03 0.  1.
         12    1    3    3    0    0 -0.93486420627E+01  0.10300562163E+02  0.32810978945E+01  0.14292105957E+02  0.00000000000E+00 0. -1.
</event>
<event>
 7    1  0.3046295E-009  0.4614232E+02  0.7816164E-02  0.1320468E+00
        -11   -1    0    0    0    0  0.00000000000E+00  0.00000000000E+00  0.45593999997E+02  0.45594000000E+02  0.51100000000E-03 0.  1.
         11   -1    0    0    0    0 -0.00000000000E+00 -0.00000000000E+00 -0.45593999997E+02  0.45594000000E+02  0.51100000000E-03 0. -1.
    9900012    2    1    2    0    0 -0.36789378603E+02  0.14623047683E+02  0.21490037800E+02  0.46142316231E+02  0.99999860508E+01 0.  0.
         12    1    1    2    0    0  0.36789378603E+02 -0.14623047683E+02 -0.21490037800E+02  0.45045683769E+02  0.00000000000E+00 0. -1.
         11    1    3    3    0    0 -0.70577914248E+01 -0.51385711705E+00  0.19720702056E+01  0.73461234736E+01  0.51100000000E-03 0. -1.
        -11    1    3    3    0    0 -0.76030109703E+01  0.54807538216E+01  0.59429138267E+01  0.11097867510E+02  0.51100000000E-03 0.  1.
         12    1    3    3    0    0 -0.22128576208E+02  0.96561509786E+01  0.13575053768E+02  0.27698325247E+02  0.00000000000E+00 0. -1.
</event>
<event>
 7    1  0.3046295E-009  0.4614232E+02  0.7816164E-02  0.1320468E+00
        -11   -1    0    0    0    0  0.00000000000E+00  0.00000000000E+00  0.45593999997E+02  0.45594000000E+02  0.51100000000E-03 0.  1.
         11   -1    0    0    0    0 -0.00000000000E+00 -0.00000000000E+00 -0.45593999997E+02  0.45594000000E+02  0.51100000000E-03 0. -1.
    9900012    2    1    2    0    0  0.13730789886E+02 -0.25734944010E+02  0.34326251193E+02  0.46142318131E+02  0.10000003371E+02 0.  0.
         12    1    1    2    0    0 -0.13730789886E+02  0.25734944010E+02 -0.34326251193E+02  0.45045681869E+02  0.00000000000E+00 0. -1.
         11    1    3    3    0    0  0.76643226643E+01 -0.12012186152E+02  0.20973400381E+02  0.25355827375E+02  0.51100000000E-03 0.  1.
        -11    1    3    3    0    0  0.14514409438E+01 -0.88606408070E+01  0.58066782909E+01  0.10692761540E+02  0.51100000000E-03 0. -1.
        -12    1    3    3    0    0  0.46150262775E+01 -0.48621170513E+01  0.75461725210E+01  0.10093729216E+02  0.00000000000E+00 0.  1.
</event>
<event>
 7    1  0.3046295E-009  0.4614232E+02  0.7816164E-02  0.1320468E+00
        -11   -1    0    0    0    0  0.00000000000E+00  0.00000000000E+00  0.45593999997E+02  0.45594000000E+02  0.51100000000E-03 0.  1.
         11   -1    0    0    0    0 -0.00000000000E+00 -0.00000000000E+00 -0.45593999997E+02  0.45594000000E+02  0.51100000000E-03 0. -1.
    9900012    2    1    2    0    0  0.14611570300E+02  0.11964192163E+02  0.40895880945E+02  0.46142323637E+02  0.10000053578E+02 0.  0.
         12    1    1    2    0    0 -0.14611570300E+02 -0.11964192163E+02 -0.40895880945E+02  0.45045676363E+02  0.00000000000E+00 0. -1.
         11    1    3    3    0    0  0.15205541845E+01 -0.63569754628E+00  0.11932981707E+01  0.20347376203E+01  0.51100000000E-03 0. -1.
        -11    1    3    3    0    0  0.75881929340E+01  0.10649921019E+02  0.23621695029E+02  0.26999740110E+02  0.51100000000E-03 0.  1.
        -12    1    3    3    0    0  0.55028231819E+01  0.19499686901E+01  0.16080887746E+02  0.17107845906E+02  0.00000000000E+00 0.  1.
</event>
<event>
 7    1  0.3046295E-009  0.4614232E+02  0.7816164E-02  0.1320468E+00
        -11   -1    0    0    0    0  0.00000000000E+00  0.00000000000E+00  0.45593999997E+02  0.45594000000E+02  0.51100000000E-03 0.  1.
         11   -1    0    0    0    0 -0.00000000000E+00 -0.00000000000E+00 -0.45593999997E+02  0.45594000000E+02  0.51100000000E-03 0. -1.
    9900012    2    1    2    0    0 -0.11727665486E+02  0.29907084219E+02  0.31577550015E+02  0.46142317752E+02  0.99999999213E+01 0.  0.
         12    1    1    2    0    0  0.11727665486E+02 -0.29907084219E+02 -0.31577550015E+02  0.45045682248E+02  0.00000000000E+00 0. -1.
         11    1    3    3    0    0 -0.36126610893E+01  0.19694493473E+02  0.20031561661E+02  0.28322921039E+02  0.51100000000E-03 0. -1.
        -11    1    3    3    0    0 -0.35393787308E+01  0.73073674646E+01  0.63063980023E+01  0.10280830564E+02  0.51100000000E-03 0.  1.
         12    1    3    3    0    0 -0.45756256659E+01  0.29052232808E+01  0.52395903510E+01  0.75385661496E+01  0.00000000000E+00 0. -1.
</event>
<event>
 7    1  0.3046295E-009  0.4614231E+02  0.7816164E-02  0.1320468E+00
        -11   -1    0    0    0    0  0.00000000000E+00  0.00000000000E+00  0.45593999997E+02  0.45594000000E+02  0.51100000000E-03 0.  1.
         11   -1    0    0    0    0 -0.00000000000E+00 -0.00000000000E+00 -0.45593999997E+02  0.45594000000E+02  0.51100000000E-03 0. -1.
    9900012    2    1    2    0    0  0.70788065299E+01  0.33116112321E+01  0.44362569487E+02  0.46142313832E+02  0.99999641716E+01 0.  0.
         12    1    1    2    0    0 -0.70788065299E+01 -0.33116112321E+01 -0.44362569487E+02  0.45045686168E+02  0.00000000000E+00 0. -1.
         11    1    3    3    0    0  0.21936659412E+01  0.23175872289E+01  0.13260982048E+02  0.13639539067E+02  0.51100000000E-03 0. -1.
        -11    1    3    3    0    0 -0.67142171330E+00  0.21430649308E+01  0.25723422729E+01  0.34147444186E+01  0.51100000000E-03 0.  1.
        -12    1    3    3    0    0  0.55565623021E+01 -0.11490409275E+01  0.28529245167E+02  0.29088030347E+02  0.00000000000E+00 0.  1.
</event>
<event>
 7    1  0.3046295E-009  0.4614232E+02  0.7816164E-02  0.1320468E+00
        -11   -1    0    0    0    0  0.00000000000E+00  0.00000000000E+00  0.45593999997E+02  0.45594000000E+02  0.51100000000E-03 0.  1.
         11   -1    0    0    0    0 -0.00000000000E+00 -0.00000000000E+00 -0.45593999997E+02  0.45594000000E+02  0.51100000000E-03 0. -1.
    9900012    2    1    2    0    0 -0.32848018042E+02  0.30792994852E+02 -0.13830306745E+01  0.46142316577E+02  0.99999892006E+01 0.  0.
         12    1    1    2    0    0  0.32848018042E+02 -0.30792994852E+02  0.13830306745E+01  0.45045683423E+02  0.00000000000E+00 0. -1.
         11    1    3    3    0    0 -0.20048348617E+02  0.16176532002E+02  0.11111677824E+01  0.25784707949E+02  0.51100000000E-03 0.  1.
        -11    1    3    3    0    0 -0.73959404958E+01  0.61455464566E+01  0.11169544886E+01  0.96806644740E+01  0.51100000000E-03 0. -1.
         12    1    3    3    0    0 -0.54037289283E+01  0.84709163930E+01 -0.36111529455E+01  0.10676944154E+02  0.00000000000E+00 0. -1.
</event>
<event>
 7    1  0.3046295E-009  0.4614232E+02  0.7816164E-02  0.1320468E+00
        -11   -1    0    0    0    0  0.00000000000E+00  0.00000000000E+00  0.45593999997E+02  0.45594000000E+02  0.51100000000E-03 0. -1.
         11   -1    0    0    0    0 -0.00000000000E+00 -0.00000000000E+00 -0.45593999997E+02  0.45594000000E+02  0.51100000000E-03 0.  1.
    9900012    2    1    2    0    0  0.87763623212E+01  0.23686259897E+02 -0.37296778911E+02  0.46142321399E+02  0.10000033170E+02 0.  0.
         12    1    1    2    0    0 -0.87763623212E+01 -0.23686259897E+02  0.37296778911E+02  0.45045678601E+02  0.00000000000E+00 0. -1.
         11    1    3    3    0    0  0.21802940048E+01  0.10659119150E+02 -0.11438394106E+02  0.15786303019E+02  0.51100000000E-03 0. -1.
        -11    1    3    3    0    0  0.77371664458E+01  0.98716740534E+01 -0.20167463713E+02  0.23749532335E+02  0.51100000000E-03 0.  1.
        -12    1    3    3    0    0 -0.11410981294E+01  0.31554666934E+01 -0.56909210915E+01  0.66064860451E+01  0.00000000000E+00 0.  1.
</event>
<event>
 7    1  0.3046295E-009  0.4614232E+02  0.7816164E-02  0.1320468E+00
        -11   -1    0    0    0    0  0.00000000000E+00  0.00000000000E+00  0.45593999997E+02  0.45594000000E+02  0.51100000000E-03 0. -1.
         11   -1    0    0    0    0 -0.00000000000E+00 -0.00000000000E+00 -0.45593999997E+02  0.45594000000E+02  0.51100000000E-03 0.  1.
    9900012    2    1    2    0    0 -0.43576838698E+02  0.75386725296E+01 -0.85639372282E+01  0.46142317907E+02  0.10000001326E+02 0.  0.
         12    1    1    2    0    0  0.43576838698E+02 -0.75386725296E+01  0.85639372282E+01  0.45045682093E+02  0.00000000000E+00 0. -1.
         11    1    3    3    0    0 -0.23959747558E+02  0.82950084471E+00 -0.71821532496E+01  0.25026803636E+02  0.51100000000E-03 0. -1.
        -11    1    3    3    0    0 -0.18618623442E+02  0.67621052659E+01 -0.20478000004E+01  0.19914132961E+02  0.51100000000E-03 0.  1.
         12    1    3    3    0    0 -0.99846769831E+00 -0.52933580969E-01  0.66601602178E+00  0.12013813091E+01  0.00000000000E+00 0. -1.
</event>
<event>
 7    1  0.3046295E-009  0.4614232E+02  0.7816164E-02  0.1320468E+00
        -11   -1    0    0    0    0  0.00000000000E+00  0.00000000000E+00  0.45593999997E+02  0.45594000000E+02  0.51100000000E-03 0.  1.
         11   -1    0    0    0    0 -0.00000000000E+00 -0.00000000000E+00 -0.45593999997E+02  0.45594000000E+02  0.51100000000E-03 0. -1.
    9900012    2    1    2    0    0  0.41443861277E+02 -0.15813326387E+02  0.78395505475E+01  0.46142317834E+02  0.10000000669E+02 0.  0.
         12    1    1    2    0    0 -0.41443861277E+02  0.15813326387E+02 -0.78395505475E+01  0.45045682166E+02  0.00000000000E+00 0. -1.
         11    1    3    3    0    0  0.12894350208E+01  0.12438541773E+00  0.53379247857E+00  0.14010885327E+01  0.51100000000E-03 0. -1.
        -11    1    3    3    0    0  0.35369827641E+02 -0.13539957621E+02  0.93539200800E+01  0.39010908486E+02  0.51100000000E-03 0.  1.
        -12    1    3    3    0    0  0.47845986150E+01 -0.23977541838E+01 -0.20481620111E+01  0.57303208162E+01  0.00000000000E+00 0.  1.
</event>
<event>
 7    1  0.3046295E-009  0.4614232E+02  0.7816164E-02  0.1320468E+00
        -11   -1    0    0    0    0  0.00000000000E+00  0.00000000000E+00  0.45593999997E+02  0.45594000000E+02  0.51100000000E-03 0. -1.
         11   -1    0    0    0    0 -0.00000000000E+00 -0.00000000000E+00 -0.45593999997E+02  0.45594000000E+02  0.51100000000E-03 0.  1.
    9900012    2    1    2    0    0 -0.39350038355E+02  0.10594245302E+00 -0.21924340425E+02  0.46142318238E+02  0.10000004349E+02 0.  0.
         12    1    1    2    0    0  0.39350038355E+02 -0.10594245302E+00  0.21924340425E+02  0.45045681762E+02  0.00000000000E+00 0. -1.
         11    1    3    3    0    0 -0.23595522377E+01 -0.24539466357E+01 -0.13050280092E+01  0.36458797593E+01  0.51100000000E-03 0. -1.
        -11    1    3    3    0    0 -0.14720891421E+02  0.45825169174E+00 -0.69884720100E+01  0.16301944060E+02  0.51100000000E-03 0.  1.
         12    1    3    3    0    0 -0.22269594696E+02  0.21016373969E+01 -0.13630840406E+02  0.26194494418E+02  0.00000000000E+00 0. -1.
</event>
<event>
 7    1  0.3046295E-009  0.4614232E+02  0.7816164E-02  0.1320468E+00
        -11   -1    0    0    0    0  0.00000000000E+00  0.00000000000E+00  0.45593999997E+02  0.45594000000E+02  0.51100000000E-03 0. -1.
         11   -1    0    0    0    0 -0.00000000000E+00 -0.00000000000E+00 -0.45593999997E+02  0.45594000000E+02  0.51100000000E-03 0.  1.
    9900012    2    1    2    0    0  0.11890418302E+02  0.30104875200E+02 -0.31327750555E+02  0.46142317487E+02  0.99999975045E+01 0.  0.
         12    1    1    2    0    0 -0.11890418302E+02 -0.30104875200E+02  0.31327750555E+02  0.45045682513E+02  0.00000000000E+00 0. -1.
         11    1    3    3    0    0  0.31082252814E+01  0.10348424970E+02 -0.13403136951E+02  0.17216127443E+02  0.51100000000E-03 0.  1.
        -11    1    3    3    0    0  0.92011689395E+01  0.19710538916E+02 -0.16123584382E+02  0.27076499549E+02  0.51100000000E-03 0. -1.
         12    1    3    3    0    0 -0.41897591907E+00  0.45911313300E-01 -0.18010292224E+01  0.18496904956E+01  0.00000000000E+00 0. -1.
</event>
<event>
 7    1  0.3046295E-009  0.4614232E+02  0.7816164E-02  0.1320468E+00
        -11   -1    0    0    0    0  0.00000000000E+00  0.00000000000E+00  0.45593999997E+02  0.45594000000E+02  0.51100000000E-03 0.  1.
         11   -1    0    0    0    0 -0.00000000000E+00 -0.00000000000E+00 -0.45593999997E+02  0.45594000000E+02  0.51100000000E-03 0. -1.
    9900012    2    1    2    0    0  0.28600062574E+02 -0.15790550283E+01  0.34765739257E+02  0.46142316299E+02  0.99999866650E+01 0.  0.
         12    1    1    2    0    0 -0.28600062574E+02  0.15790550283E+01 -0.34765739257E+02  0.45045683701E+02  0.00000000000E+00 0. -1.
         11    1    3    3    0    0  0.66758286246E+01 -0.22044444206E+01  0.10926226221E+02  0.12992639560E+02  0.51100000000E-03 0. -1.
        -11    1    3    3    0    0  0.44055825670E+01  0.28504765337E+01  0.40648261547E+01  0.66375587495E+01  0.51100000000E-03 0.  1.
        -12    1    3    3    0    0  0.17518651382E+02 -0.22250871414E+01  0.19774686881E+02  0.26512117990E+02  0.00000000000E+00 0.  1.
</event>
<event>
 7    1  0.3046295E-009  0.4614232E+02  0.7816164E-02  0.1320468E+00
        -11   -1    0    0    0    0  0.00000000000E+00  0.00000000000E+00  0.45593999997E+02  0.45594000000E+02  0.51100000000E-03 0.  1.
         11   -1    0    0    0    0 -0.00000000000E+00 -0.00000000000E+00 -0.45593999997E+02  0.45594000000E+02  0.51100000000E-03 0. -1.
    9900012    2    1    2    0    0  0.63751299540E+01 -0.83473353873E+01  0.43804032124E+02  0.46142317407E+02  0.99999967674E+01 0.  0.
         12    1    1    2    0    0 -0.63751299540E+01  0.83473353873E+01 -0.43804032124E+02  0.45045682593E+02  0.00000000000E+00 0. -1.
         11    1    3    3    0    0  0.46030899692E+00  0.16595542110E+01  0.12372076329E+02  0.12491368119E+02  0.51100000000E-03 0. -1.
        -11    1    3    3    0    0  0.21924288248E+01 -0.53125763954E+01  0.11799596091E+02  0.13124811628E+02  0.51100000000E-03 0.  1.
        -12    1    3    3    0    0  0.37223921323E+01 -0.46943132028E+01  0.19632359704E+02  0.20526137659E+02  0.00000000000E+00 0.  1.
</event>
<event>
 7    1  0.3046295E-009  0.4614232E+02  0.7816164E-02  0.1320468E+00
        -11   -1    0    0    0    0  0.00000000000E+00  0.00000000000E+00  0.45593999997E+02  0.45594000000E+02  0.51100000000E-03 0.  1.
         11   -1    0    0    0    0 -0.00000000000E+00 -0.00000000000E+00 -0.45593999997E+02  0.45594000000E+02  0.51100000000E-03 0. -1.
    9900012    2    1    2    0    0 -0.95492932455E+01 -0.44021846104E+02  0.39717912003E-01  0.46142317483E+02  0.99999974625E+01 0.  0.
         12    1    1    2    0    0  0.95492932455E+01  0.44021846104E+02 -0.39717912003E-01  0.45045682517E+02  0.00000000000E+00 0. -1.
         11    1    3    3    0    0 -0.92165569858E+00 -0.13059829695E+02 -0.39312747211E+01  0.13669803294E+02  0.51100000000E-03 0. -1.
        -11    1    3    3    0    0 -0.62463608124E+01 -0.25762616211E+02  0.31689630808E+01  0.26697785389E+02  0.51100000000E-03 0.  1.
         12    1    3    3    0    0 -0.23812767346E+01 -0.51994001984E+01  0.80202955235E+00  0.57747287999E+01  0.00000000000E+00 0. -1.
</event>
<event>
 7    1  0.3046295E-009  0.4614232E+02  0.7816164E-02  0.1320468E+00
        -11   -1    0    0    0    0  0.00000000000E+00  0.00000000000E+00  0.45593999997E+02  0.45594000000E+02  0.51100000000E-03 0.  1.
         11   -1    0    0    0    0 -0.00000000000E+00 -0.00000000000E+00 -0.45593999997E+02  0.45594000000E+02  0.51100000000E-03 0. -1.
    9900012    2    1    2    0    0  0.44902221323E+02  0.48299157834E+00  0.35595108447E+01  0.46142324536E+02  0.10000061776E+02 0.  0.
         12    1    1    2    0    0 -0.44902221323E+02 -0.48299157834E+00 -0.35595108447E+01  0.45045675464E+02  0.00000000000E+00 0. -1.
         11    1    3    3    0    0  0.10223556735E+02  0.20328235357E+01  0.18994189443E+01  0.10595342204E+02  0.51100000000E-03 0. -1.
        -11    1    3    3    0    0  0.27713952169E+02 -0.41651881553E+01  0.20266102256E+01  0.28098382275E+02  0.51100000000E-03 0.  1.
        -12    1    3    3    0    0  0.69647124190E+01  0.26153561980E+01 -0.36651832523E+00  0.74486000567E+01  0.00000000000E+00 0.  1.
</event>
<event>
 7    1  0.3046295E-009  0.4614232E+02  0.7816164E-02  0.1320468E+00
        -11   -1    0    0    0    0  0.00000000000E+00  0.00000000000E+00  0.45593999997E+02  0.45594000000E+02  0.51100000000E-03 0.  1.
         11   -1    0    0    0    0 -0.00000000000E+00 -0.00000000000E+00 -0.45593999997E+02  0.45594000000E+02  0.51100000000E-03 0. -1.
    9900012    2    1    2    0    0  0.12210527757E+02  0.28393275536E+02  0.32769472704E+02  0.46142318464E+02  0.10000006409E+02 0.  0.
         12    1    1    2    0    0 -0.12210527757E+02 -0.28393275536E+02 -0.32769472704E+02  0.45045681536E+02  0.00000000000E+00 0. -1.
         11    1    3    3    0    0  0.68984552919E+01  0.14573745805E+02  0.16127164525E+02  0.22805003576E+02  0.51100000000E-03 0. -1.
        -11    1    3    3    0    0  0.64284391253E+01  0.73802269299E+01  0.10747359867E+02  0.14536104137E+02  0.51100000000E-03 0.  1.
        -12    1    3    3    0    0 -0.11163666605E+01  0.64393028004E+01  0.58949483125E+01  0.88012107510E+01  0.00000000000E+00 0.  1.
</event>
<event>
 7    1  0.3046295E-009  0.4614232E+02  0.7816164E-02  0.1320468E+00
        -11   -1    0    0    0    0  0.00000000000E+00  0.00000000000E+00  0.45593999997E+02  0.45594000000E+02  0.51100000000E-03 0. -1.
         11   -1    0    0    0    0 -0.00000000000E+00 -0.00000000000E+00 -0.45593999997E+02  0.45594000000E+02  0.51100000000E-03 0.  1.
    9900012    2    1    2    0    0  0.21618713891E+02 -0.62544069940E+01 -0.39020852670E+02  0.46142319405E+02  0.10000014995E+02 0.  0.
         12    1    1    2    0    0 -0.21618713891E+02  0.62544069940E+01  0.39020852670E+02  0.45045680595E+02  0.00000000000E+00 0. -1.
         11    1    3    3    0    0  0.10506309942E+02  0.28286450699E+00 -0.20452794683E+02  0.22995203229E+02  0.51100000000E-03 0. -1.
        -11    1    3    3    0    0  0.44898000282E+01 -0.28773711512E+01 -0.11984209858E+02  0.13117120691E+02  0.51100000000E-03 0.  1.
         12    1    3    3    0    0  0.66226039204E+01 -0.36599003497E+01 -0.65838481279E+01  0.10029995485E+02  0.00000000000E+00 0. -1.
</event>
<event>
 7    1  0.3046295E-009  0.4614232E+02  0.7816164E-02  0.1320468E+00
        -11   -1    0    0    0    0  0.00000000000E+00  0.00000000000E+00  0.45593999997E+02  0.45594000000E+02  0.51100000000E-03 0. -1.
         11   -1    0    0    0    0 -0.00000000000E+00 -0.00000000000E+00 -0.45593999997E+02  0.45594000000E+02  0.51100000000E-03 0.  1.
    9900012    2    1    2    0    0 -0.61679846305E+01  0.44205275000E+02 -0.60797185964E+01  0.46142319292E+02  0.10000013963E+02 0.  0.
         12    1    1    2    0    0  0.61679846305E+01 -0.44205275000E+02  0.60797185964E+01  0.45045680708E+02  0.00000000000E+00 0. -1.
         11    1    3    3    0    0 -0.55597841358E+00  0.10112362372E+01 -0.17848302903E+01  0.21254011739E+01  0.51100000000E-03 0. -1.
        -11    1    3    3    0    0 -0.39489672073E+01  0.37904036521E+02 -0.49652631589E+01  0.38431291483E+02  0.51100000000E-03 0.  1.
         12    1    3    3    0    0 -0.16630390096E+01  0.52900022420E+01  0.67037485272E+00  0.55856266355E+01  0.00000000000E+00 0. -1.
</event>
<event>
 7    1  0.3046295E-009  0.4614232E+02  0.7816164E-02  0.1320468E+00
        -11   -1    0    0    0    0  0.00000000000E+00  0.00000000000E+00  0.45593999997E+02  0.45594000000E+02  0.51100000000E-03 0.  1.
         11   -1    0    0    0    0 -0.00000000000E+00 -0.00000000000E+00 -0.45593999997E+02  0.45594000000E+02  0.51100000000E-03 0. -1.
    9900012    2    1    2    0    0  0.13900284906E+02 -0.17320591157E+02  0.39190460886E+02  0.46142322928E+02  0.10000047113E+02 0.  0.
         12    1    1    2    0    0 -0.13900284906E+02  0.17320591157E+02 -0.39190460886E+02  0.45045677072E+02  0.00000000000E+00 0. -1.
         11    1    3    3    0    0  0.68791894072E+00 -0.12483432981E+01  0.10125585651E+02  0.10225413366E+02  0.51100000000E-03 0. -1.
        -11    1    3    3    0    0  0.75163207061E+00 -0.14859836353E+01  0.10693283394E+01  0.19790304425E+01  0.51100000000E-03 0.  1.
         12    1    3    3    0    0  0.12460733894E+02 -0.14586264223E+02  0.27995546895E+02  0.33937879119E+02  0.00000000000E+00 0. -1.
</event>
<event>
 7    1  0.3046295E-009  0.4614232E+02  0.7816164E-02  0.1320468E+00
        -11   -1    0    0    0    0  0.00000000000E+00  0.00000000000E+00  0.45593999997E+02  0.45594000000E+02  0.51100000000E-03 0. -1.
         11   -1    0    0    0    0 -0.00000000000E+00 -0.00000000000E+00 -0.45593999997E+02  0.45594000000E+02  0.51100000000E-03 0.  1.
    9900012    2    1    2    0    0 -0.40227673388E+02  0.92500000450E+01 -0.18035665427E+02  0.46142318360E+02  0.10000005458E+02 0.  0.
         12    1    1    2    0    0  0.40227673388E+02 -0.92500000450E+01  0.18035665427E+02  0.45045681640E+02  0.00000000000E+00 0. -1.
         11    1    3    3    0    0 -0.86540094968E+01 -0.44648075693E+00 -0.18988449928E+01  0.88711238299E+01  0.51100000000E-03 0. -1.
        -11    1    3    3    0    0 -0.22209700535E+02  0.38399980875E+01 -0.10340258697E+02  0.24797930022E+02  0.51100000000E-03 0.  1.
         12    1    3    3    0    0 -0.93639633558E+01  0.58564827144E+01 -0.57965617377E+01  0.12473264508E+02  0.00000000000E+00 0. -1.
</event>
<event>
 7    1  0.3046295E-009  0.4614232E+02  0.7816164E-02  0.1320468E+00
        -11   -1    0    0    0    0  0.00000000000E+00  0.00000000000E+00  0.45593999997E+02  0.45594000000E+02  0.51100000000E-03 0.  1.
         11   -1    0    0    0    0 -0.00000000000E+00 -0.00000000000E+00 -0.45593999997E+02  0.45594000000E+02  0.51100000000E-03 0. -1.
    9900012    2    1    2    0    0 -0.34664021981E+02 -0.28189316609E+02  0.57342406293E+01  0.46142317561E+02  0.99999981790E+01 0.  0.
         12    1    1    2    0    0  0.34664021981E+02  0.28189316609E+02 -0.57342406293E+01  0.45045682439E+02  0.00000000000E+00 0. -1.
         11    1    3    3    0    0 -0.65100522691E+00 -0.33049534217E+00 -0.10104626846E+01  0.12466234695E+01  0.51100000000E-03 0.  1.
        -11    1    3    3    0    0 -0.75638748277E+01 -0.32915094955E+01  0.19865355067E+01  0.84848430009E+01  0.51100000000E-03 0. -1.
        -12    1    3    3    0    0 -0.26449141926E+02 -0.24567311771E+02  0.47581678071E+01  0.36410851091E+02  0.00000000000E+00 0.  1.
</event>
<event>
 7    1  0.3046295E-009  0.4614232E+02  0.7816164E-02  0.1320468E+00
        -11   -1    0    0    0    0  0.00000000000E+00  0.00000000000E+00  0.45593999997E+02  0.45594000000E+02  0.51100000000E-03 0. -1.
         11   -1    0    0    0    0 -0.00000000000E+00 -0.00000000000E+00 -0.45593999997E+02  0.45594000000E+02  0.51100000000E-03 0.  1.
    9900012    2    1    2    0    0 -0.19427562781E+02 -0.40420314249E+02  0.42286446544E+01  0.46142318351E+02  0.10000005379E+02 0.  0.
         12    1    1    2    0    0  0.19427562781E+02  0.40420314249E+02 -0.42286446544E+01  0.45045681649E+02  0.00000000000E+00 0. -1.
         11    1    3    3    0    0 -0.48806013823E+00 -0.40250304943E+01 -0.10064060442E+01  0.41775503068E+01  0.51100000000E-03 0. -1.
        -11    1    3    3    0    0 -0.15843749303E+02 -0.30783679970E+02  0.17412399640E+01  0.34665418811E+02  0.51100000000E-03 0.  1.
         12    1    3    3    0    0 -0.30957533397E+01 -0.56116037851E+01  0.34938107346E+01  0.72993492333E+01  0.00000000000E+00 0. -1.
</event>
<event>
 7    1  0.3046295E-009  0.4614232E+02  0.7816164E-02  0.1320468E+00
        -11   -1    0    0    0    0  0.00000000000E+00  0.00000000000E+00  0.45593999997E+02  0.45594000000E+02  0.51100000000E-03 0. -1.
         11   -1    0    0    0    0 -0.00000000000E+00 -0.00000000000E+00 -0.45593999997E+02  0.45594000000E+02  0.51100000000E-03 0.  1.
    9900012    2    1    2    0    0  0.37208087027E+01 -0.42515738403E+02 -0.14411146195E+02  0.46142316922E+02  0.99999923479E+01 0.  0.
         12    1    1    2    0    0 -0.37208087027E+01  0.42515738403E+02  0.14411146195E+02  0.45045683078E+02  0.00000000000E+00 0. -1.
         11    1    3    3    0    0 -0.27105899624E+01 -0.47996164728E+01 -0.25583836172E+01  0.60769188923E+01  0.51100000000E-03 0. -1.
        -11    1    3    3    0    0  0.67904234174E+00 -0.47312142314E+01 -0.11861622178E+01  0.49246794488E+01  0.51100000000E-03 0.  1.
         12    1    3    3    0    0  0.57523563233E+01 -0.32984907698E+02 -0.10666600360E+02  0.35140718581E+02  0.00000000000E+00 0. -1.
</event>
<event>
 7    1  0.3046295E-009  0.4614232E+02  0.7816164E-02  0.1320468E+00
        -11   -1    0    0    0    0  0.00000000000E+00  0.00000000000E+00  0.45593999997E+02  0.45594000000E+02  0.51100000000E-03 0.  1.
         11   -1    0    0    0    0 -0.00000000000E+00 -0.00000000000E+00 -0.45593999997E+02  0.45594000000E+02  0.51100000000E-03 0. -1.
    9900012    2    1    2    0    0 -0.23402623629E+02 -0.18112673394E+02  0.33961177167E+02  0.46142320021E+02  0.10000020604E+02 0.  0.
         12    1    1    2    0    0  0.23402623629E+02  0.18112673394E+02 -0.33961177167E+02  0.45045679979E+02  0.00000000000E+00 0. -1.
         11    1    3    3    0    0 -0.16927007770E+01 -0.39447744680E+01  0.79430402416E+01  0.90287524091E+01  0.51100000000E-03 0. -1.
        -11    1    3    3    0    0 -0.26032336225E+01 -0.83404162143E+00  0.96040389535E+00  0.28973827194E+01  0.51100000000E-03 0.  1.
        -12    1    3    3    0    0 -0.19106689230E+02 -0.13333857305E+02  0.25057733030E+02  0.34216184892E+02  0.00000000000E+00 0.  1.
</event>
<event>
 7    1  0.3046295E-009  0.4614232E+02  0.7816164E-02  0.1320468E+00
        -11   -1    0    0    0    0  0.00000000000E+00  0.00000000000E+00  0.45593999997E+02  0.45594000000E+02  0.51100000000E-03 0. -1.
         11   -1    0    0    0    0 -0.00000000000E+00 -0.00000000000E+00 -0.45593999997E+02  0.45594000000E+02  0.51100000000E-03 0.  1.
    9900012    2    1    2    0    0 -0.22551462690E+02 -0.34010505169E+02 -0.19074345451E+02  0.46142316681E+02  0.99999901512E+01 0.  0.
         12    1    1    2    0    0  0.22551462690E+02  0.34010505169E+02  0.19074345451E+02  0.45045683319E+02  0.00000000000E+00 0. -1.
         11    1    3    3    0    0 -0.17315776234E+02 -0.24080321590E+02 -0.11172752583E+02  0.31694295938E+02  0.51100000000E-03 0. -1.
        -11    1    3    3    0    0  0.70292893432E+00 -0.82587869001E+00 -0.14457823649E+00  0.10941150876E+01  0.51100000000E-03 0.  1.
        -12    1    3    3    0    0 -0.59386153898E+01 -0.91043048887E+01 -0.77570146314E+01  0.13353905655E+02  0.00000000000E+00 0.  1.
</event>
<event>
 7    1  0.3046295E-009  0.4614231E+02  0.7816164E-02  0.1320468E+00
        -11   -1    0    0    0    0  0.00000000000E+00  0.00000000000E+00  0.45593999997E+02  0.45594000000E+02  0.51100000000E-03 0. -1.
         11   -1    0    0    0    0 -0.00000000000E+00 -0.00000000000E+00 -0.45593999997E+02  0.45594000000E+02  0.51100000000E-03 0.  1.
    9900012    2    1    2    0    0 -0.19824015628E+02 -0.20695071501E+02 -0.34753938677E+02  0.46142313929E+02  0.99999650536E+01 0.  0.
         12    1    1    2    0    0  0.19824015628E+02  0.20695071501E+02  0.34753938677E+02  0.45045686071E+02  0.00000000000E+00 0. -1.
         11    1    3    3    0    0 -0.35460337234E+01 -0.49868898677E+01 -0.40665342440E+01  0.73471168998E+01  0.51100000000E-03 0. -1.
        -11    1    3    3    0    0 -0.21990386390E+01 -0.54655223029E+01 -0.11257952204E+02  0.12706265898E+02  0.51100000000E-03 0.  1.
        -12    1    3    3    0    0 -0.14078943266E+02 -0.10242659330E+02 -0.19429452229E+02  0.26088931131E+02  0.00000000000E+00 0.  1.
</event>
<event>
 7    1  0.3046295E-009  0.4614232E+02  0.7816164E-02  0.1320468E+00
        -11   -1    0    0    0    0  0.00000000000E+00  0.00000000000E+00  0.45593999997E+02  0.45594000000E+02  0.51100000000E-03 0.  1.
         11   -1    0    0    0    0 -0.00000000000E+00 -0.00000000000E+00 -0.45593999997E+02  0.45594000000E+02  0.51100000000E-03 0. -1.
    9900012    2    1    2    0    0 -0.36343908701E+02 -0.23859895584E+02  0.11787241506E+02  0.46142318972E+02  0.10000011040E+02 0.  0.
         12    1    1    2    0    0  0.36343908701E+02  0.23859895584E+02 -0.11787241506E+02  0.45045681028E+02  0.00000000000E+00 0. -1.
         11    1    3    3    0    0 -0.18704677689E+01 -0.29108152902E+01  0.11045694554E+01  0.36320199987E+01  0.51100000000E-03 0. -1.
        -11    1    3    3    0    0 -0.26117715678E+01  0.14835167470E+00 -0.56422905395E+00  0.26761378194E+01  0.51100000000E-03 0.  1.
        -12    1    3    3    0    0 -0.31861669364E+02 -0.21097431969E+02  0.11246901105E+02  0.39834161154E+02  0.00000000000E+00 0.  1.
</event>
<event>
 7    1  0.3046295E-009  0.4614232E+02  0.7816164E-02  0.1320468E+00
        -11   -1    0    0    0    0  0.00000000000E+00  0.00000000000E+00  0.45593999997E+02  0.45594000000E+02  0.51100000000E-03 0.  1.
         11   -1    0    0    0    0 -0.00000000000E+00 -0.00000000000E+00 -0.45593999997E+02  0.45594000000E+02  0.51100000000E-03 0. -1.
    9900012    2    1    2    0    0  0.26396075809E+02  0.13876533370E+02  0.33760961216E+02  0.46142317646E+02  0.99999989474E+01 0.  0.
         12    1    1    2    0    0 -0.26396075809E+02 -0.13876533370E+02 -0.33760961216E+02  0.45045682354E+02  0.00000000000E+00 0. -1.
         11    1    3    3    0    0  0.71291645691E+01  0.75617130887E+01  0.12919754441E+02  0.16580848813E+02  0.51100000000E-03 0. -1.
        -11    1    3    3    0    0  0.51172068544E+00  0.15123635820E+01  0.13781644825E+01  0.21091323491E+01  0.51100000000E-03 0.  1.
         12    1    3    3    0    0  0.18755190555E+02  0.48024566994E+01  0.19463042293E+02  0.27452336483E+02  0.00000000000E+00 0. -1.
</event>
<event>
 7    1  0.3046295E-009  0.4614232E+02  0.7816164E-02  0.1320468E+00
        -11   -1    0    0    0    0  0.00000000000E+00  0.00000000000E+00  0.45593999997E+02  0.45594000000E+02  0.51100000000E-03 0. -1.
         11   -1    0    0    0    0 -0.00000000000E+00 -0.00000000000E+00 -0.45593999997E+02  0.45594000000E+02  0.51100000000E-03 0.  1.
    9900012    2    1    2    0    0  0.20479141004E+02  0.20823827442E+02 -0.34294117485E+02  0.46142317636E+02  0.99999988570E+01 0.  0.
         12    1    1    2    0    0 -0.20479141004E+02 -0.20823827442E+02  0.34294117485E+02  0.45045682364E+02  0.00000000000E+00 0. -1.
         11    1    3    3    0    0  0.16368223486E+02  0.14222439100E+02 -0.26439119508E+02  0.34193911076E+02  0.51100000000E-03 0.  1.
        -11    1    3    3    0    0  0.34631502102E+01  0.69514928018E+01 -0.80510542724E+01  0.11186426449E+02  0.51100000000E-03 0. -1.
         12    1    3    3    0    0  0.64776730704E+00 -0.35010446008E+00  0.19605629551E+00  0.76198011001E+00  0.00000000000E+00 0. -1.
</event>
<event>
 7    1  0.3046295E-009  0.4614232E+02  0.7816164E-02  0.1320468E+00
        -11   -1    0    0    0    0  0.00000000000E+00  0.00000000000E+00  0.45593999997E+02  0.45594000000E+02  0.51100000000E-03 0.  1.
         11   -1    0    0    0    0 -0.00000000000E+00 -0.00000000000E+00 -0.45593999997E+02  0.45594000000E+02  0.51100000000E-03 0. -1.
    9900012    2    1    2    0    0 -0.20745577263E+02  0.26874903954E+02  0.29605305328E+02  0.46142317165E+02  0.99999945627E+01 0.  0.
         12    1    1    2    0    0  0.20745577263E+02 -0.26874903954E+02 -0.29605305328E+02  0.45045682835E+02  0.00000000000E+00 0. -1.
         11    1    3    3    0    0 -0.10684693634E+01  0.79823543578E+00  0.54380840111E+00  0.14403244182E+01  0.51100000000E-03 0. -1.
        -11    1    3    3    0    0 -0.17507534475E+02  0.25794984702E+02  0.24525815031E+02  0.39666240084E+02  0.51100000000E-03 0.  1.
        -12    1    3    3    0    0 -0.21695734251E+01  0.28168381544E+00  0.45356818960E+01  0.50357526628E+01  0.00000000000E+00 0.  1.
</event>
<event>
 7    1  0.3046295E-009  0.4614232E+02  0.7816164E-02  0.1320468E+00
        -11   -1    0    0    0    0  0.00000000000E+00  0.00000000000E+00  0.45593999997E+02  0.45594000000E+02  0.51100000000E-03 0. -1.
         11   -1    0    0    0    0 -0.00000000000E+00 -0.00000000000E+00 -0.45593999997E+02  0.45594000000E+02  0.51100000000E-03 0.  1.
    9900012    2    1    2    0    0  0.12155853908E+02 -0.40829269276E+02 -0.14639657609E+02  0.46142316647E+02  0.99999898450E+01 0.  0.
         12    1    1    2    0    0 -0.12155853908E+02  0.40829269276E+02  0.14639657609E+02  0.45045683353E+02  0.00000000000E+00 0. -1.
         11    1    3    3    0    0  0.61961297481E+01 -0.24350537840E+02 -0.54810916481E+01  0.25717369284E+02  0.51100000000E-03 0. -1.
        -11    1    3    3    0    0  0.67696446020E+01 -0.12768401586E+02 -0.70245888093E+01  0.16068758984E+02  0.51100000000E-03 0.  1.
        -12    1    3    3    0    0 -0.80992044239E+00 -0.37103298496E+01 -0.21339771513E+01  0.43561883795E+01  0.00000000000E+00 0.  1.
</event>
<event>
 7    1  0.3046295E-009  0.4614231E+02  0.7816164E-02  0.1320468E+00
        -11   -1    0    0    0    0  0.00000000000E+00  0.00000000000E+00  0.45593999997E+02  0.45594000000E+02  0.51100000000E-03 0.  1.
         11   -1    0    0    0    0 -0.00000000000E+00 -0.00000000000E+00 -0.45593999997E+02  0.45594000000E+02  0.51100000000E-03 0. -1.
    9900012    2    1    2    0    0  0.16790533413E+02  0.23716662901E+02  0.34419651461E+02  0.46142306331E+02  0.99998957688E+01 0.  0.
         12    1    1    2    0    0 -0.16790533413E+02 -0.23716662901E+02 -0.34419651461E+02  0.45045693669E+02  0.00000000000E+00 0. -1.
         11    1    3    3    0    0  0.52771044349E+00  0.10593113324E+01  0.51818391044E+01  0.53152681565E+01  0.51100000000E-03 0. -1.
        -11    1    3    3    0    0  0.12926268472E+02  0.21173588235E+02  0.26150676919E+02  0.36045348645E+02  0.51100000000E-03 0.  1.
        -12    1    3    3    0    0  0.33365544974E+01  0.14837633335E+01  0.30871354372E+01  0.47816895289E+01  0.00000000000E+00 0.  1.
</event>
<event>
 7    1  0.3046295E-009  0.4614231E+02  0.7816164E-02  0.1320468E+00
        -11   -1    0    0    0    0  0.00000000000E+00  0.00000000000E+00  0.45593999997E+02  0.45594000000E+02  0.51100000000E-03 0.  1.
         11   -1    0    0    0    0 -0.00000000000E+00 -0.00000000000E+00 -0.45593999997E+02  0.45594000000E+02  0.51100000000E-03 0. -1.
    9900012    2    1    2    0    0  0.38968968959E+02 -0.19934913319E+02  0.10636410918E+02  0.46142306000E+02  0.99998927531E+01 0.  0.
         12    1    1    2    0    0 -0.38968968959E+02  0.19934913319E+02 -0.10636410918E+02  0.45045694000E+02  0.00000000000E+00 0. -1.
         11    1    3    3    0    0  0.15686659308E+02 -0.39486951948E+01  0.50767682792E+01  0.16953968574E+02  0.51100000000E-03 0.  1.
        -11    1    3    3    0    0  0.14240712049E+02 -0.89860073621E+01  0.96956628135E+00  0.16866720695E+02  0.51100000000E-03 0. -1.
        -12    1    3    3    0    0  0.90415976018E+01 -0.70002107616E+01  0.45900763574E+01  0.12321616731E+02  0.00000000000E+00 0.  1.
</event>
<event>
 7    1  0.3046295E-009  0.4614232E+02  0.7816164E-02  0.1320468E+00
        -11   -1    0    0    0    0  0.00000000000E+00  0.00000000000E+00  0.45593999997E+02  0.45594000000E+02  0.51100000000E-03 0.  1.
         11   -1    0    0    0    0 -0.00000000000E+00 -0.00000000000E+00 -0.45593999997E+02  0.45594000000E+02  0.51100000000E-03 0. -1.
    9900012    2    1    2    0    0 -0.19663244149E+02 -0.40496933738E+02 -0.15711313077E+01  0.46142320226E+02  0.10000022479E+02 0.  0.
         12    1    1    2    0    0  0.19663244149E+02  0.40496933738E+02  0.15711313077E+01  0.45045679774E+02  0.00000000000E+00 0. -1.
         11    1    3    3    0    0 -0.13668747794E+02 -0.31194132461E+02  0.49847550730E+00  0.34061078144E+02  0.51100000000E-03 0. -1.
        -11    1    3    3    0    0 -0.64846920384E+01 -0.72650493880E+01 -0.11989435761E+01  0.98117093008E+01  0.51100000000E-03 0.  1.
         12    1    3    3    0    0  0.49019568290E+00 -0.20377518892E+01 -0.87066323892E+00  0.22695327812E+01  0.00000000000E+00 0. -1.
</event>
<event>
 7    1  0.3046295E-009  0.4614232E+02  0.7816164E-02  0.1320468E+00
        -11   -1    0    0    0    0  0.00000000000E+00  0.00000000000E+00  0.45593999997E+02  0.45594000000E+02  0.51100000000E-03 0.  1.
         11   -1    0    0    0    0 -0.00000000000E+00 -0.00000000000E+00 -0.45593999997E+02  0.45594000000E+02  0.51100000000E-03 0. -1.
    9900012    2    1    2    0    0 -0.41865518405E+02  0.42816296104E+01  0.16064230048E+02  0.46142317960E+02  0.10000001813E+02 0.  0.
         12    1    1    2    0    0  0.41865518405E+02 -0.42816296104E+01 -0.16064230048E+02  0.45045682040E+02  0.00000000000E+00 0. -1.
         11    1    3    3    0    0 -0.27089892540E+02  0.49365267422E+01  0.11242963320E+02  0.29742827683E+02  0.51100000000E-03 0. -1.
        -11    1    3    3    0    0 -0.13271720973E+02 -0.22575894995E+01  0.43874974808E+01  0.14159287494E+02  0.51100000000E-03 0.  1.
         12    1    3    3    0    0 -0.15039048917E+01  0.16026923677E+01  0.43376924713E+00  0.22402027829E+01  0.00000000000E+00 0. -1.
</event>
<event>
 7    1  0.3046295E-009  0.4614232E+02  0.7816164E-02  0.1320468E+00
        -11   -1    0    0    0    0  0.00000000000E+00  0.00000000000E+00  0.45593999997E+02  0.45594000000E+02  0.51100000000E-03 0. -1.
         11   -1    0    0    0    0 -0.00000000000E+00 -0.00000000000E+00 -0.45593999997E+02  0.45594000000E+02  0.51100000000E-03 0.  1.
    9900012    2    1    2    0    0 -0.30993285568E+02  0.17792989593E+02 -0.27421508973E+02  0.46142318927E+02  0.10000010632E+02 0.  0.
         12    1    1    2    0    0  0.30993285568E+02 -0.17792989593E+02  0.27421508973E+02  0.45045681073E+02  0.00000000000E+00 0. -1.
         11    1    3    3    0    0 -0.99380288996E+01  0.35671784675E+01 -0.11349938643E+02  0.15501944655E+02  0.51100000000E-03 0. -1.
        -11    1    3    3    0    0 -0.71763093060E+01  0.45655997386E+01 -0.87834884306E+01  0.12226765128E+02  0.51100000000E-03 0.  1.
         12    1    3    3    0    0 -0.13878947363E+02  0.96602113864E+01 -0.72880819001E+01  0.18413609144E+02  0.00000000000E+00 0. -1.
</event>
<event>
 7    1  0.3046295E-009  0.4614232E+02  0.7816164E-02  0.1320468E+00
        -11   -1    0    0    0    0  0.00000000000E+00  0.00000000000E+00  0.45593999997E+02  0.45594000000E+02  0.51100000000E-03 0.  1.
         11   -1    0    0    0    0 -0.00000000000E+00 -0.00000000000E+00 -0.45593999997E+02  0.45594000000E+02  0.51100000000E-03 0. -1.
    9900012    2    1    2    0    0 -0.60949554509E+01  0.40676182659E+02  0.18368808480E+02  0.46142318269E+02  0.10000004630E+02 0.  0.
         12    1    1    2    0    0  0.60949554509E+01 -0.40676182659E+02 -0.18368808480E+02  0.45045681731E+02  0.00000000000E+00 0. -1.
         11    1    3    3    0    0  0.74767467354E-01  0.25672835353E+02  0.14308989388E+02  0.29391278346E+02  0.51100000000E-03 0. -1.
        -11    1    3    3    0    0 -0.25172769470E+01  0.73866124616E+01  0.18736391356E+01  0.80255374124E+01  0.51100000000E-03 0.  1.
         12    1    3    3    0    0 -0.36524459713E+01  0.76167348444E+01  0.21861799567E+01  0.87255025108E+01  0.00000000000E+00 0. -1.
</event>
<event>
 7    1  0.3046295E-009  0.4614232E+02  0.7816164E-02  0.1320468E+00
        -11   -1    0    0    0    0  0.00000000000E+00  0.00000000000E+00  0.45593999997E+02  0.45594000000E+02  0.51100000000E-03 0.  1.
         11   -1    0    0    0    0 -0.00000000000E+00 -0.00000000000E+00 -0.45593999997E+02  0.45594000000E+02  0.51100000000E-03 0. -1.
    9900012    2    1    2    0    0  0.36472769614E+02 -0.11831284710E+02  0.23640458033E+02  0.46142317885E+02  0.10000001130E+02 0.  0.
         12    1    1    2    0    0 -0.36472769614E+02  0.11831284710E+02 -0.23640458033E+02  0.45045682115E+02  0.00000000000E+00 0. -1.
         11    1    3    3    0    0  0.51730334683E+01 -0.15606674980E+01  0.71756814859E+01  0.89825588421E+01  0.51100000000E-03 0. -1.
        -11    1    3    3    0    0  0.11150261235E+02 -0.25256231889E+01  0.34009929024E+01  0.11927860290E+02  0.51100000000E-03 0.  1.
        -12    1    3    3    0    0  0.20149474911E+02 -0.77449940231E+01  0.13063783645E+02  0.25231898753E+02  0.00000000000E+00 0.  1.
</event>
<event>
 7    1  0.3268824E-009  0.4614232E+02  0.7816164E-02  0.1320468E+00
        -11   -1    0    0    0    0  0.00000000000E+00  0.00000000000E+00  0.45593999997E+02  0.45594000000E+02  0.51100000000E-03 0.  1.
         11   -1    0    0    0    0 -0.00000000000E+00 -0.00000000000E+00 -0.45593999997E+02  0.45594000000E+02  0.51100000000E-03 0. -1.
    9900012    2    1    2    0    0  0.40041079130E+02 -0.14358739867E+02  0.14820665145E+02  0.46142317145E+02  0.99999943850E+01 0.  0.
         12    1    1    2    0    0 -0.40041079130E+02  0.14358739867E+02 -0.14820665145E+02  0.45045682855E+02  0.00000000000E+00 0. -1.
         11    1    3    3    0    0  0.52678835182E+01  0.50089071256E+00  0.18669617587E+01  0.56113309239E+01  0.51100000000E-03 0. -1.
        -11    1    3    3    0    0  0.34360141153E+02 -0.13581823896E+02  0.13051493958E+02  0.39184521628E+02  0.51100000000E-03 0.  1.
        -12    1    3    3    0    0  0.41305445928E+00 -0.12778066835E+01 -0.97790571277E-01  0.13464645939E+01  0.00000000000E+00 0.  1.
</event>
<event>
 7    1  0.3046295E-009  0.4614232E+02  0.7816164E-02  0.1320468E+00
        -11   -1    0    0    0    0  0.00000000000E+00  0.00000000000E+00  0.45593999997E+02  0.45594000000E+02  0.51100000000E-03 0. -1.
         11   -1    0    0    0    0 -0.00000000000E+00 -0.00000000000E+00 -0.45593999997E+02  0.45594000000E+02  0.51100000000E-03 0.  1.
    9900012    2    1    2    0    0  0.21275637538E+02 -0.34268450414E+02 -0.20053279815E+02  0.46142317878E+02  0.10000001069E+02 0.  0.
         12    1    1    2    0    0 -0.21275637538E+02  0.34268450414E+02  0.20053279815E+02  0.45045682122E+02  0.00000000000E+00 0. -1.
         11    1    3    3    0    0  0.40874739221E+01 -0.21000896667E+01 -0.27101484734E+01  0.53350468302E+01  0.51100000000E-03 0. -1.
        -11    1    3    3    0    0  0.79932913635E+01 -0.21009491277E+02 -0.10672012059E+02  0.24883393503E+02  0.51100000000E-03 0.  1.
         12    1    3    3    0    0  0.91948722527E+01 -0.11158869470E+02 -0.66711192826E+01  0.15923877545E+02  0.00000000000E+00 0. -1.
</event>
<event>
 7    1  0.3046295E-009  0.4614232E+02  0.7816164E-02  0.1320468E+00
        -11   -1    0    0    0    0  0.00000000000E+00  0.00000000000E+00  0.45593999997E+02  0.45594000000E+02  0.51100000000E-03 0. -1.
         11   -1    0    0    0    0 -0.00000000000E+00 -0.00000000000E+00 -0.45593999997E+02  0.45594000000E+02  0.51100000000E-03 0.  1.
    9900012    2    1    2    0    0  0.73608191330E+01  0.23026707345E+02 -0.38009243639E+02  0.46142317504E+02  0.99999976591E+01 0.  0.
         12    1    1    2    0    0 -0.73608191330E+01 -0.23026707345E+02  0.38009243639E+02  0.45045682496E+02  0.00000000000E+00 0. -1.
         11    1    3    3    0    0  0.19713608689E+01  0.14760545876E+01 -0.76501369958E+01  0.80367653404E+01  0.51100000000E-03 0. -1.
        -11    1    3    3    0    0  0.45155323470E+01  0.96413048958E+01 -0.18050437882E+02  0.20956218659E+02  0.51100000000E-03 0.  1.
         12    1    3    3    0    0  0.87392591711E+00  0.11909347862E+02 -0.12308668761E+02  0.17149333505E+02  0.00000000000E+00 0. -1.
</event>
<event>
 7    1  0.3046295E-009  0.4614232E+02  0.7816164E-02  0.1320468E+00
        -11   -1    0    0    0    0  0.00000000000E+00  0.00000000000E+00  0.45593999997E+02  0.45594000000E+02  0.51100000000E-03 0.  1.
         11   -1    0    0    0    0 -0.00000000000E+00 -0.00000000000E+00 -0.45593999997E+02  0.45594000000E+02  0.51100000000E-03 0. -1.
    9900012    2    1    2    0    0  0.15198371168E+02  0.34034351347E+02  0.25293990886E+02  0.46142317269E+02  0.99999955116E+01 0.  0.
         12    1    1    2    0    0 -0.15198371168E+02 -0.34034351347E+02 -0.25293990886E+02  0.45045682731E+02  0.00000000000E+00 0. -1.
         11    1    3    3    0    0  0.43294162327E+01  0.40190547586E+01  0.63016578279E+01  0.86375654967E+01  0.51100000000E-03 0. -1.
        -11    1    3    3    0    0  0.33884907323E+01  0.16218341249E+02  0.11048630370E+02  0.19914534783E+02  0.51100000000E-03 0.  1.
        -12    1    3    3    0    0  0.74804642027E+01  0.13796955340E+02  0.79437026882E+01  0.17590216989E+02  0.00000000000E+00 0.  1.
</event>
<event>
 7    1  0.3046295E-009  0.4614232E+02  0.7816164E-02  0.1320468E+00
        -11   -1    0    0    0    0  0.00000000000E+00  0.00000000000E+00  0.45593999997E+02  0.45594000000E+02  0.51100000000E-03 0.  1.
         11   -1    0    0    0    0 -0.00000000000E+00 -0.00000000000E+00 -0.45593999997E+02  0.45594000000E+02  0.51100000000E-03 0. -1.
    9900012    2    1    2    0    0  0.53770032174E+01 -0.22493468701E+02  0.38655467793E+02  0.46142317764E+02  0.10000000025E+02 0.  0.
         12    1    1    2    0    0 -0.53770032174E+01  0.22493468701E+02 -0.38655467793E+02  0.45045682236E+02  0.00000000000E+00 0. -1.
         11    1    3    3    0    0  0.36665834843E+01 -0.70098258691E+01  0.16687060419E+02  0.18467254231E+02  0.51100000000E-03 0.  1.
        -11    1    3    3    0    0 -0.73931808192E+00 -0.32763053115E+01  0.14149517004E+01  0.36445653096E+01  0.51100000000E-03 0. -1.
        -12    1    3    3    0    0  0.24497378151E+01 -0.12207337520E+02  0.20553455674E+02  0.24030498223E+02  0.00000000000E+00 0.  1.
</event>
<event>
 7    1  0.4245916E-009  0.4614232E+02  0.7816164E-02  0.1320468E+00
        -11   -1    0    0    0    0  0.00000000000E+00  0.00000000000E+00  0.45593999997E+02  0.45594000000E+02  0.51100000000E-03 0.  1.
         11   -1    0    0    0    0 -0.00000000000E+00 -0.00000000000E+00 -0.45593999997E+02  0.45594000000E+02  0.51100000000E-03 0. -1.
    9900012    2    1    2    0    0  0.25291777233E+02 -0.35255699779E+02 -0.12102692877E+02  0.46142317217E+02  0.99999950374E+01 0.  0.
         12    1    1    2    0    0 -0.25291777233E+02  0.35255699779E+02  0.12102692877E+02  0.45045682783E+02  0.00000000000E+00 0. -1.
         11    1    3    3    0    0  0.66749925283E+00 -0.48893140735E+00 -0.15866081787E+01  0.17893951345E+01  0.51100000000E-03 0. -1.
        -11    1    3    3    0    0  0.24082425397E+02 -0.34986208414E+02 -0.10171955143E+02  0.43674553964E+02  0.51100000000E-03 0.  1.
        -12    1    3    3    0    0  0.54185258274E+00  0.21944004245E+00 -0.34412955554E+00  0.67836811883E+00  0.00000000000E+00 0.  1.
</event>
<event>
 7    1  0.3046295E-009  0.4614232E+02  0.7816164E-02  0.1320468E+00
        -11   -1    0    0    0    0  0.00000000000E+00  0.00000000000E+00  0.45593999997E+02  0.45594000000E+02  0.51100000000E-03 0.  1.
         11   -1    0    0    0    0 -0.00000000000E+00 -0.00000000000E+00 -0.45593999997E+02  0.45594000000E+02  0.51100000000E-03 0. -1.
    9900012    2    1    2    0    0  0.29656229758E+02  0.74591908094E+01  0.33075398398E+02  0.46142317963E+02  0.10000001838E+02 0.  0.
         12    1    1    2    0    0 -0.29656229758E+02 -0.74591908094E+01 -0.33075398398E+02  0.45045682037E+02  0.00000000000E+00 0. -1.
         11    1    3    3    0    0  0.52137175768E+01 -0.27787849422E+00  0.67592095078E+01  0.85409004712E+01  0.51100000000E-03 0. -1.
        -11    1    3    3    0    0  0.17301133530E+01  0.23154673104E+01  0.76972825254E+00  0.29911808577E+01  0.51100000000E-03 0.  1.
        -12    1    3    3    0    0  0.22712398828E+02  0.54216019932E+01  0.25546460638E+02  0.34610236634E+02  0.00000000000E+00 0.  1.
</event>
<event>
 7    1  0.3046295E-009  0.4614232E+02  0.7816164E-02  0.1320468E+00
        -11   -1    0    0    0    0  0.00000000000E+00  0.00000000000E+00  0.45593999997E+02  0.45594000000E+02  0.51100000000E-03 0.  1.
         11   -1    0    0    0    0 -0.00000000000E+00 -0.00000000000E+00 -0.45593999997E+02  0.45594000000E+02  0.51100000000E-03 0. -1.
    9900012    2    1    2    0    0  0.15355690679E+02  0.14879359174E+01  0.42321417006E+02  0.46142317333E+02  0.99999960945E+01 0.  0.
         12    1    1    2    0    0 -0.15355690679E+02 -0.14879359174E+01 -0.42321417006E+02  0.45045682667E+02  0.00000000000E+00 0. -1.
         11    1    3    3    0    0  0.62797079413E+01 -0.35892300833E+01  0.12762831892E+02  0.14669941465E+02  0.51100000000E-03 0. -1.
        -11    1    3    3    0    0  0.47506526098E+01  0.39001736805E+01  0.14204770576E+02  0.15477582574E+02  0.51100000000E-03 0.  1.
         12    1    3    3    0    0  0.43253301281E+01  0.11769923202E+01  0.15353814538E+02  0.15994793294E+02  0.00000000000E+00 0. -1.
</event>
<event>
 7    1  0.3046295E-009  0.4614232E+02  0.7816164E-02  0.1320468E+00
        -11   -1    0    0    0    0  0.00000000000E+00  0.00000000000E+00  0.45593999997E+02  0.45594000000E+02  0.51100000000E-03 0.  1.
         11   -1    0    0    0    0 -0.00000000000E+00 -0.00000000000E+00 -0.45593999997E+02  0.45594000000E+02  0.51100000000E-03 0. -1.
    9900012    2    1    2    0    0  0.23602480879E+02  0.37856805005E+02  0.62368821197E+01  0.46142317771E+02  0.10000000093E+02 0.  0.
         12    1    1    2    0    0 -0.23602480879E+02 -0.37856805005E+02 -0.62368821197E+01  0.45045682229E+02  0.00000000000E+00 0. -1.
         11    1    3    3    0    0  0.56808338666E+01  0.39265430226E+01 -0.54830768301E+00  0.69274999173E+01  0.51100000000E-03 0. -1.
        -11    1    3    3    0    0  0.43473393354E+01  0.90577468988E+01 -0.12924959132E+00  0.10047827820E+02  0.51100000000E-03 0.  1.
         12    1    3    3    0    0  0.13574307677E+02  0.24872515084E+02  0.69144393940E+01  0.29166990034E+02  0.00000000000E+00 0. -1.
</event>
<event>
 7    1  0.3046295E-009  0.4614232E+02  0.7816164E-02  0.1320468E+00
        -11   -1    0    0    0    0  0.00000000000E+00  0.00000000000E+00  0.45593999997E+02  0.45594000000E+02  0.51100000000E-03 0.  1.
         11   -1    0    0    0    0 -0.00000000000E+00 -0.00000000000E+00 -0.45593999997E+02  0.45594000000E+02  0.51100000000E-03 0. -1.
    9900012    2    1    2    0    0 -0.21592210613E+02  0.94153186895E+01  0.38395853372E+02  0.46142319393E+02  0.10000014885E+02 0.  0.
         12    1    1    2    0    0  0.21592210613E+02 -0.94153186895E+01 -0.38395853372E+02  0.45045680607E+02  0.00000000000E+00 0. -1.
         11    1    3    3    0    0 -0.10922135027E+02  0.29495148804E+01  0.11213537725E+02  0.15929096024E+02  0.51100000000E-03 0. -1.
        -11    1    3    3    0    0 -0.92141760813E+01  0.38074399094E+01  0.18474098658E+02  0.20992616822E+02  0.51100000000E-03 0.  1.
         12    1    3    3    0    0 -0.14558995046E+01  0.26583638997E+01  0.87082169885E+01  0.92206065478E+01  0.00000000000E+00 0. -1.
</event>
<event>
 7    1  0.3046295E-009  0.4614232E+02  0.7816164E-02  0.1320468E+00
        -11   -1    0    0    0    0  0.00000000000E+00  0.00000000000E+00  0.45593999997E+02  0.45594000000E+02  0.51100000000E-03 0.  1.
         11   -1    0    0    0    0 -0.00000000000E+00 -0.00000000000E+00 -0.45593999997E+02  0.45594000000E+02  0.51100000000E-03 0. -1.
    9900012    2    1    2    0    0 -0.36294678337E+02  0.21309462862E+02  0.16053555371E+02  0.46142317376E+02  0.99999964880E+01 0.  0.
         12    1    1    2    0    0  0.36294678337E+02 -0.21309462862E+02 -0.16053555371E+02  0.45045682624E+02  0.00000000000E+00 0. -1.
         11    1    3    3    0    0 -0.66717896826E+00  0.60074932578E+00  0.14560023033E-01  0.89790856077E+00  0.51100000000E-03 0. -1.
        -11    1    3    3    0    0 -0.19809358334E+02  0.95186017516E+01  0.37373513085E+01  0.22293098753E+02  0.51100000000E-03 0.  1.
        -12    1    3    3    0    0 -0.15818141034E+02  0.11190111784E+02  0.12301644040E+02  0.22951310063E+02  0.00000000000E+00 0.  1.
</event>
<event>
 7    1  0.3046295E-009  0.4614232E+02  0.7816164E-02  0.1320468E+00
        -11   -1    0    0    0    0  0.00000000000E+00  0.00000000000E+00  0.45593999997E+02  0.45594000000E+02  0.51100000000E-03 0.  1.
         11   -1    0    0    0    0 -0.00000000000E+00 -0.00000000000E+00 -0.45593999997E+02  0.45594000000E+02  0.51100000000E-03 0. -1.
    9900012    2    1    2    0    0  0.44212430974E+02 -0.22446730257E+01  0.83268147812E+01  0.46142318143E+02  0.10000003479E+02 0.  0.
         12    1    1    2    0    0 -0.44212430974E+02  0.22446730257E+01 -0.83268147812E+01  0.45045681857E+02  0.00000000000E+00 0. -1.
         11    1    3    3    0    0  0.27795347369E+02  0.29390798545E+01  0.39715900485E+01  0.28231065399E+02  0.51100000000E-03 0. -1.
        -11    1    3    3    0    0  0.12869725511E+02 -0.30229125010E+01  0.32981233491E+01  0.13625177159E+02  0.51100000000E-03 0.  1.
         12    1    3    3    0    0  0.35473580934E+01 -0.21608403792E+01  0.10571013836E+01  0.42860755853E+01  0.00000000000E+00 0. -1.
</event>
<event>
 7    1  0.3046295E-009  0.4614232E+02  0.7816164E-02  0.1320468E+00
        -11   -1    0    0    0    0  0.00000000000E+00  0.00000000000E+00  0.45593999997E+02  0.45594000000E+02  0.51100000000E-03 0.  1.
         11   -1    0    0    0    0 -0.00000000000E+00 -0.00000000000E+00 -0.45593999997E+02  0.45594000000E+02  0.51100000000E-03 0. -1.
    9900012    2    1    2    0    0 -0.19092636738E+02  0.10483618769E+02  0.39429411150E+02  0.46142317591E+02  0.99999984448E+01 0.  0.
         12    1    1    2    0    0  0.19092636738E+02 -0.10483618769E+02 -0.39429411150E+02  0.45045682409E+02  0.00000000000E+00 0. -1.
         11    1    3    3    0    0 -0.16260608095E+02  0.82891313680E+01  0.23388271007E+02  0.29666956288E+02  0.51100000000E-03 0. -1.
        -11    1    3    3    0    0 -0.20426125525E+01  0.20666554028E+01  0.13586037935E+02  0.13893299018E+02  0.51100000000E-03 0.  1.
         12    1    3    3    0    0 -0.78941609043E+00  0.12783199769E+00  0.24551022089E+01  0.25820622842E+01  0.00000000000E+00 0. -1.
</event>
<event>
 7    1  0.3046295E-009  0.4614232E+02  0.7816164E-02  0.1320468E+00
        -11   -1    0    0    0    0  0.00000000000E+00  0.00000000000E+00  0.45593999997E+02  0.45594000000E+02  0.51100000000E-03 0.  1.
         11   -1    0    0    0    0 -0.00000000000E+00 -0.00000000000E+00 -0.45593999997E+02  0.45594000000E+02  0.51100000000E-03 0. -1.
    9900012    2    1    2    0    0 -0.32496857179E+02 -0.10795635191E+02  0.29266396054E+02  0.46142318701E+02  0.10000008567E+02 0.  0.
         12    1    1    2    0    0  0.32496857179E+02  0.10795635191E+02 -0.29266396054E+02  0.45045681299E+02  0.00000000000E+00 0. -1.
         11    1    3    3    0    0 -0.88256454192E+01 -0.35650274110E-01  0.96721081955E+01  0.13093623074E+02  0.51100000000E-03 0. -1.
        -11    1    3    3    0    0 -0.16028400771E+02 -0.86899543113E+01  0.16356614290E+02  0.24494157844E+02  0.51100000000E-03 0.  1.
        -12    1    3    3    0    0 -0.76428109897E+01 -0.20700306055E+01  0.32376735691E+01  0.85545377825E+01  0.00000000000E+00 0.  1.
</event>
<event>
 7    1  0.3046295E-009  0.4614232E+02  0.7816164E-02  0.1320468E+00
        -11   -1    0    0    0    0  0.00000000000E+00  0.00000000000E+00  0.45593999997E+02  0.45594000000E+02  0.51100000000E-03 0.  1.
         11   -1    0    0    0    0 -0.00000000000E+00 -0.00000000000E+00 -0.45593999997E+02  0.45594000000E+02  0.51100000000E-03 0. -1.
    9900012    2    1    2    0    0 -0.22369030911E+02  0.30689009534E+02  0.24226527825E+02  0.46142317626E+02  0.99999987711E+01 0.  0.
         12    1    1    2    0    0  0.22369030911E+02 -0.30689009534E+02 -0.24226527825E+02  0.45045682374E+02  0.00000000000E+00 0. -1.
         11    1    3    3    0    0 -0.15013683798E+02  0.14510924426E+02  0.10133311052E+02  0.23209084903E+02  0.51100000000E-03 0. -1.
        -11    1    3    3    0    0 -0.29198915031E+01  0.85078555415E+01  0.52503152371E+01  0.10415141989E+02  0.51100000000E-03 0.  1.
         12    1    3    3    0    0 -0.44354556096E+01  0.76702295665E+01  0.88429015352E+01  0.12518090734E+02  0.00000000000E+00 0. -1.
</event>
<event>
 7    1  0.3046295E-009  0.4614232E+02  0.7816164E-02  0.1320468E+00
        -11   -1    0    0    0    0  0.00000000000E+00  0.00000000000E+00  0.45593999997E+02  0.45594000000E+02  0.51100000000E-03 0.  1.
         11   -1    0    0    0    0 -0.00000000000E+00 -0.00000000000E+00 -0.45593999997E+02  0.45594000000E+02  0.51100000000E-03 0. -1.
    9900012    2    1    2    0    0  0.23764915632E+01  0.11302769889E+01  0.44968746538E+02  0.46142318704E+02  0.10000008597E+02 0.  0.
         12    1    1    2    0    0 -0.23764915632E+01 -0.11302769889E+01 -0.44968746538E+02  0.45045681296E+02  0.00000000000E+00 0. -1.
         11    1    3    3    0    0  0.25892092078E+01 -0.17642974504E+01  0.18048004666E+02  0.18317948098E+02  0.51100000000E-03 0. -1.
        -11    1    3    3    0    0 -0.13953178859E+00  0.35562343056E+01  0.26924465057E+02  0.27158665108E+02  0.51100000000E-03 0.  1.
         12    1    3    3    0    0 -0.73185855939E-01 -0.66165986639E+00 -0.37231856610E-02  0.66570549825E+00  0.00000000000E+00 0. -1.
</event>
<event>
 7    1  0.3046295E-009  0.4614232E+02  0.7816164E-02  0.1320468E+00
        -11   -1    0    0    0    0  0.00000000000E+00  0.00000000000E+00  0.45593999997E+02  0.45594000000E+02  0.51100000000E-03 0.  1.
         11   -1    0    0    0    0 -0.00000000000E+00 -0.00000000000E+00 -0.45593999997E+02  0.45594000000E+02  0.51100000000E-03 0. -1.
    9900012    2    1    2    0    0  0.54548884526E+01 -0.81047203656E+01  0.43973530068E+02  0.46142316002E+02  0.99999839583E+01 0.  0.
         12    1    1    2    0    0 -0.54548884526E+01  0.81047203656E+01 -0.43973530068E+02  0.45045683998E+02  0.00000000000E+00 0. -1.
         11    1    3    3    0    0 -0.78085276594E+00 -0.57064545666E+01  0.14991131256E+02  0.16059494741E+02  0.51100000000E-03 0. -1.
        -11    1    3    3    0    0  0.32652219439E+01 -0.33924609844E+01  0.13816089309E+02  0.14596396471E+02  0.51100000000E-03 0.  1.
         12    1    3    3    0    0  0.29705192746E+01  0.99419518547E+00  0.15166309503E+02  0.15486424790E+02  0.00000000000E+00 0. -1.
</event>
<event>
 7    1  0.3046295E-009  0.4614232E+02  0.7816164E-02  0.1320468E+00
        -11   -1    0    0    0    0  0.00000000000E+00  0.00000000000E+00  0.45593999997E+02  0.45594000000E+02  0.51100000000E-03 0.  1.
         11   -1    0    0    0    0 -0.00000000000E+00 -0.00000000000E+00 -0.45593999997E+02  0.45594000000E+02  0.51100000000E-03 0. -1.
    9900012    2    1    2    0    0  0.44787627380E+02  0.16932007082E+01  0.45072092977E+01  0.46142318402E+02  0.10000005844E+02 0.  0.
         12    1    1    2    0    0 -0.44787627380E+02 -0.16932007082E+01 -0.45072092977E+01  0.45045681598E+02  0.00000000000E+00 0. -1.
         11    1    3    3    0    0  0.39951850764E+01 -0.75736377365E+00 -0.17019642103E+01  0.44081499651E+01  0.51100000000E-03 0. -1.
        -11    1    3    3    0    0  0.33008554314E+02  0.53358899063E-01  0.37196005285E+01  0.33217509441E+02  0.51100000000E-03 0.  1.
        -12    1    3    3    0    0  0.77838879894E+01  0.23972055828E+01  0.24895729795E+01  0.85166589962E+01  0.00000000000E+00 0.  1.
</event>
<event>
 7    1  0.3046295E-009  0.4614232E+02  0.7816164E-02  0.1320468E+00
        -11   -1    0    0    0    0  0.00000000000E+00  0.00000000000E+00  0.45593999997E+02  0.45594000000E+02  0.51100000000E-03 0.  1.
         11   -1    0    0    0    0 -0.00000000000E+00 -0.00000000000E+00 -0.45593999997E+02  0.45594000000E+02  0.51100000000E-03 0. -1.
    9900012    2    1    2    0    0  0.35847810093E+02  0.27157824441E+02  0.25496184204E+01  0.46142317955E+02  0.10000001766E+02 0.  0.
         12    1    1    2    0    0 -0.35847810093E+02 -0.27157824441E+02 -0.25496184204E+01  0.45045682045E+02  0.00000000000E+00 0. -1.
         11    1    3    3    0    0  0.14938302087E+02  0.16220094229E+02  0.26989281109E+01  0.22215502228E+02  0.51100000000E-03 0. -1.
        -11    1    3    3    0    0  0.17062652550E+02  0.73449715217E+01  0.72738088967E+00  0.18590637480E+02  0.51100000000E-03 0.  1.
        -12    1    3    3    0    0  0.38468554559E+01  0.35927586896E+01 -0.87669058021E+00  0.53361782461E+01  0.00000000000E+00 0.  1.
</event>
<event>
 7    1  0.3046295E-009  0.4614232E+02  0.7816164E-02  0.1320468E+00
        -11   -1    0    0    0    0  0.00000000000E+00  0.00000000000E+00  0.45593999997E+02  0.45594000000E+02  0.51100000000E-03 0.  1.
         11   -1    0    0    0    0 -0.00000000000E+00 -0.00000000000E+00 -0.45593999997E+02  0.45594000000E+02  0.51100000000E-03 0. -1.
    9900012    2    1    2    0    0 -0.35706915985E+02 -0.26459861020E+02  0.73488295708E+01  0.46142318848E+02  0.10000009913E+02 0.  0.
         12    1    1    2    0    0  0.35706915985E+02  0.26459861020E+02 -0.73488295708E+01  0.45045681152E+02  0.00000000000E+00 0. -1.
         11    1    3    3    0    0 -0.76918126326E+01 -0.67430754690E+01 -0.13607506564E+01  0.10319141969E+02  0.51100000000E-03 0. -1.
        -11    1    3    3    0    0 -0.26017269072E+02 -0.17353166095E+02  0.93933036225E+01  0.32653710611E+02  0.51100000000E-03 0.  1.
        -12    1    3    3    0    0 -0.19978342805E+01 -0.23636194558E+01 -0.68372339529E+00  0.31694662682E+01  0.00000000000E+00 0.  1.
</event>
<event>
 7    1  0.4118470E-009  0.4614231E+02  0.7816164E-02  0.1320468E+00
        -11   -1    0    0    0    0  0.00000000000E+00  0.00000000000E+00  0.45593999997E+02  0.45594000000E+02  0.51100000000E-03 0. -1.
         11   -1    0    0    0    0 -0.00000000000E+00 -0.00000000000E+00 -0.45593999997E+02  0.45594000000E+02  0.51100000000E-03 0.  1.
    9900012    2    1    2    0    0 -0.23694011781E+01 -0.34593485862E+02 -0.28753964126E+02  0.46142314535E+02  0.99999705857E+01 0.  0.
         12    1    1    2    0    0  0.23694011781E+01  0.34593485862E+02  0.28753964126E+02  0.45045685465E+02  0.00000000000E+00 0. -1.
         11    1    3    3    0    0  0.23715725513E+01 -0.93960584278E+01 -0.76552934681E+01  0.12349647310E+02  0.51100000000E-03 0. -1.
        -11    1    3    3    0    0 -0.55946610990E+01 -0.18043036400E+02 -0.12884099953E+02  0.22865944704E+02  0.51100000000E-03 0.  1.
        -12    1    3    3    0    0  0.85368736958E+00 -0.71543910347E+01 -0.82145707045E+01  0.10926722521E+02  0.00000000000E+00 0.  1.
</event>
<event>
 7    1  0.3046295E-009  0.4614232E+02  0.7816164E-02  0.1320468E+00
        -11   -1    0    0    0    0  0.00000000000E+00  0.00000000000E+00  0.45593999997E+02  0.45594000000E+02  0.51100000000E-03 0.  1.
         11   -1    0    0    0    0 -0.00000000000E+00 -0.00000000000E+00 -0.45593999997E+02  0.45594000000E+02  0.51100000000E-03 0. -1.
    9900012    2    1    2    0    0 -0.82663472001E+01 -0.47660652019E+01  0.44023465213E+02  0.46142319154E+02  0.10000012704E+02 0.  0.
         12    1    1    2    0    0  0.82663472001E+01  0.47660652019E+01 -0.44023465213E+02  0.45045680846E+02  0.00000000000E+00 0. -1.
         11    1    3    3    0    0 -0.32147561377E+01  0.17757067431E+01  0.17538294759E+02  0.17918693445E+02  0.51100000000E-03 0. -1.
        -11    1    3    3    0    0 -0.44797868065E+01 -0.16091095678E+01  0.14006694963E+02  0.14793418384E+02  0.51100000000E-03 0.  1.
         12    1    3    3    0    0 -0.57180425581E+00 -0.49326623772E+01  0.12478475490E+02  0.13430207325E+02  0.00000000000E+00 0. -1.
</event>
<event>
 7    1  0.3046295E-009  0.4614232E+02  0.7816164E-02  0.1320468E+00
        -11   -1    0    0    0    0  0.00000000000E+00  0.00000000000E+00  0.45593999997E+02  0.45594000000E+02  0.51100000000E-03 0. -1.
         11   -1    0    0    0    0 -0.00000000000E+00 -0.00000000000E+00 -0.45593999997E+02  0.45594000000E+02  0.51100000000E-03 0.  1.
    9900012    2    1    2    0    0  0.17962009085E+02  0.23783431979E+02 -0.33776147273E+02  0.46142317280E+02  0.99999956163E+01 0.  0.
         12    1    1    2    0    0 -0.17962009085E+02 -0.23783431979E+02  0.33776147273E+02  0.45045682720E+02  0.00000000000E+00 0. -1.
         11    1    3    3    0    0  0.25843919809E+01  0.10631554918E+02 -0.94660018272E+01  0.14467696179E+02  0.51100000000E-03 0. -1.
        -11    1    3    3    0    0  0.33714651297E+01  0.21707090876E+01 -0.54464095993E+01  0.67632930477E+01  0.51100000000E-03 0.  1.
         12    1    3    3    0    0  0.12006151974E+02  0.10981167973E+02 -0.18863735847E+02  0.24911328053E+02  0.00000000000E+00 0. -1.
</event>
<event>
 7    1  0.3046295E-009  0.4614232E+02  0.7816164E-02  0.1320468E+00
        -11   -1    0    0    0    0  0.00000000000E+00  0.00000000000E+00  0.45593999997E+02  0.45594000000E+02  0.51100000000E-03 0.  1.
         11   -1    0    0    0    0 -0.00000000000E+00 -0.00000000000E+00 -0.45593999997E+02  0.45594000000E+02  0.51100000000E-03 0. -1.
    9900012    2    1    2    0    0  0.38680072811E+02  0.21318734603E+02  0.88587247535E+01  0.46142317832E+02  0.10000000643E+02 0.  0.
         12    1    1    2    0    0 -0.38680072811E+02 -0.21318734603E+02 -0.88587247535E+01  0.45045682168E+02  0.00000000000E+00 0. -1.
         11    1    3    3    0    0  0.13678472442E+02  0.10628372048E+02  0.55931718238E+01  0.18202924821E+02  0.51100000000E-03 0. -1.
        -11    1    3    3    0    0  0.10290528260E+02  0.35157041593E+01  0.39185442041E+01  0.11558985100E+02  0.51100000000E-03 0.  1.
         12    1    3    3    0    0  0.14711072110E+02  0.71746583958E+01 -0.65299127443E+00  0.16380407911E+02  0.00000000000E+00 0. -1.
</event>
<event>
 7    1  0.3046295E-009  0.4614231E+02  0.7816164E-02  0.1320468E+00
        -11   -1    0    0    0    0  0.00000000000E+00  0.00000000000E+00  0.45593999997E+02  0.45594000000E+02  0.51100000000E-03 0.  1.
         11   -1    0    0    0    0 -0.00000000000E+00 -0.00000000000E+00 -0.45593999997E+02  0.45594000000E+02  0.51100000000E-03 0. -1.
    9900012    2    1    2    0    0  0.12575083533E+02  0.29356009159E+02  0.31767999547E+02  0.46142314360E+02  0.99999689816E+01 0.  0.
         12    1    1    2    0    0 -0.12575083533E+02 -0.29356009159E+02 -0.31767999547E+02  0.45045685640E+02  0.00000000000E+00 0. -1.
         11    1    3    3    0    0  0.96214517625E+01  0.14204884006E+02  0.12526006309E+02  0.21242690459E+02  0.51100000000E-03 0. -1.
        -11    1    3    3    0    0 -0.46750206179E+00  0.51008531557E+01  0.52381387383E+01  0.73263468930E+01  0.51100000000E-03 0.  1.
        -12    1    3    3    0    0  0.34211338320E+01  0.10050271998E+02  0.14003854500E+02  0.17573277007E+02  0.00000000000E+00 0.  1.
</event>
<event>
 7    1  0.3046295E-009  0.4614232E+02  0.7816164E-02  0.1320468E+00
        -11   -1    0    0    0    0  0.00000000000E+00  0.00000000000E+00  0.45593999997E+02  0.45594000000E+02  0.51100000000E-03 0.  1.
         11   -1    0    0    0    0 -0.00000000000E+00 -0.00000000000E+00 -0.45593999997E+02  0.45594000000E+02  0.51100000000E-03 0. -1.
    9900012    2    1    2    0    0  0.15784235165E+02  0.67263043013E+01  0.41650065164E+02  0.46142321212E+02  0.10000031465E+02 0.  0.
         12    1    1    2    0    0 -0.15784235165E+02 -0.67263043013E+01 -0.41650065164E+02  0.45045678788E+02  0.00000000000E+00 0. -1.
         11    1    3    3    0    0  0.54719214282E+01  0.50206562969E+01  0.18249224166E+02  0.19702362719E+02  0.51100000000E-03 0. -1.
        -11    1    3    3    0    0  0.72331420865E+01  0.18658572025E+01  0.21631643284E+02  0.22885099059E+02  0.51100000000E-03 0.  1.
         12    1    3    3    0    0  0.30791716503E+01 -0.16020919809E+00  0.17691977144E+01  0.35548594335E+01  0.00000000000E+00 0. -1.
</event>
<event>
 7    1  0.3046295E-009  0.4614232E+02  0.7816164E-02  0.1320468E+00
        -11   -1    0    0    0    0  0.00000000000E+00  0.00000000000E+00  0.45593999997E+02  0.45594000000E+02  0.51100000000E-03 0.  1.
         11   -1    0    0    0    0 -0.00000000000E+00 -0.00000000000E+00 -0.45593999997E+02  0.45594000000E+02  0.51100000000E-03 0. -1.
    9900012    2    1    2    0    0  0.24355035691E+02 -0.36557837772E+02  0.99734650342E+01  0.46142320176E+02  0.10000022020E+02 0.  0.
         12    1    1    2    0    0 -0.24355035691E+02  0.36557837772E+02 -0.99734650342E+01  0.45045679824E+02  0.00000000000E+00 0. -1.
         11    1    3    3    0    0  0.11328366319E+02 -0.17307689886E+02  0.67018257963E+01  0.21744021751E+02  0.51100000000E-03 0.  1.
        -11    1    3    3    0    0  0.30717425512E+01 -0.25551296841E+01  0.29350185690E+01  0.49576833567E+01  0.51100000000E-03 0. -1.
        -12    1    3    3    0    0  0.99549268203E+01 -0.16695018202E+02  0.33662066893E+00  0.19440615068E+02  0.00000000000E+00 0.  1.
</event>
<event>
 7    1  0.3046295E-009  0.4614232E+02  0.7816164E-02  0.1320468E+00
        -11   -1    0    0    0    0  0.00000000000E+00  0.00000000000E+00  0.45593999997E+02  0.45594000000E+02  0.51100000000E-03 0. -1.
         11   -1    0    0    0    0 -0.00000000000E+00 -0.00000000000E+00 -0.45593999997E+02  0.45594000000E+02  0.51100000000E-03 0.  1.
    9900012    2    1    2    0    0 -0.29321182223E+02 -0.33859750391E+02  0.47853020490E+01  0.46142317197E+02  0.99999948517E+01 0.  0.
         12    1    1    2    0    0  0.29321182223E+02  0.33859750391E+02 -0.47853020490E+01  0.45045682803E+02  0.00000000000E+00 0. -1.
         11    1    3    3    0    0 -0.66756408467E+00 -0.74870681074E+00 -0.46289530035E+00  0.11047515629E+01  0.51100000000E-03 0.  1.
        -11    1    3    3    0    0 -0.65300099395E+00 -0.35692525419E+01 -0.12105438564E+01  0.38251000896E+01  0.51100000000E-03 0. -1.
        -12    1    3    3    0    0 -0.28000617145E+02 -0.29541791039E+02  0.64587412058E+01  0.41212465544E+02  0.00000000000E+00 0.  1.
</event>
<event>
 7    1  0.3046295E-009  0.4614232E+02  0.7816164E-02  0.1320468E+00
        -11   -1    0    0    0    0  0.00000000000E+00  0.00000000000E+00  0.45593999997E+02  0.45594000000E+02  0.51100000000E-03 0. -1.
         11   -1    0    0    0    0 -0.00000000000E+00 -0.00000000000E+00 -0.45593999997E+02  0.45594000000E+02  0.51100000000E-03 0.  1.
    9900012    2    1    2    0    0  0.35237249965E+01  0.28348742259E+02 -0.34828804995E+02  0.46142317822E+02  0.10000000556E+02 0.  0.
         12    1    1    2    0    0 -0.35237249965E+01 -0.28348742259E+02  0.34828804995E+02  0.45045682178E+02  0.00000000000E+00 0. -1.
         11    1    3    3    0    0 -0.19122789226E+01  0.12411472556E+02 -0.12108203318E+02  0.17444484788E+02  0.51100000000E-03 0. -1.
        -11    1    3    3    0    0  0.17534216879E+01  0.84791883328E+01 -0.79935979037E+01  0.11784257724E+02  0.51100000000E-03 0.  1.
         12    1    3    3    0    0  0.36825822312E+01  0.74580813698E+01 -0.14727003774E+02  0.16913575310E+02  0.00000000000E+00 0. -1.
</event>
<event>
 7    1  0.3046295E-009  0.4614232E+02  0.7816164E-02  0.1320468E+00
        -11   -1    0    0    0    0  0.00000000000E+00  0.00000000000E+00  0.45593999997E+02  0.45594000000E+02  0.51100000000E-03 0.  1.
         11   -1    0    0    0    0 -0.00000000000E+00 -0.00000000000E+00 -0.45593999997E+02  0.45594000000E+02  0.51100000000E-03 0. -1.
    9900012    2    1    2    0    0 -0.25326825413E+02  0.81836251273E+01  0.36341349751E+02  0.46142317549E+02  0.99999980699E+01 0.  0.
         12    1    1    2    0    0  0.25326825413E+02 -0.81836251273E+01 -0.36341349751E+02  0.45045682451E+02  0.00000000000E+00 0. -1.
         11    1    3    3    0    0 -0.15155921305E+01  0.22179147148E+01  0.54826309954E+01  0.61053589642E+01  0.51100000000E-03 0. -1.
        -11    1    3    3    0    0 -0.52311583211E+01  0.33367683315E+01  0.11554927939E+02  0.13115464163E+02  0.51100000000E-03 0.  1.
        -12    1    3    3    0    0 -0.18580074961E+02  0.26289420810E+01  0.19303790816E+02  0.26921494422E+02  0.00000000000E+00 0.  1.
</event>
<event>
 7    1  0.3046295E-009  0.4614232E+02  0.7816164E-02  0.1320468E+00
        -11   -1    0    0    0    0  0.00000000000E+00  0.00000000000E+00  0.45593999997E+02  0.45594000000E+02  0.51100000000E-03 0.  1.
         11   -1    0    0    0    0 -0.00000000000E+00 -0.00000000000E+00 -0.45593999997E+02  0.45594000000E+02  0.51100000000E-03 0. -1.
    9900012    2    1    2    0    0  0.13221653227E+02 -0.74315171430E+01  0.42415489336E+02  0.46142319888E+02  0.10000019396E+02 0.  0.
         12    1    1    2    0    0 -0.13221653227E+02  0.74315171430E+01 -0.42415489336E+02  0.45045680112E+02  0.00000000000E+00 0. -1.
         11    1    3    3    0    0  0.73408217457E+01 -0.31685599601E+01  0.14381332509E+02  0.16454487567E+02  0.51100000000E-03 0. -1.
        -11    1    3    3    0    0  0.46169475357E+01 -0.33987891308E+01  0.95379410742E+01  0.11128355328E+02  0.51100000000E-03 0.  1.
        -12    1    3    3    0    0  0.12638839455E+01 -0.86416805210E+00  0.18496215754E+02  0.18559476993E+02  0.00000000000E+00 0.  1.
</event>
<event>
 7    1  0.3046295E-009  0.4614232E+02  0.7816164E-02  0.1320468E+00
        -11   -1    0    0    0    0  0.00000000000E+00  0.00000000000E+00  0.45593999997E+02  0.45594000000E+02  0.51100000000E-03 0.  1.
         11   -1    0    0    0    0 -0.00000000000E+00 -0.00000000000E+00 -0.45593999997E+02  0.45594000000E+02  0.51100000000E-03 0. -1.
    9900012    2    1    2    0    0  0.40390231667E+02  0.50779143729E+01  0.19286198378E+02  0.46142317894E+02  0.10000001213E+02 0.  0.
         12    1    1    2    0    0 -0.40390231667E+02 -0.50779143729E+01 -0.19286198378E+02  0.45045682106E+02  0.00000000000E+00 0. -1.
         11    1    3    3    0    0  0.30395958501E+02  0.51298411975E+01  0.16894107907E+02  0.35151677715E+02  0.51100000000E-03 0. -1.
        -11    1    3    3    0    0  0.40142149317E+01 -0.18460089634E+01  0.39652258747E+00  0.44360907378E+01  0.51100000000E-03 0.  1.
         12    1    3    3    0    0  0.59800582341E+01  0.17940821388E+01  0.19955678842E+01  0.65545494418E+01  0.00000000000E+00 0. -1.
</event>
<event>
 7    1  0.3046295E-009  0.4614232E+02  0.7816164E-02  0.1320468E+00
        -11   -1    0    0    0    0  0.00000000000E+00  0.00000000000E+00  0.45593999997E+02  0.45594000000E+02  0.51100000000E-03 0.  1.
         11   -1    0    0    0    0 -0.00000000000E+00 -0.00000000000E+00 -0.45593999997E+02  0.45594000000E+02  0.51100000000E-03 0. -1.
    9900012    2    1    2    0    0 -0.39437918838E+02  0.18209425945E+02  0.11923963884E+02  0.46142317074E+02  0.99999937368E+01 0.  0.
         12    1    1    2    0    0  0.39437918838E+02 -0.18209425945E+02 -0.11923963884E+02  0.45045682926E+02  0.00000000000E+00 0. -1.
         11    1    3    3    0    0 -0.11287774067E+02  0.58432691255E+01  0.31836165752E+01  0.13103169548E+02  0.51100000000E-03 0. -1.
        -11    1    3    3    0    0 -0.17407405166E+02  0.45397778117E+01  0.81091800807E+01  0.19732869508E+02  0.51100000000E-03 0.  1.
         12    1    3    3    0    0 -0.10742739606E+02  0.78263790079E+01  0.63116722763E+00  0.13306278017E+02  0.00000000000E+00 0. -1.
</event>
<event>
 7    1  0.3046295E-009  0.4614232E+02  0.7816164E-02  0.1320468E+00
        -11   -1    0    0    0    0  0.00000000000E+00  0.00000000000E+00  0.45593999997E+02  0.45594000000E+02  0.51100000000E-03 0. -1.
         11   -1    0    0    0    0 -0.00000000000E+00 -0.00000000000E+00 -0.45593999997E+02  0.45594000000E+02  0.51100000000E-03 0.  1.
    9900012    2    1    2    0    0  0.39581739410E+01 -0.38804765524E+02 -0.22530790732E+02  0.46142317640E+02  0.99999988916E+01 0.  0.
         12    1    1    2    0    0 -0.39581739410E+01  0.38804765524E+02  0.22530790732E+02  0.45045682360E+02  0.00000000000E+00 0. -1.
         11    1    3    3    0    0  0.10075758062E+01 -0.11056063618E+02 -0.10764350764E+02  0.15463602406E+02  0.51100000000E-03 0. -1.
        -11    1    3    3    0    0 -0.12983740910E+01 -0.96115053225E+01 -0.37421692726E+01  0.10395703005E+02  0.51100000000E-03 0.  1.
         12    1    3    3    0    0  0.42489722257E+01 -0.18137196583E+02 -0.80242706953E+01  0.20283012229E+02  0.00000000000E+00 0. -1.
</event>
<event>
 7    1  0.3046295E-009  0.4614232E+02  0.7816164E-02  0.1320468E+00
        -11   -1    0    0    0    0  0.00000000000E+00  0.00000000000E+00  0.45593999997E+02  0.45594000000E+02  0.51100000000E-03 0.  1.
         11   -1    0    0    0    0 -0.00000000000E+00 -0.00000000000E+00 -0.45593999997E+02  0.45594000000E+02  0.51100000000E-03 0. -1.
    9900012    2    1    2    0    0 -0.40189177693E+02  0.20259537927E+02 -0.18693632912E+01  0.46142318745E+02  0.10000008968E+02 0.  0.
         12    1    1    2    0    0  0.40189177693E+02 -0.20259537927E+02  0.18693632912E+01  0.45045681255E+02  0.00000000000E+00 0. -1.
         11    1    3    3    0    0 -0.18533409551E+01 -0.78119429771E+00  0.16016014208E+00  0.20176195774E+01  0.51100000000E-03 0. -1.
        -11    1    3    3    0    0 -0.23923255612E+02  0.10076828243E+02 -0.16640302121E+01  0.26012182210E+02  0.51100000000E-03 0.  1.
        -12    1    3    3    0    0 -0.14412581126E+02  0.10963903982E+02 -0.36549322117E+00  0.18112516957E+02  0.00000000000E+00 0.  1.
</event>
<event>
 7    1  0.3046295E-009  0.4614232E+02  0.7816164E-02  0.1320468E+00
        -11   -1    0    0    0    0  0.00000000000E+00  0.00000000000E+00  0.45593999997E+02  0.45594000000E+02  0.51100000000E-03 0. -1.
         11   -1    0    0    0    0 -0.00000000000E+00 -0.00000000000E+00 -0.45593999997E+02  0.45594000000E+02  0.51100000000E-03 0.  1.
    9900012    2    1    2    0    0  0.13974540327E+02  0.26830165894E+02 -0.33376158017E+02  0.46142317596E+02  0.99999984974E+01 0.  0.
         12    1    1    2    0    0 -0.13974540327E+02 -0.26830165894E+02  0.33376158017E+02  0.45045682404E+02  0.00000000000E+00 0. -1.
         11    1    3    3    0    0 -0.54656419364E+00  0.25178799205E+01 -0.46657661226E+01  0.53298992002E+01  0.51100000000E-03 0. -1.
        -11    1    3    3    0    0  0.91162035257E+01  0.12903058340E+02 -0.19940850495E+02  0.25440746843E+02  0.51100000000E-03 0.  1.
        -12    1    3    3    0    0  0.54049009949E+01  0.11409227634E+02 -0.87695413994E+01  0.15371671553E+02  0.00000000000E+00 0.  1.
</event>
<event>
 7    1  0.3046295E-009  0.4614232E+02  0.7816164E-02  0.1320468E+00
        -11   -1    0    0    0    0  0.00000000000E+00  0.00000000000E+00  0.45593999997E+02  0.45594000000E+02  0.51100000000E-03 0. -1.
         11   -1    0    0    0    0 -0.00000000000E+00 -0.00000000000E+00 -0.45593999997E+02  0.45594000000E+02  0.51100000000E-03 0.  1.
    9900012    2    1    2    0    0 -0.11968923763E+02  0.42883101780E+02  0.68482035731E+01  0.46142318226E+02  0.10000004235E+02 0.  0.
         12    1    1    2    0    0  0.11968923763E+02 -0.42883101780E+02 -0.68482035731E+01  0.45045681774E+02  0.00000000000E+00 0. -1.
         11    1    3    3    0    0  0.68641557433E+00  0.14677824453E+00  0.13262097464E+00  0.71435199852E+00  0.51100000000E-03 0. -1.
        -11    1    3    3    0    0 -0.69144669921E+01  0.26757701584E+02  0.15463864940E+01  0.27679880045E+02  0.51100000000E-03 0.  1.
         12    1    3    3    0    0 -0.57408723457E+01  0.15978621952E+02  0.51691961045E+01  0.17748086182E+02  0.00000000000E+00 0. -1.
</event>
<event>
 7    1  0.3046295E-009  0.4614232E+02  0.7816164E-02  0.1320468E+00
        -11   -1    0    0    0    0  0.00000000000E+00  0.00000000000E+00  0.45593999997E+02  0.45594000000E+02  0.51100000000E-03 0.  1.
         11   -1    0    0    0    0 -0.00000000000E+00 -0.00000000000E+00 -0.45593999997E+02  0.45594000000E+02  0.51100000000E-03 0. -1.
    9900012    2    1    2    0    0  0.15398239183E+02  0.77817792730E+01  0.41610715952E+02  0.46142317181E+02  0.99999947103E+01 0.  0.
         12    1    1    2    0    0 -0.15398239183E+02 -0.77817792730E+01 -0.41610715952E+02  0.45045682819E+02  0.00000000000E+00 0. -1.
         11    1    3    3    0    0  0.78238202992E+01  0.62057798613E+01  0.29548500300E+02  0.31190346872E+02  0.51100000000E-03 0.  1.
        -11    1    3    3    0    0  0.13244713038E+01  0.12958780299E+01  0.69916739261E+00  0.19804947379E+01  0.51100000000E-03 0. -1.
         12    1    3    3    0    0  0.62499475805E+01  0.28012138175E+00  0.11363048259E+02  0.12971475571E+02  0.00000000000E+00 0. -1.
</event>
<event>
 7    1  0.3046295E-009  0.4614232E+02  0.7816164E-02  0.1320468E+00
        -11   -1    0    0    0    0  0.00000000000E+00  0.00000000000E+00  0.45593999997E+02  0.45594000000E+02  0.51100000000E-03 0. -1.
         11   -1    0    0    0    0 -0.00000000000E+00 -0.00000000000E+00 -0.45593999997E+02  0.45594000000E+02  0.51100000000E-03 0.  1.
    9900012    2    1    2    0    0  0.89333312830E+01  0.39435142727E+02 -0.19853928057E+02  0.46142319308E+02  0.10000014105E+02 0.  0.
         12    1    1    2    0    0 -0.89333312830E+01 -0.39435142727E+02  0.19853928057E+02  0.45045680692E+02  0.00000000000E+00 0. -1.
         11    1    3    3    0    0 -0.15222654326E+01  0.13867686276E+02 -0.55885994072E+01  0.15028721113E+02  0.51100000000E-03 0. -1.
        -11    1    3    3    0    0  0.63042440703E+01  0.15476199289E+02 -0.79444525398E+01  0.18503258204E+02  0.51100000000E-03 0.  1.
         12    1    3    3    0    0  0.41513526453E+01  0.10091257162E+02 -0.63208761102E+01  0.12610339991E+02  0.00000000000E+00 0. -1.
</event>
<event>
 7    1  0.3046295E-009  0.4614232E+02  0.7816164E-02  0.1320468E+00
        -11   -1    0    0    0    0  0.00000000000E+00  0.00000000000E+00  0.45593999997E+02  0.45594000000E+02  0.51100000000E-03 0.  1.
         11   -1    0    0    0    0 -0.00000000000E+00 -0.00000000000E+00 -0.45593999997E+02  0.45594000000E+02  0.51100000000E-03 0. -1.
    9900012    2    1    2    0    0 -0.30218222138E+02 -0.21145215877E+02  0.25862180759E+02  0.46142317662E+02  0.99999990987E+01 0.  0.
         12    1    1    2    0    0  0.30218222138E+02  0.21145215877E+02 -0.25862180759E+02  0.45045682338E+02  0.00000000000E+00 0. -1.
         11    1    3    3    0    0 -0.96794286059E+01 -0.99821445269E+01  0.65089447472E+01  0.15352553842E+02  0.51100000000E-03 0. -1.
        -11    1    3    3    0    0 -0.16038973661E+02 -0.91660009420E+01  0.17732536959E+02  0.25606778724E+02  0.51100000000E-03 0.  1.
        -12    1    3    3    0    0 -0.44998198708E+01 -0.19970704079E+01  0.16206990531E+01  0.51829850959E+01  0.00000000000E+00 0.  1.
</event>
<event>
 7    1  0.3046295E-009  0.4614232E+02  0.7816164E-02  0.1320468E+00
        -11   -1    0    0    0    0  0.00000000000E+00  0.00000000000E+00  0.45593999997E+02  0.45594000000E+02  0.51100000000E-03 0. -1.
         11   -1    0    0    0    0 -0.00000000000E+00 -0.00000000000E+00 -0.45593999997E+02  0.45594000000E+02  0.51100000000E-03 0.  1.
    9900012    2    1    2    0    0  0.34652924717E+02 -0.17776658113E+02 -0.22633574664E+02  0.46142317996E+02  0.10000002140E+02 0.  0.
         12    1    1    2    0    0 -0.34652924717E+02  0.17776658113E+02  0.22633574664E+02  0.45045682004E+02  0.00000000000E+00 0. -1.
         11    1    3    3    0    0  0.10804586259E+02 -0.67786123351E+01 -0.31280678635E+01  0.13132915831E+02  0.51100000000E-03 0. -1.
        -11    1    3    3    0    0  0.10041797685E+02 -0.52928326057E+01 -0.58513320769E+01  0.12770664238E+02  0.51100000000E-03 0.  1.
         12    1    3    3    0    0  0.13806540773E+02 -0.57052131726E+01 -0.13654174724E+02  0.20238737927E+02  0.00000000000E+00 0. -1.
</event>
<event>
 7    1  0.3046295E-009  0.4614232E+02  0.7816164E-02  0.1320468E+00
        -11   -1    0    0    0    0  0.00000000000E+00  0.00000000000E+00  0.45593999997E+02  0.45594000000E+02  0.51100000000E-03 0. -1.
         11   -1    0    0    0    0 -0.00000000000E+00 -0.00000000000E+00 -0.45593999997E+02  0.45594000000E+02  0.51100000000E-03 0.  1.
    9900012    2    1    2    0    0  0.20037558523E+02  0.21546552730E+02 -0.34108000694E+02  0.46142318770E+02  0.10000009196E+02 0.  0.
         12    1    1    2    0    0 -0.20037558523E+02 -0.21546552730E+02  0.34108000694E+02  0.45045681230E+02  0.00000000000E+00 0. -1.
         11    1    3    3    0    0  0.27891526524E+01  0.23681175241E+01 -0.81100558108E+01  0.88972107225E+01  0.51100000000E-03 0. -1.
        -11    1    3    3    0    0  0.58033091031E+01  0.10778779757E+02 -0.14498379053E+02  0.18975338865E+02  0.51100000000E-03 0.  1.
        -12    1    3    3    0    0  0.11445096768E+02  0.83996554493E+01 -0.11499565831E+02  0.18269769182E+02  0.00000000000E+00 0.  1.
</event>
<event>
 7    1  0.3046295E-009  0.4614231E+02  0.7816164E-02  0.1320468E+00
        -11   -1    0    0    0    0  0.00000000000E+00  0.00000000000E+00  0.45593999997E+02  0.45594000000E+02  0.51100000000E-03 0. -1.
         11   -1    0    0    0    0 -0.00000000000E+00 -0.00000000000E+00 -0.45593999997E+02  0.45594000000E+02  0.51100000000E-03 0.  1.
    9900012    2    1    2    0    0 -0.32339243442E+02  0.22843864043E+02 -0.21481269851E+02  0.46142314910E+02  0.99999739986E+01 0.  0.
         12    1    1    2    0    0  0.32339243442E+02 -0.22843864043E+02  0.21481269851E+02  0.45045685090E+02  0.00000000000E+00 0. -1.
         11    1    3    3    0    0 -0.25467904410E+01 -0.32789638721E+00 -0.81524660070E+00  0.26941204264E+01  0.51100000000E-03 0. -1.
        -11    1    3    3    0    0 -0.17454846293E+02  0.99940694149E+01 -0.97446724722E+01  0.22349758934E+02  0.51100000000E-03 0.  1.
         12    1    3    3    0    0 -0.12337606709E+02  0.13177691016E+02 -0.10921350778E+02  0.21098435549E+02  0.00000000000E+00 0. -1.
</event>
<event>
 7    1  0.3046295E-009  0.4614232E+02  0.7816164E-02  0.1320468E+00
        -11   -1    0    0    0    0  0.00000000000E+00  0.00000000000E+00  0.45593999997E+02  0.45594000000E+02  0.51100000000E-03 0.  1.
         11   -1    0    0    0    0 -0.00000000000E+00 -0.00000000000E+00 -0.45593999997E+02  0.45594000000E+02  0.51100000000E-03 0. -1.
    9900012    2    1    2    0    0 -0.33345822006E+02 -0.28725361205E+02  0.95928790168E+01  0.46142317083E+02  0.99999938196E+01 0.  0.
         12    1    1    2    0    0  0.33345822006E+02  0.28725361205E+02 -0.95928790168E+01  0.45045682917E+02  0.00000000000E+00 0. -1.
         11    1    3    3    0    0 -0.11403117864E+02 -0.71174216215E+01  0.61981987225E+01  0.14802244939E+02  0.51100000000E-03 0. -1.
        -11    1    3    3    0    0 -0.21625701906E+02 -0.21206252212E+02  0.39957936367E+01  0.30550654377E+02  0.51100000000E-03 0.  1.
         12    1    3    3    0    0 -0.31700223612E+00 -0.40168737094E+00 -0.60111334235E+00  0.78941776774E+00  0.00000000000E+00 0. -1.
</event>
<event>
 7    1  0.3046295E-009  0.4614232E+02  0.7816164E-02  0.1320468E+00
        -11   -1    0    0    0    0  0.00000000000E+00  0.00000000000E+00  0.45593999997E+02  0.45594000000E+02  0.51100000000E-03 0.  1.
         11   -1    0    0    0    0 -0.00000000000E+00 -0.00000000000E+00 -0.45593999997E+02  0.45594000000E+02  0.51100000000E-03 0. -1.
    9900012    2    1    2    0    0  0.12703657645E+02 -0.24309328474E+02  0.35732157698E+02  0.46142318052E+02  0.10000002649E+02 0.  0.
         12    1    1    2    0    0 -0.12703657645E+02  0.24309328474E+02 -0.35732157698E+02  0.45045681948E+02  0.00000000000E+00 0. -1.
         11    1    3    3    0    0  0.46619295907E+01 -0.14564546935E+02  0.16323307297E+02  0.22367609982E+02  0.51100000000E-03 0. -1.
        -11    1    3    3    0    0  0.88134478174E+00 -0.23394711838E+01  0.10256941223E+01  0.27022107130E+01  0.51100000000E-03 0.  1.
        -12    1    3    3    0    0  0.71603832728E+01 -0.74053103551E+01  0.18383156279E+02  0.21072497356E+02  0.00000000000E+00 0.  1.
</event>
<event>
 7    1  0.3046295E-009  0.4614232E+02  0.7816164E-02  0.1320468E+00
        -11   -1    0    0    0    0  0.00000000000E+00  0.00000000000E+00  0.45593999997E+02  0.45594000000E+02  0.51100000000E-03 0.  1.
         11   -1    0    0    0    0 -0.00000000000E+00 -0.00000000000E+00 -0.45593999997E+02  0.45594000000E+02  0.51100000000E-03 0. -1.
    9900012    2    1    2    0    0  0.14485010872E+02 -0.25956543755E+02  0.33846060087E+02  0.46142317775E+02  0.10000000127E+02 0.  0.
         12    1    1    2    0    0 -0.14485010872E+02  0.25956543755E+02 -0.33846060087E+02  0.45045682225E+02  0.00000000000E+00 0. -1.
         11    1    3    3    0    0  0.50184835420E+01 -0.73904181775E+01  0.49335900514E+01  0.10205085446E+02  0.51100000000E-03 0. -1.
        -11    1    3    3    0    0  0.97268636542E+01 -0.17268343907E+02  0.25638870637E+02  0.32406160921E+02  0.51100000000E-03 0.  1.
         12    1    3    3    0    0 -0.26033632413E+00 -0.12977816714E+01  0.32735993984E+01  0.35310714082E+01  0.00000000000E+00 0. -1.
</event>
<event>
 7    1  0.3046295E-009  0.4614232E+02  0.7816164E-02  0.1320468E+00
        -11   -1    0    0    0    0  0.00000000000E+00  0.00000000000E+00  0.45593999997E+02  0.45594000000E+02  0.51100000000E-03 0.  1.
         11   -1    0    0    0    0 -0.00000000000E+00 -0.00000000000E+00 -0.45593999997E+02  0.45594000000E+02  0.51100000000E-03 0. -1.
    9900012    2    1    2    0    0  0.14966804856E+02 -0.72232956755E+01  0.41868033680E+02  0.46142317719E+02  0.99999996121E+01 0.  0.
         12    1    1    2    0    0 -0.14966804856E+02  0.72232956755E+01 -0.41868033680E+02  0.45045682281E+02  0.00000000000E+00 0. -1.
         11    1    3    3    0    0  0.10058750888E+02 -0.79865380908E+01  0.32043302799E+02  0.34521536969E+02  0.51100000000E-03 0. -1.
        -11    1    3    3    0    0  0.38137028762E+01 -0.98459453565E+00  0.77613309173E+01  0.87035632873E+01  0.51100000000E-03 0.  1.
         12    1    3    3    0    0  0.10943510914E+01  0.17478369510E+01  0.20633999628E+01  0.29172174627E+01  0.00000000000E+00 0. -1.
</event>
<event>
 7    1  0.3046295E-009  0.4614231E+02  0.7816164E-02  0.1320468E+00
        -11   -1    0    0    0    0  0.00000000000E+00  0.00000000000E+00  0.45593999997E+02  0.45594000000E+02  0.51100000000E-03 0.  1.
         11   -1    0    0    0    0 -0.00000000000E+00 -0.00000000000E+00 -0.45593999997E+02  0.45594000000E+02  0.51100000000E-03 0. -1.
    9900012    2    1    2    0    0 -0.43802966316E+02  0.83361908570E+01 -0.63970263186E+01  0.46142313394E+02  0.99999601760E+01 0.  0.
         12    1    1    2    0    0  0.43802966316E+02 -0.83361908570E+01  0.63970263186E+01  0.45045686606E+02  0.00000000000E+00 0. -1.
         11    1    3    3    0    0 -0.94702790314E+01  0.23376593686E+01 -0.40755593028E+01  0.10571708478E+02  0.51100000000E-03 0. -1.
        -11    1    3    3    0    0 -0.25238710206E+02  0.71866009169E+01 -0.27742275392E+01  0.26388180390E+02  0.51100000000E-03 0.  1.
         12    1    3    3    0    0 -0.90939770790E+01 -0.11880694285E+01  0.45276052343E+00  0.91824245258E+01  0.00000000000E+00 0. -1.
</event>
<event>
 7    1  0.3046295E-009  0.4614232E+02  0.7816164E-02  0.1320468E+00
        -11   -1    0    0    0    0  0.00000000000E+00  0.00000000000E+00  0.45593999997E+02  0.45594000000E+02  0.51100000000E-03 0.  1.
         11   -1    0    0    0    0 -0.00000000000E+00 -0.00000000000E+00 -0.45593999997E+02  0.45594000000E+02  0.51100000000E-03 0. -1.
    9900012    2    1    2    0    0  0.18179663477E+02 -0.33849951690E+02  0.23511574353E+02  0.46142317387E+02  0.99999965849E+01 0.  0.
         12    1    1    2    0    0 -0.18179663477E+02  0.33849951690E+02 -0.23511574353E+02  0.45045682613E+02  0.00000000000E+00 0. -1.
         11    1    3    3    0    0  0.19431741259E+01 -0.11704179888E+02  0.63781615202E+01  0.13470140949E+02  0.51100000000E-03 0. -1.
        -11    1    3    3    0    0  0.80274532946E+01 -0.86266117764E+01  0.53095167004E+01  0.12924759378E+02  0.51100000000E-03 0.  1.
         12    1    3    3    0    0  0.82090360562E+01 -0.13519160025E+02  0.11823896133E+02  0.19747417060E+02  0.00000000000E+00 0. -1.
</event>
<event>
 7    1  0.3046295E-009  0.4614232E+02  0.7816164E-02  0.1320468E+00
        -11   -1    0    0    0    0  0.00000000000E+00  0.00000000000E+00  0.45593999997E+02  0.45594000000E+02  0.51100000000E-03 0.  1.
         11   -1    0    0    0    0 -0.00000000000E+00 -0.00000000000E+00 -0.45593999997E+02  0.45594000000E+02  0.51100000000E-03 0. -1.
    9900012    2    1    2    0    0 -0.26216413225E+02  0.45202021421E-01  0.36630740150E+02  0.46142317748E+02  0.99999998846E+01 0.  0.
         12    1    1    2    0    0  0.26216413225E+02 -0.45202021421E-01 -0.36630740150E+02  0.45045682252E+02  0.00000000000E+00 0. -1.
         11    1    3    3    0    0 -0.47374676038E+01  0.24221780304E+01  0.31559527185E+01  0.61863222944E+01  0.51100000000E-03 0. -1.
        -11    1    3    3    0    0 -0.71161074960E+01  0.61018583672E+00  0.11283370799E+02  0.13353867211E+02  0.51100000000E-03 0.  1.
         12    1    3    3    0    0 -0.14362838125E+02 -0.29871618457E+01  0.22191416632E+02  0.26602128243E+02  0.00000000000E+00 0. -1.
</event>
<event>
 7    1  0.3046295E-009  0.4614232E+02  0.7816164E-02  0.1320468E+00
        -11   -1    0    0    0    0  0.00000000000E+00  0.00000000000E+00  0.45593999997E+02  0.45594000000E+02  0.51100000000E-03 0. -1.
         11   -1    0    0    0    0 -0.00000000000E+00 -0.00000000000E+00 -0.45593999997E+02  0.45594000000E+02  0.51100000000E-03 0.  1.
    9900012    2    1    2    0    0 -0.30037759341E+02  0.43913937712E+01 -0.33280056955E+02  0.46142317450E+02  0.99999971595E+01 0.  0.
         12    1    1    2    0    0  0.30037759341E+02 -0.43913937712E+01  0.33280056955E+02  0.45045682550E+02  0.00000000000E+00 0. -1.
         11    1    3    3    0    0 -0.78681432260E+01 -0.16134268557E+01 -0.72856882202E+01  0.10843988065E+02  0.51100000000E-03 0. -1.
        -11    1    3    3    0    0 -0.49347475057E+01  0.24590953467E+01 -0.27966778957E+01  0.61822560916E+01  0.51100000000E-03 0.  1.
         12    1    3    3    0    0 -0.17234868610E+02  0.35457252802E+01 -0.23197690839E+02  0.29116073293E+02  0.00000000000E+00 0. -1.
</event>
<event>
 7    1  0.3046295E-009  0.4614232E+02  0.7816164E-02  0.1320468E+00
        -11   -1    0    0    0    0  0.00000000000E+00  0.00000000000E+00  0.45593999997E+02  0.45594000000E+02  0.51100000000E-03 0.  1.
         11   -1    0    0    0    0 -0.00000000000E+00 -0.00000000000E+00 -0.45593999997E+02  0.45594000000E+02  0.51100000000E-03 0. -1.
    9900012    2    1    2    0    0 -0.36127105338E+02 -0.26450485247E+02 -0.49312879858E+01  0.46142317508E+02  0.99999976949E+01 0.  0.
         12    1    1    2    0    0  0.36127105338E+02  0.26450485247E+02  0.49312879858E+01  0.45045682492E+02  0.00000000000E+00 0. -1.
         11    1    3    3    0    0 -0.20547367190E+02 -0.17986758133E+02 -0.81365850170E-01  0.27307954651E+02  0.51100000000E-03 0. -1.
        -11    1    3    3    0    0 -0.52982759961E+01 -0.35793357972E+01  0.16445806310E+00  0.63961253893E+01  0.51100000000E-03 0.  1.
         12    1    3    3    0    0 -0.10281462153E+02 -0.48843913171E+01 -0.50143801987E+01  0.12438237468E+02  0.00000000000E+00 0. -1.
</event>
<event>
 7    1  0.3046295E-009  0.4614231E+02  0.7816164E-02  0.1320468E+00
        -11   -1    0    0    0    0  0.00000000000E+00  0.00000000000E+00  0.45593999997E+02  0.45594000000E+02  0.51100000000E-03 0. -1.
         11   -1    0    0    0    0 -0.00000000000E+00 -0.00000000000E+00 -0.45593999997E+02  0.45594000000E+02  0.51100000000E-03 0.  1.
    9900012    2    1    2    0    0  0.24038605499E+02  0.13185834778E+02 -0.35740635487E+02  0.46142314101E+02  0.99999666224E+01 0.  0.
         12    1    1    2    0    0 -0.24038605499E+02 -0.13185834778E+02  0.35740635487E+02  0.45045685899E+02  0.00000000000E+00 0. -1.
         11    1    3    3    0    0  0.68162340458E+01  0.28154815227E+01 -0.13437170439E+02  0.15327933078E+02  0.51100000000E-03 0. -1.
        -11    1    3    3    0    0  0.12191802073E+02  0.33993369160E+01 -0.13714521461E+02  0.18662358597E+02  0.51100000000E-03 0.  1.
        -12    1    3    3    0    0  0.50305693801E+01  0.69710163394E+01 -0.85889435870E+01  0.12152022426E+02  0.00000000000E+00 0.  1.
</event>
<event>
 7    1  0.3046295E-009  0.4614232E+02  0.7816164E-02  0.1320468E+00
        -11   -1    0    0    0    0  0.00000000000E+00  0.00000000000E+00  0.45593999997E+02  0.45594000000E+02  0.51100000000E-03 0. -1.
         11   -1    0    0    0    0 -0.00000000000E+00 -0.00000000000E+00 -0.45593999997E+02  0.45594000000E+02  0.51100000000E-03 0.  1.
    9900012    2    1    2    0    0 -0.20838449350E+02 -0.29381660774E+02 -0.27047929333E+02  0.46142318272E+02  0.10000004655E+02 0.  0.
         12    1    1    2    0    0  0.20838449350E+02  0.29381660774E+02  0.27047929333E+02  0.45045681728E+02  0.00000000000E+00 0. -1.
         11    1    3    3    0    0 -0.72682152507E+00 -0.11479284803E+01 -0.39632647988E+00  0.14153035946E+01  0.51100000000E-03 0. -1.
        -11    1    3    3    0    0 -0.15669989168E+02 -0.18529550715E+02 -0.23033703271E+02  0.33458097627E+02  0.51100000000E-03 0.  1.
        -12    1    3    3    0    0 -0.44416386567E+01 -0.97041815796E+01 -0.36178995826E+01  0.11268917050E+02  0.00000000000E+00 0.  1.
</event>
<event>
 7    1  0.3046295E-009  0.4614232E+02  0.7816164E-02  0.1320468E+00
        -11   -1    0    0    0    0  0.00000000000E+00  0.00000000000E+00  0.45593999997E+02  0.45594000000E+02  0.51100000000E-03 0.  1.
         11   -1    0    0    0    0 -0.00000000000E+00 -0.00000000000E+00 -0.45593999997E+02  0.45594000000E+02  0.51100000000E-03 0. -1.
    9900012    2    1    2    0    0 -0.19883585570E+01 -0.16596613613E+02  0.41829563667E+02  0.46142317079E+02  0.99999937842E+01 0.  0.
         12    1    1    2    0    0  0.19883585570E+01  0.16596613613E+02 -0.41829563667E+02  0.45045682921E+02  0.00000000000E+00 0. -1.
         11    1    3    3    0    0  0.85308522575E+00 -0.40126116758E+00  0.64605375503E+01  0.65289593832E+01  0.51100000000E-03 0. -1.
        -11    1    3    3    0    0  0.47498562260E+00 -0.99211919806E+01  0.14541569340E+02  0.17610022737E+02  0.51100000000E-03 0.  1.
         12    1    3    3    0    0 -0.33164294054E+01 -0.62741604647E+01  0.20827456777E+02  0.22003334959E+02  0.00000000000E+00 0. -1.
</event>
<event>
 7    1  0.3046295E-009  0.4614232E+02  0.7816164E-02  0.1320468E+00
        -11   -1    0    0    0    0  0.00000000000E+00  0.00000000000E+00  0.45593999997E+02  0.45594000000E+02  0.51100000000E-03 0. -1.
         11   -1    0    0    0    0 -0.00000000000E+00 -0.00000000000E+00 -0.45593999997E+02  0.45594000000E+02  0.51100000000E-03 0.  1.
    9900012    2    1    2    0    0 -0.32311337570E+00 -0.44683991909E+02 -0.56877008653E+01  0.46142317895E+02  0.10000001223E+02 0.  0.
         12    1    1    2    0    0  0.32311337570E+00  0.44683991909E+02  0.56877008653E+01  0.45045682105E+02  0.00000000000E+00 0. -1.
         11    1    3    3    0    0 -0.12577595211E+01 -0.51913393871E+01 -0.18471421246E+01  0.56518933053E+01  0.51100000000E-03 0. -1.
        -11    1    3    3    0    0 -0.15872722886E+01 -0.35215040562E+02 -0.24606437655E+01  0.35336571468E+02  0.51100000000E-03 0.  1.
        -12    1    3    3    0    0  0.25219184341E+01 -0.42776119592E+01 -0.13799149752E+01  0.51538531217E+01  0.00000000000E+00 0.  1.
</event>
<event>
 7    1  0.3046295E-009  0.4614232E+02  0.7816164E-02  0.1320468E+00
        -11   -1    0    0    0    0  0.00000000000E+00  0.00000000000E+00  0.45593999997E+02  0.45594000000E+02  0.51100000000E-03 0.  1.
         11   -1    0    0    0    0 -0.00000000000E+00 -0.00000000000E+00 -0.45593999997E+02  0.45594000000E+02  0.51100000000E-03 0. -1.
    9900012    2    1    2    0    0  0.23881640476E+02 -0.22130843106E+02  0.31128872751E+02  0.46142315554E+02  0.99999798780E+01 0.  0.
         12    1    1    2    0    0 -0.23881640476E+02  0.22130843106E+02 -0.31128872751E+02  0.45045684446E+02  0.00000000000E+00 0. -1.
         11    1    3    3    0    0 -0.27534569686E+00 -0.22410461113E+01  0.83003687989E+00  0.24056318107E+01  0.51100000000E-03 0. -1.
        -11    1    3    3    0    0  0.12718219945E+02 -0.85800577420E+01  0.16650524255E+02  0.22640902536E+02  0.51100000000E-03 0.  1.
         12    1    3    3    0    0  0.11438766228E+02 -0.11309739253E+02  0.13648311616E+02  0.21095781207E+02  0.00000000000E+00 0. -1.
</event>
<event>
 7    1  0.3046295E-009  0.4614232E+02  0.7816164E-02  0.1320468E+00
        -11   -1    0    0    0    0  0.00000000000E+00  0.00000000000E+00  0.45593999997E+02  0.45594000000E+02  0.51100000000E-03 0.  1.
         11   -1    0    0    0    0 -0.00000000000E+00 -0.00000000000E+00 -0.45593999997E+02  0.45594000000E+02  0.51100000000E-03 0. -1.
    9900012    2    1    2    0    0 -0.19585224115E+02 -0.21591099358E+02  0.34341766210E+02  0.46142317837E+02  0.10000000689E+02 0.  0.
         12    1    1    2    0    0  0.19585224115E+02  0.21591099358E+02 -0.34341766210E+02  0.45045682163E+02  0.00000000000E+00 0. -1.
         11    1    3    3    0    0 -0.48180028180E+01 -0.98224847338E+01  0.17554011298E+02  0.20684237245E+02  0.51100000000E-03 0. -1.
        -11    1    3    3    0    0 -0.65337806994E+01 -0.39219318918E+01  0.52296342554E+01  0.92423435717E+01  0.51100000000E-03 0.  1.
         12    1    3    3    0    0 -0.82334405981E+01 -0.78466827322E+01  0.11558120657E+02  0.16215737020E+02  0.00000000000E+00 0. -1.
</event>
<event>
 7    1  0.3046295E-009  0.4614231E+02  0.7816164E-02  0.1320468E+00
        -11   -1    0    0    0    0  0.00000000000E+00  0.00000000000E+00  0.45593999997E+02  0.45594000000E+02  0.51100000000E-03 0.  1.
         11   -1    0    0    0    0 -0.00000000000E+00 -0.00000000000E+00 -0.45593999997E+02  0.45594000000E+02  0.51100000000E-03 0. -1.
    9900012    2    1    2    0    0  0.96410766428E+01  0.41239764302E+02  0.15344235649E+02  0.46142311125E+02  0.99999394895E+01 0.  0.
         12    1    1    2    0    0 -0.96410766428E+01 -0.41239764302E+02 -0.15344235649E+02  0.45045688875E+02  0.00000000000E+00 0. -1.
         11    1    3    3    0    0  0.29836289736E+00  0.50813473835E+01  0.29419550290E+01  0.58791335505E+01  0.51100000000E-03 0. -1.
        -11    1    3    3    0    0  0.22688364447E+01  0.74518519362E+01  0.64301835271E+01  0.10100741386E+02  0.51100000000E-03 0.  1.
        -12    1    3    3    0    0  0.70738773007E+01  0.28706564983E+02  0.59720970929E+01  0.30162436189E+02  0.00000000000E+00 0.  1.
</event>
<event>
 7    1  0.3046295E-009  0.4614232E+02  0.7816164E-02  0.1320468E+00
        -11   -1    0    0    0    0  0.00000000000E+00  0.00000000000E+00  0.45593999997E+02  0.45594000000E+02  0.51100000000E-03 0.  1.
         11   -1    0    0    0    0 -0.00000000000E+00 -0.00000000000E+00 -0.45593999997E+02  0.45594000000E+02  0.51100000000E-03 0. -1.
    9900012    2    1    2    0    0  0.13445995366E+02  0.19795747722E+00  0.42991621042E+02  0.46142318094E+02  0.10000003033E+02 0.  0.
         12    1    1    2    0    0 -0.13445995366E+02 -0.19795747722E+00 -0.42991621042E+02  0.45045681906E+02  0.00000000000E+00 0. -1.
         11    1    3    3    0    0  0.93854693749E+00  0.30364785531E+00  0.19051050923E+01  0.21453433403E+01  0.51100000000E-03 0. -1.
        -11    1    3    3    0    0  0.85550783339E+01  0.18920822123E+00  0.12569374059E+02  0.15205733443E+02  0.51100000000E-03 0.  1.
         12    1    3    3    0    0  0.39523700950E+01 -0.29489859931E+00  0.28517141891E+02  0.28791241310E+02  0.00000000000E+00 0. -1.
</event>
<event>
 7    1  0.3046295E-009  0.4614232E+02  0.7816164E-02  0.1320468E+00
        -11   -1    0    0    0    0  0.00000000000E+00  0.00000000000E+00  0.45593999997E+02  0.45594000000E+02  0.51100000000E-03 0.  1.
         11   -1    0    0    0    0 -0.00000000000E+00 -0.00000000000E+00 -0.45593999997E+02  0.45594000000E+02  0.51100000000E-03 0. -1.
    9900012    2    1    2    0    0  0.20081667195E+01 -0.35945752217E+02  0.27073668490E+02  0.46142319169E+02  0.10000012839E+02 0.  0.
         12    1    1    2    0    0 -0.20081667195E+01  0.35945752217E+02 -0.27073668490E+02  0.45045680831E+02  0.00000000000E+00 0. -1.
         11    1    3    3    0    0  0.38984735836E+01 -0.13194480762E+02  0.11727269844E+02  0.18078198945E+02  0.51100000000E-03 0. -1.
        -11    1    3    3    0    0 -0.77843234258E+00 -0.15613128467E+01  0.31199552176E+01  0.35746014517E+01  0.51100000000E-03 0.  1.
        -12    1    3    3    0    0 -0.11118745215E+01 -0.21189958608E+02  0.12226443429E+02  0.24489518772E+02  0.00000000000E+00 0.  1.
</event>
<event>
 7    1  0.3046295E-009  0.4614232E+02  0.7816164E-02  0.1320468E+00
        -11   -1    0    0    0    0  0.00000000000E+00  0.00000000000E+00  0.45593999997E+02  0.45594000000E+02  0.51100000000E-03 0.  1.
         11   -1    0    0    0    0 -0.00000000000E+00 -0.00000000000E+00 -0.45593999997E+02  0.45594000000E+02  0.51100000000E-03 0. -1.
    9900012    2    1    2    0    0 -0.17246447325E+02  0.25776170712E+02  0.32668982883E+02  0.46142319136E+02  0.10000012538E+02 0.  0.
         12    1    1    2    0    0  0.17246447325E+02 -0.25776170712E+02 -0.32668982883E+02  0.45045680864E+02  0.00000000000E+00 0. -1.
         11    1    3    3    0    0 -0.45237749253E+00  0.55615567450E+01  0.30442213148E+01  0.63563230328E+01  0.51100000000E-03 0. -1.
        -11    1    3    3    0    0 -0.14884626924E+02  0.18088724312E+02  0.24361048520E+02  0.33796667752E+02  0.51100000000E-03 0.  1.
         12    1    3    3    0    0 -0.19094429086E+01  0.21258896551E+01  0.52637130477E+01  0.59893283510E+01  0.00000000000E+00 0. -1.
</event>
<event>
 7    1  0.3046295E-009  0.4614232E+02  0.7816164E-02  0.1320468E+00
        -11   -1    0    0    0    0  0.00000000000E+00  0.00000000000E+00  0.45593999997E+02  0.45594000000E+02  0.51100000000E-03 0. -1.
         11   -1    0    0    0    0 -0.00000000000E+00 -0.00000000000E+00 -0.45593999997E+02  0.45594000000E+02  0.51100000000E-03 0.  1.
    9900012    2    1    2    0    0  0.92973009683E+01 -0.23901159166E+02 -0.37032529624E+02  0.46142318019E+02  0.10000002351E+02 0.  0.
         12    1    1    2    0    0 -0.92973009683E+01  0.23901159166E+02  0.37032529624E+02  0.45045681981E+02  0.00000000000E+00 0. -1.
         11    1    3    3    0    0  0.21112040867E+01 -0.54489331258E+01 -0.33676953441E+01  0.67445850204E+01  0.51100000000E-03 0. -1.
        -11    1    3    3    0    0  0.63856510243E+01 -0.94572979138E+01 -0.19742028822E+02  0.22802735035E+02  0.51100000000E-03 0.  1.
        -12    1    3    3    0    0  0.80044585730E+00 -0.89949281264E+01 -0.13922805458E+02  0.16594997963E+02  0.00000000000E+00 0.  1.
</event>
<event>
 7    1  0.3046295E-009  0.4614232E+02  0.7816164E-02  0.1320468E+00
        -11   -1    0    0    0    0  0.00000000000E+00  0.00000000000E+00  0.45593999997E+02  0.45594000000E+02  0.51100000000E-03 0.  1.
         11   -1    0    0    0    0 -0.00000000000E+00 -0.00000000000E+00 -0.45593999997E+02  0.45594000000E+02  0.51100000000E-03 0. -1.
    9900012    2    1    2    0    0 -0.11016861424E+02  0.20137935450E+02  0.38758299769E+02  0.46142317845E+02  0.10000000768E+02 0.  0.
         12    1    1    2    0    0  0.11016861424E+02 -0.20137935450E+02 -0.38758299769E+02  0.45045682155E+02  0.00000000000E+00 0. -1.
         11    1    3    3    0    0 -0.18107236898E+00  0.14318884598E+01  0.46286742141E+01  0.48484757405E+01  0.51100000000E-03 0. -1.
        -11    1    3    3    0    0 -0.49156501130E+01  0.16488895631E+01  0.72521254126E+01  0.89149187369E+01  0.51100000000E-03 0.  1.
        -12    1    3    3    0    0 -0.59201389419E+01  0.17057157427E+02  0.26877500142E+02  0.32378923368E+02  0.00000000000E+00 0.  1.
</event>
<event>
 7    1  0.3046295E-009  0.4614232E+02  0.7816164E-02  0.1320468E+00
        -11   -1    0    0    0    0  0.00000000000E+00  0.00000000000E+00  0.45593999997E+02  0.45594000000E+02  0.51100000000E-03 0.  1.
         11   -1    0    0    0    0 -0.00000000000E+00 -0.00000000000E+00 -0.45593999997E+02  0.45594000000E+02  0.51100000000E-03 0. -1.
    9900012    2    1    2    0    0 -0.29116146195E+02 -0.14294380073E+02  0.31257546247E+02  0.46142317984E+02  0.10000002032E+02 0.  0.
         12    1    1    2    0    0  0.29116146195E+02  0.14294380073E+02 -0.31257546247E+02  0.45045682016E+02  0.00000000000E+00 0. -1.
         11    1    3    3    0    0 -0.43654675487E+01 -0.39884443848E+01  0.94683482777E+01  0.11163091637E+02  0.51100000000E-03 0. -1.
        -11    1    3    3    0    0 -0.21320871761E+02 -0.80938808994E+01  0.20590548073E+02  0.30725578121E+02  0.51100000000E-03 0.  1.
         12    1    3    3    0    0 -0.34298068853E+01 -0.22120547884E+01  0.11986498968E+01  0.42536482263E+01  0.00000000000E+00 0. -1.
</event>
<event>
 7    1  0.3046295E-009  0.4614232E+02  0.7816164E-02  0.1320468E+00
        -11   -1    0    0    0    0  0.00000000000E+00  0.00000000000E+00  0.45593999997E+02  0.45594000000E+02  0.51100000000E-03 0.  1.
         11   -1    0    0    0    0 -0.00000000000E+00 -0.00000000000E+00 -0.45593999997E+02  0.45594000000E+02  0.51100000000E-03 0. -1.
    9900012    2    1    2    0    0  0.19493054092E+02 -0.70965309881E+01  0.39984664628E+02  0.46142319682E+02  0.10000017515E+02 0.  0.
         12    1    1    2    0    0 -0.19493054092E+02  0.70965309881E+01 -0.39984664628E+02  0.45045680318E+02  0.00000000000E+00 0. -1.
         11    1    3    3    0    0  0.19983300335E+01 -0.30354533984E+01  0.86044147380E+01  0.93404097074E+01  0.51100000000E-03 0. -1.
        -11    1    3    3    0    0  0.60556491651E+00  0.13083343927E+01  0.16574632011E+01  0.21967321810E+01  0.51100000000E-03 0.  1.
        -12    1    3    3    0    0  0.16889159142E+02 -0.53694119824E+01  0.29722786689E+02  0.34605177794E+02  0.00000000000E+00 0.  1.
</event>
<event>
 7    1  0.3046295E-009  0.4614232E+02  0.7816164E-02  0.1320468E+00
        -11   -1    0    0    0    0  0.00000000000E+00  0.00000000000E+00  0.45593999997E+02  0.45594000000E+02  0.51100000000E-03 0.  1.
         11   -1    0    0    0    0 -0.00000000000E+00 -0.00000000000E+00 -0.45593999997E+02  0.45594000000E+02  0.51100000000E-03 0. -1.
    9900012    2    1    2    0    0  0.10519049635E+02  0.30805350602E+02  0.31136691141E+02  0.46142316898E+02  0.99999921285E+01 0.  0.
         12    1    1    2    0    0 -0.10519049635E+02 -0.30805350602E+02 -0.31136691141E+02  0.45045683102E+02  0.00000000000E+00 0. -1.
         11    1    3    3    0    0  0.90880821066E+01  0.20227010153E+02  0.20150020816E+02  0.29962451756E+02  0.51100000000E-03 0. -1.
        -11    1    3    3    0    0  0.25349517077E+01  0.29414115824E+01  0.54102005155E+01  0.66594408276E+01  0.51100000000E-03 0.  1.
         12    1    3    3    0    0 -0.11039841791E+01  0.76369288670E+01  0.55764698089E+01  0.95204243140E+01  0.00000000000E+00 0. -1.
</event>
<event>
 7    1  0.3046295E-009  0.4614232E+02  0.7816164E-02  0.1320468E+00
        -11   -1    0    0    0    0  0.00000000000E+00  0.00000000000E+00  0.45593999997E+02  0.45594000000E+02  0.51100000000E-03 0.  1.
         11   -1    0    0    0    0 -0.00000000000E+00 -0.00000000000E+00 -0.45593999997E+02  0.45594000000E+02  0.51100000000E-03 0. -1.
    9900012    2    1    2    0    0  0.72913589072E+01 -0.34260912229E+02  0.28322068574E+02  0.46142316635E+02  0.99999897335E+01 0.  0.
         12    1    1    2    0    0 -0.72913589072E+01  0.34260912229E+02 -0.28322068574E+02  0.45045683365E+02  0.00000000000E+00 0. -1.
         11    1    3    3    0    0 -0.36996963187E+00 -0.83021081238E+01  0.51123508251E+01  0.97569466560E+01  0.51100000000E-03 0. -1.
        -11    1    3    3    0    0  0.14348970577E+01 -0.17277371775E+02  0.14524333491E+02  0.22616869116E+02  0.51100000000E-03 0.  1.
         12    1    3    3    0    0  0.62264314814E+01 -0.86814323305E+01  0.86853842580E+01  0.13768500863E+02  0.00000000000E+00 0. -1.
</event>
<event>
 7    1  0.3046295E-009  0.4614232E+02  0.7816164E-02  0.1320468E+00
        -11   -1    0    0    0    0  0.00000000000E+00  0.00000000000E+00  0.45593999997E+02  0.45594000000E+02  0.51100000000E-03 0.  1.
         11   -1    0    0    0    0 -0.00000000000E+00 -0.00000000000E+00 -0.45593999997E+02  0.45594000000E+02  0.51100000000E-03 0. -1.
    9900012    2    1    2    0    0  0.13160122077E+02  0.19419560435E+02  0.38455231454E+02  0.46142323551E+02  0.10000052795E+02 0.  0.
         12    1    1    2    0    0 -0.13160122077E+02 -0.19419560435E+02 -0.38455231454E+02  0.45045676449E+02  0.00000000000E+00 0. -1.
         11    1    3    3    0    0 -0.54035940534E+00 -0.13451666620E+00  0.19070164169E+01  0.19866541963E+01  0.51100000000E-03 0. -1.
        -11    1    3    3    0    0  0.11810076444E+02  0.12371357442E+02  0.22475030206E+02  0.28242793304E+02  0.51100000000E-03 0.  1.
        -12    1    3    3    0    0  0.18904050381E+01  0.71827196594E+01  0.14073184831E+02  0.15912876050E+02  0.00000000000E+00 0.  1.
</event>
<event>
 7    1  0.3046295E-009  0.4614232E+02  0.7816164E-02  0.1320468E+00
        -11   -1    0    0    0    0  0.00000000000E+00  0.00000000000E+00  0.45593999997E+02  0.45594000000E+02  0.51100000000E-03 0. -1.
         11   -1    0    0    0    0 -0.00000000000E+00 -0.00000000000E+00 -0.45593999997E+02  0.45594000000E+02  0.51100000000E-03 0.  1.
    9900012    2    1    2    0    0 -0.43166997103E+02 -0.50376988316E+01 -0.11846745619E+02  0.46142318407E+02  0.10000005888E+02 0.  0.
         12    1    1    2    0    0  0.43166997103E+02  0.50376988316E+01  0.11846745619E+02  0.45045681593E+02  0.00000000000E+00 0. -1.
         11    1    3    3    0    0 -0.11746224132E+02 -0.43034465521E+01 -0.16825900738E+01  0.12622382628E+02  0.51100000000E-03 0. -1.
        -11    1    3    3    0    0 -0.22952429669E+02  0.14043845134E+01 -0.56103027723E+01  0.23669850465E+02  0.51100000000E-03 0.  1.
        -12    1    3    3    0    0 -0.84683433021E+01 -0.21386367928E+01 -0.45538527731E+01  0.98500853140E+01  0.00000000000E+00 0.  1.
</event>
<event>
 7    1  0.3046295E-009  0.4614232E+02  0.7816164E-02  0.1320468E+00
        -11   -1    0    0    0    0  0.00000000000E+00  0.00000000000E+00  0.45593999997E+02  0.45594000000E+02  0.51100000000E-03 0.  1.
         11   -1    0    0    0    0 -0.00000000000E+00 -0.00000000000E+00 -0.45593999997E+02  0.45594000000E+02  0.51100000000E-03 0. -1.
    9900012    2    1    2    0    0 -0.38349681624E+00  0.58262803297E+01  0.44665656294E+02  0.46142318026E+02  0.10000002419E+02 0.  0.
         12    1    1    2    0    0  0.38349681624E+00 -0.58262803297E+01 -0.44665656294E+02  0.45045681974E+02  0.00000000000E+00 0. -1.
         11    1    3    3    0    0 -0.16305625479E+01 -0.16325649446E+01  0.48653917426E+01  0.53847970798E+01  0.51100000000E-03 0. -1.
        -11    1    3    3    0    0  0.20254099125E+01  0.55688744498E+01  0.20207691073E+02  0.21058618822E+02  0.51100000000E-03 0.  1.
        -12    1    3    3    0    0 -0.77834418083E+00  0.18899708245E+01  0.19592573479E+02  0.19698902124E+02  0.00000000000E+00 0.  1.
</event>
<event>
 7    1  0.3046295E-009  0.4614232E+02  0.7816164E-02  0.1320468E+00
        -11   -1    0    0    0    0  0.00000000000E+00  0.00000000000E+00  0.45593999997E+02  0.45594000000E+02  0.51100000000E-03 0. -1.
         11   -1    0    0    0    0 -0.00000000000E+00 -0.00000000000E+00 -0.45593999997E+02  0.45594000000E+02  0.51100000000E-03 0.  1.
    9900012    2    1    2    0    0  0.11378287105E+02 -0.42427956101E+02 -0.99757777381E+01  0.46142322984E+02  0.10000047628E+02 0.  0.
         12    1    1    2    0    0 -0.11378287105E+02  0.42427956101E+02  0.99757777381E+01  0.45045677016E+02  0.00000000000E+00 0. -1.
         11    1    3    3    0    0  0.10489214664E+02 -0.36034014899E+02 -0.96302011372E+01  0.38745511071E+02  0.51100000000E-03 0.  1.
        -11    1    3    3    0    0 -0.87052092326E+00 -0.37463541917E+01  0.95358880756E+00  0.39626138195E+01  0.51100000000E-03 0. -1.
         12    1    3    3    0    0  0.17595933643E+01 -0.26475870106E+01 -0.12991654085E+01  0.34341980934E+01  0.00000000000E+00 0. -1.
</event>
<event>
 7    1  0.3046295E-009  0.4614232E+02  0.7816164E-02  0.1320468E+00
        -11   -1    0    0    0    0  0.00000000000E+00  0.00000000000E+00  0.45593999997E+02  0.45594000000E+02  0.51100000000E-03 0. -1.
         11   -1    0    0    0    0 -0.00000000000E+00 -0.00000000000E+00 -0.45593999997E+02  0.45594000000E+02  0.51100000000E-03 0.  1.
    9900012    2    1    2    0    0 -0.32634101141E+02  0.31004925770E+02 -0.16802942833E+01  0.46142319095E+02  0.10000012161E+02 0.  0.
         12    1    1    2    0    0  0.32634101141E+02 -0.31004925770E+02  0.16802942833E+01  0.45045680905E+02  0.00000000000E+00 0. -1.
         11    1    3    3    0    0 -0.42405330438E+01  0.51253356373E+01  0.26039008402E+01  0.71436325309E+01  0.51100000000E-03 0. -1.
        -11    1    3    3    0    0 -0.19198413917E+02  0.15534341853E+02 -0.47548595063E+01  0.25149623514E+02  0.51100000000E-03 0.  1.
         12    1    3    3    0    0 -0.91951541810E+01  0.10345248280E+02  0.47066438273E+00  0.13849063050E+02  0.00000000000E+00 0. -1.
</event>
<event>
 7    1  0.3046295E-009  0.4614232E+02  0.7816164E-02  0.1320468E+00
        -11   -1    0    0    0    0  0.00000000000E+00  0.00000000000E+00  0.45593999997E+02  0.45594000000E+02  0.51100000000E-03 0. -1.
         11   -1    0    0    0    0 -0.00000000000E+00 -0.00000000000E+00 -0.45593999997E+02  0.45594000000E+02  0.51100000000E-03 0.  1.
    9900012    2    1    2    0    0  0.46590545542E+01 -0.26314308217E+02 -0.36262430332E+02  0.46142318077E+02  0.10000002883E+02 0.  0.
         12    1    1    2    0    0 -0.46590545542E+01  0.26314308217E+02  0.36262430332E+02  0.45045681923E+02  0.00000000000E+00 0. -1.
         11    1    3    3    0    0 -0.91531162012E+00 -0.28297850832E+01 -0.97487363212E+01  0.10192317651E+02  0.51100000000E-03 0. -1.
        -11    1    3    3    0    0  0.45453938502E+01 -0.14569579416E+02 -0.15665753437E+02  0.21871192940E+02  0.51100000000E-03 0.  1.
         12    1    3    3    0    0  0.10289723241E+01 -0.89149437175E+01 -0.10847940574E+02  0.14078807486E+02  0.00000000000E+00 0. -1.
</event>
<event>
 7    1  0.3046295E-009  0.4614232E+02  0.7816164E-02  0.1320468E+00
        -11   -1    0    0    0    0  0.00000000000E+00  0.00000000000E+00  0.45593999997E+02  0.45594000000E+02  0.51100000000E-03 0.  1.
         11   -1    0    0    0    0 -0.00000000000E+00 -0.00000000000E+00 -0.45593999997E+02  0.45594000000E+02  0.51100000000E-03 0. -1.
    9900012    2    1    2    0    0 -0.32682617426E+02  0.19108996069E+01  0.30940402228E+02  0.46142317531E+02  0.99999978987E+01 0.  0.
         12    1    1    2    0    0  0.32682617426E+02 -0.19108996069E+01 -0.30940402228E+02  0.45045682469E+02  0.00000000000E+00 0. -1.
         11    1    3    3    0    0 -0.14247925748E+02  0.33855979779E+00  0.10786406386E+02  0.17873571938E+02  0.51100000000E-03 0. -1.
        -11    1    3    3    0    0 -0.17190908149E+02  0.32440117886E+01  0.16421730989E+02  0.23994253154E+02  0.51100000000E-03 0.  1.
         12    1    3    3    0    0 -0.12437835289E+01 -0.16716719794E+01  0.37322648533E+01  0.42744924388E+01  0.00000000000E+00 0. -1.
</event>
<event>
 7    1  0.3046295E-009  0.4614232E+02  0.7816164E-02  0.1320468E+00
        -11   -1    0    0    0    0  0.00000000000E+00  0.00000000000E+00  0.45593999997E+02  0.45594000000E+02  0.51100000000E-03 0.  1.
         11   -1    0    0    0    0 -0.00000000000E+00 -0.00000000000E+00 -0.45593999997E+02  0.45594000000E+02  0.51100000000E-03 0. -1.
    9900012    2    1    2    0    0  0.62421059148E+01 -0.16393172336E+02  0.41489919665E+02  0.46142318528E+02  0.10000006989E+02 0.  0.
         12    1    1    2    0    0 -0.62421059148E+01  0.16393172336E+02 -0.41489919665E+02  0.45045681472E+02  0.00000000000E+00 0. -1.
         11    1    3    3    0    0 -0.77232517384E+00 -0.36977106135E+01  0.69259268409E+01  0.78891072259E+01  0.51100000000E-03 0. -1.
        -11    1    3    3    0    0  0.47331381529E+01 -0.16291625262E+01  0.12482719887E+02  0.13448980011E+02  0.51100000000E-03 0.  1.
        -12    1    3    3    0    0  0.22812929357E+01 -0.11066299197E+02  0.22081272937E+02  0.24804231290E+02  0.00000000000E+00 0.  1.
</event>
<event>
 7    1  0.3046295E-009  0.4614232E+02  0.7816164E-02  0.1320468E+00
        -11   -1    0    0    0    0  0.00000000000E+00  0.00000000000E+00  0.45593999997E+02  0.45594000000E+02  0.51100000000E-03 0.  1.
         11   -1    0    0    0    0 -0.00000000000E+00 -0.00000000000E+00 -0.45593999997E+02  0.45594000000E+02  0.51100000000E-03 0. -1.
    9900012    2    1    2    0    0  0.11480708328E+02 -0.36831720140E+02  0.23253630449E+02  0.46142316508E+02  0.99999885742E+01 0.  0.
         12    1    1    2    0    0 -0.11480708328E+02  0.36831720140E+02 -0.23253630449E+02  0.45045683492E+02  0.00000000000E+00 0. -1.
         11    1    3    3    0    0  0.12074152003E+01 -0.66540283365E+01  0.18651573582E+01  0.70151804539E+01  0.51100000000E-03 0. -1.
        -11    1    3    3    0    0  0.13878827727E+01 -0.11483007654E+00  0.12182373602E+01  0.18502721595E+01  0.51100000000E-03 0.  1.
        -12    1    3    3    0    0  0.88854103552E+01 -0.30062861727E+02  0.20170235731E+02  0.37276863895E+02  0.00000000000E+00 0.  1.
</event>
<event>
 7    1  0.4096668E-009  0.4614232E+02  0.7816164E-02  0.1320468E+00
        -11   -1    0    0    0    0  0.00000000000E+00  0.00000000000E+00  0.45593999997E+02  0.45594000000E+02  0.51100000000E-03 0. -1.
         11   -1    0    0    0    0 -0.00000000000E+00 -0.00000000000E+00 -0.45593999997E+02  0.45594000000E+02  0.51100000000E-03 0.  1.
    9900012    2    1    2    0    0  0.26519420628E+02 -0.58443765245E+00 -0.36407303701E+02  0.46142323175E+02  0.10000049370E+02 0.  0.
         12    1    1    2    0    0 -0.26519420628E+02  0.58443765245E+00  0.36407303701E+02  0.45045676825E+02  0.00000000000E+00 0. -1.
         11    1    3    3    0    0  0.10701476814E+01  0.65409797663E+00 -0.55699289648E+00  0.13723343510E+01  0.51100000000E-03 0. -1.
        -11    1    3    3    0    0  0.74922336051E+01  0.17930142749E+01 -0.16432049540E+02  0.18148297908E+02  0.51100000000E-03 0.  1.
        -12    1    3    3    0    0  0.17957039341E+02 -0.30315499039E+01 -0.19418261264E+02  0.26621690917E+02  0.00000000000E+00 0.  1.
</event>
<event>
 7    1  0.3046295E-009  0.4614232E+02  0.7816164E-02  0.1320468E+00
        -11   -1    0    0    0    0  0.00000000000E+00  0.00000000000E+00  0.45593999997E+02  0.45594000000E+02  0.51100000000E-03 0.  1.
         11   -1    0    0    0    0 -0.00000000000E+00 -0.00000000000E+00 -0.45593999997E+02  0.45594000000E+02  0.51100000000E-03 0. -1.
    9900012    2    1    2    0    0 -0.96038614029E+00  0.11662794367E+02  0.43499084860E+02  0.46142317658E+02  0.99999990580E+01 0.  0.
         12    1    1    2    0    0  0.96038614029E+00 -0.11662794367E+02 -0.43499084860E+02  0.45045682342E+02  0.00000000000E+00 0. -1.
         11    1    3    3    0    0  0.11230580972E+00 -0.48068667861E+00 -0.34223797929E+00  0.60066577518E+00  0.51100000000E-03 0. -1.
        -11    1    3    3    0    0 -0.12449281077E+01  0.44656545943E+01  0.17500870826E+02  0.18104485546E+02  0.51100000000E-03 0.  1.
         12    1    3    3    0    0  0.17223615769E+00  0.76778264515E+01  0.26340452014E+02  0.27437166337E+02  0.00000000000E+00 0. -1.
</event>
<event>
 7    1  0.3046295E-009  0.4614232E+02  0.7816164E-02  0.1320468E+00
        -11   -1    0    0    0    0  0.00000000000E+00  0.00000000000E+00  0.45593999997E+02  0.45594000000E+02  0.51100000000E-03 0.  1.
         11   -1    0    0    0    0 -0.00000000000E+00 -0.00000000000E+00 -0.45593999997E+02  0.45594000000E+02  0.51100000000E-03 0. -1.
    9900012    2    1    2    0    0 -0.26632517589E+02  0.19295164708E+02  0.30781799399E+02  0.46142317094E+02  0.99999939128E+01 0.  0.
         12    1    1    2    0    0  0.26632517589E+02 -0.19295164708E+02 -0.30781799399E+02  0.45045682906E+02  0.00000000000E+00 0. -1.
         11    1    3    3    0    0 -0.11423715392E+02  0.90670974071E+01  0.93368620347E+01  0.17317347420E+02  0.51100000000E-03 0.  1.
        -11    1    3    3    0    0 -0.21800994612E+01  0.44567407577E+01  0.46555135803E+01  0.68036151273E+01  0.51100000000E-03 0. -1.
         12    1    3    3    0    0 -0.13028702736E+02  0.57713265436E+01  0.16789423784E+02  0.22021354546E+02  0.00000000000E+00 0. -1.
</event>
<event>
 7    1  0.3046295E-009  0.4614232E+02  0.7816164E-02  0.1320468E+00
        -11   -1    0    0    0    0  0.00000000000E+00  0.00000000000E+00  0.45593999997E+02  0.45594000000E+02  0.51100000000E-03 0.  1.
         11   -1    0    0    0    0 -0.00000000000E+00 -0.00000000000E+00 -0.45593999997E+02  0.45594000000E+02  0.51100000000E-03 0. -1.
    9900012    2    1    2    0    0 -0.40987460531E+02 -0.54356045584E+00  0.18677422420E+02  0.46142317776E+02  0.10000000134E+02 0.  0.
         12    1    1    2    0    0  0.40987460531E+02  0.54356045584E+00 -0.18677422420E+02  0.45045682224E+02  0.00000000000E+00 0. -1.
         11    1    3    3    0    0 -0.61915820471E+01  0.33014984272E+01  0.30921699203E+01  0.76679263943E+01  0.51100000000E-03 0. -1.
        -11    1    3    3    0    0 -0.12747075398E+02 -0.21833562507E+01  0.41574868446E+01  0.13584538006E+02  0.51100000000E-03 0.  1.
        -12    1    3    3    0    0 -0.22048803087E+02 -0.16617026323E+01  0.11427765655E+02  0.24889853376E+02  0.00000000000E+00 0.  1.
</event>
<event>
 7    1  0.3046295E-009  0.4614232E+02  0.7816164E-02  0.1320468E+00
        -11   -1    0    0    0    0  0.00000000000E+00  0.00000000000E+00  0.45593999997E+02  0.45594000000E+02  0.51100000000E-03 0.  1.
         11   -1    0    0    0    0 -0.00000000000E+00 -0.00000000000E+00 -0.45593999997E+02  0.45594000000E+02  0.51100000000E-03 0. -1.
    9900012    2    1    2    0    0  0.26956862028E+02 -0.73360204898E+01  0.35335872538E+02  0.46142317688E+02  0.99999993289E+01 0.  0.
         12    1    1    2    0    0 -0.26956862028E+02  0.73360204898E+01 -0.35335872538E+02  0.45045682312E+02  0.00000000000E+00 0. -1.
         11    1    3    3    0    0  0.18611716343E+01  0.12975906643E+01  0.23698420448E+01  0.32808311390E+01  0.51100000000E-03 0. -1.
        -11    1    3    3    0    0  0.42406647838E+01 -0.37161717864E+01  0.97939541302E+01  0.11301093236E+02  0.51100000000E-03 0.  1.
         12    1    3    3    0    0  0.20855025610E+02 -0.49174393676E+01  0.23172076363E+02  0.31560393313E+02  0.00000000000E+00 0. -1.
</event>
<event>
 7    1  0.3046295E-009  0.4614232E+02  0.7816164E-02  0.1320468E+00
        -11   -1    0    0    0    0  0.00000000000E+00  0.00000000000E+00  0.45593999997E+02  0.45594000000E+02  0.51100000000E-03 0.  1.
         11   -1    0    0    0    0 -0.00000000000E+00 -0.00000000000E+00 -0.45593999997E+02  0.45594000000E+02  0.51100000000E-03 0. -1.
    9900012    2    1    2    0    0 -0.17430830466E+02 -0.50702759311E+01  0.41225864112E+02  0.46142318514E+02  0.10000006862E+02 0.  0.
         12    1    1    2    0    0  0.17430830466E+02  0.50702759311E+01 -0.41225864112E+02  0.45045681486E+02  0.00000000000E+00 0. -1.
         11    1    3    3    0    0 -0.28751030512E+01 -0.39068225536E+01  0.50023148615E+01  0.69679720331E+01  0.51100000000E-03 0. -1.
        -11    1    3    3    0    0 -0.11288908228E+02  0.39617856164E+00  0.27455490543E+02  0.29688387758E+02  0.51100000000E-03 0.  1.
         12    1    3    3    0    0 -0.32668191871E+01 -0.15596319392E+01  0.87680587075E+01  0.94859587225E+01  0.00000000000E+00 0. -1.
</event>
<event>
 7    1  0.3046295E-009  0.4614232E+02  0.7816164E-02  0.1320468E+00
        -11   -1    0    0    0    0  0.00000000000E+00  0.00000000000E+00  0.45593999997E+02  0.45594000000E+02  0.51100000000E-03 0.  1.
         11   -1    0    0    0    0 -0.00000000000E+00 -0.00000000000E+00 -0.45593999997E+02  0.45594000000E+02  0.51100000000E-03 0. -1.
    9900012    2    1    2    0    0  0.11029186708E+02  0.14801702802E+02  0.41089902436E+02  0.46142318215E+02  0.10000004137E+02 0.  0.
         12    1    1    2    0    0 -0.11029186708E+02 -0.14801702802E+02 -0.41089902436E+02  0.45045681785E+02  0.00000000000E+00 0. -1.
         11    1    3    3    0    0  0.21859522453E+01  0.86702514304E+00  0.55568113692E+01  0.60339268036E+01  0.51100000000E-03 0. -1.
        -11    1    3    3    0    0  0.37276271094E+01  0.11824111623E+02  0.29048203523E+02  0.31583270060E+02  0.51100000000E-03 0.  1.
        -12    1    3    3    0    0  0.51156073536E+01  0.21105660358E+01  0.64848875443E+01  0.85251213511E+01  0.00000000000E+00 0.  1.
</event>
<event>
 7    1  0.3046295E-009  0.4614232E+02  0.7816164E-02  0.1320468E+00
        -11   -1    0    0    0    0  0.00000000000E+00  0.00000000000E+00  0.45593999997E+02  0.45594000000E+02  0.51100000000E-03 0. -1.
         11   -1    0    0    0    0 -0.00000000000E+00 -0.00000000000E+00 -0.45593999997E+02  0.45594000000E+02  0.51100000000E-03 0.  1.
    9900012    2    1    2    0    0 -0.27943831312E+02  0.34423145129E+02  0.79563212777E+01  0.46142315665E+02  0.99999808826E+01 0.  0.
         12    1    1    2    0    0  0.27943831312E+02 -0.34423145129E+02 -0.79563212777E+01  0.45045684335E+02  0.00000000000E+00 0. -1.
         11    1    3    3    0    0 -0.55302727185E+01  0.65129024278E+01  0.40599064822E+01  0.94596329358E+01  0.51100000000E-03 0. -1.
        -11    1    3    3    0    0 -0.18066042188E+02  0.23608925721E+02  0.57771392353E+01  0.30284296129E+02  0.51100000000E-03 0.  1.
         12    1    3    3    0    0 -0.43475164047E+01  0.43013169808E+01 -0.18807244398E+01  0.63983865995E+01  0.00000000000E+00 0. -1.
</event>
<event>
 7    1  0.3046295E-009  0.4614232E+02  0.7816164E-02  0.1320468E+00
        -11   -1    0    0    0    0  0.00000000000E+00  0.00000000000E+00  0.45593999997E+02  0.45594000000E+02  0.51100000000E-03 0.  1.
         11   -1    0    0    0    0 -0.00000000000E+00 -0.00000000000E+00 -0.45593999997E+02  0.45594000000E+02  0.51100000000E-03 0. -1.
    9900012    2    1    2    0    0  0.34930760184E+02 -0.11701002840E+01  0.28418054453E+02  0.46142323619E+02  0.10000053419E+02 0.  0.
         12    1    1    2    0    0 -0.34930760184E+02  0.11701002840E+01 -0.28418054453E+02  0.45045676381E+02  0.00000000000E+00 0. -1.
         11    1    3    3    0    0  0.14236432519E+02 -0.46948101107E+01  0.91573782109E+01  0.17566298096E+02  0.51100000000E-03 0. -1.
        -11    1    3    3    0    0  0.50069953253E+01  0.14458926509E+01  0.37753891229E+01  0.64353842959E+01  0.51100000000E-03 0.  1.
         12    1    3    3    0    0  0.15687332340E+02  0.20788171758E+01  0.15485287119E+02  0.22140641227E+02  0.00000000000E+00 0. -1.
</event>
<event>
 7    1  0.3046295E-009  0.4614232E+02  0.7816164E-02  0.1320468E+00
        -11   -1    0    0    0    0  0.00000000000E+00  0.00000000000E+00  0.45593999997E+02  0.45594000000E+02  0.51100000000E-03 0.  1.
         11   -1    0    0    0    0 -0.00000000000E+00 -0.00000000000E+00 -0.45593999997E+02  0.45594000000E+02  0.51100000000E-03 0. -1.
    9900012    2    1    2    0    0 -0.21775128066E+02  0.25851430540E+02  0.29776850321E+02  0.46142317873E+02  0.10000001022E+02 0.  0.
         12    1    1    2    0    0  0.21775128066E+02 -0.25851430540E+02 -0.29776850321E+02  0.45045682127E+02  0.00000000000E+00 0. -1.
         11    1    3    3    0    0 -0.96016427043E+01  0.88909463370E+01  0.16942732267E+02  0.21407864124E+02  0.51100000000E-03 0. -1.
        -11    1    3    3    0    0 -0.66880179655E+01  0.89233306627E+01  0.87796511145E+01  0.14192874564E+02  0.51100000000E-03 0.  1.
         12    1    3    3    0    0 -0.54854673957E+01  0.80371535400E+01  0.40544669393E+01  0.10541579186E+02  0.00000000000E+00 0. -1.
</event>
<event>
 7    1  0.3046295E-009  0.4614233E+02  0.7816164E-02  0.1320468E+00
        -11   -1    0    0    0    0  0.00000000000E+00  0.00000000000E+00  0.45593999997E+02  0.45594000000E+02  0.51100000000E-03 0.  1.
         11   -1    0    0    0    0 -0.00000000000E+00 -0.00000000000E+00 -0.45593999997E+02  0.45594000000E+02  0.51100000000E-03 0. -1.
    9900012    2    1    2    0    0  0.53231887679E+01  0.36183920087E+02  0.26296381720E+02  0.46142333138E+02  0.10000140216E+02 0.  0.
         12    1    1    2    0    0 -0.53231887679E+01 -0.36183920087E+02 -0.26296381720E+02  0.45045666862E+02  0.00000000000E+00 0. -1.
         11    1    3    3    0    0  0.13574042529E+01  0.24071150930E+00  0.36230512640E+00  0.14253959458E+01  0.51100000000E-03 0. -1.
        -11    1    3    3    0    0  0.27387185487E+00  0.82697474679E+01  0.81570508390E+01  0.11619002007E+02  0.51100000000E-03 0.  1.
         12    1    3    3    0    0  0.36919126601E+01  0.27673461109E+02  0.17777025755E+02  0.33097935186E+02  0.00000000000E+00 0. -1.
</event>
<event>
 7    1  0.3046295E-009  0.4614232E+02  0.7816164E-02  0.1320468E+00
        -11   -1    0    0    0    0  0.00000000000E+00  0.00000000000E+00  0.45593999997E+02  0.45594000000E+02  0.51100000000E-03 0. -1.
         11   -1    0    0    0    0 -0.00000000000E+00 -0.00000000000E+00 -0.45593999997E+02  0.45594000000E+02  0.51100000000E-03 0.  1.
    9900012    2    1    2    0    0 -0.21673681429E+02 -0.95768546576E+01 -0.38309905939E+02  0.46142317578E+02  0.99999983281E+01 0.  0.
         12    1    1    2    0    0  0.21673681429E+02  0.95768546576E+01  0.38309905939E+02  0.45045682422E+02  0.00000000000E+00 0. -1.
         11    1    3    3    0    0 -0.74332325773E+01 -0.59885612443E+01 -0.81416797573E+01  0.12546025740E+02  0.51100000000E-03 0. -1.
        -11    1    3    3    0    0 -0.58524383507E+01 -0.12996939739E+01 -0.10477167589E+02  0.12071092744E+02  0.51100000000E-03 0.  1.
         12    1    3    3    0    0 -0.83880105009E+01 -0.22885994394E+01 -0.19691058593E+02  0.21525199095E+02  0.00000000000E+00 0. -1.
</event>
<event>
 7    1  0.3046295E-009  0.4614232E+02  0.7816164E-02  0.1320468E+00
        -11   -1    0    0    0    0  0.00000000000E+00  0.00000000000E+00  0.45593999997E+02  0.45594000000E+02  0.51100000000E-03 0.  1.
         11   -1    0    0    0    0 -0.00000000000E+00 -0.00000000000E+00 -0.45593999997E+02  0.45594000000E+02  0.51100000000E-03 0. -1.
    9900012    2    1    2    0    0  0.27401425869E+02 -0.15527282541E+02  0.32205260737E+02  0.46142318055E+02  0.10000002680E+02 0.  0.
         12    1    1    2    0    0 -0.27401425869E+02  0.15527282541E+02 -0.32205260737E+02  0.45045681945E+02  0.00000000000E+00 0. -1.
         11    1    3    3    0    0  0.18457250100E+01  0.48111474899E+00  0.35306913496E+01  0.40129731972E+01  0.51100000000E-03 0. -1.
        -11    1    3    3    0    0  0.22111929716E+02 -0.10824662025E+02  0.22233036580E+02  0.33172558834E+02  0.51100000000E-03 0.  1.
        -12    1    3    3    0    0  0.34437711430E+01 -0.51837352646E+01  0.64415328068E+01  0.89567860240E+01  0.00000000000E+00 0.  1.
</event>
<event>
 7    1  0.3046295E-009  0.4614232E+02  0.7816164E-02  0.1320468E+00
        -11   -1    0    0    0    0  0.00000000000E+00  0.00000000000E+00  0.45593999997E+02  0.45594000000E+02  0.51100000000E-03 0.  1.
         11   -1    0    0    0    0 -0.00000000000E+00 -0.00000000000E+00 -0.45593999997E+02  0.45594000000E+02  0.51100000000E-03 0. -1.
    9900012    2    1    2    0    0  0.36727473225E+01 -0.27742716582E+02  0.35298246918E+02  0.46142316170E+02  0.99999854898E+01 0.  0.
         12    1    1    2    0    0 -0.36727473225E+01  0.27742716582E+02 -0.35298246918E+02  0.45045683830E+02  0.00000000000E+00 0. -1.
         11    1    3    3    0    0 -0.47867250954E+00  0.23494866223E-01  0.62420438469E+00  0.78696299475E+00  0.51100000000E-03 0. -1.
        -11    1    3    3    0    0  0.40355175142E+01 -0.57498517171E+01  0.62564792291E+01  0.94068979468E+01  0.51100000000E-03 0.  1.
        -12    1    3    3    0    0  0.11590231783E+00 -0.22016359731E+02  0.28417563304E+02  0.35948455228E+02  0.00000000000E+00 0.  1.
</event>
<event>
 7    1  0.3046295E-009  0.4614232E+02  0.7816164E-02  0.1320468E+00
        -11   -1    0    0    0    0  0.00000000000E+00  0.00000000000E+00  0.45593999997E+02  0.45594000000E+02  0.51100000000E-03 0.  1.
         11   -1    0    0    0    0 -0.00000000000E+00 -0.00000000000E+00 -0.45593999997E+02  0.45594000000E+02  0.51100000000E-03 0. -1.
    9900012    2    1    2    0    0 -0.96994386880E+01 -0.61852113918E+01  0.43552009647E+02  0.46142317686E+02  0.99999993127E+01 0.  0.
         12    1    1    2    0    0  0.96994386880E+01  0.61852113918E+01 -0.43552009647E+02  0.45045682314E+02  0.00000000000E+00 0. -1.
         11    1    3    3    0    0  0.13551049993E+01  0.55141957786E+00  0.86895963643E+01  0.88118930058E+01  0.51100000000E-03 0. -1.
        -11    1    3    3    0    0 -0.69823660003E+01 -0.31635980703E+01  0.23956812414E+02  0.25153342700E+02  0.51100000000E-03 0.  1.
         12    1    3    3    0    0 -0.40721776870E+01 -0.35730328994E+01  0.10905600870E+02  0.12177081980E+02  0.00000000000E+00 0. -1.
</event>
<event>
 7    1  0.3046295E-009  0.4614232E+02  0.7816164E-02  0.1320468E+00
        -11   -1    0    0    0    0  0.00000000000E+00  0.00000000000E+00  0.45593999997E+02  0.45594000000E+02  0.51100000000E-03 0.  1.
         11   -1    0    0    0    0 -0.00000000000E+00 -0.00000000000E+00 -0.45593999997E+02  0.45594000000E+02  0.51100000000E-03 0. -1.
    9900012    2    1    2    0    0 -0.31034045000E+02 -0.23853782741E+02  0.22293467025E+02  0.46142316831E+02  0.99999915214E+01 0.  0.
         12    1    1    2    0    0  0.31034045000E+02  0.23853782741E+02 -0.22293467025E+02  0.45045683169E+02  0.00000000000E+00 0. -1.
         11    1    3    3    0    0 -0.10701515270E+02 -0.53043049898E+01  0.49859823992E+01  0.12942878399E+02  0.51100000000E-03 0. -1.
        -11    1    3    3    0    0 -0.11246818072E+02 -0.67177636758E+01  0.10560458298E+02  0.16826840026E+02  0.51100000000E-03 0.  1.
         12    1    3    3    0    0 -0.90857116573E+01 -0.11831714075E+02  0.67470263286E+01  0.16372598406E+02  0.00000000000E+00 0. -1.
</event>
<event>
 7    1  0.3046295E-009  0.4614232E+02  0.7816164E-02  0.1320468E+00
        -11   -1    0    0    0    0  0.00000000000E+00  0.00000000000E+00  0.45593999997E+02  0.45594000000E+02  0.51100000000E-03 0. -1.
         11   -1    0    0    0    0 -0.00000000000E+00 -0.00000000000E+00 -0.45593999997E+02  0.45594000000E+02  0.51100000000E-03 0.  1.
    9900012    2    1    2    0    0 -0.21324244172E+02  0.60879013381E+01 -0.39208762222E+02  0.46142323546E+02  0.10000052754E+02 0.  0.
         12    1    1    2    0    0  0.21324244172E+02 -0.60879013381E+01  0.39208762222E+02  0.45045676454E+02  0.00000000000E+00 0. -1.
         11    1    3    3    0    0 -0.29171822486E+01  0.16679153510E+01 -0.41474879872E+01  0.53379350647E+01  0.51100000000E-03 0. -1.
        -11    1    3    3    0    0 -0.16493825782E+02  0.64383528320E+01 -0.27100647050E+02  0.32371959269E+02  0.51100000000E-03 0.  1.
        -12    1    3    3    0    0 -0.19132361409E+01 -0.20183668450E+01 -0.79606271849E+01  0.84324292127E+01  0.00000000000E+00 0.  1.
</event>
<event>
 7    1  0.3046295E-009  0.4614232E+02  0.7816164E-02  0.1320468E+00
        -11   -1    0    0    0    0  0.00000000000E+00  0.00000000000E+00  0.45593999997E+02  0.45594000000E+02  0.51100000000E-03 0.  1.
         11   -1    0    0    0    0 -0.00000000000E+00 -0.00000000000E+00 -0.45593999997E+02  0.45594000000E+02  0.51100000000E-03 0. -1.
    9900012    2    1    2    0    0  0.13547741360E+02  0.24183282832E+02  0.35506915722E+02  0.46142317314E+02  0.99999959257E+01 0.  0.
         12    1    1    2    0    0 -0.13547741360E+02 -0.24183282832E+02 -0.35506915722E+02  0.45045682686E+02  0.00000000000E+00 0. -1.
         11    1    3    3    0    0  0.64558592305E+01  0.36781467676E+01  0.79956828127E+01  0.10915027529E+02  0.51100000000E-03 0. -1.
        -11    1    3    3    0    0  0.67700692434E+01  0.16852668357E+02  0.24408727666E+02  0.30424205081E+02  0.51100000000E-03 0.  1.
        -12    1    3    3    0    0  0.32181288642E+00  0.36524677078E+01  0.31025052441E+01  0.48030847047E+01  0.00000000000E+00 0.  1.
</event>
<event>
 7    1  0.3046295E-009  0.4614232E+02  0.7816164E-02  0.1320468E+00
        -11   -1    0    0    0    0  0.00000000000E+00  0.00000000000E+00  0.45593999997E+02  0.45594000000E+02  0.51100000000E-03 0.  1.
         11   -1    0    0    0    0 -0.00000000000E+00 -0.00000000000E+00 -0.45593999997E+02  0.45594000000E+02  0.51100000000E-03 0. -1.
    9900012    2    1    2    0    0  0.37447496829E+02  0.19501796042E+02  0.15699627203E+02  0.46142319165E+02  0.10000012801E+02 0.  0.
         12    1    1    2    0    0 -0.37447496829E+02 -0.19501796042E+02 -0.15699627203E+02  0.45045680835E+02  0.00000000000E+00 0. -1.
         11    1    3    3    0    0  0.72249495282E+01  0.30343790942E+01 -0.94025294537E+00  0.78924918774E+01  0.51100000000E-03 0. -1.
        -11    1    3    3    0    0  0.14235645240E+02  0.82664429618E+01  0.84469171835E+01  0.18502380517E+02  0.51100000000E-03 0.  1.
         12    1    3    3    0    0  0.15986902060E+02  0.82009739861E+01  0.81929629645E+01  0.19747446770E+02  0.00000000000E+00 0. -1.
</event>
<event>
 7    1  0.3046295E-009  0.4614232E+02  0.7816164E-02  0.1320468E+00
        -11   -1    0    0    0    0  0.00000000000E+00  0.00000000000E+00  0.45593999997E+02  0.45594000000E+02  0.51100000000E-03 0. -1.
         11   -1    0    0    0    0 -0.00000000000E+00 -0.00000000000E+00 -0.45593999997E+02  0.45594000000E+02  0.51100000000E-03 0.  1.
    9900012    2    1    2    0    0 -0.99384548924E+00 -0.13655640321E+02 -0.42914440919E+02  0.46142317845E+02  0.10000000768E+02 0.  0.
         12    1    1    2    0    0  0.99384548924E+00  0.13655640321E+02  0.42914440919E+02  0.45045682155E+02  0.00000000000E+00 0. -1.
         11    1    3    3    0    0 -0.18409541616E+01 -0.82533548220E+01 -0.19533858078E+02  0.21285642808E+02  0.51100000000E-03 0. -1.
        -11    1    3    3    0    0 -0.26182999843E+01 -0.38136930964E+01 -0.12829274228E+02  0.13637816076E+02  0.51100000000E-03 0.  1.
         12    1    3    3    0    0  0.34654086566E+01 -0.15885924025E+01 -0.10551308612E+02  0.11218858961E+02  0.00000000000E+00 0. -1.
</event>
<event>
 7    1  0.3046295E-009  0.4614232E+02  0.7816164E-02  0.1320468E+00
        -11   -1    0    0    0    0  0.00000000000E+00  0.00000000000E+00  0.45593999997E+02  0.45594000000E+02  0.51100000000E-03 0. -1.
         11   -1    0    0    0    0 -0.00000000000E+00 -0.00000000000E+00 -0.45593999997E+02  0.45594000000E+02  0.51100000000E-03 0.  1.
    9900012    2    1    2    0    0  0.56277803970E+00  0.14681612062E+02 -0.42582238768E+02  0.46142317517E+02  0.99999977703E+01 0.  0.
         12    1    1    2    0    0 -0.56277803970E+00 -0.14681612062E+02  0.42582238768E+02  0.45045682483E+02  0.00000000000E+00 0. -1.
         11    1    3    3    0    0  0.37577892837E+00 -0.64059863641E+00 -0.13001299580E+01  0.14973024360E+01  0.51100000000E-03 0. -1.
        -11    1    3    3    0    0  0.18937739364E+01  0.34508393446E+01 -0.18334008555E+02  0.18751814362E+02  0.51100000000E-03 0.  1.
        -12    1    3    3    0    0 -0.17067748251E+01  0.11871371354E+02 -0.22948100255E+02  0.25893200719E+02  0.00000000000E+00 0.  1.
</event>
<event>
 7    1  0.3046295E-009  0.4614232E+02  0.7816164E-02  0.1320468E+00
        -11   -1    0    0    0    0  0.00000000000E+00  0.00000000000E+00  0.45593999997E+02  0.45594000000E+02  0.51100000000E-03 0. -1.
         11   -1    0    0    0    0 -0.00000000000E+00 -0.00000000000E+00 -0.45593999997E+02  0.45594000000E+02  0.51100000000E-03 0.  1.
    9900012    2    1    2    0    0  0.31096352950E+02  0.25193836654E+01 -0.32492814787E+02  0.46142317925E+02  0.10000001492E+02 0.  0.
         12    1    1    2    0    0 -0.31096352950E+02 -0.25193836654E+01  0.32492814787E+02  0.45045682075E+02  0.00000000000E+00 0. -1.
         11    1    3    3    0    0  0.14164052119E+02 -0.33939604754E+01 -0.13631163069E+02  0.19948632711E+02  0.51100000000E-03 0. -1.
        -11    1    3    3    0    0  0.96222875008E+01  0.29543659862E+01 -0.85142671977E+01  0.13183680871E+02  0.51100000000E-03 0.  1.
         12    1    3    3    0    0  0.73100133303E+01  0.29589781546E+01 -0.10347384520E+02  0.13010004343E+02  0.00000000000E+00 0. -1.
</event>
<event>
 7    1  0.3046295E-009  0.4614231E+02  0.7816164E-02  0.1320468E+00
        -11   -1    0    0    0    0  0.00000000000E+00  0.00000000000E+00  0.45593999997E+02  0.45594000000E+02  0.51100000000E-03 0.  1.
         11   -1    0    0    0    0 -0.00000000000E+00 -0.00000000000E+00 -0.45593999997E+02  0.45594000000E+02  0.51100000000E-03 0. -1.
    9900012    2    1    2    0    0  0.42085374539E+02  0.36808381813E+01  0.15632864978E+02  0.46142314444E+02  0.99999697477E+01 0.  0.
         12    1    1    2    0    0 -0.42085374539E+02 -0.36808381813E+01 -0.15632864978E+02  0.45045685556E+02  0.00000000000E+00 0. -1.
         11    1    3    3    0    0  0.87951971751E+01  0.29432470229E+01  0.60007246558E+01  0.11046578341E+02  0.51100000000E-03 0. -1.
        -11    1    3    3    0    0  0.30106378428E+02  0.21514832472E+01  0.78725901878E+01  0.31192957197E+02  0.51100000000E-03 0.  1.
         12    1    3    3    0    0  0.31837989365E+01 -0.14138920888E+01  0.17595501347E+01  0.39027789053E+01  0.00000000000E+00 0. -1.
</event>
<event>
 7    1  0.3046295E-009  0.4614232E+02  0.7816164E-02  0.1320468E+00
        -11   -1    0    0    0    0  0.00000000000E+00  0.00000000000E+00  0.45593999997E+02  0.45594000000E+02  0.51100000000E-03 0. -1.
         11   -1    0    0    0    0 -0.00000000000E+00 -0.00000000000E+00 -0.45593999997E+02  0.45594000000E+02  0.51100000000E-03 0.  1.
    9900012    2    1    2    0    0  0.32441133053E+02 -0.29611443040E+02 -0.99924422557E+01  0.46142316801E+02  0.99999912450E+01 0.  0.
         12    1    1    2    0    0 -0.32441133053E+02  0.29611443040E+02  0.99924422557E+01  0.45045683199E+02  0.00000000000E+00 0. -1.
         11    1    3    3    0    0  0.51566051351E+01 -0.65198104921E+01 -0.49276925996E+01  0.96633669076E+01  0.51100000000E-03 0. -1.
        -11    1    3    3    0    0  0.79295109462E+01 -0.38479070207E+01 -0.73922806797E+00  0.88447719407E+01  0.51100000000E-03 0.  1.
        -12    1    3    3    0    0  0.19355016971E+02 -0.19243725527E+02 -0.43255215881E+01  0.27634177953E+02  0.00000000000E+00 0.  1.
</event>
<event>
 7    1  0.3046295E-009  0.4614232E+02  0.7816164E-02  0.1320468E+00
        -11   -1    0    0    0    0  0.00000000000E+00  0.00000000000E+00  0.45593999997E+02  0.45594000000E+02  0.51100000000E-03 0.  1.
         11   -1    0    0    0    0 -0.00000000000E+00 -0.00000000000E+00 -0.45593999997E+02  0.45594000000E+02  0.51100000000E-03 0. -1.
    9900012    2    1    2    0    0 -0.92045184348E+01 -0.34393131353E+02  0.27595336559E+02  0.46142320477E+02  0.10000024768E+02 0.  0.
         12    1    1    2    0    0  0.92045184348E+01  0.34393131353E+02 -0.27595336559E+02  0.45045679523E+02  0.00000000000E+00 0. -1.
         11    1    3    3    0    0 -0.80767670292E+00 -0.12345928811E+02  0.10680779397E+02  0.16344826357E+02  0.51100000000E-03 0. -1.
        -11    1    3    3    0    0 -0.61544147800E+01 -0.16898835972E+02  0.16070989155E+02  0.24118958750E+02  0.51100000000E-03 0.  1.
         12    1    3    3    0    0 -0.22424269519E+01 -0.51483665698E+01  0.84356800744E+00  0.56785353706E+01  0.00000000000E+00 0. -1.
</event>
<event>
 7    1  0.3046295E-009  0.4614232E+02  0.7816164E-02  0.1320468E+00
        -11   -1    0    0    0    0  0.00000000000E+00  0.00000000000E+00  0.45593999997E+02  0.45594000000E+02  0.51100000000E-03 0.  1.
         11   -1    0    0    0    0 -0.00000000000E+00 -0.00000000000E+00 -0.45593999997E+02  0.45594000000E+02  0.51100000000E-03 0. -1.
    9900012    2    1    2    0    0 -0.10888999588E+02  0.24070709695E+02  0.36484847938E+02  0.46142317562E+02  0.99999981870E+01 0.  0.
         12    1    1    2    0    0  0.10888999588E+02 -0.24070709695E+02 -0.36484847938E+02  0.45045682438E+02  0.00000000000E+00 0. -1.
         11    1    3    3    0    0 -0.99498185455E+00  0.64961022425E+01  0.91129778977E+01  0.11235466152E+02  0.51100000000E-03 0. -1.
        -11    1    3    3    0    0 -0.48468778371E+01  0.14107318278E+02  0.15285284970E+02  0.21357635417E+02  0.51100000000E-03 0.  1.
        -12    1    3    3    0    0 -0.50471398959E+01  0.34672891750E+01  0.12086585070E+02  0.13549215993E+02  0.00000000000E+00 0.  1.
</event>
<event>
 7    1  0.3046295E-009  0.4614232E+02  0.7816164E-02  0.1320468E+00
        -11   -1    0    0    0    0  0.00000000000E+00  0.00000000000E+00  0.45593999997E+02  0.45594000000E+02  0.51100000000E-03 0.  1.
         11   -1    0    0    0    0 -0.00000000000E+00 -0.00000000000E+00 -0.45593999997E+02  0.45594000000E+02  0.51100000000E-03 0. -1.
    9900012    2    1    2    0    0 -0.21715197074E+02 -0.21200594345E+02  0.33288113426E+02  0.46142317853E+02  0.10000000840E+02 0.  0.
         12    1    1    2    0    0  0.21715197074E+02  0.21200594345E+02 -0.33288113426E+02  0.45045682147E+02  0.00000000000E+00 0. -1.
         11    1    3    3    0    0 -0.98678218230E+00 -0.38063256050E+01  0.19939088602E+01  0.44088010265E+01  0.51100000000E-03 0. -1.
        -11    1    3    3    0    0 -0.97971822604E+01 -0.64526393216E+01  0.99986263727E+01  0.15414080059E+02  0.51100000000E-03 0.  1.
        -12    1    3    3    0    0 -0.10931232632E+02 -0.10941629419E+02  0.21295578193E+02  0.26319436768E+02  0.00000000000E+00 0.  1.
</event>
<event>
 7    1  0.3046295E-009  0.4614232E+02  0.7816164E-02  0.1320468E+00
        -11   -1    0    0    0    0  0.00000000000E+00  0.00000000000E+00  0.45593999997E+02  0.45594000000E+02  0.51100000000E-03 0.  1.
         11   -1    0    0    0    0 -0.00000000000E+00 -0.00000000000E+00 -0.45593999997E+02  0.45594000000E+02  0.51100000000E-03 0. -1.
    9900012    2    1    2    0    0 -0.12937334617E+02 -0.59192814259E+01  0.42739921743E+02  0.46142318407E+02  0.10000005887E+02 0.  0.
         12    1    1    2    0    0  0.12937334617E+02  0.59192814259E+01 -0.42739921743E+02  0.45045681593E+02  0.00000000000E+00 0. -1.
         11    1    3    3    0    0 -0.31402333730E+01 -0.52207010587E+01  0.22673377914E+02  0.23477624485E+02  0.51100000000E-03 0. -1.
        -11    1    3    3    0    0 -0.53345326460E+01 -0.10393419179E+01  0.70596113805E+01  0.89092975749E+01  0.51100000000E-03 0.  1.
         12    1    3    3    0    0 -0.44625685979E+01  0.34076155068E+00  0.13006932449E+02  0.13755396346E+02  0.00000000000E+00 0. -1.
</event>
<event>
 7    1  0.3046295E-009  0.4614232E+02  0.7816164E-02  0.1320468E+00
        -11   -1    0    0    0    0  0.00000000000E+00  0.00000000000E+00  0.45593999997E+02  0.45594000000E+02  0.51100000000E-03 0. -1.
         11   -1    0    0    0    0 -0.00000000000E+00 -0.00000000000E+00 -0.45593999997E+02  0.45594000000E+02  0.51100000000E-03 0.  1.
    9900012    2    1    2    0    0  0.34236296886E+02 -0.27795479048E+02 -0.91869946018E+01  0.46142317080E+02  0.99999937883E+01 0.  0.
         12    1    1    2    0    0 -0.34236296886E+02  0.27795479048E+02  0.91869946018E+01  0.45045682920E+02  0.00000000000E+00 0. -1.
         11    1    3    3    0    0  0.14989825326E+02 -0.18180862992E+02 -0.38686759470E+01  0.23878971843E+02  0.51100000000E-03 0. -1.
        -11    1    3    3    0    0  0.92155340447E+01 -0.55540026162E+01 -0.19975611836E+01  0.10943640333E+02  0.51100000000E-03 0.  1.
         12    1    3    3    0    0  0.10030937515E+02 -0.40606134396E+01 -0.33207574711E+01  0.11319704905E+02  0.00000000000E+00 0. -1.
</event>
<event>
 7    1  0.3628648E-009  0.4614233E+02  0.7816164E-02  0.1320468E+00
        -11   -1    0    0    0    0  0.00000000000E+00  0.00000000000E+00  0.45593999997E+02  0.45594000000E+02  0.51100000000E-03 0. -1.
         11   -1    0    0    0    0 -0.00000000000E+00 -0.00000000000E+00 -0.45593999997E+02  0.45594000000E+02  0.51100000000E-03 0.  1.
    9900012    2    1    2    0    0 -0.26805387283E+02 -0.35684475076E+02 -0.60993107647E+01  0.46142332721E+02  0.10000136416E+02 0.  0.
         12    1    1    2    0    0  0.26805387283E+02  0.35684475076E+02  0.60993107647E+01  0.45045667279E+02  0.00000000000E+00 0. -1.
         11    1    3    3    0    0 -0.54822940589E+01 -0.28370244422E+01 -0.78691894790E+00  0.62228207050E+01  0.51100000000E-03 0. -1.
        -11    1    3    3    0    0 -0.11419442792E+02 -0.22547367214E+02 -0.35467787281E+01  0.25521894161E+02  0.51100000000E-03 0.  1.
        -12    1    3    3    0    0 -0.99036504319E+01 -0.10300083419E+02 -0.17656130887E+01  0.14397617855E+02  0.00000000000E+00 0.  1.
</event>
<event>
 7    1  0.3046295E-009  0.4614232E+02  0.7816164E-02  0.1320468E+00
        -11   -1    0    0    0    0  0.00000000000E+00  0.00000000000E+00  0.45593999997E+02  0.45594000000E+02  0.51100000000E-03 0.  1.
         11   -1    0    0    0    0 -0.00000000000E+00 -0.00000000000E+00 -0.45593999997E+02  0.45594000000E+02  0.51100000000E-03 0. -1.
    9900012    2    1    2    0    0 -0.41851596974E+02  0.12382713192E+02  0.11145657881E+02  0.46142318244E+02  0.10000004403E+02 0.  0.
         12    1    1    2    0    0  0.41851596974E+02 -0.12382713192E+02 -0.11145657881E+02  0.45045681756E+02  0.00000000000E+00 0. -1.
         11    1    3    3    0    0 -0.44335692443E+01  0.21872905784E+00 -0.57685961928E-01  0.44393362765E+01  0.51100000000E-03 0. -1.
        -11    1    3    3    0    0 -0.15227244545E+02  0.18154335721E+01  0.16636489337E+01  0.15425060892E+02  0.51100000000E-03 0.  1.
        -12    1    3    3    0    0 -0.22190783184E+02  0.10348550562E+02  0.95396949093E+01  0.26277921075E+02  0.00000000000E+00 0.  1.
</event>
<event>
 7    1  0.3046295E-009  0.4614232E+02  0.7816164E-02  0.1320468E+00
        -11   -1    0    0    0    0  0.00000000000E+00  0.00000000000E+00  0.45593999997E+02  0.45594000000E+02  0.51100000000E-03 0. -1.
         11   -1    0    0    0    0 -0.00000000000E+00 -0.00000000000E+00 -0.45593999997E+02  0.45594000000E+02  0.51100000000E-03 0.  1.
    9900012    2    1    2    0    0  0.19534600795E+01 -0.26161994327E+02 -0.36617586833E+02  0.46142316311E+02  0.99999867809E+01 0.  0.
         12    1    1    2    0    0 -0.19534600795E+01  0.26161994327E+02  0.36617586833E+02  0.45045683689E+02  0.00000000000E+00 0. -1.
         11    1    3    3    0    0  0.17681216855E+01 -0.92159986261E+01 -0.72013235470E+01  0.11828776186E+02  0.51100000000E-03 0. -1.
        -11    1    3    3    0    0  0.11183777256E+01 -0.75242665149E+01 -0.88322039880E+01  0.11656465282E+02  0.51100000000E-03 0.  1.
         12    1    3    3    0    0 -0.93303933158E+00 -0.94217291864E+01 -0.20584059298E+02  0.22657074843E+02  0.00000000000E+00 0. -1.
</event>
<event>
 7    1  0.3046295E-009  0.4614232E+02  0.7816164E-02  0.1320468E+00
        -11   -1    0    0    0    0  0.00000000000E+00  0.00000000000E+00  0.45593999997E+02  0.45594000000E+02  0.51100000000E-03 0. -1.
         11   -1    0    0    0    0 -0.00000000000E+00 -0.00000000000E+00 -0.45593999997E+02  0.45594000000E+02  0.51100000000E-03 0.  1.
    9900012    2    1    2    0    0  0.31343570753E+02  0.19504698350E+02 -0.25812029414E+02  0.46142317102E+02  0.99999939898E+01 0.  0.
         12    1    1    2    0    0 -0.31343570753E+02 -0.19504698350E+02  0.25812029414E+02  0.45045682898E+02  0.00000000000E+00 0. -1.
         11    1    3    3    0    0  0.11635804493E+01  0.28843946523E+01 -0.44952161859E+00  0.31425661360E+01  0.51100000000E-03 0. -1.
        -11    1    3    3    0    0  0.18778327844E+02  0.11963338673E+02 -0.14438524890E+02  0.26537107417E+02  0.51100000000E-03 0.  1.
         12    1    3    3    0    0  0.11401662459E+02  0.46569650245E+01 -0.10923982906E+02  0.16462643549E+02  0.00000000000E+00 0. -1.
</event>
<event>
 7    1  0.3046295E-009  0.4614232E+02  0.7816164E-02  0.1320468E+00
        -11   -1    0    0    0    0  0.00000000000E+00  0.00000000000E+00  0.45593999997E+02  0.45594000000E+02  0.51100000000E-03 0. -1.
         11   -1    0    0    0    0 -0.00000000000E+00 -0.00000000000E+00 -0.45593999997E+02  0.45594000000E+02  0.51100000000E-03 0.  1.
    9900012    2    1    2    0    0 -0.10157252408E+02  0.43700987792E+02 -0.40208575465E+01  0.46142318677E+02  0.10000008351E+02 0.  0.
         12    1    1    2    0    0  0.10157252408E+02 -0.43700987792E+02  0.40208575465E+01  0.45045681323E+02  0.00000000000E+00 0. -1.
         11    1    3    3    0    0 -0.32664407651E+01  0.46428915362E+01 -0.10153371766E+01  0.57668871093E+01  0.51100000000E-03 0. -1.
        -11    1    3    3    0    0 -0.12531746669E+01  0.14205509109E+02 -0.41913514673E+01  0.14863860978E+02  0.51100000000E-03 0.  1.
         12    1    3    3    0    0 -0.56376369762E+01  0.24852587146E+02  0.11858310974E+01  0.25511570589E+02  0.00000000000E+00 0. -1.
</event>
<event>
 7    1  0.3046295E-009  0.4614232E+02  0.7816164E-02  0.1320468E+00
        -11   -1    0    0    0    0  0.00000000000E+00  0.00000000000E+00  0.45593999997E+02  0.45594000000E+02  0.51100000000E-03 0.  1.
         11   -1    0    0    0    0 -0.00000000000E+00 -0.00000000000E+00 -0.45593999997E+02  0.45594000000E+02  0.51100000000E-03 0. -1.
    9900012    2    1    2    0    0  0.44114618811E+02  0.28008438718E+01  0.86700111669E+01  0.46142318599E+02  0.10000007640E+02 0.  0.
         12    1    1    2    0    0 -0.44114618811E+02 -0.28008438718E+01 -0.86700111669E+01  0.45045681401E+02  0.00000000000E+00 0. -1.
         11    1    3    3    0    0  0.10866641844E+02 -0.47711897923E+00  0.12436152354E+01  0.10947973630E+02  0.51100000000E-03 0. -1.
        -11    1    3    3    0    0  0.15410876395E+02  0.38956210927E+01  0.69274904799E+01  0.17339581875E+02  0.51100000000E-03 0.  1.
        -12    1    3    3    0    0  0.17837100572E+02 -0.61765824162E+00  0.49890545163E+00  0.17854763094E+02  0.00000000000E+00 0.  1.
</event>
<event>
 7    1  0.3046295E-009  0.4614232E+02  0.7816164E-02  0.1320468E+00
        -11   -1    0    0    0    0  0.00000000000E+00  0.00000000000E+00  0.45593999997E+02  0.45594000000E+02  0.51100000000E-03 0. -1.
         11   -1    0    0    0    0 -0.00000000000E+00 -0.00000000000E+00 -0.45593999997E+02  0.45594000000E+02  0.51100000000E-03 0.  1.
    9900012    2    1    2    0    0 -0.16726686121E+02  0.34677762192E+02  0.23383418817E+02  0.46142317690E+02  0.99999993511E+01 0.  0.
         12    1    1    2    0    0  0.16726686121E+02 -0.34677762192E+02 -0.23383418817E+02  0.45045682310E+02  0.00000000000E+00 0. -1.
         11    1    3    3    0    0  0.95180455150E+00  0.17782497883E+01  0.19358375834E+01  0.27956343867E+01  0.51100000000E-03 0. -1.
        -11    1    3    3    0    0 -0.71797592971E+01  0.13750772371E+02  0.11710460051E+02  0.19436243444E+02  0.51100000000E-03 0.  1.
        -12    1    3    3    0    0 -0.10498731375E+02  0.19148740033E+02  0.97371211824E+01  0.23910439859E+02  0.00000000000E+00 0.  1.
</event>
<event>
 7    1  0.3046295E-009  0.4614233E+02  0.7816164E-02  0.1320468E+00
        -11   -1    0    0    0    0  0.00000000000E+00  0.00000000000E+00  0.45593999997E+02  0.45594000000E+02  0.51100000000E-03 0.  1.
         11   -1    0    0    0    0 -0.00000000000E+00 -0.00000000000E+00 -0.45593999997E+02  0.45594000000E+02  0.51100000000E-03 0. -1.
    9900012    2    1    2    0    0 -0.40033985727E+01 -0.33455452088E+02  0.29896781537E+02  0.46142334050E+02  0.10000148536E+02 0.  0.
         12    1    1    2    0    0  0.40033985727E+01  0.33455452088E+02 -0.29896781537E+02  0.45045665950E+02  0.00000000000E+00 0. -1.
         11    1    3    3    0    0 -0.30607849339E+01 -0.16350557070E+02  0.11653583680E+02  0.20310468575E+02  0.51100000000E-03 0. -1.
        -11    1    3    3    0    0 -0.32257240030E+01 -0.75567205778E+01  0.10474478403E+02  0.13312551195E+02  0.51100000000E-03 0.  1.
         12    1    3    3    0    0  0.22831103642E+01 -0.95481744407E+01  0.77687194537E+01  0.12519314280E+02  0.00000000000E+00 0. -1.
</event>
<event>
 7    1  0.3046295E-009  0.4614231E+02  0.7816164E-02  0.1320468E+00
        -11   -1    0    0    0    0  0.00000000000E+00  0.00000000000E+00  0.45593999997E+02  0.45594000000E+02  0.51100000000E-03 0. -1.
         11   -1    0    0    0    0 -0.00000000000E+00 -0.00000000000E+00 -0.45593999997E+02  0.45594000000E+02  0.51100000000E-03 0.  1.
    9900012    2    1    2    0    0  0.95278194821E+01  0.57431009951E+01 -0.43650329518E+02  0.46142314078E+02  0.99999664145E+01 0.  0.
         12    1    1    2    0    0 -0.95278194821E+01 -0.57431009951E+01  0.43650329518E+02  0.45045685922E+02  0.00000000000E+00 0. -1.
         11    1    3    3    0    0 -0.10402917274E+01  0.23225616852E+01 -0.80860263407E+01  0.84770467677E+01  0.51100000000E-03 0. -1.
        -11    1    3    3    0    0  0.53566040724E+01  0.42203179204E+01 -0.24107424583E+02  0.25053387212E+02  0.51100000000E-03 0.  1.
         12    1    3    3    0    0  0.52115071370E+01 -0.79977861046E+00 -0.11456878595E+02  0.12611880098E+02  0.00000000000E+00 0. -1.
</event>
<event>
 7    1  0.3046295E-009  0.4614232E+02  0.7816164E-02  0.1320468E+00
        -11   -1    0    0    0    0  0.00000000000E+00  0.00000000000E+00  0.45593999997E+02  0.45594000000E+02  0.51100000000E-03 0. -1.
         11   -1    0    0    0    0 -0.00000000000E+00 -0.00000000000E+00 -0.45593999997E+02  0.45594000000E+02  0.51100000000E-03 0.  1.
    9900012    2    1    2    0    0  0.86409901560E+01 -0.22698295755E+02 -0.37937242096E+02  0.46142315646E+02  0.99999807162E+01 0.  0.
         12    1    1    2    0    0 -0.86409901560E+01  0.22698295755E+02  0.37937242096E+02  0.45045684354E+02  0.00000000000E+00 0. -1.
         11    1    3    3    0    0  0.54464270312E+00 -0.69713192890E+00 -0.23624665398E+01  0.25226725933E+01  0.51100000000E-03 0. -1.
        -11    1    3    3    0    0  0.50277379343E+01 -0.75402144733E+01 -0.70142189019E+01  0.11460028364E+02  0.51100000000E-03 0.  1.
        -12    1    3    3    0    0  0.30686095186E+01 -0.14460949353E+02 -0.28560556654E+02  0.32159614689E+02  0.00000000000E+00 0.  1.
</event>
<event>
 7    1  0.3046295E-009  0.4614232E+02  0.7816164E-02  0.1320468E+00
        -11   -1    0    0    0    0  0.00000000000E+00  0.00000000000E+00  0.45593999997E+02  0.45594000000E+02  0.51100000000E-03 0. -1.
         11   -1    0    0    0    0 -0.00000000000E+00 -0.00000000000E+00 -0.45593999997E+02  0.45594000000E+02  0.51100000000E-03 0.  1.
    9900012    2    1    2    0    0 -0.27861310690E+02 -0.50014192621E+01 -0.35040642137E+02  0.46142318416E+02  0.10000005975E+02 0.  0.
         12    1    1    2    0    0  0.27861310690E+02  0.50014192621E+01  0.35040642137E+02  0.45045681584E+02  0.00000000000E+00 0. -1.
         11    1    3    3    0    0 -0.66370871178E+01 -0.39089828240E+01 -0.52051152295E+01  0.92964669063E+01  0.51100000000E-03 0. -1.
        -11    1    3    3    0    0 -0.16168418636E+02 -0.23830871598E+01 -0.21399150494E+02  0.26926204852E+02  0.51100000000E-03 0.  1.
         12    1    3    3    0    0 -0.50558049361E+01  0.12906507218E+01 -0.84363764130E+01  0.99196466580E+01  0.00000000000E+00 0. -1.
</event>
<event>
 7    1  0.3046295E-009  0.4614232E+02  0.7816164E-02  0.1320468E+00
        -11   -1    0    0    0    0  0.00000000000E+00  0.00000000000E+00  0.45593999997E+02  0.45594000000E+02  0.51100000000E-03 0.  1.
         11   -1    0    0    0    0 -0.00000000000E+00 -0.00000000000E+00 -0.45593999997E+02  0.45594000000E+02  0.51100000000E-03 0. -1.
    9900012    2    1    2    0    0  0.72661698028E+01 -0.41653572728E+02 -0.15533708868E+02  0.46142318122E+02  0.10000003294E+02 0.  0.
         12    1    1    2    0    0 -0.72661698028E+01  0.41653572728E+02  0.15533708868E+02  0.45045681878E+02  0.00000000000E+00 0. -1.
         11    1    3    3    0    0  0.13401586687E+01 -0.12645086001E+02 -0.65841277945E+01  0.14319391199E+02  0.51100000000E-03 0. -1.
        -11    1    3    3    0    0  0.25052942730E+01 -0.39082782925E+01  0.73974894621E+00  0.47008900615E+01  0.51100000000E-03 0.  1.
         12    1    3    3    0    0  0.34207168612E+01 -0.25100208435E+02 -0.96893300195E+01  0.27122036862E+02  0.00000000000E+00 0. -1.
</event>
<event>
 7    1  0.3888948E-009  0.4614232E+02  0.7816164E-02  0.1320468E+00
        -11   -1    0    0    0    0  0.00000000000E+00  0.00000000000E+00  0.45593999997E+02  0.45594000000E+02  0.51100000000E-03 0.  1.
         11   -1    0    0    0    0 -0.00000000000E+00 -0.00000000000E+00 -0.45593999997E+02  0.45594000000E+02  0.51100000000E-03 0. -1.
    9900012    2    1    2    0    0  0.45006639835E+02  0.18678532790E+01 -0.16376936183E+00  0.46142319569E+02  0.10000016487E+02 0.  0.
         12    1    1    2    0    0 -0.45006639835E+02 -0.18678532790E+01  0.16376936183E+00  0.45045680431E+02  0.00000000000E+00 0. -1.
         11    1    3    3    0    0  0.15229788902E+01  0.11737707472E+01  0.27798158792E+00  0.19428011971E+01  0.51100000000E-03 0. -1.
        -11    1    3    3    0    0  0.18561885813E+02 -0.15895611122E+01 -0.36011889077E+01  0.18974690281E+02  0.51100000000E-03 0.  1.
        -12    1    3    3    0    0  0.24921775132E+02  0.22836436440E+01  0.31594379579E+01  0.25224828091E+02  0.00000000000E+00 0.  1.
</event>
<event>
 7    1  0.3046295E-009  0.4614232E+02  0.7816164E-02  0.1320468E+00
        -11   -1    0    0    0    0  0.00000000000E+00  0.00000000000E+00  0.45593999997E+02  0.45594000000E+02  0.51100000000E-03 0.  1.
         11   -1    0    0    0    0 -0.00000000000E+00 -0.00000000000E+00 -0.45593999997E+02  0.45594000000E+02  0.51100000000E-03 0. -1.
    9900012    2    1    2    0    0 -0.28264748782E+02  0.51741759209E+01  0.34690708843E+02  0.46142318740E+02  0.10000008926E+02 0.  0.
         12    1    1    2    0    0  0.28264748782E+02 -0.51741759209E+01 -0.34690708843E+02  0.45045681260E+02  0.00000000000E+00 0. -1.
         11    1    3    3    0    0 -0.17115718077E+02  0.75089018436E+01  0.22163585380E+02  0.28992342598E+02  0.51100000000E-03 0. -1.
        -11    1    3    3    0    0 -0.10087120450E+02 -0.12027260606E+01  0.10978907886E+02  0.14957705960E+02  0.51100000000E-03 0.  1.
         12    1    3    3    0    0 -0.10619102549E+01 -0.11319998621E+01  0.15482155771E+01  0.21922701819E+01  0.00000000000E+00 0. -1.
</event>
<event>
 7    1  0.3046295E-009  0.4614232E+02  0.7816164E-02  0.1320468E+00
        -11   -1    0    0    0    0  0.00000000000E+00  0.00000000000E+00  0.45593999997E+02  0.45594000000E+02  0.51100000000E-03 0.  1.
         11   -1    0    0    0    0 -0.00000000000E+00 -0.00000000000E+00 -0.45593999997E+02  0.45594000000E+02  0.51100000000E-03 0. -1.
    9900012    2    1    2    0    0 -0.44734608385E+02 -0.50972040973E+01  0.13952513676E+01  0.46142318705E+02  0.10000008607E+02 0.  0.
         12    1    1    2    0    0  0.44734608385E+02  0.50972040973E+01 -0.13952513676E+01  0.45045681295E+02  0.00000000000E+00 0. -1.
         11    1    3    3    0    0 -0.58704233727E+01 -0.83550989012E-01 -0.57811085058E+00  0.58994121537E+01  0.51100000000E-03 0. -1.
        -11    1    3    3    0    0 -0.34119232443E+02 -0.37915276794E+01  0.46774660150E+01  0.34646448493E+02  0.51100000000E-03 0.  1.
        -12    1    3    3    0    0 -0.47449525693E+01 -0.12221254289E+01 -0.27041037968E+01  0.55964580578E+01  0.00000000000E+00 0.  1.
</event>
<event>
 7    1  0.3046295E-009  0.4614232E+02  0.7816164E-02  0.1320468E+00
        -11   -1    0    0    0    0  0.00000000000E+00  0.00000000000E+00  0.45593999997E+02  0.45594000000E+02  0.51100000000E-03 0. -1.
         11   -1    0    0    0    0 -0.00000000000E+00 -0.00000000000E+00 -0.45593999997E+02  0.45594000000E+02  0.51100000000E-03 0.  1.
    9900012    2    1    2    0    0  0.39484403918E+02 -0.20512671565E+02  0.70232295784E+01  0.46142316509E+02  0.99999885789E+01 0.  0.
         12    1    1    2    0    0 -0.39484403918E+02  0.20512671565E+02 -0.70232295784E+01  0.45045683491E+02  0.00000000000E+00 0. -1.
         11    1    3    3    0    0  0.22088793358E+02 -0.15729505740E+02  0.63828955386E+01  0.27858095746E+02  0.51100000000E-03 0. -1.
        -11    1    3    3    0    0  0.14110128146E+02 -0.26882539041E+01  0.78093893772E+00  0.14385141336E+02  0.51100000000E-03 0.  1.
        -12    1    3    3    0    0  0.32854824133E+01 -0.20949119205E+01 -0.14060489788E+00  0.38990794272E+01  0.00000000000E+00 0.  1.
</event>
<event>
 7    1  0.3046295E-009  0.4614232E+02  0.7816164E-02  0.1320468E+00
        -11   -1    0    0    0    0  0.00000000000E+00  0.00000000000E+00  0.45593999997E+02  0.45594000000E+02  0.51100000000E-03 0.  1.
         11   -1    0    0    0    0 -0.00000000000E+00 -0.00000000000E+00 -0.45593999997E+02  0.45594000000E+02  0.51100000000E-03 0. -1.
    9900012    2    1    2    0    0 -0.34359684525E+02 -0.29053632429E+02 -0.21005136980E+01  0.46142316125E+02  0.99999850769E+01 0.  0.
         12    1    1    2    0    0  0.34359684525E+02  0.29053632429E+02  0.21005136980E+01  0.45045683875E+02  0.00000000000E+00 0. -1.
         11    1    3    3    0    0 -0.69677629032E+01 -0.29544381805E+01 -0.40222130409E+00  0.75789317899E+01  0.51100000000E-03 0. -1.
        -11    1    3    3    0    0 -0.73431556852E+01 -0.94257522920E+01  0.23431238675E+01  0.12176081940E+02  0.51100000000E-03 0.  1.
        -12    1    3    3    0    0 -0.20048765937E+02 -0.16673441957E+02 -0.40414162615E+01  0.26387302395E+02  0.00000000000E+00 0.  1.
</event>
<event>
 7    1  0.3046295E-009  0.4614232E+02  0.7816164E-02  0.1320468E+00
        -11   -1    0    0    0    0  0.00000000000E+00  0.00000000000E+00  0.45593999997E+02  0.45594000000E+02  0.51100000000E-03 0.  1.
         11   -1    0    0    0    0 -0.00000000000E+00 -0.00000000000E+00 -0.45593999997E+02  0.45594000000E+02  0.51100000000E-03 0. -1.
    9900012    2    1    2    0    0 -0.39968029329E+02 -0.20640454840E+02 -0.23752432564E+01  0.46142317354E+02  0.99999962917E+01 0.  0.
         12    1    1    2    0    0  0.39968029329E+02  0.20640454840E+02  0.23752432564E+01  0.45045682646E+02  0.00000000000E+00 0. -1.
         11    1    3    3    0    0 -0.81570962740E+01 -0.34006243760E+01 -0.26648271177E+01  0.92305888002E+01  0.51100000000E-03 0. -1.
        -11    1    3    3    0    0 -0.21736490929E+02 -0.80682415415E+01 -0.11358615716E+01  0.23213395729E+02  0.51100000000E-03 0.  1.
         12    1    3    3    0    0 -0.10074442126E+02 -0.91715889223E+01  0.14254454330E+01  0.13698332825E+02  0.00000000000E+00 0. -1.
</event>
<event>
 7    1  0.3046295E-009  0.4614232E+02  0.7816164E-02  0.1320468E+00
        -11   -1    0    0    0    0  0.00000000000E+00  0.00000000000E+00  0.45593999997E+02  0.45594000000E+02  0.51100000000E-03 0.  1.
         11   -1    0    0    0    0 -0.00000000000E+00 -0.00000000000E+00 -0.45593999997E+02  0.45594000000E+02  0.51100000000E-03 0. -1.
    9900012    2    1    2    0    0 -0.16083553416E+02 -0.38042118399E+02  0.17978600178E+02  0.46142317330E+02  0.99999960722E+01 0.  0.
         12    1    1    2    0    0  0.16083553416E+02  0.38042118399E+02 -0.17978600178E+02  0.45045682670E+02  0.00000000000E+00 0. -1.
         11    1    3    3    0    0 -0.41192182798E+01 -0.11204032310E+02  0.74221399456E+00  0.11960316932E+02  0.51100000000E-03 0. -1.
        -11    1    3    3    0    0 -0.49881160339E+01 -0.99746361722E+01  0.80250876639E+01  0.13739603364E+02  0.51100000000E-03 0.  1.
         12    1    3    3    0    0 -0.69762191027E+01 -0.16863449917E+02  0.92112985196E+01  0.20442397034E+02  0.00000000000E+00 0. -1.
</event>
<event>
 7    1  0.3046295E-009  0.4614233E+02  0.7816164E-02  0.1320468E+00
        -11   -1    0    0    0    0  0.00000000000E+00  0.00000000000E+00  0.45593999997E+02  0.45594000000E+02  0.51100000000E-03 0.  1.
         11   -1    0    0    0    0 -0.00000000000E+00 -0.00000000000E+00 -0.45593999997E+02  0.45594000000E+02  0.51100000000E-03 0. -1.
    9900012    2    1    2    0    0 -0.15192767293E+01  0.29454840834E+02  0.34047273438E+02  0.46142326746E+02  0.10000081934E+02 0.  0.
         12    1    1    2    0    0  0.15192767293E+01 -0.29454840834E+02 -0.34047273438E+02  0.45045673254E+02  0.00000000000E+00 0. -1.
         11    1    3    3    0    0  0.39686391466E+00  0.90098610734E+01  0.50286050103E+01  0.10325791308E+02  0.51100000000E-03 0. -1.
        -11    1    3    3    0    0 -0.68507648388E-01  0.17437942122E+02  0.24783029644E+02  0.30303218927E+02  0.51100000000E-03 0.  1.
         12    1    3    3    0    0 -0.18476329956E+01  0.30070376381E+01  0.42356387836E+01  0.55133165109E+01  0.00000000000E+00 0. -1.
</event>
<event>
 7    1  0.3046295E-009  0.4614232E+02  0.7816164E-02  0.1320468E+00
        -11   -1    0    0    0    0  0.00000000000E+00  0.00000000000E+00  0.45593999997E+02  0.45594000000E+02  0.51100000000E-03 0.  1.
         11   -1    0    0    0    0 -0.00000000000E+00 -0.00000000000E+00 -0.45593999997E+02  0.45594000000E+02  0.51100000000E-03 0. -1.
    9900012    2    1    2    0    0  0.95080014067E+00 -0.24617780555E+02  0.37711727106E+02  0.46142317614E+02  0.99999986555E+01 0.  0.
         12    1    1    2    0    0 -0.95080014067E+00  0.24617780555E+02 -0.37711727106E+02  0.45045682386E+02  0.00000000000E+00 0. -1.
         11    1    3    3    0    0  0.27352508456E+00 -0.81444251811E+00  0.15609654642E+00  0.87321187584E+00  0.51100000000E-03 0. -1.
        -11    1    3    3    0    0 -0.30437708253E+01 -0.15747560804E+02  0.27690756869E+02  0.32000441065E+02  0.51100000000E-03 0.  1.
        -12    1    3    3    0    0  0.37210458814E+01 -0.80557772332E+01  0.98648736904E+01  0.13268664673E+02  0.00000000000E+00 0.  1.
</event>
<event>
 7    1  0.3046295E-009  0.4614232E+02  0.7816164E-02  0.1320468E+00
        -11   -1    0    0    0    0  0.00000000000E+00  0.00000000000E+00  0.45593999997E+02  0.45594000000E+02  0.51100000000E-03 0.  1.
         11   -1    0    0    0    0 -0.00000000000E+00 -0.00000000000E+00 -0.45593999997E+02  0.45594000000E+02  0.51100000000E-03 0. -1.
    9900012    2    1    2    0    0 -0.53183338778E+01 -0.90762021325E+01  0.43800129489E+02  0.46142318036E+02  0.10000002507E+02 0.  0.
         12    1    1    2    0    0  0.53183338778E+01  0.90762021325E+01 -0.43800129489E+02  0.45045681964E+02  0.00000000000E+00 0. -1.
         11    1    3    3    0    0  0.78784309189E+00  0.18142574189E+01  0.48821836739E+01  0.52676317645E+01  0.51100000000E-03 0. -1.
        -11    1    3    3    0    0 -0.40010931554E+01 -0.67116160381E+01  0.24733966299E+02  0.25938843949E+02  0.51100000000E-03 0.  1.
         12    1    3    3    0    0 -0.21050838143E+01 -0.41788435133E+01  0.14183979516E+02  0.14935842322E+02  0.00000000000E+00 0. -1.
</event>
<event>
 7    1  0.3046295E-009  0.4614232E+02  0.7816164E-02  0.1320468E+00
        -11   -1    0    0    0    0  0.00000000000E+00  0.00000000000E+00  0.45593999997E+02  0.45594000000E+02  0.51100000000E-03 0.  1.
         11   -1    0    0    0    0 -0.00000000000E+00 -0.00000000000E+00 -0.45593999997E+02  0.45594000000E+02  0.51100000000E-03 0. -1.
    9900012    2    1    2    0    0 -0.10905792525E+02 -0.43575261981E+02  0.33724960913E+01  0.46142317663E+02  0.99999991061E+01 0.  0.
         12    1    1    2    0    0  0.10905792525E+02  0.43575261981E+02 -0.33724960913E+01  0.45045682337E+02  0.00000000000E+00 0. -1.
         11    1    3    3    0    0 -0.54037896108E+01 -0.12563873129E+02  0.23691986994E+01  0.13880380143E+02  0.51100000000E-03 0. -1.
        -11    1    3    3    0    0 -0.41750842309E+01 -0.12433609965E+02  0.32201011333E+01  0.13505370660E+02  0.51100000000E-03 0.  1.
        -12    1    3    3    0    0 -0.13269186835E+01 -0.18577778887E+02 -0.22168037415E+01  0.18756566861E+02  0.00000000000E+00 0.  1.
</event>
<event>
 7    1  0.3046295E-009  0.4614232E+02  0.7816164E-02  0.1320468E+00
        -11   -1    0    0    0    0  0.00000000000E+00  0.00000000000E+00  0.45593999997E+02  0.45594000000E+02  0.51100000000E-03 0.  1.
         11   -1    0    0    0    0 -0.00000000000E+00 -0.00000000000E+00 -0.45593999997E+02  0.45594000000E+02  0.51100000000E-03 0. -1.
    9900012    2    1    2    0    0  0.70450535337E+01 -0.28853475249E+01  0.44397696973E+02  0.46142317564E+02  0.99999982026E+01 0.  0.
         12    1    1    2    0    0 -0.70450535337E+01  0.28853475249E+01 -0.44397696973E+02  0.45045682436E+02  0.00000000000E+00 0. -1.
         11    1    3    3    0    0  0.44852346234E+01 -0.39761827614E+01  0.13130533553E+02  0.14433927761E+02  0.51100000000E-03 0. -1.
        -11    1    3    3    0    0  0.29826229693E+01 -0.68222040492E+00  0.24840862115E+02  0.25028581569E+02  0.51100000000E-03 0.  1.
         12    1    3    3    0    0 -0.42280405903E+00  0.17730556414E+01  0.64263013048E+01  0.66798082337E+01  0.00000000000E+00 0. -1.
</event>
<event>
 7    1  0.3046295E-009  0.4614232E+02  0.7816164E-02  0.1320468E+00
        -11   -1    0    0    0    0  0.00000000000E+00  0.00000000000E+00  0.45593999997E+02  0.45594000000E+02  0.51100000000E-03 0. -1.
         11   -1    0    0    0    0 -0.00000000000E+00 -0.00000000000E+00 -0.45593999997E+02  0.45594000000E+02  0.51100000000E-03 0.  1.
    9900012    2    1    2    0    0 -0.44824788572E+02 -0.35544167173E+01 -0.26866284464E+01  0.46142317398E+02  0.99999966852E+01 0.  0.
         12    1    1    2    0    0  0.44824788572E+02  0.35544167173E+01  0.26866284464E+01  0.45045682602E+02  0.00000000000E+00 0. -1.
         11    1    3    3    0    0 -0.61716892823E+01 -0.38799721081E+01 -0.21781310652E+00  0.72932417324E+01  0.51100000000E-03 0. -1.
        -11    1    3    3    0    0 -0.55882103576E+01  0.57446168923E+00 -0.12813175375E+01  0.57619333670E+01  0.51100000000E-03 0.  1.
        -12    1    3    3    0    0 -0.33064888932E+02 -0.24890629836E+00 -0.11874978024E+01  0.33087142298E+02  0.00000000000E+00 0.  1.
</event>
<event>
 7    1  0.3046295E-009  0.4614232E+02  0.7816164E-02  0.1320468E+00
        -11   -1    0    0    0    0  0.00000000000E+00  0.00000000000E+00  0.45593999997E+02  0.45594000000E+02  0.51100000000E-03 0. -1.
         11   -1    0    0    0    0 -0.00000000000E+00 -0.00000000000E+00 -0.45593999997E+02  0.45594000000E+02  0.51100000000E-03 0.  1.
    9900012    2    1    2    0    0  0.22715940725E+02 -0.35165408107E+02 -0.16628097148E+02  0.46142317576E+02  0.99999983078E+01 0.  0.
         12    1    1    2    0    0 -0.22715940725E+02  0.35165408107E+02  0.16628097148E+02  0.45045682424E+02  0.00000000000E+00 0. -1.
         11    1    3    3    0    0  0.28454500936E+01 -0.18602258660E+01  0.23440782426E+00  0.34076346337E+01  0.51100000000E-03 0. -1.
        -11    1    3    3    0    0  0.41942397273E+01 -0.11523195981E+02 -0.34829160972E+01  0.12747799704E+02  0.51100000000E-03 0.  1.
        -12    1    3    3    0    0  0.15676250904E+02 -0.21781986260E+02 -0.13379588875E+02  0.29986883237E+02  0.00000000000E+00 0.  1.
</event>
<event>
 7    1  0.3046295E-009  0.4614232E+02  0.7816164E-02  0.1320468E+00
        -11   -1    0    0    0    0  0.00000000000E+00  0.00000000000E+00  0.45593999997E+02  0.45594000000E+02  0.51100000000E-03 0.  1.
         11   -1    0    0    0    0 -0.00000000000E+00 -0.00000000000E+00 -0.45593999997E+02  0.45594000000E+02  0.51100000000E-03 0. -1.
    9900012    2    1    2    0    0 -0.37937139061E+02  0.23986936759E+02  0.38097046354E+01  0.46142317580E+02  0.99999983508E+01 0.  0.
         12    1    1    2    0    0  0.37937139061E+02 -0.23986936759E+02 -0.38097046354E+01  0.45045682420E+02  0.00000000000E+00 0. -1.
         11    1    3    3    0    0 -0.10573818938E+02  0.38200935916E+01 -0.20557545318E+01  0.11429124592E+02  0.51100000000E-03 0. -1.
        -11    1    3    3    0    0 -0.21336596888E+02  0.17583081237E+02  0.44305283395E+01  0.28000798099E+02  0.51100000000E-03 0.  1.
        -12    1    3    3    0    0 -0.60267232356E+01  0.25837619305E+01  0.14349308277E+01  0.67123948895E+01  0.00000000000E+00 0.  1.
</event>
<event>
 7    1  0.3046295E-009  0.4614232E+02  0.7816164E-02  0.1320468E+00
        -11   -1    0    0    0    0  0.00000000000E+00  0.00000000000E+00  0.45593999997E+02  0.45594000000E+02  0.51100000000E-03 0.  1.
         11   -1    0    0    0    0 -0.00000000000E+00 -0.00000000000E+00 -0.45593999997E+02  0.45594000000E+02  0.51100000000E-03 0. -1.
    9900012    2    1    2    0    0  0.39880530205E+02  0.29274812917E+01  0.20738528943E+02  0.46142318532E+02  0.10000007031E+02 0.  0.
         12    1    1    2    0    0 -0.39880530205E+02 -0.29274812917E+01 -0.20738528943E+02  0.45045681468E+02  0.00000000000E+00 0. -1.
         11    1    3    3    0    0  0.16437839447E+02 -0.72366163292E+00  0.62950064317E+01  0.17616848699E+02  0.51100000000E-03 0. -1.
        -11    1    3    3    0    0  0.86993408232E+01  0.28897689359E+01  0.88400022041E+01  0.12734792283E+02  0.51100000000E-03 0.  1.
         12    1    3    3    0    0  0.14743349935E+02  0.76137398873E+00  0.56035203075E+01  0.15790677551E+02  0.00000000000E+00 0. -1.
</event>
<event>
 7    1  0.3046295E-009  0.4614232E+02  0.7816164E-02  0.1320468E+00
        -11   -1    0    0    0    0  0.00000000000E+00  0.00000000000E+00  0.45593999997E+02  0.45594000000E+02  0.51100000000E-03 0.  1.
         11   -1    0    0    0    0 -0.00000000000E+00 -0.00000000000E+00 -0.45593999997E+02  0.45594000000E+02  0.51100000000E-03 0. -1.
    9900012    2    1    2    0    0 -0.28931411340E+01 -0.44913631591E+02  0.18731843412E+01  0.46142318876E+02  0.10000010167E+02 0.  0.
         12    1    1    2    0    0  0.28931411340E+01  0.44913631591E+02 -0.18731843412E+01  0.45045681124E+02  0.00000000000E+00 0. -1.
         11    1    3    3    0    0  0.13745503449E+01 -0.45330880747E+01 -0.50881795538E+00  0.47641549215E+01  0.51100000000E-03 0. -1.
        -11    1    3    3    0    0 -0.19982662146E+01 -0.37262473140E+02  0.31399207756E+01  0.37447884789E+02  0.51100000000E-03 0.  1.
        -12    1    3    3    0    0 -0.22694252643E+01 -0.31180703762E+01 -0.75791847897E+00  0.39302791659E+01  0.00000000000E+00 0.  1.
</event>
<event>
 7    1  0.3046295E-009  0.4614232E+02  0.7816164E-02  0.1320468E+00
        -11   -1    0    0    0    0  0.00000000000E+00  0.00000000000E+00  0.45593999997E+02  0.45594000000E+02  0.51100000000E-03 0.  1.
         11   -1    0    0    0    0 -0.00000000000E+00 -0.00000000000E+00 -0.45593999997E+02  0.45594000000E+02  0.51100000000E-03 0. -1.
    9900012    2    1    2    0    0 -0.19955478156E+02 -0.38383509721E+02 -0.12553829857E+02  0.46142316844E+02  0.99999916383E+01 0.  0.
         12    1    1    2    0    0  0.19955478156E+02  0.38383509721E+02  0.12553829857E+02  0.45045683156E+02  0.00000000000E+00 0. -1.
         11    1    3    3    0    0 -0.23004771775E+01 -0.22375115261E+01 -0.17762567491E+01  0.36679342106E+01  0.51100000000E-03 0. -1.
        -11    1    3    3    0    0 -0.23670386644E+01 -0.70295846648E+00 -0.37448987714E+00  0.24974518161E+01  0.51100000000E-03 0.  1.
        -12    1    3    3    0    0 -0.15287962314E+02 -0.35443039728E+02 -0.10403083231E+02  0.39976930817E+02  0.00000000000E+00 0.  1.
</event>
<event>
 7    1  0.3046295E-009  0.4614230E+02  0.7816164E-02  0.1320468E+00
        -11   -1    0    0    0    0  0.00000000000E+00  0.00000000000E+00  0.45593999997E+02  0.45594000000E+02  0.51100000000E-03 0.  1.
         11   -1    0    0    0    0 -0.00000000000E+00 -0.00000000000E+00 -0.45593999997E+02  0.45594000000E+02  0.51100000000E-03 0. -1.
    9900012    2    1    2    0    0 -0.27374449882E+02  0.26364877630E+02  0.24179487028E+02  0.46142302406E+02  0.99998599803E+01 0.  0.
         12    1    1    2    0    0  0.27374449882E+02 -0.26364877630E+02 -0.24179487028E+02  0.45045697594E+02  0.00000000000E+00 0. -1.
         11    1    3    3    0    0 -0.22121386953E+02  0.18646891663E+02  0.13809120057E+02  0.32058604561E+02  0.51100000000E-03 0. -1.
        -11    1    3    3    0    0 -0.18152343611E+01  0.16956076184E+01  0.18452345654E+01  0.30943580664E+01  0.51100000000E-03 0.  1.
         12    1    3    3    0    0 -0.34378285684E+01  0.60223783491E+01  0.85251324054E+01  0.10989339779E+02  0.00000000000E+00 0. -1.
</event>
<event>
 7    1  0.3046295E-009  0.4614232E+02  0.7816164E-02  0.1320468E+00
        -11   -1    0    0    0    0  0.00000000000E+00  0.00000000000E+00  0.45593999997E+02  0.45594000000E+02  0.51100000000E-03 0.  1.
         11   -1    0    0    0    0 -0.00000000000E+00 -0.00000000000E+00 -0.45593999997E+02  0.45594000000E+02  0.51100000000E-03 0. -1.
    9900012    2    1    2    0    0  0.13971050735E+02  0.91324179481E+01  0.41839241659E+02  0.46142318089E+02  0.10000002986E+02 0.  0.
         12    1    1    2    0    0 -0.13971050735E+02 -0.91324179481E+01 -0.41839241659E+02  0.45045681911E+02  0.00000000000E+00 0. -1.
         11    1    3    3    0    0  0.58105398430E+01  0.66991109275E+01  0.17617811066E+02  0.19723785831E+02  0.51100000000E-03 0. -1.
        -11    1    3    3    0    0  0.97685658390E+00 -0.10922492654E+01  0.99450345863E+01  0.10052411175E+02  0.51100000000E-03 0.  1.
        -12    1    3    3    0    0  0.71836543083E+01  0.35255562860E+01  0.14276396007E+02  0.16366121083E+02  0.00000000000E+00 0.  1.
</event>
<event>
 7    1  0.3046295E-009  0.4614232E+02  0.7816164E-02  0.1320468E+00
        -11   -1    0    0    0    0  0.00000000000E+00  0.00000000000E+00  0.45593999997E+02  0.45594000000E+02  0.51100000000E-03 0. -1.
         11   -1    0    0    0    0 -0.00000000000E+00 -0.00000000000E+00 -0.45593999997E+02  0.45594000000E+02  0.51100000000E-03 0.  1.
    9900012    2    1    2    0    0  0.31152218297E+01  0.38524524953E+02 -0.23135899540E+02  0.46142317882E+02  0.10000001106E+02 0.  0.
         12    1    1    2    0    0 -0.31152218297E+01 -0.38524524953E+02  0.23135899540E+02  0.45045682118E+02  0.00000000000E+00 0. -1.
         11    1    3    3    0    0  0.13172062497E+00  0.12299740663E+02 -0.90627821132E+01  0.15278579469E+02  0.51100000000E-03 0. -1.
        -11    1    3    3    0    0  0.20039954863E+01  0.38258615976E+01  0.13409341903E+00  0.43210179563E+01  0.51100000000E-03 0.  1.
        -12    1    3    3    0    0  0.97950571845E+00  0.22398922693E+02 -0.14207210846E+02  0.26542720457E+02  0.00000000000E+00 0.  1.
</event>
<event>
 7    1  0.3046295E-009  0.4614232E+02  0.7816164E-02  0.1320468E+00
        -11   -1    0    0    0    0  0.00000000000E+00  0.00000000000E+00  0.45593999997E+02  0.45594000000E+02  0.51100000000E-03 0.  1.
         11   -1    0    0    0    0 -0.00000000000E+00 -0.00000000000E+00 -0.45593999997E+02  0.45594000000E+02  0.51100000000E-03 0. -1.
    9900012    2    1    2    0    0 -0.21138315738E+02 -0.26996216965E+02  0.29214543040E+02  0.46142315992E+02  0.99999838697E+01 0.  0.
         12    1    1    2    0    0  0.21138315738E+02  0.26996216965E+02 -0.29214543040E+02  0.45045684008E+02  0.00000000000E+00 0. -1.
         11    1    3    3    0    0 -0.18357190230E+02 -0.19825532669E+02  0.19061250830E+02  0.33066137697E+02  0.51100000000E-03 0. -1.
        -11    1    3    3    0    0 -0.32859002816E+01 -0.68955832048E+01  0.96849018227E+01  0.12334647622E+02  0.51100000000E-03 0.  1.
         12    1    3    3    0    0  0.50477477390E+00 -0.27510109207E+00  0.46839038827E+00  0.74153067303E+00  0.00000000000E+00 0. -1.
</event>
<event>
 7    1  0.3046295E-009  0.4614232E+02  0.7816164E-02  0.1320468E+00
        -11   -1    0    0    0    0  0.00000000000E+00  0.00000000000E+00  0.45593999997E+02  0.45594000000E+02  0.51100000000E-03 0.  1.
         11   -1    0    0    0    0 -0.00000000000E+00 -0.00000000000E+00 -0.45593999997E+02  0.45594000000E+02  0.51100000000E-03 0. -1.
    9900012    2    1    2    0    0 -0.26476941503E+02  0.33117719925E+02  0.15208604781E+02  0.46142318034E+02  0.10000002493E+02 0.  0.
         12    1    1    2    0    0  0.26476941503E+02 -0.33117719925E+02 -0.15208604781E+02  0.45045681966E+02  0.00000000000E+00 0. -1.
         11    1    3    3    0    0 -0.82919798112E+01  0.15606123788E+02  0.36707536745E+01  0.18049444913E+02  0.51100000000E-03 0. -1.
        -11    1    3    3    0    0 -0.63114504627E+01  0.86562658586E+01  0.36922116310E+01  0.11331274092E+02  0.51100000000E-03 0.  1.
         12    1    3    3    0    0 -0.11873511229E+02  0.88553302781E+01  0.78456394753E+01  0.16761599029E+02  0.00000000000E+00 0. -1.
</event>
<event>
 7    1  0.3046295E-009  0.4614232E+02  0.7816164E-02  0.1320468E+00
        -11   -1    0    0    0    0  0.00000000000E+00  0.00000000000E+00  0.45593999997E+02  0.45594000000E+02  0.51100000000E-03 0. -1.
         11   -1    0    0    0    0 -0.00000000000E+00 -0.00000000000E+00 -0.45593999997E+02  0.45594000000E+02  0.51100000000E-03 0.  1.
    9900012    2    1    2    0    0 -0.22558710018E+00 -0.13585028410E+02 -0.42947753186E+02  0.46142318851E+02  0.10000009940E+02 0.  0.
         12    1    1    2    0    0  0.22558710018E+00  0.13585028410E+02  0.42947753186E+02  0.45045681149E+02  0.00000000000E+00 0. -1.
         11    1    3    3    0    0  0.97345383874E-01 -0.90696293494E+01 -0.29324123025E+02  0.30694817870E+02  0.51100000000E-03 0. -1.
        -11    1    3    3    0    0 -0.21509513788E+01 -0.48166262916E+01 -0.11339851309E+02  0.12506746525E+02  0.51100000000E-03 0.  1.
         12    1    3    3    0    0  0.18280188947E+01  0.30122723129E+00 -0.22837788522E+01  0.29407544560E+01  0.00000000000E+00 0. -1.
</event>
<event>
 7    1  0.3046295E-009  0.4614232E+02  0.7816164E-02  0.1320468E+00
        -11   -1    0    0    0    0  0.00000000000E+00  0.00000000000E+00  0.45593999997E+02  0.45594000000E+02  0.51100000000E-03 0.  1.
         11   -1    0    0    0    0 -0.00000000000E+00 -0.00000000000E+00 -0.45593999997E+02  0.45594000000E+02  0.51100000000E-03 0. -1.
    9900012    2    1    2    0    0  0.30911694593E+02 -0.15852618108E+02  0.28675339784E+02  0.46142317907E+02  0.10000001333E+02 0.  0.
         12    1    1    2    0    0 -0.30911694593E+02  0.15852618108E+02 -0.28675339784E+02  0.45045682093E+02  0.00000000000E+00 0. -1.
         11    1    3    3    0    0  0.32983329954E+00 -0.10212640224E+01  0.18172269800E+01  0.21104701768E+01  0.51100000000E-03 0. -1.
        -11    1    3    3    0    0  0.87456180203E+01 -0.78961514685E+01  0.11390031761E+02  0.16388040345E+02  0.51100000000E-03 0.  1.
        -12    1    3    3    0    0  0.21836243273E+02 -0.69352026170E+01  0.15468081043E+02  0.27643807385E+02  0.00000000000E+00 0.  1.
</event>
<event>
 7    1  0.3046295E-009  0.4614232E+02  0.7816164E-02  0.1320468E+00
        -11   -1    0    0    0    0  0.00000000000E+00  0.00000000000E+00  0.45593999997E+02  0.45594000000E+02  0.51100000000E-03 0.  1.
         11   -1    0    0    0    0 -0.00000000000E+00 -0.00000000000E+00 -0.45593999997E+02  0.45594000000E+02  0.51100000000E-03 0. -1.
    9900012    2    1    2    0    0  0.10172865708E+02  0.39631178676E+02  0.18841337058E+02  0.46142317609E+02  0.99999986160E+01 0.  0.
         12    1    1    2    0    0 -0.10172865708E+02 -0.39631178676E+02 -0.18841337058E+02  0.45045682391E+02  0.00000000000E+00 0. -1.
         11    1    3    3    0    0  0.26814299187E+00  0.19789578806E+01 -0.10166864370E+01  0.22409432232E+01  0.51100000000E-03 0. -1.
        -11    1    3    3    0    0  0.62645646315E+01  0.15814942333E+02  0.83057527823E+01  0.18929941906E+02  0.51100000000E-03 0.  1.
        -12    1    3    3    0    0  0.36401580844E+01  0.21837278462E+02  0.11552270712E+02  0.24971432480E+02  0.00000000000E+00 0.  1.
</event>
<event>
 7    1  0.3046295E-009  0.4614232E+02  0.7816164E-02  0.1320468E+00
        -11   -1    0    0    0    0  0.00000000000E+00  0.00000000000E+00  0.45593999997E+02  0.45594000000E+02  0.51100000000E-03 0. -1.
         11   -1    0    0    0    0 -0.00000000000E+00 -0.00000000000E+00 -0.45593999997E+02  0.45594000000E+02  0.51100000000E-03 0.  1.
    9900012    2    1    2    0    0  0.40440625570E+01 -0.35482513190E+02 -0.27454513167E+02  0.46142317882E+02  0.10000001102E+02 0.  0.
         12    1    1    2    0    0 -0.40440625570E+01  0.35482513190E+02  0.27454513167E+02  0.45045682118E+02  0.00000000000E+00 0. -1.
         11    1    3    3    0    0  0.16331758829E+01 -0.10678848628E+01 -0.28338839066E+01  0.34407179196E+01  0.51100000000E-03 0. -1.
        -11    1    3    3    0    0  0.13499760347E+01 -0.24396026858E+02 -0.20189792513E+02  0.31695682414E+02  0.51100000000E-03 0.  1.
         12    1    3    3    0    0  0.10609106394E+01 -0.10018601469E+02 -0.44308367474E+01  0.11005917548E+02  0.00000000000E+00 0. -1.
</event>
<event>
 7    1  0.3046295E-009  0.4614232E+02  0.7816164E-02  0.1320468E+00
        -11   -1    0    0    0    0  0.00000000000E+00  0.00000000000E+00  0.45593999997E+02  0.45594000000E+02  0.51100000000E-03 0.  1.
         11   -1    0    0    0    0 -0.00000000000E+00 -0.00000000000E+00 -0.45593999997E+02  0.45594000000E+02  0.51100000000E-03 0. -1.
    9900012    2    1    2    0    0  0.49614629222E+01  0.25082978468E+02  0.37085593728E+02  0.46142321125E+02  0.10000030672E+02 0.  0.
         12    1    1    2    0    0 -0.49614629222E+01 -0.25082978468E+02 -0.37085593728E+02  0.45045678875E+02  0.00000000000E+00 0. -1.
         11    1    3    3    0    0 -0.64853218718E+00  0.94465795867E+00  0.56072126162E+00  0.12756885400E+01  0.51100000000E-03 0.  1.
        -11    1    3    3    0    0 -0.14923893390E+01  0.70954341070E+01  0.72349754315E+01  0.10242913690E+02  0.51100000000E-03 0. -1.
        -12    1    3    3    0    0  0.71023844484E+01  0.17042886403E+02  0.29289897035E+02  0.34623718895E+02  0.00000000000E+00 0.  1.
</event>
<event>
 7    1  0.3046295E-009  0.4614231E+02  0.7816164E-02  0.1320468E+00
        -11   -1    0    0    0    0  0.00000000000E+00  0.00000000000E+00  0.45593999997E+02  0.45594000000E+02  0.51100000000E-03 0.  1.
         11   -1    0    0    0    0 -0.00000000000E+00 -0.00000000000E+00 -0.45593999997E+02  0.45594000000E+02  0.51100000000E-03 0. -1.
    9900012    2    1    2    0    0  0.40573482577E+02  0.18069293486E+02  0.75104606406E+01  0.46142313475E+02  0.99999609115E+01 0.  0.
         12    1    1    2    0    0 -0.40573482577E+02 -0.18069293486E+02 -0.75104606406E+01  0.45045686525E+02  0.00000000000E+00 0. -1.
         11    1    3    3    0    0  0.74346587801E+01  0.64193137659E+01  0.99676908152E+00  0.98729574730E+01  0.51100000000E-03 0. -1.
        -11    1    3    3    0    0  0.30256873632E+02  0.12270799411E+02  0.52845739232E+01  0.33075332832E+02  0.51100000000E-03 0.  1.
        -12    1    3    3    0    0  0.28819501652E+01 -0.62081969076E+00  0.12291176358E+01  0.31940231693E+01  0.00000000000E+00 0.  1.
</event>
<event>
 7    1  0.3046295E-009  0.4614232E+02  0.7816164E-02  0.1320468E+00
        -11   -1    0    0    0    0  0.00000000000E+00  0.00000000000E+00  0.45593999997E+02  0.45594000000E+02  0.51100000000E-03 0.  1.
         11   -1    0    0    0    0 -0.00000000000E+00 -0.00000000000E+00 -0.45593999997E+02  0.45594000000E+02  0.51100000000E-03 0. -1.
    9900012    2    1    2    0    0  0.39386475058E+02  0.21286570445E+02 -0.49700098321E+01  0.46142317670E+02  0.99999991702E+01 0.  0.
         12    1    1    2    0    0 -0.39386475058E+02 -0.21286570445E+02  0.49700098321E+01  0.45045682330E+02  0.00000000000E+00 0. -1.
         11    1    3    3    0    0  0.54014268081E+01  0.33413311409E+01 -0.33007829319E+01  0.71578679494E+01  0.51100000000E-03 0. -1.
        -11    1    3    3    0    0  0.22948560433E+02  0.11909999860E+02 -0.40847440611E+01  0.26175745585E+02  0.51100000000E-03 0.  1.
        -12    1    3    3    0    0  0.11036487817E+02  0.60352394437E+01  0.24155171608E+01  0.12808704135E+02  0.00000000000E+00 0.  1.
</event>
<event>
 7    1  0.3046295E-009  0.4614232E+02  0.7816164E-02  0.1320468E+00
        -11   -1    0    0    0    0  0.00000000000E+00  0.00000000000E+00  0.45593999997E+02  0.45594000000E+02  0.51100000000E-03 0.  1.
         11   -1    0    0    0    0 -0.00000000000E+00 -0.00000000000E+00 -0.45593999997E+02  0.45594000000E+02  0.51100000000E-03 0. -1.
    9900012    2    1    2    0    0  0.27078176479E+02 -0.33604384120E+02  0.12908572064E+02  0.46142317563E+02  0.99999981915E+01 0.  0.
         12    1    1    2    0    0 -0.27078176479E+02  0.33604384120E+02 -0.12908572064E+02  0.45045682437E+02  0.00000000000E+00 0. -1.
         11    1    3    3    0    0  0.46092105311E+01 -0.85821181059E+01 -0.67002377251E+00  0.97645534982E+01  0.51100000000E-03 0. -1.
        -11    1    3    3    0    0  0.88415727722E+01 -0.81405318562E+01  0.40562270984E+01  0.12684425352E+02  0.51100000000E-03 0.  1.
         12    1    3    3    0    0  0.13627393175E+02 -0.16881734158E+02  0.95223687381E+01  0.23693338712E+02  0.00000000000E+00 0. -1.
</event>
<event>
 7    1  0.3046295E-009  0.4614232E+02  0.7816164E-02  0.1320468E+00
        -11   -1    0    0    0    0  0.00000000000E+00  0.00000000000E+00  0.45593999997E+02  0.45594000000E+02  0.51100000000E-03 0.  1.
         11   -1    0    0    0    0 -0.00000000000E+00 -0.00000000000E+00 -0.45593999997E+02  0.45594000000E+02  0.51100000000E-03 0. -1.
    9900012    2    1    2    0    0 -0.17461249311E+02  0.25260963425E+01  0.41446798993E+02  0.46142317221E+02  0.99999950791E+01 0.  0.
         12    1    1    2    0    0  0.17461249311E+02 -0.25260963425E+01 -0.41446798993E+02  0.45045682779E+02  0.00000000000E+00 0. -1.
         11    1    3    3    0    0 -0.67046647924E+01  0.62603508069E+00  0.28067498761E+02  0.28863972991E+02  0.51100000000E-03 0. -1.
        -11    1    3    3    0    0 -0.16323420429E+01  0.31110356066E+00  0.17790282002E+01  0.24343926488E+01  0.51100000000E-03 0.  1.
         12    1    3    3    0    0 -0.91242424760E+01  0.15889577011E+01  0.11600272032E+02  0.14843951581E+02  0.00000000000E+00 0. -1.
</event>
<event>
 7    1  0.3046295E-009  0.4614232E+02  0.7816164E-02  0.1320468E+00
        -11   -1    0    0    0    0  0.00000000000E+00  0.00000000000E+00  0.45593999997E+02  0.45594000000E+02  0.51100000000E-03 0.  1.
         11   -1    0    0    0    0 -0.00000000000E+00 -0.00000000000E+00 -0.45593999997E+02  0.45594000000E+02  0.51100000000E-03 0. -1.
    9900012    2    1    2    0    0  0.22916502448E+02 -0.13757749743E+02  0.36258393825E+02  0.46142324456E+02  0.10000061051E+02 0.  0.
         12    1    1    2    0    0 -0.22916502448E+02  0.13757749743E+02 -0.36258393825E+02  0.45045675544E+02  0.00000000000E+00 0. -1.
         11    1    3    3    0    0  0.15447813679E+02 -0.12711941365E+02  0.22611823656E+02  0.30191438687E+02  0.51100000000E-03 0. -1.
        -11    1    3    3    0    0  0.45856492855E+01 -0.15773173294E+01  0.57166264110E+01  0.74963942740E+01  0.51100000000E-03 0.  1.
         12    1    3    3    0    0  0.28830394837E+01  0.53150895111E+00  0.79299437580E+01  0.84544914947E+01  0.00000000000E+00 0. -1.
</event>
<event>
 7    1  0.3046295E-009  0.4614232E+02  0.7816164E-02  0.1320468E+00
        -11   -1    0    0    0    0  0.00000000000E+00  0.00000000000E+00  0.45593999997E+02  0.45594000000E+02  0.51100000000E-03 0.  1.
         11   -1    0    0    0    0 -0.00000000000E+00 -0.00000000000E+00 -0.45593999997E+02  0.45594000000E+02  0.51100000000E-03 0. -1.
    9900012    2    1    2    0    0 -0.38515596499E+02 -0.19847165585E+02  0.12318781468E+02  0.46142317273E+02  0.99999955510E+01 0.  0.
         12    1    1    2    0    0  0.38515596499E+02  0.19847165585E+02 -0.12318781468E+02  0.45045682727E+02  0.00000000000E+00 0. -1.
         11    1    3    3    0    0 -0.54678569034E+01 -0.51268381908E+01  0.37878888674E+01  0.83982159584E+01  0.51100000000E-03 0. -1.
        -11    1    3    3    0    0 -0.29550289314E+02 -0.15211420533E+02  0.77064453313E+01  0.34117388720E+02  0.51100000000E-03 0.  1.
         12    1    3    3    0    0 -0.34974502815E+01  0.49109313861E+00  0.82444726959E+00  0.36267125944E+01  0.00000000000E+00 0. -1.
</event>
<event>
 7    1  0.3046295E-009  0.4614232E+02  0.7816164E-02  0.1320468E+00
        -11   -1    0    0    0    0  0.00000000000E+00  0.00000000000E+00  0.45593999997E+02  0.45594000000E+02  0.51100000000E-03 0.  1.
         11   -1    0    0    0    0 -0.00000000000E+00 -0.00000000000E+00 -0.45593999997E+02  0.45594000000E+02  0.51100000000E-03 0. -1.
    9900012    2    1    2    0    0 -0.12349736534E+01  0.17239872835E+02  0.41597777948E+02  0.46142317571E+02  0.99999982632E+01 0.  0.
         12    1    1    2    0    0  0.12349736534E+01 -0.17239872835E+02 -0.41597777948E+02  0.45045682429E+02  0.00000000000E+00 0. -1.
         11    1    3    3    0    0 -0.41782321633E+01  0.81312074673E+01  0.17145509543E+02  0.19430456934E+02  0.51100000000E-03 0. -1.
        -11    1    3    3    0    0 -0.25569287105E-01  0.67264432031E+01  0.12895989779E+02  0.14544835668E+02  0.51100000000E-03 0.  1.
         12    1    3    3    0    0  0.29688277970E+01  0.23822221647E+01  0.11556278626E+02  0.12167024969E+02  0.00000000000E+00 0. -1.
</event>
<event>
 7    1  0.3046295E-009  0.4614232E+02  0.7816164E-02  0.1320468E+00
        -11   -1    0    0    0    0  0.00000000000E+00  0.00000000000E+00  0.45593999997E+02  0.45594000000E+02  0.51100000000E-03 0. -1.
         11   -1    0    0    0    0 -0.00000000000E+00 -0.00000000000E+00 -0.45593999997E+02  0.45594000000E+02  0.51100000000E-03 0.  1.
    9900012    2    1    2    0    0 -0.12539041490E+01  0.32858157715E+01 -0.44908180752E+02  0.46142316973E+02  0.99999928143E+01 0.  0.
         12    1    1    2    0    0  0.12539041490E+01 -0.32858157715E+01  0.44908180752E+02  0.45045683027E+02  0.00000000000E+00 0. -1.
         11    1    3    3    0    0  0.10254158364E+01  0.31865288352E+01 -0.75962586957E+01  0.83011198093E+01  0.51100000000E-03 0. -1.
        -11    1    3    3    0    0  0.11111673520E+01 -0.11377665851E+01 -0.35874623441E+01  0.39241676847E+01  0.51100000000E-03 0.  1.
        -12    1    3    3    0    0 -0.33904873375E+01  0.12370535214E+01 -0.33724459712E+02  0.33917029479E+02  0.00000000000E+00 0.  1.
</event>
<event>
 7    1  0.3046295E-009  0.4614232E+02  0.7816164E-02  0.1320468E+00
        -11   -1    0    0    0    0  0.00000000000E+00  0.00000000000E+00  0.45593999997E+02  0.45594000000E+02  0.51100000000E-03 0. -1.
         11   -1    0    0    0    0 -0.00000000000E+00 -0.00000000000E+00 -0.45593999997E+02  0.45594000000E+02  0.51100000000E-03 0.  1.
    9900012    2    1    2    0    0 -0.19252035673E+02 -0.37170466982E+02 -0.16638178867E+02  0.46142317751E+02  0.99999999102E+01 0.  0.
         12    1    1    2    0    0  0.19252035673E+02  0.37170466982E+02  0.16638178867E+02  0.45045682249E+02  0.00000000000E+00 0. -1.
         11    1    3    3    0    0 -0.25207380058E+01 -0.11523876814E+02 -0.62785215210E+01  0.13363146698E+02  0.51100000000E-03 0. -1.
        -11    1    3    3    0    0 -0.66080436660E+01 -0.15035696938E+02 -0.58882665601E+01  0.17447352431E+02  0.51100000000E-03 0.  1.
         12    1    3    3    0    0 -0.10123254001E+02 -0.10610893231E+02 -0.44713907862E+01  0.15331818623E+02  0.00000000000E+00 0. -1.
</event>
<event>
 7    1  0.4871639E-009  0.4614232E+02  0.7816164E-02  0.1320468E+00
        -11   -1    0    0    0    0  0.00000000000E+00  0.00000000000E+00  0.45593999997E+02  0.45594000000E+02  0.51100000000E-03 0. -1.
         11   -1    0    0    0    0 -0.00000000000E+00 -0.00000000000E+00 -0.45593999997E+02  0.45594000000E+02  0.51100000000E-03 0.  1.
    9900012    2    1    2    0    0 -0.39229076403E+02  0.20351254821E+02  0.87189129727E+01  0.46142318169E+02  0.10000003721E+02 0.  0.
         12    1    1    2    0    0  0.39229076403E+02 -0.20351254821E+02 -0.87189129727E+01  0.45045681831E+02  0.00000000000E+00 0. -1.
         11    1    3    3    0    0 -0.25444956460E+00  0.15025136132E+01  0.26682864507E+00  0.15470906650E+01  0.51100000000E-03 0. -1.
        -11    1    3    3    0    0 -0.34639765849E+02  0.14490208446E+02  0.62467982895E+01  0.38064445457E+02  0.51100000000E-03 0.  1.
        -12    1    3    3    0    0 -0.43348609895E+01  0.43585327617E+01  0.22052860381E+01  0.65307820468E+01  0.00000000000E+00 0.  1.
</event>
<event>
 7    1  0.3046295E-009  0.4614232E+02  0.7816164E-02  0.1320468E+00
        -11   -1    0    0    0    0  0.00000000000E+00  0.00000000000E+00  0.45593999997E+02  0.45594000000E+02  0.51100000000E-03 0.  1.
         11   -1    0    0    0    0 -0.00000000000E+00 -0.00000000000E+00 -0.45593999997E+02  0.45594000000E+02  0.51100000000E-03 0. -1.
    9900012    2    1    2    0    0 -0.26675021263E+02  0.36070828691E+02 -0.40561060328E+01  0.46142318320E+02  0.10000005101E+02 0.  0.
         12    1    1    2    0    0  0.26675021263E+02 -0.36070828691E+02  0.40561060328E+01  0.45045681680E+02  0.00000000000E+00 0. -1.
         11    1    3    3    0    0 -0.39668325911E+00  0.13395424824E+01  0.36412640733E+00  0.14437174142E+01  0.51100000000E-03 0. -1.
        -11    1    3    3    0    0 -0.90849452814E+01  0.75334933063E+01  0.17637081033E+01  0.11933164656E+02  0.51100000000E-03 0.  1.
        -12    1    3    3    0    0 -0.17193392722E+02  0.27197792902E+02 -0.61839405434E+01  0.32765436251E+02  0.00000000000E+00 0.  1.
</event>
<event>
 7    1  0.3046295E-009  0.4614232E+02  0.7816164E-02  0.1320468E+00
        -11   -1    0    0    0    0  0.00000000000E+00  0.00000000000E+00  0.45593999997E+02  0.45594000000E+02  0.51100000000E-03 0. -1.
         11   -1    0    0    0    0 -0.00000000000E+00 -0.00000000000E+00 -0.45593999997E+02  0.45594000000E+02  0.51100000000E-03 0.  1.
    9900012    2    1    2    0    0 -0.40582103644E+00  0.44285084564E+02 -0.82328656708E+01  0.46142317823E+02  0.10000000568E+02 0.  0.
         12    1    1    2    0    0  0.40582103644E+00 -0.44285084564E+02  0.82328656708E+01  0.45045682177E+02  0.00000000000E+00 0. -1.
         11    1    3    3    0    0 -0.13338457355E+01  0.67143146205E+01 -0.25497519095E+01  0.73049572436E+01  0.51100000000E-03 0. -1.
        -11    1    3    3    0    0  0.18524796016E+01  0.13102283654E+02  0.15056101862E+01  0.13317972065E+02  0.51100000000E-03 0.  1.
        -12    1    3    3    0    0 -0.92445490248E+00  0.24468486290E+02 -0.71887239476E+01  0.25519388515E+02  0.00000000000E+00 0.  1.
</event>
<event>
 7    1  0.3046295E-009  0.4614232E+02  0.7816164E-02  0.1320468E+00
        -11   -1    0    0    0    0  0.00000000000E+00  0.00000000000E+00  0.45593999997E+02  0.45594000000E+02  0.51100000000E-03 0. -1.
         11   -1    0    0    0    0 -0.00000000000E+00 -0.00000000000E+00 -0.45593999997E+02  0.45594000000E+02  0.51100000000E-03 0.  1.
    9900012    2    1    2    0    0 -0.11015560914E+02 -0.11318935465E+02 -0.42185929776E+02  0.46142317040E+02  0.99999934208E+01 0.  0.
         12    1    1    2    0    0  0.11015560914E+02  0.11318935465E+02  0.42185929776E+02  0.45045682960E+02  0.00000000000E+00 0. -1.
         11    1    3    3    0    0 -0.37351814884E+01 -0.75776364766E+00 -0.17258341406E+02  0.17674165747E+02  0.51100000000E-03 0. -1.
        -11    1    3    3    0    0 -0.21473473645E+01 -0.35031062170E+01 -0.13360776812E+02  0.13978312171E+02  0.51100000000E-03 0.  1.
         12    1    3    3    0    0 -0.51330320612E+01 -0.70580656002E+01 -0.11566811558E+02  0.14489839122E+02  0.00000000000E+00 0. -1.
</event>
<event>
 7    1  0.3046295E-009  0.4614232E+02  0.7816164E-02  0.1320468E+00
        -11   -1    0    0    0    0  0.00000000000E+00  0.00000000000E+00  0.45593999997E+02  0.45594000000E+02  0.51100000000E-03 0. -1.
         11   -1    0    0    0    0 -0.00000000000E+00 -0.00000000000E+00 -0.45593999997E+02  0.45594000000E+02  0.51100000000E-03 0.  1.
    9900012    2    1    2    0    0 -0.39325906399E+01  0.39186723012E+02 -0.21864335289E+02  0.46142315554E+02  0.99999798729E+01 0.  0.
         12    1    1    2    0    0  0.39325906399E+01 -0.39186723012E+02  0.21864335289E+02  0.45045684446E+02  0.00000000000E+00 0. -1.
         11    1    3    3    0    0 -0.29138589921E+01  0.22209745596E+02 -0.79100020397E+01  0.23755662613E+02  0.51100000000E-03 0. -1.
        -11    1    3    3    0    0 -0.11941090376E-01  0.14690439279E+02 -0.10228077029E+02  0.17900354991E+02  0.51100000000E-03 0.  1.
         12    1    3    3    0    0 -0.10067905574E+01  0.22865381368E+01 -0.37262562203E+01  0.44862979501E+01  0.00000000000E+00 0. -1.
</event>
<event>
 7    1  0.3046295E-009  0.4614232E+02  0.7816164E-02  0.1320468E+00
        -11   -1    0    0    0    0  0.00000000000E+00  0.00000000000E+00  0.45593999997E+02  0.45594000000E+02  0.51100000000E-03 0.  1.
         11   -1    0    0    0    0 -0.00000000000E+00 -0.00000000000E+00 -0.45593999997E+02  0.45594000000E+02  0.51100000000E-03 0. -1.
    9900012    2    1    2    0    0  0.14596549602E+02  0.32294582447E+02  0.27804930608E+02  0.46142317834E+02  0.10000000662E+02 0.  0.
         12    1    1    2    0    0 -0.14596549602E+02 -0.32294582447E+02 -0.27804930608E+02  0.45045682166E+02  0.00000000000E+00 0. -1.
         11    1    3    3    0    0  0.21000423275E+01  0.92815925481E+00  0.46035150682E+01  0.51443180912E+01  0.51100000000E-03 0. -1.
        -11    1    3    3    0    0  0.48145317917E+01  0.12347724308E+02  0.10044191546E+02  0.16629245204E+02  0.51100000000E-03 0.  1.
         12    1    3    3    0    0  0.76819754826E+01  0.19018698884E+02  0.13157223994E+02  0.24368754539E+02  0.00000000000E+00 0. -1.
</event>
<event>
 7    1  0.3046295E-009  0.4614232E+02  0.7816164E-02  0.1320468E+00
        -11   -1    0    0    0    0  0.00000000000E+00  0.00000000000E+00  0.45593999997E+02  0.45594000000E+02  0.51100000000E-03 0.  1.
         11   -1    0    0    0    0 -0.00000000000E+00 -0.00000000000E+00 -0.45593999997E+02  0.45594000000E+02  0.51100000000E-03 0. -1.
    9900012    2    1    2    0    0 -0.81422918391E+01  0.11369004558E+02  0.42820113446E+02  0.46142319890E+02  0.10000019413E+02 0.  0.
         12    1    1    2    0    0  0.81422918391E+01 -0.11369004558E+02 -0.42820113446E+02  0.45045680110E+02  0.00000000000E+00 0. -1.
         11    1    3    3    0    0 -0.22672703547E+00 -0.14633711987E+01  0.30447504245E+01  0.33857592682E+01  0.51100000000E-03 0. -1.
        -11    1    3    3    0    0 -0.29075095629E+01  0.27193787776E+01  0.65277942661E+01  0.76459617469E+01  0.51100000000E-03 0.  1.
         12    1    3    3    0    0 -0.50080552408E+01  0.10112996979E+02  0.33247568756E+02  0.35110598875E+02  0.00000000000E+00 0. -1.
</event>
<event>
 7    1  0.3046295E-009  0.4614232E+02  0.7816164E-02  0.1320468E+00
        -11   -1    0    0    0    0  0.00000000000E+00  0.00000000000E+00  0.45593999997E+02  0.45594000000E+02  0.51100000000E-03 0.  1.
         11   -1    0    0    0    0 -0.00000000000E+00 -0.00000000000E+00 -0.45593999997E+02  0.45594000000E+02  0.51100000000E-03 0. -1.
    9900012    2    1    2    0    0 -0.42231396178E+02  0.11796377088E+02  0.10318344807E+02  0.46142316798E+02  0.99999912198E+01 0.  0.
         12    1    1    2    0    0  0.42231396178E+02 -0.11796377088E+02 -0.10318344807E+02  0.45045683202E+02  0.00000000000E+00 0. -1.
         11    1    3    3    0    0 -0.12191032670E+02  0.49523216740E+01  0.23633394465E+01  0.13369074057E+02  0.51100000000E-03 0. -1.
        -11    1    3    3    0    0 -0.27747948176E+02  0.68439972191E+01  0.49682306081E+01  0.29008140953E+02  0.51100000000E-03 0.  1.
        -12    1    3    3    0    0 -0.22924153324E+01  0.58194778144E-04  0.29867747527E+01  0.37651017892E+01  0.00000000000E+00 0.  1.
</event>
<event>
 7    1  0.3046295E-009  0.4614232E+02  0.7816164E-02  0.1320468E+00
        -11   -1    0    0    0    0  0.00000000000E+00  0.00000000000E+00  0.45593999997E+02  0.45594000000E+02  0.51100000000E-03 0.  1.
         11   -1    0    0    0    0 -0.00000000000E+00 -0.00000000000E+00 -0.45593999997E+02  0.45594000000E+02  0.51100000000E-03 0. -1.
    9900012    2    1    2    0    0  0.14026648157E+02  0.29677631454E+02  0.30848094026E+02  0.46142316830E+02  0.99999915052E+01 0.  0.
         12    1    1    2    0    0 -0.14026648157E+02 -0.29677631454E+02 -0.30848094026E+02  0.45045683170E+02  0.00000000000E+00 0. -1.
         11    1    3    3    0    0 -0.53772850214E+00  0.59529263075E+00 -0.47456774271E+00  0.93206226282E+00  0.51100000000E-03 0. -1.
        -11    1    3    3    0    0  0.42620628088E+01  0.10662681728E+02  0.11663594738E+02  0.16367571705E+02  0.51100000000E-03 0.  1.
         12    1    3    3    0    0  0.10302313850E+02  0.18419657095E+02  0.19659067030E+02  0.28842682862E+02  0.00000000000E+00 0. -1.
</event>
<event>
 7    1  0.3046295E-009  0.4614232E+02  0.7816164E-02  0.1320468E+00
        -11   -1    0    0    0    0  0.00000000000E+00  0.00000000000E+00  0.45593999997E+02  0.45594000000E+02  0.51100000000E-03 0. -1.
         11   -1    0    0    0    0 -0.00000000000E+00 -0.00000000000E+00 -0.45593999997E+02  0.45594000000E+02  0.51100000000E-03 0.  1.
    9900012    2    1    2    0    0  0.91680529533E+01  0.12319505372E+02 -0.42347256349E+02  0.46142317323E+02  0.99999960020E+01 0.  0.
         12    1    1    2    0    0 -0.91680529533E+01 -0.12319505372E+02  0.42347256349E+02  0.45045682677E+02  0.00000000000E+00 0. -1.
         11    1    3    3    0    0 -0.79149586952E-01  0.21710368945E+01 -0.34509000577E+01  0.40777907405E+01  0.51100000000E-03 0. -1.
        -11    1    3    3    0    0  0.99090886706E+01  0.10877405605E+02 -0.33647746436E+02  0.36724362914E+02  0.51100000000E-03 0.  1.
        -12    1    3    3    0    0 -0.66188613028E+00 -0.72893712740E+00 -0.52486098555E+01  0.53401636679E+01  0.00000000000E+00 0.  1.
</event>
<event>
 7    1  0.3046295E-009  0.4614232E+02  0.7816164E-02  0.1320468E+00
        -11   -1    0    0    0    0  0.00000000000E+00  0.00000000000E+00  0.45593999997E+02  0.45594000000E+02  0.51100000000E-03 0. -1.
         11   -1    0    0    0    0 -0.00000000000E+00 -0.00000000000E+00 -0.45593999997E+02  0.45594000000E+02  0.51100000000E-03 0.  1.
    9900012    2    1    2    0    0 -0.38765977198E+02 -0.42600676992E+00 -0.22937550566E+02  0.46142315458E+02  0.99999789988E+01 0.  0.
         12    1    1    2    0    0  0.38765977198E+02  0.42600676992E+00  0.22937550566E+02  0.45045684542E+02  0.00000000000E+00 0. -1.
         11    1    3    3    0    0 -0.14617382025E+02 -0.16029242972E+01 -0.12841005707E+02  0.19522516523E+02  0.51100000000E-03 0. -1.
        -11    1    3    3    0    0 -0.17545266273E+02  0.29545237614E+01 -0.72708948531E+01  0.19220600705E+02  0.51100000000E-03 0.  1.
         12    1    3    3    0    0 -0.66033288996E+01 -0.17776062340E+01 -0.28256500060E+01  0.73991982293E+01  0.00000000000E+00 0. -1.
</event>
<event>
 7    1  0.3046295E-009  0.4614232E+02  0.7816164E-02  0.1320468E+00
        -11   -1    0    0    0    0  0.00000000000E+00  0.00000000000E+00  0.45593999997E+02  0.45594000000E+02  0.51100000000E-03 0.  1.
         11   -1    0    0    0    0 -0.00000000000E+00 -0.00000000000E+00 -0.45593999997E+02  0.45594000000E+02  0.51100000000E-03 0. -1.
    9900012    2    1    2    0    0  0.37971507382E+02 -0.86706892217E+01  0.22629567124E+02  0.46142317269E+02  0.99999955159E+01 0.  0.
         12    1    1    2    0    0 -0.37971507382E+02  0.86706892217E+01 -0.22629567124E+02  0.45045682731E+02  0.00000000000E+00 0. -1.
         11    1    3    3    0    0  0.92380201215E+01 -0.46543810440E+01  0.22550379299E+01  0.10587231696E+02  0.51100000000E-03 0. -1.
        -11    1    3    3    0    0  0.15311725949E+02 -0.26001191962E+01  0.12443375872E+02  0.19900934016E+02  0.51100000000E-03 0.  1.
        -12    1    3    3    0    0  0.13421761311E+02 -0.14161889815E+01  0.79311533223E+01  0.15654151556E+02  0.00000000000E+00 0.  1.
</event>
<event>
 7    1  0.3046295E-009  0.4614232E+02  0.7816164E-02  0.1320468E+00
        -11   -1    0    0    0    0  0.00000000000E+00  0.00000000000E+00  0.45593999997E+02  0.45594000000E+02  0.51100000000E-03 0.  1.
         11   -1    0    0    0    0 -0.00000000000E+00 -0.00000000000E+00 -0.45593999997E+02  0.45594000000E+02  0.51100000000E-03 0. -1.
    9900012    2    1    2    0    0  0.17878612281E+01 -0.22802293586E+02  0.38806861177E+02  0.46142317466E+02  0.99999973105E+01 0.  0.
         12    1    1    2    0    0 -0.17878612281E+01  0.22802293586E+02 -0.38806861177E+02  0.45045682534E+02  0.00000000000E+00 0. -1.
         11    1    3    3    0    0 -0.10655155196E+01 -0.54407490884E+01  0.12265660999E+02  0.13460442562E+02  0.51100000000E-03 0.  1.
        -11    1    3    3    0    0  0.30709589110E+01 -0.32350702461E+01  0.98578821911E+01  0.10820088248E+02  0.51100000000E-03 0. -1.
        -12    1    3    3    0    0 -0.21758216331E+00 -0.14126474251E+02  0.16683317987E+02  0.21861786657E+02  0.00000000000E+00 0.  1.
</event>
<event>
 7    1  0.3046295E-009  0.4614232E+02  0.7816164E-02  0.1320468E+00
        -11   -1    0    0    0    0  0.00000000000E+00  0.00000000000E+00  0.45593999997E+02  0.45594000000E+02  0.51100000000E-03 0. -1.
         11   -1    0    0    0    0 -0.00000000000E+00 -0.00000000000E+00 -0.45593999997E+02  0.45594000000E+02  0.51100000000E-03 0.  1.
    9900012    2    1    2    0    0  0.31319819107E+02  0.31206073779E+02 -0.86234210957E+01  0.46142317621E+02  0.99999987253E+01 0.  0.
         12    1    1    2    0    0 -0.31319819107E+02 -0.31206073779E+02  0.86234210957E+01  0.45045682379E+02  0.00000000000E+00 0. -1.
         11    1    3    3    0    0  0.14546298794E+02  0.14628180851E+02 -0.71833557566E+01  0.21844429125E+02  0.51100000000E-03 0. -1.
        -11    1    3    3    0    0  0.87383495459E+00 -0.16493558971E+00 -0.80532378460E+00  0.11997241082E+01  0.51100000000E-03 0.  1.
         12    1    3    3    0    0  0.15899685358E+02  0.16742828518E+02 -0.63474155445E+00  0.23098164388E+02  0.00000000000E+00 0. -1.
</event>
<event>
 7    1  0.3046295E-009  0.4614232E+02  0.7816164E-02  0.1320468E+00
        -11   -1    0    0    0    0  0.00000000000E+00  0.00000000000E+00  0.45593999997E+02  0.45594000000E+02  0.51100000000E-03 0.  1.
         11   -1    0    0    0    0 -0.00000000000E+00 -0.00000000000E+00 -0.45593999997E+02  0.45594000000E+02  0.51100000000E-03 0. -1.
    9900012    2    1    2    0    0  0.11764793201E+02  0.42517528172E+02  0.91083979014E+01  0.46142317929E+02  0.10000001529E+02 0.  0.
         12    1    1    2    0    0 -0.11764793201E+02 -0.42517528172E+02 -0.91083979014E+01  0.45045682071E+02  0.00000000000E+00 0. -1.
         11    1    3    3    0    0 -0.57857622758E+00 -0.44450216374E-01  0.87838994842E-01  0.58689200283E+00  0.51100000000E-03 0. -1.
        -11    1    3    3    0    0  0.39653601135E+01  0.10851879434E+02  0.54567708791E-01  0.11553802230E+02  0.51100000000E-03 0.  1.
        -12    1    3    3    0    0  0.83780093152E+01  0.31710098955E+02  0.89659911978E+01  0.34001623696E+02  0.00000000000E+00 0.  1.
</event>
<event>
 7    1  0.3046295E-009  0.4614232E+02  0.7816164E-02  0.1320468E+00
        -11   -1    0    0    0    0  0.00000000000E+00  0.00000000000E+00  0.45593999997E+02  0.45594000000E+02  0.51100000000E-03 0. -1.
         11   -1    0    0    0    0 -0.00000000000E+00 -0.00000000000E+00 -0.45593999997E+02  0.45594000000E+02  0.51100000000E-03 0.  1.
    9900012    2    1    2    0    0 -0.85899888459E+01  0.18064840678E+02 -0.40360713397E+02  0.46142316932E+02  0.99999924409E+01 0.  0.
         12    1    1    2    0    0  0.85899888459E+01 -0.18064840678E+02  0.40360713397E+02  0.45045683068E+02  0.00000000000E+00 0. -1.
         11    1    3    3    0    0 -0.13141815398E+01 -0.40025357881E+00 -0.15989104565E+01  0.21080301126E+01  0.51100000000E-03 0. -1.
        -11    1    3    3    0    0  0.23368048072E+00  0.73590474105E+01 -0.11513196195E+02  0.13666157918E+02  0.51100000000E-03 0.  1.
         12    1    3    3    0    0 -0.75094877868E+01  0.11106046846E+02 -0.27248606746E+02  0.30368128902E+02  0.00000000000E+00 0. -1.
</event>
<event>
 7    1  0.3046295E-009  0.4614232E+02  0.7816164E-02  0.1320468E+00
        -11   -1    0    0    0    0  0.00000000000E+00  0.00000000000E+00  0.45593999997E+02  0.45594000000E+02  0.51100000000E-03 0. -1.
         11   -1    0    0    0    0 -0.00000000000E+00 -0.00000000000E+00 -0.45593999997E+02  0.45594000000E+02  0.51100000000E-03 0.  1.
    9900012    2    1    2    0    0  0.40913960553E+02  0.18811458594E+02 -0.11359365824E+01  0.46142317693E+02  0.99999993832E+01 0.  0.
         12    1    1    2    0    0 -0.40913960553E+02 -0.18811458594E+02  0.11359365824E+01  0.45045682307E+02  0.00000000000E+00 0. -1.
         11    1    3    3    0    0  0.32344101333E+02  0.15565804749E+02  0.92144126557E+00  0.35906604166E+02  0.51100000000E-03 0.  1.
        -11    1    3    3    0    0 -0.35747505775E+00  0.18792031020E+00  0.30728748660E+00  0.50747248244E+00  0.51100000000E-03 0. -1.
        -12    1    3    3    0    0  0.89273342777E+01  0.30577335353E+01 -0.23646653346E+01  0.97282410447E+01  0.00000000000E+00 0.  1.
</event>
<event>
 7    1  0.3046295E-009  0.4614232E+02  0.7816164E-02  0.1320468E+00
        -11   -1    0    0    0    0  0.00000000000E+00  0.00000000000E+00  0.45593999997E+02  0.45594000000E+02  0.51100000000E-03 0.  1.
         11   -1    0    0    0    0 -0.00000000000E+00 -0.00000000000E+00 -0.45593999997E+02  0.45594000000E+02  0.51100000000E-03 0. -1.
    9900012    2    1    2    0    0  0.90897307291E+01  0.77029340134E+01  0.43441393648E+02  0.46142322302E+02  0.10000041409E+02 0.  0.
         12    1    1    2    0    0 -0.90897307291E+01 -0.77029340134E+01 -0.43441393648E+02  0.45045677698E+02  0.00000000000E+00 0. -1.
         11    1    3    3    0    0 -0.10342332472E+01  0.19533459672E+01  0.91270895211E+01  0.93908978412E+01  0.51100000000E-03 0. -1.
        -11    1    3    3    0    0  0.47349155908E+01  0.39798069151E+01  0.25725459305E+02  0.26458600595E+02  0.51100000000E-03 0.  1.
         12    1    3    3    0    0  0.53890483855E+01  0.17697811311E+01  0.85888448228E+01  0.10292823866E+02  0.00000000000E+00 0. -1.
</event>
<event>
 7    1  0.3046295E-009  0.4614232E+02  0.7816164E-02  0.1320468E+00
        -11   -1    0    0    0    0  0.00000000000E+00  0.00000000000E+00  0.45593999997E+02  0.45594000000E+02  0.51100000000E-03 0. -1.
         11   -1    0    0    0    0 -0.00000000000E+00 -0.00000000000E+00 -0.45593999997E+02  0.45594000000E+02  0.51100000000E-03 0.  1.
    9900012    2    1    2    0    0  0.42062853295E+02  0.14274212100E+02 -0.74884430754E+01  0.46142317210E+02  0.99999949704E+01 0.  0.
         12    1    1    2    0    0 -0.42062853295E+02 -0.14274212100E+02  0.74884430754E+01  0.45045682790E+02  0.00000000000E+00 0. -1.
         11    1    3    3    0    0  0.76713993526E+01 -0.31152262332E+00  0.44863677656E+00  0.76908185254E+01  0.51100000000E-03 0. -1.
        -11    1    3    3    0    0  0.20343391853E+02  0.62252606397E+01 -0.43370532781E+01  0.21712150827E+02  0.51100000000E-03 0.  1.
         12    1    3    3    0    0  0.14048062089E+02  0.83604740841E+01 -0.36000265739E+01  0.16739347857E+02  0.00000000000E+00 0. -1.
</event>
<event>
 7    1  0.3046295E-009  0.4614232E+02  0.7816164E-02  0.1320468E+00
        -11   -1    0    0    0    0  0.00000000000E+00  0.00000000000E+00  0.45593999997E+02  0.45594000000E+02  0.51100000000E-03 0.  1.
         11   -1    0    0    0    0 -0.00000000000E+00 -0.00000000000E+00 -0.45593999997E+02  0.45594000000E+02  0.51100000000E-03 0. -1.
    9900012    2    1    2    0    0  0.22181647144E+02 -0.17964989609E+01  0.39164532862E+02  0.46142317490E+02  0.99999975272E+01 0.  0.
         12    1    1    2    0    0 -0.22181647144E+02  0.17964989609E+01 -0.39164532862E+02  0.45045682510E+02  0.00000000000E+00 0. -1.
         11    1    3    3    0    0  0.17613189934E+01  0.23518479981E+01  0.73097428342E+01  0.78781834306E+01  0.51100000000E-03 0. -1.
        -11    1    3    3    0    0  0.13932710030E+02 -0.29273273318E+01  0.24846054212E+02  0.28635922619E+02  0.51100000000E-03 0.  1.
         12    1    3    3    0    0  0.64876181202E+01 -0.12210196272E+01  0.70087358153E+01  0.96282114399E+01  0.00000000000E+00 0. -1.
</event>
<event>
 7    1  0.3046295E-009  0.4614232E+02  0.7816164E-02  0.1320468E+00
        -11   -1    0    0    0    0  0.00000000000E+00  0.00000000000E+00  0.45593999997E+02  0.45594000000E+02  0.51100000000E-03 0.  1.
         11   -1    0    0    0    0 -0.00000000000E+00 -0.00000000000E+00 -0.45593999997E+02  0.45594000000E+02  0.51100000000E-03 0. -1.
    9900012    2    1    2    0    0 -0.28939933001E+02 -0.32154907491E+02  0.12556096530E+02  0.46142319209E+02  0.10000013201E+02 0.  0.
         12    1    1    2    0    0  0.28939933001E+02  0.32154907491E+02 -0.12556096530E+02  0.45045680791E+02  0.00000000000E+00 0. -1.
         11    1    3    3    0    0 -0.18492036033E+01 -0.28019411745E+01  0.36199820968E+01  0.49370739264E+01  0.51100000000E-03 0. -1.
        -11    1    3    3    0    0 -0.92415082032E+01 -0.13393156373E+02  0.31985866457E+01  0.16583517971E+02  0.51100000000E-03 0.  1.
        -12    1    3    3    0    0 -0.17849221195E+02 -0.15959809943E+02  0.57375277878E+01  0.24621727311E+02  0.00000000000E+00 0.  1.
</event>
<event>
 7    1  0.3046295E-009  0.4614232E+02  0.7816164E-02  0.1320468E+00
        -11   -1    0    0    0    0  0.00000000000E+00  0.00000000000E+00  0.45593999997E+02  0.45594000000E+02  0.51100000000E-03 0. -1.
         11   -1    0    0    0    0 -0.00000000000E+00 -0.00000000000E+00 -0.45593999997E+02  0.45594000000E+02  0.51100000000E-03 0.  1.
    9900012    2    1    2    0    0  0.23682624697E+02  0.86665327547E+01 -0.37324763690E+02  0.46142317776E+02  0.10000000138E+02 0.  0.
         12    1    1    2    0    0 -0.23682624697E+02 -0.86665327547E+01  0.37324763690E+02  0.45045682224E+02  0.00000000000E+00 0. -1.
         11    1    3    3    0    0  0.82222292831E+01  0.61504913086E+01 -0.19504668484E+02  0.22042361276E+02  0.51100000000E-03 0. -1.
        -11    1    3    3    0    0  0.10594900252E+00 -0.55278582940E+00 -0.52346067091E+00  0.76864081301E+00  0.51100000000E-03 0.  1.
        -12    1    3    3    0    0  0.15354446411E+02  0.30688272755E+01 -0.17296634535E+02  0.23331315687E+02  0.00000000000E+00 0.  1.
</event>
<event>
 7    1  0.3046295E-009  0.4614232E+02  0.7816164E-02  0.1320468E+00
        -11   -1    0    0    0    0  0.00000000000E+00  0.00000000000E+00  0.45593999997E+02  0.45594000000E+02  0.51100000000E-03 0. -1.
         11   -1    0    0    0    0 -0.00000000000E+00 -0.00000000000E+00 -0.45593999997E+02  0.45594000000E+02  0.51100000000E-03 0.  1.
    9900012    2    1    2    0    0  0.13629876595E+02 -0.19464832117E+02 -0.38268266897E+02  0.46142317891E+02  0.10000001182E+02 0.  0.
         12    1    1    2    0    0 -0.13629876595E+02  0.19464832117E+02  0.38268266897E+02  0.45045682109E+02  0.00000000000E+00 0. -1.
         11    1    3    3    0    0  0.11410663593E+01  0.10487805649E-01 -0.21562395920E+01  0.24395720669E+01  0.51100000000E-03 0. -1.
        -11    1    3    3    0    0  0.98174994610E+01 -0.75759241364E+01 -0.19036654496E+02  0.22719422019E+02  0.51100000000E-03 0.  1.
        -12    1    3    3    0    0  0.26713107749E+01 -0.11899395787E+02 -0.17075372809E+02  0.20983323805E+02  0.00000000000E+00 0.  1.
</event>
<event>
 7    1  0.3046295E-009  0.4614232E+02  0.7816164E-02  0.1320468E+00
        -11   -1    0    0    0    0  0.00000000000E+00  0.00000000000E+00  0.45593999997E+02  0.45594000000E+02  0.51100000000E-03 0.  1.
         11   -1    0    0    0    0 -0.00000000000E+00 -0.00000000000E+00 -0.45593999997E+02  0.45594000000E+02  0.51100000000E-03 0. -1.
    9900012    2    1    2    0    0 -0.29024127360E+02 -0.13665002038E+02  0.31622480655E+02  0.46142317271E+02  0.99999955330E+01 0.  0.
         12    1    1    2    0    0  0.29024127360E+02  0.13665002038E+02 -0.31622480655E+02  0.45045682729E+02  0.00000000000E+00 0. -1.
         11    1    3    3    0    0 -0.67916049242E+01 -0.61596854717E+00  0.44983661319E+01  0.81694928127E+01  0.51100000000E-03 0. -1.
        -11    1    3    3    0    0 -0.21755889821E+02 -0.12014135854E+02  0.27183288073E+02  0.36831906724E+02  0.51100000000E-03 0.  1.
        -12    1    3    3    0    0 -0.47663261491E+00 -0.10348976368E+01 -0.59173549443E-01  0.11409177346E+01  0.00000000000E+00 0.  1.
</event>
<event>
 7    1  0.3046295E-009  0.4614232E+02  0.7816164E-02  0.1320468E+00
        -11   -1    0    0    0    0  0.00000000000E+00  0.00000000000E+00  0.45593999997E+02  0.45594000000E+02  0.51100000000E-03 0.  1.
         11   -1    0    0    0    0 -0.00000000000E+00 -0.00000000000E+00 -0.45593999997E+02  0.45594000000E+02  0.51100000000E-03 0. -1.
    9900012    2    1    2    0    0 -0.43025180297E+02 -0.12739529653E+02 -0.39562323432E+01  0.46142317302E+02  0.99999958112E+01 0.  0.
         12    1    1    2    0    0  0.43025180297E+02  0.12739529653E+02  0.39562323432E+01  0.45045682698E+02  0.00000000000E+00 0. -1.
         11    1    3    3    0    0 -0.91054779612E+00  0.24242685841E+00  0.10742146580E+01  0.14289175845E+01  0.51100000000E-03 0. -1.
        -11    1    3    3    0    0 -0.38403700206E+02 -0.12720055055E+02 -0.59254252087E+01  0.40887096428E+02  0.51100000000E-03 0.  1.
        -12    1    3    3    0    0 -0.37109322947E+01 -0.26190145630E+00  0.89497820754E+00  0.38263032892E+01  0.00000000000E+00 0.  1.
</event>
<event>
 7    1  0.3046295E-009  0.4614232E+02  0.7816164E-02  0.1320468E+00
        -11   -1    0    0    0    0  0.00000000000E+00  0.00000000000E+00  0.45593999997E+02  0.45594000000E+02  0.51100000000E-03 0.  1.
         11   -1    0    0    0    0 -0.00000000000E+00 -0.00000000000E+00 -0.45593999997E+02  0.45594000000E+02  0.51100000000E-03 0. -1.
    9900012    2    1    2    0    0  0.26281209635E+02  0.33818015179E+02  0.13955412299E+02  0.46142315823E+02  0.99999823296E+01 0.  0.
         12    1    1    2    0    0 -0.26281209635E+02 -0.33818015179E+02 -0.13955412299E+02  0.45045684177E+02  0.00000000000E+00 0. -1.
         11    1    3    3    0    0  0.14752052868E+02  0.13748564263E+02  0.46191603566E+01  0.20687743371E+02  0.51100000000E-03 0. -1.
        -11    1    3    3    0    0  0.20532051902E+01  0.68701585444E+01  0.46408667196E+01  0.85412161985E+01  0.51100000000E-03 0.  1.
        -12    1    3    3    0    0  0.94759515771E+01  0.13199292371E+02  0.46953852231E+01  0.16913356254E+02  0.00000000000E+00 0.  1.
</event>
<event>
 7    1  0.3046295E-009  0.4614232E+02  0.7816164E-02  0.1320468E+00
        -11   -1    0    0    0    0  0.00000000000E+00  0.00000000000E+00  0.45593999997E+02  0.45594000000E+02  0.51100000000E-03 0. -1.
         11   -1    0    0    0    0 -0.00000000000E+00 -0.00000000000E+00 -0.45593999997E+02  0.45594000000E+02  0.51100000000E-03 0.  1.
    9900012    2    1    2    0    0 -0.47732602215E+01  0.43374053462E+01 -0.44581572195E+02  0.46142315660E+02  0.99999808439E+01 0.  0.
         12    1    1    2    0    0  0.47732602215E+01 -0.43374053462E+01  0.44581572195E+02  0.45045684340E+02  0.00000000000E+00 0. -1.
         11    1    3    3    0    0 -0.28870859612E+01 -0.88585427191E+00 -0.16201701024E+02  0.16480749967E+02  0.51100000000E-03 0. -1.
        -11    1    3    3    0    0  0.19253136038E+01  0.25900221171E+00 -0.34630100443E+01  0.39706867726E+01  0.51100000000E-03 0.  1.
        -12    1    3    3    0    0 -0.38114878641E+01  0.49642574064E+01 -0.24916861126E+02  0.25690878921E+02  0.00000000000E+00 0.  1.
</event>
<event>
 7    1  0.3046295E-009  0.4614232E+02  0.7816164E-02  0.1320468E+00
        -11   -1    0    0    0    0  0.00000000000E+00  0.00000000000E+00  0.45593999997E+02  0.45594000000E+02  0.51100000000E-03 0.  1.
         11   -1    0    0    0    0 -0.00000000000E+00 -0.00000000000E+00 -0.45593999997E+02  0.45594000000E+02  0.51100000000E-03 0. -1.
    9900012    2    1    2    0    0 -0.20965643088E+02  0.21295737500E+02  0.33705293886E+02  0.46142318057E+02  0.10000002700E+02 0.  0.
         12    1    1    2    0    0  0.20965643088E+02 -0.21295737500E+02 -0.33705293886E+02  0.45045681943E+02  0.00000000000E+00 0. -1.
         11    1    3    3    0    0 -0.61194825353E+01  0.29208616425E+01  0.44976181268E+01  0.81368340471E+01  0.51100000000E-03 0. -1.
        -11    1    3    3    0    0 -0.15115156991E+02  0.18587222536E+02  0.28946315186E+02  0.37574485699E+02  0.51100000000E-03 0.  1.
        -12    1    3    3    0    0  0.26899643801E+00 -0.21234667760E+00  0.26136057275E+00  0.43099831106E+00  0.00000000000E+00 0.  1.
</event>
<event>
 7    1  0.3046295E-009  0.4614232E+02  0.7816164E-02  0.1320468E+00
        -11   -1    0    0    0    0  0.00000000000E+00  0.00000000000E+00  0.45593999997E+02  0.45594000000E+02  0.51100000000E-03 0.  1.
         11   -1    0    0    0    0 -0.00000000000E+00 -0.00000000000E+00 -0.45593999997E+02  0.45594000000E+02  0.51100000000E-03 0. -1.
    9900012    2    1    2    0    0  0.18830958487E+02  0.24274089474E+02  0.32943542924E+02  0.46142318323E+02  0.10000005128E+02 0.  0.
         12    1    1    2    0    0 -0.18830958487E+02 -0.24274089474E+02 -0.32943542924E+02  0.45045681677E+02  0.00000000000E+00 0. -1.
         11    1    3    3    0    0  0.51513938132E+01  0.89017217588E+01  0.83827174831E+01  0.13268287800E+02  0.51100000000E-03 0.  1.
        -11    1    3    3    0    0  0.88823146671E+01  0.50252782539E+01  0.14042474378E+02  0.17359148086E+02  0.51100000000E-03 0. -1.
         12    1    3    3    0    0  0.47972500069E+01  0.10347089461E+02  0.10518351063E+02  0.15514882437E+02  0.00000000000E+00 0. -1.
</event>
<event>
 7    1  0.3572412E-009  0.4614232E+02  0.7816164E-02  0.1320468E+00
        -11   -1    0    0    0    0  0.00000000000E+00  0.00000000000E+00  0.45593999997E+02  0.45594000000E+02  0.51100000000E-03 0.  1.
         11   -1    0    0    0    0 -0.00000000000E+00 -0.00000000000E+00 -0.45593999997E+02  0.45594000000E+02  0.51100000000E-03 0. -1.
    9900012    2    1    2    0    0 -0.37927234752E+02 -0.63897280707E+01  0.23448023400E+02  0.46142316943E+02  0.99999925353E+01 0.  0.
         12    1    1    2    0    0  0.37927234752E+02  0.63897280707E+01 -0.23448023400E+02  0.45045683057E+02  0.00000000000E+00 0. -1.
         11    1    3    3    0    0 -0.17793411275E+01 -0.19373498495E+01  0.13944694294E+01  0.29772343774E+01  0.51100000000E-03 0. -1.
        -11    1    3    3    0    0 -0.34778372548E+02 -0.27779635714E+01  0.20190048986E+02  0.40309928764E+02  0.51100000000E-03 0.  1.
        -12    1    3    3    0    0 -0.13695210772E+01 -0.16744146498E+01  0.18635049844E+01  0.28551538009E+01  0.00000000000E+00 0.  1.
</event>
<event>
 7    1  0.3046295E-009  0.4614232E+02  0.7816164E-02  0.1320468E+00
        -11   -1    0    0    0    0  0.00000000000E+00  0.00000000000E+00  0.45593999997E+02  0.45594000000E+02  0.51100000000E-03 0.  1.
         11   -1    0    0    0    0 -0.00000000000E+00 -0.00000000000E+00 -0.45593999997E+02  0.45594000000E+02  0.51100000000E-03 0. -1.
    9900012    2    1    2    0    0  0.47304504018E+00 -0.43890115267E+01  0.44828855068E+02  0.46142318292E+02  0.10000004842E+02 0.  0.
         12    1    1    2    0    0 -0.47304504018E+00  0.43890115267E+01 -0.44828855068E+02  0.45045681708E+02  0.00000000000E+00 0. -1.
         11    1    3    3    0    0 -0.37228594337E+00 -0.48502443397E+01  0.29471561991E+02  0.29870326973E+02  0.51100000000E-03 0. -1.
        -11    1    3    3    0    0  0.17731640644E+01 -0.62966388236E+00  0.14460192593E+02  0.14582104014E+02  0.51100000000E-03 0.  1.
         12    1    3    3    0    0 -0.92783308085E+00  0.10908966953E+01  0.89710048423E+00  0.16898873053E+01  0.00000000000E+00 0. -1.
</event>
<event>
 7    1  0.3046295E-009  0.4614232E+02  0.7816164E-02  0.1320468E+00
        -11   -1    0    0    0    0  0.00000000000E+00  0.00000000000E+00  0.45593999997E+02  0.45594000000E+02  0.51100000000E-03 0.  1.
         11   -1    0    0    0    0 -0.00000000000E+00 -0.00000000000E+00 -0.45593999997E+02  0.45594000000E+02  0.51100000000E-03 0. -1.
    9900012    2    1    2    0    0 -0.70934989508E+01  0.19995916794E+02  0.39736118024E+02  0.46142317727E+02  0.99999996911E+01 0.  0.
         12    1    1    2    0    0  0.70934989508E+01 -0.19995916794E+02 -0.39736118024E+02  0.45045682273E+02  0.00000000000E+00 0. -1.
         11    1    3    3    0    0 -0.26817790466E+00  0.56333195596E+01  0.85145788097E+01  0.10212945766E+02  0.51100000000E-03 0. -1.
        -11    1    3    3    0    0 -0.44611127840E+01  0.17991634091E+01  0.63667823149E+01  0.79796261536E+01  0.51100000000E-03 0.  1.
        -12    1    3    3    0    0 -0.23642082622E+01  0.12563433825E+02  0.24854756900E+02  0.27949745808E+02  0.00000000000E+00 0.  1.
</event>
<event>
 7    1  0.3046295E-009  0.4614232E+02  0.7816164E-02  0.1320468E+00
        -11   -1    0    0    0    0  0.00000000000E+00  0.00000000000E+00  0.45593999997E+02  0.45594000000E+02  0.51100000000E-03 0. -1.
         11   -1    0    0    0    0 -0.00000000000E+00 -0.00000000000E+00 -0.45593999997E+02  0.45594000000E+02  0.51100000000E-03 0.  1.
    9900012    2    1    2    0    0 -0.30136504667E+01 -0.17628728479E+02 -0.41343191798E+02  0.46142315801E+02  0.99999821237E+01 0.  0.
         12    1    1    2    0    0  0.30136504667E+01  0.17628728479E+02  0.41343191798E+02  0.45045684199E+02  0.00000000000E+00 0. -1.
         11    1    3    3    0    0  0.28728161187E+00 -0.42053643006E+01 -0.21197597995E+02  0.21612630119E+02  0.51100000000E-03 0. -1.
        -11    1    3    3    0    0 -0.36441194940E+00 -0.57295050933E+01 -0.76559044423E+01  0.95693729039E+01  0.51100000000E-03 0.  1.
         12    1    3    3    0    0 -0.29365201291E+01 -0.76938590851E+01 -0.12489689360E+02  0.14960312778E+02  0.00000000000E+00 0. -1.
</event>
<event>
 7    1  0.3046295E-009  0.4614232E+02  0.7816164E-02  0.1320468E+00
        -11   -1    0    0    0    0  0.00000000000E+00  0.00000000000E+00  0.45593999997E+02  0.45594000000E+02  0.51100000000E-03 0.  1.
         11   -1    0    0    0    0 -0.00000000000E+00 -0.00000000000E+00 -0.45593999997E+02  0.45594000000E+02  0.51100000000E-03 0. -1.
    9900012    2    1    2    0    0 -0.39418152371E+02  0.14400302734E+02  0.16369298357E+02  0.46142318921E+02  0.10000010578E+02 0.  0.
         12    1    1    2    0    0  0.39418152371E+02 -0.14400302734E+02 -0.16369298357E+02  0.45045681079E+02  0.00000000000E+00 0. -1.
         11    1    3    3    0    0 -0.13182643127E+01 -0.29195577166E+00  0.14374458306E+01  0.19721332987E+01  0.51100000000E-03 0. -1.
        -11    1    3    3    0    0 -0.11829049396E+02  0.85356379381E+01  0.52742540042E+01  0.15511327480E+02  0.51100000000E-03 0.  1.
        -12    1    3    3    0    0 -0.26270838662E+02  0.61566205675E+01  0.96575985227E+01  0.28658858143E+02  0.00000000000E+00 0.  1.
</event>
<event>
 7    1  0.3046295E-009  0.4614232E+02  0.7816164E-02  0.1320468E+00
        -11   -1    0    0    0    0  0.00000000000E+00  0.00000000000E+00  0.45593999997E+02  0.45594000000E+02  0.51100000000E-03 0.  1.
         11   -1    0    0    0    0 -0.00000000000E+00 -0.00000000000E+00 -0.45593999997E+02  0.45594000000E+02  0.51100000000E-03 0. -1.
    9900012    2    1    2    0    0  0.40002533961E+02  0.20431940323E+02  0.33832949455E+01  0.46142316595E+02  0.99999893710E+01 0.  0.
         12    1    1    2    0    0 -0.40002533961E+02 -0.20431940323E+02 -0.33832949455E+01  0.45045683405E+02  0.00000000000E+00 0. -1.
         11    1    3    3    0    0  0.20807310707E+01  0.16934748537E+01 -0.18776468930E+01  0.32745773750E+01  0.51100000000E-03 0. -1.
        -11    1    3    3    0    0  0.24813984981E+02  0.14603105369E+02  0.31990259915E+01  0.28969264827E+02  0.51100000000E-03 0.  1.
        -12    1    3    3    0    0  0.13107817910E+02  0.41353601003E+01  0.20619158469E+01  0.13898474394E+02  0.00000000000E+00 0.  1.
</event>
<event>
 7    1  0.3046295E-009  0.4614232E+02  0.7816164E-02  0.1320468E+00
        -11   -1    0    0    0    0  0.00000000000E+00  0.00000000000E+00  0.45593999997E+02  0.45594000000E+02  0.51100000000E-03 0. -1.
         11   -1    0    0    0    0 -0.00000000000E+00 -0.00000000000E+00 -0.45593999997E+02  0.45594000000E+02  0.51100000000E-03 0.  1.
    9900012    2    1    2    0    0  0.95937350409E+00  0.37409968733E+02 -0.25073639990E+02  0.46142316739E+02  0.99999906772E+01 0.  0.
         12    1    1    2    0    0 -0.95937350409E+00 -0.37409968733E+02  0.25073639990E+02  0.45045683261E+02  0.00000000000E+00 0. -1.
         11    1    3    3    0    0  0.49835236324E+00  0.25420501961E+02 -0.22005406890E+02  0.33625707542E+02  0.51100000000E-03 0.  1.
        -11    1    3    3    0    0 -0.38763816423E+00  0.54186435398E+01 -0.20839734666E+01  0.58184969562E+01  0.51100000000E-03 0. -1.
         12    1    3    3    0    0  0.84865930508E+00  0.65708232320E+01 -0.98425963339E+00  0.66981122406E+01  0.00000000000E+00 0. -1.
</event>
<event>
 7    1  0.3046295E-009  0.4614232E+02  0.7816164E-02  0.1320468E+00
        -11   -1    0    0    0    0  0.00000000000E+00  0.00000000000E+00  0.45593999997E+02  0.45594000000E+02  0.51100000000E-03 0. -1.
         11   -1    0    0    0    0 -0.00000000000E+00 -0.00000000000E+00 -0.45593999997E+02  0.45594000000E+02  0.51100000000E-03 0.  1.
    9900012    2    1    2    0    0  0.35281481433E+02 -0.20529322764E+02 -0.19049342884E+02  0.46142317748E+02  0.99999998773E+01 0.  0.
         12    1    1    2    0    0 -0.35281481433E+02  0.20529322764E+02  0.19049342884E+02  0.45045682252E+02  0.00000000000E+00 0. -1.
         11    1    3    3    0    0  0.43825096791E+01 -0.51839949218E+01 -0.62689438253E+00  0.68171248532E+01  0.51100000000E-03 0. -1.
        -11    1    3    3    0    0  0.27219938162E+02 -0.12290439086E+02 -0.14837620364E+02  0.33348686702E+02  0.51100000000E-03 0.  1.
        -12    1    3    3    0    0  0.36790335924E+01 -0.30548887566E+01 -0.35848281375E+01  0.59765061922E+01  0.00000000000E+00 0.  1.
</event>
<event>
 7    1  0.3046295E-009  0.4614232E+02  0.7816164E-02  0.1320468E+00
        -11   -1    0    0    0    0  0.00000000000E+00  0.00000000000E+00  0.45593999997E+02  0.45594000000E+02  0.51100000000E-03 0.  1.
         11   -1    0    0    0    0 -0.00000000000E+00 -0.00000000000E+00 -0.45593999997E+02  0.45594000000E+02  0.51100000000E-03 0. -1.
    9900012    2    1    2    0    0 -0.13123398470E+02  0.12021880147E+02  0.41380721774E+02  0.46142319583E+02  0.10000016614E+02 0.  0.
         12    1    1    2    0    0  0.13123398470E+02 -0.12021880147E+02 -0.41380721774E+02  0.45045680417E+02  0.00000000000E+00 0. -1.
         11    1    3    3    0    0  0.76926115021E+00  0.12841641542E+01  0.94592432977E+01  0.95769579888E+01  0.51100000000E-03 0. -1.
        -11    1    3    3    0    0 -0.31590183503E+01  0.38229469897E+01  0.72207748005E+01  0.87597893584E+01  0.51100000000E-03 0.  1.
         12    1    3    3    0    0 -0.10733641270E+02  0.69147690036E+01  0.24700703676E+02  0.27805572236E+02  0.00000000000E+00 0. -1.
</event>
<event>
 7    1  0.3046295E-009  0.4614232E+02  0.7816164E-02  0.1320468E+00
        -11   -1    0    0    0    0  0.00000000000E+00  0.00000000000E+00  0.45593999997E+02  0.45594000000E+02  0.51100000000E-03 0. -1.
         11   -1    0    0    0    0 -0.00000000000E+00 -0.00000000000E+00 -0.45593999997E+02  0.45594000000E+02  0.51100000000E-03 0.  1.
    9900012    2    1    2    0    0  0.31641157151E+02  0.28534340325E+02 -0.14619905352E+02  0.46142322781E+02  0.10000045772E+02 0.  0.
         12    1    1    2    0    0 -0.31641157151E+02 -0.28534340325E+02  0.14619905352E+02  0.45045677219E+02  0.00000000000E+00 0. -1.
         11    1    3    3    0    0  0.71787401429E+01  0.12034702874E+02 -0.30173979385E+01  0.14334332000E+02  0.51100000000E-03 0. -1.
        -11    1    3    3    0    0  0.23125230602E+02  0.16226502213E+02 -0.11003581225E+02  0.30317560332E+02  0.51100000000E-03 0.  1.
        -12    1    3    3    0    0  0.13371864062E+01  0.27313523867E+00 -0.59892618881E+00  0.14904304489E+01  0.00000000000E+00 0.  1.
</event>
<event>
 7    1  0.3046295E-009  0.4614232E+02  0.7816164E-02  0.1320468E+00
        -11   -1    0    0    0    0  0.00000000000E+00  0.00000000000E+00  0.45593999997E+02  0.45594000000E+02  0.51100000000E-03 0. -1.
         11   -1    0    0    0    0 -0.00000000000E+00 -0.00000000000E+00 -0.45593999997E+02  0.45594000000E+02  0.51100000000E-03 0.  1.
    9900012    2    1    2    0    0 -0.31362193383E+02 -0.30341995067E+02 -0.11175391176E+02  0.46142320891E+02  0.10000028544E+02 0.  0.
         12    1    1    2    0    0  0.31362193383E+02  0.30341995067E+02  0.11175391176E+02  0.45045679109E+02  0.00000000000E+00 0. -1.
         11    1    3    3    0    0 -0.10040396611E+02 -0.92589199378E+01 -0.66772660498E+01  0.15202731487E+02  0.51100000000E-03 0.  1.
        -11    1    3    3    0    0 -0.30716241049E+00 -0.26107697006E+01 -0.50380592690E+00  0.26766187344E+01  0.51100000000E-03 0. -1.
        -12    1    3    3    0    0 -0.21014634362E+02 -0.18472305428E+02 -0.39943191988E+01  0.28262970670E+02  0.00000000000E+00 0.  1.
</event>
<event>
 7    1  0.3046295E-009  0.4614232E+02  0.7816164E-02  0.1320468E+00
        -11   -1    0    0    0    0  0.00000000000E+00  0.00000000000E+00  0.45593999997E+02  0.45594000000E+02  0.51100000000E-03 0. -1.
         11   -1    0    0    0    0 -0.00000000000E+00 -0.00000000000E+00 -0.45593999997E+02  0.45594000000E+02  0.51100000000E-03 0.  1.
    9900012    2    1    2    0    0 -0.41430867533E+01  0.10905118895E+02 -0.43508926841E+02  0.46142317623E+02  0.99999987429E+01 0.  0.
         12    1    1    2    0    0  0.41430867533E+01 -0.10905118895E+02  0.43508926841E+02  0.45045682377E+02  0.00000000000E+00 0. -1.
         11    1    3    3    0    0 -0.12665238580E+01  0.23472798858E+01 -0.34251986324E+01  0.43411739746E+01  0.51100000000E-03 0. -1.
        -11    1    3    3    0    0 -0.28673587269E+01  0.98927130478E+01 -0.37553420307E+02  0.38940299107E+02  0.51100000000E-03 0.  1.
        -12    1    3    3    0    0 -0.92041682890E-02 -0.13348740389E+01 -0.25303079011E+01  0.28608445415E+01  0.00000000000E+00 0.  1.
</event>
<event>
 7    1  0.3046295E-009  0.4614232E+02  0.7816164E-02  0.1320468E+00
        -11   -1    0    0    0    0  0.00000000000E+00  0.00000000000E+00  0.45593999997E+02  0.45594000000E+02  0.51100000000E-03 0.  1.
         11   -1    0    0    0    0 -0.00000000000E+00 -0.00000000000E+00 -0.45593999997E+02  0.45594000000E+02  0.51100000000E-03 0. -1.
    9900012    2    1    2    0    0  0.15444842835E+02  0.39493329622E+02 -0.15193655982E+02  0.46142318332E+02  0.10000005204E+02 0.  0.
         12    1    1    2    0    0 -0.15444842835E+02 -0.39493329622E+02  0.15193655982E+02  0.45045681668E+02  0.00000000000E+00 0. -1.
         11    1    3    3    0    0  0.33941658206E+01  0.16844861775E+02 -0.42623633896E+01  0.17704165379E+02  0.51100000000E-03 0. -1.
        -11    1    3    3    0    0  0.88683379546E+01  0.19307831462E+02 -0.69818700509E+01  0.22364844813E+02  0.51100000000E-03 0.  1.
         12    1    3    3    0    0  0.31823390602E+01  0.33406363852E+01 -0.39494225414E+01  0.60733081399E+01  0.00000000000E+00 0. -1.
</event>
<event>
 7    1  0.3046295E-009  0.4614232E+02  0.7816164E-02  0.1320468E+00
        -11   -1    0    0    0    0  0.00000000000E+00  0.00000000000E+00  0.45593999997E+02  0.45594000000E+02  0.51100000000E-03 0.  1.
         11   -1    0    0    0    0 -0.00000000000E+00 -0.00000000000E+00 -0.45593999997E+02  0.45594000000E+02  0.51100000000E-03 0. -1.
    9900012    2    1    2    0    0 -0.22742379063E+02  0.61113610110E+00  0.38878326789E+02  0.46142316670E+02  0.99999900505E+01 0.  0.
         12    1    1    2    0    0  0.22742379063E+02 -0.61113610110E+00 -0.38878326789E+02  0.45045683330E+02  0.00000000000E+00 0. -1.
         11    1    3    3    0    0 -0.78258229157E+01 -0.15489204928E+01  0.79197583057E+01  0.11241229065E+02  0.51100000000E-03 0. -1.
        -11    1    3    3    0    0 -0.12770388320E+02  0.15736383749E+01  0.29646129812E+02  0.32317985219E+02  0.51100000000E-03 0.  1.
        -12    1    3    3    0    0 -0.21461678273E+01  0.58641821899E+00  0.13124386716E+01  0.25831023861E+01  0.00000000000E+00 0.  1.
</event>
<event>
 7    1  0.3058797E-009  0.4614232E+02  0.7816164E-02  0.1320468E+00
        -11   -1    0    0    0    0  0.00000000000E+00  0.00000000000E+00  0.45593999997E+02  0.45594000000E+02  0.51100000000E-03 0. -1.
         11   -1    0    0    0    0 -0.00000000000E+00 -0.00000000000E+00 -0.45593999997E+02  0.45594000000E+02  0.51100000000E-03 0.  1.
    9900012    2    1    2    0    0 -0.27245353092E+02 -0.29883827849E+02 -0.19843413143E+02  0.46142317886E+02  0.10000001136E+02 0.  0.
         12    1    1    2    0    0  0.27245353092E+02  0.29883827849E+02  0.19843413143E+02  0.45045682114E+02  0.00000000000E+00 0. -1.
         11    1    3    3    0    0  0.44185640640E+00 -0.21444503037E+00  0.19305540614E+00  0.52772569190E+00  0.51100000000E-03 0. -1.
        -11    1    3    3    0    0 -0.21021979682E+02 -0.19439701680E+02 -0.15722983691E+02  0.32665545267E+02  0.51100000000E-03 0.  1.
        -12    1    3    3    0    0 -0.66652298160E+01 -0.10229681139E+02 -0.43134848577E+01  0.12949046927E+02  0.00000000000E+00 0.  1.
</event>
<event>
 7    1  0.3046295E-009  0.4614232E+02  0.7816164E-02  0.1320468E+00
        -11   -1    0    0    0    0  0.00000000000E+00  0.00000000000E+00  0.45593999997E+02  0.45594000000E+02  0.51100000000E-03 0.  1.
         11   -1    0    0    0    0 -0.00000000000E+00 -0.00000000000E+00 -0.45593999997E+02  0.45594000000E+02  0.51100000000E-03 0. -1.
    9900012    2    1    2    0    0  0.33486513419E+02 -0.47532142057E+00  0.30125418574E+02  0.46142319234E+02  0.10000013427E+02 0.  0.
         12    1    1    2    0    0 -0.33486513419E+02  0.47532142057E+00 -0.30125418574E+02  0.45045680766E+02  0.00000000000E+00 0. -1.
         11    1    3    3    0    0  0.17193821543E+02 -0.11680244410E+01  0.17395012113E+02  0.24486286509E+02  0.51100000000E-03 0. -1.
        -11    1    3    3    0    0  0.15411232409E+02 -0.32627814454E+00  0.13132150107E+02  0.20250084160E+02  0.51100000000E-03 0.  1.
         12    1    3    3    0    0  0.88145946773E+00  0.10189811649E+01 -0.40174364629E+00  0.14059485642E+01  0.00000000000E+00 0. -1.
</event>
<event>
 7    1  0.3046295E-009  0.4614232E+02  0.7816164E-02  0.1320468E+00
        -11   -1    0    0    0    0  0.00000000000E+00  0.00000000000E+00  0.45593999997E+02  0.45594000000E+02  0.51100000000E-03 0. -1.
         11   -1    0    0    0    0 -0.00000000000E+00 -0.00000000000E+00 -0.45593999997E+02  0.45594000000E+02  0.51100000000E-03 0.  1.
    9900012    2    1    2    0    0  0.10694969293E+02  0.43340732658E+02  0.60259480893E+01  0.46142317345E+02  0.99999962035E+01 0.  0.
         12    1    1    2    0    0 -0.10694969293E+02 -0.43340732658E+02 -0.60259480893E+01  0.45045682655E+02  0.00000000000E+00 0. -1.
         11    1    3    3    0    0  0.70081408435E+00  0.20984931809E+00  0.41057272738E+00  0.83889650298E+00  0.51100000000E-03 0. -1.
        -11    1    3    3    0    0  0.49510456302E+00  0.19064588703E+02  0.28533125692E+01  0.19283284571E+02  0.51100000000E-03 0.  1.
        -12    1    3    3    0    0  0.94990506455E+01  0.24066294637E+02  0.27620627927E+01  0.26020136271E+02  0.00000000000E+00 0.  1.
</event>
<event>
 7    1  0.3046295E-009  0.4614232E+02  0.7816164E-02  0.1320468E+00
        -11   -1    0    0    0    0  0.00000000000E+00  0.00000000000E+00  0.45593999997E+02  0.45594000000E+02  0.51100000000E-03 0.  1.
         11   -1    0    0    0    0 -0.00000000000E+00 -0.00000000000E+00 -0.45593999997E+02  0.45594000000E+02  0.51100000000E-03 0. -1.
    9900012    2    1    2    0    0  0.25495645514E+02 -0.18115292714E+02  0.32417922421E+02  0.46142318027E+02  0.10000002428E+02 0.  0.
         12    1    1    2    0    0 -0.25495645514E+02  0.18115292714E+02 -0.32417922421E+02  0.45045681973E+02  0.00000000000E+00 0. -1.
         11    1    3    3    0    0  0.14620142329E+01 -0.30221403363E+00  0.97282402327E+00  0.17819107107E+01  0.51100000000E-03 0. -1.
        -11    1    3    3    0    0  0.17135845277E+02 -0.98118336481E+01  0.25456056470E+02  0.32216767128E+02  0.51100000000E-03 0.  1.
        -12    1    3    3    0    0  0.68977860049E+01 -0.80012450324E+01  0.59890419269E+01  0.12143640189E+02  0.00000000000E+00 0.  1.
</event>
<event>
 7    1  0.3046295E-009  0.4614231E+02  0.7816164E-02  0.1320468E+00
        -11   -1    0    0    0    0  0.00000000000E+00  0.00000000000E+00  0.45593999997E+02  0.45594000000E+02  0.51100000000E-03 0.  1.
         11   -1    0    0    0    0 -0.00000000000E+00 -0.00000000000E+00 -0.45593999997E+02  0.45594000000E+02  0.51100000000E-03 0. -1.
    9900012    2    1    2    0    0 -0.38477536337E+02  0.12302601444E+02  0.19930856379E+02  0.46142313849E+02  0.99999643218E+01 0.  0.
         12    1    1    2    0    0  0.38477536337E+02 -0.12302601444E+02 -0.19930856379E+02  0.45045686151E+02  0.00000000000E+00 0. -1.
         11    1    3    3    0    0 -0.90328890948E+01 -0.19387741069E-01  0.72965879992E+01  0.11611789611E+02  0.51100000000E-03 0. -1.
        -11    1    3    3    0    0 -0.43423223229E+01  0.23788929085E+01  0.33539241821E+01  0.59802761062E+01  0.51100000000E-03 0.  1.
         12    1    3    3    0    0 -0.25102324919E+02  0.99430962768E+01  0.92803441980E+01  0.28550248131E+02  0.00000000000E+00 0. -1.
</event>
<event>
 7    1  0.3046295E-009  0.4614232E+02  0.7816164E-02  0.1320468E+00
        -11   -1    0    0    0    0  0.00000000000E+00  0.00000000000E+00  0.45593999997E+02  0.45594000000E+02  0.51100000000E-03 0.  1.
         11   -1    0    0    0    0 -0.00000000000E+00 -0.00000000000E+00 -0.45593999997E+02  0.45594000000E+02  0.51100000000E-03 0. -1.
    9900012    2    1    2    0    0  0.33634013669E+00 -0.34395212840E+02  0.29085559987E+02  0.46142316625E+02  0.99999896380E+01 0.  0.
         12    1    1    2    0    0 -0.33634013669E+00  0.34395212840E+02 -0.29085559987E+02  0.45045683375E+02  0.00000000000E+00 0. -1.
         11    1    3    3    0    0  0.30360817294E+01 -0.59390762268E+01  0.45715074210E+01  0.80863526424E+01  0.51100000000E-03 0. -1.
        -11    1    3    3    0    0 -0.27444427263E+01 -0.10394942874E+02  0.65888062595E+01  0.12609487358E+02  0.51100000000E-03 0.  1.
        -12    1    3    3    0    0  0.44701133618E-01 -0.18061193738E+02  0.17925246307E+02  0.25446476625E+02  0.00000000000E+00 0.  1.
</event>
<event>
 7    1  0.3046295E-009  0.4614232E+02  0.7816164E-02  0.1320468E+00
        -11   -1    0    0    0    0  0.00000000000E+00  0.00000000000E+00  0.45593999997E+02  0.45594000000E+02  0.51100000000E-03 0.  1.
         11   -1    0    0    0    0 -0.00000000000E+00 -0.00000000000E+00 -0.45593999997E+02  0.45594000000E+02  0.51100000000E-03 0. -1.
    9900012    2    1    2    0    0  0.58175992428E+01 -0.44654130009E+02  0.11303895088E+01  0.46142316875E+02  0.99999919163E+01 0.  0.
         12    1    1    2    0    0 -0.58175992428E+01  0.44654130009E+02 -0.11303895088E+01  0.45045683125E+02  0.00000000000E+00 0. -1.
         11    1    3    3    0    0  0.40428699927E+00 -0.12106519504E+02 -0.30755546441E+01  0.12497611736E+02  0.51100000000E-03 0. -1.
        -11    1    3    3    0    0  0.40280973405E+01 -0.21100877825E+02  0.51027322554E+01  0.22079639714E+02  0.51100000000E-03 0.  1.
        -12    1    3    3    0    0  0.13852149030E+01 -0.11446732680E+02 -0.89678810257E+00  0.11565065425E+02  0.00000000000E+00 0.  1.
</event>
<event>
 7    1  0.3046295E-009  0.4614231E+02  0.7816164E-02  0.1320468E+00
        -11   -1    0    0    0    0  0.00000000000E+00  0.00000000000E+00  0.45593999997E+02  0.45594000000E+02  0.51100000000E-03 0.  1.
         11   -1    0    0    0    0 -0.00000000000E+00 -0.00000000000E+00 -0.45593999997E+02  0.45594000000E+02  0.51100000000E-03 0. -1.
    9900012    2    1    2    0    0 -0.31470461593E+02 -0.26805624198E+01  0.32117571314E+02  0.46142314803E+02  0.99999730287E+01 0.  0.
         12    1    1    2    0    0  0.31470461593E+02  0.26805624198E+01 -0.32117571314E+02  0.45045685197E+02  0.00000000000E+00 0. -1.
         11    1    3    3    0    0 -0.12774490296E+02  0.76246106940E+00  0.16299706347E+02  0.20723160388E+02  0.51100000000E-03 0. -1.
        -11    1    3    3    0    0 -0.12642147884E+02 -0.28374573698E+00  0.76758599553E+01  0.14792675251E+02  0.51100000000E-03 0.  1.
        -12    1    3    3    0    0 -0.60538234125E+01 -0.31592777522E+01  0.81420050120E+01  0.10626479165E+02  0.00000000000E+00 0.  1.
</event>
<event>
 7    1  0.3046295E-009  0.4614232E+02  0.7816164E-02  0.1320468E+00
        -11   -1    0    0    0    0  0.00000000000E+00  0.00000000000E+00  0.45593999997E+02  0.45594000000E+02  0.51100000000E-03 0.  1.
         11   -1    0    0    0    0 -0.00000000000E+00 -0.00000000000E+00 -0.45593999997E+02  0.45594000000E+02  0.51100000000E-03 0. -1.
    9900012    2    1    2    0    0  0.45689229233E+01 -0.29531800471E-01  0.44813363687E+02  0.46142317701E+02  0.99999994542E+01 0.  0.
         12    1    1    2    0    0 -0.45689229233E+01  0.29531800471E-01 -0.44813363687E+02  0.45045682299E+02  0.00000000000E+00 0. -1.
         11    1    3    3    0    0 -0.36236405659E-01 -0.49477476178E-01  0.24964728857E+02  0.24964804190E+02  0.51100000000E-03 0. -1.
        -11    1    3    3    0    0  0.25153971088E+01  0.24855525921E+01  0.14527434953E+02  0.14951640742E+02  0.51100000000E-03 0.  1.
        -12    1    3    3    0    0  0.20897622201E+01 -0.24656069164E+01  0.53211998774E+01  0.62258727692E+01  0.00000000000E+00 0.  1.
</event>
<event>
 7    1  0.3046295E-009  0.4614232E+02  0.7816164E-02  0.1320468E+00
        -11   -1    0    0    0    0  0.00000000000E+00  0.00000000000E+00  0.45593999997E+02  0.45594000000E+02  0.51100000000E-03 0.  1.
         11   -1    0    0    0    0 -0.00000000000E+00 -0.00000000000E+00 -0.45593999997E+02  0.45594000000E+02  0.51100000000E-03 0. -1.
    9900012    2    1    2    0    0 -0.11933884683E+02  0.42202320169E+02  0.10279111721E+02  0.46142316866E+02  0.99999918378E+01 0.  0.
         12    1    1    2    0    0  0.11933884683E+02 -0.42202320169E+02 -0.10279111721E+02  0.45045683134E+02  0.00000000000E+00 0. -1.
         11    1    3    3    0    0 -0.33593440618E+01  0.16050205147E+02 -0.20064473480E+00  0.16399223651E+02  0.51100000000E-03 0. -1.
        -11    1    3    3    0    0 -0.45024408922E+01  0.76703828630E+01  0.38301002193E+01  0.96838223447E+01  0.51100000000E-03 0.  1.
         12    1    3    3    0    0 -0.40720997288E+01  0.18481732159E+02  0.66496562364E+01  0.20059270870E+02  0.00000000000E+00 0. -1.
</event>
<event>
 7    1  0.3046295E-009  0.4614231E+02  0.7816164E-02  0.1320468E+00
        -11   -1    0    0    0    0  0.00000000000E+00  0.00000000000E+00  0.45593999997E+02  0.45594000000E+02  0.51100000000E-03 0.  1.
         11   -1    0    0    0    0 -0.00000000000E+00 -0.00000000000E+00 -0.45593999997E+02  0.45594000000E+02  0.51100000000E-03 0. -1.
    9900012    2    1    2    0    0  0.17508197730E+02 -0.76846240392E+01  0.40786313349E+02  0.46142314402E+02  0.99999693680E+01 0.  0.
         12    1    1    2    0    0 -0.17508197730E+02  0.76846240392E+01 -0.40786313349E+02  0.45045685598E+02  0.00000000000E+00 0. -1.
         11    1    3    3    0    0  0.10503682167E+02 -0.18339937573E+01  0.15959713471E+02  0.19193835638E+02  0.51100000000E-03 0. -1.
        -11    1    3    3    0    0  0.51616269583E+01 -0.17248245340E+01  0.17629960680E+02  0.18450824545E+02  0.51100000000E-03 0.  1.
         12    1    3    3    0    0  0.18428886046E+01 -0.41258057479E+01  0.71966391979E+01  0.84976542189E+01  0.00000000000E+00 0. -1.
</event>
<event>
 7    1  0.3046295E-009  0.4614232E+02  0.7816164E-02  0.1320468E+00
        -11   -1    0    0    0    0  0.00000000000E+00  0.00000000000E+00  0.45593999997E+02  0.45594000000E+02  0.51100000000E-03 0.  1.
         11   -1    0    0    0    0 -0.00000000000E+00 -0.00000000000E+00 -0.45593999997E+02  0.45594000000E+02  0.51100000000E-03 0. -1.
    9900012    2    1    2    0    0  0.90431397557E+01 -0.11791970055E+02  0.42523930063E+02  0.46142316939E+02  0.99999925061E+01 0.  0.
         12    1    1    2    0    0 -0.90431397557E+01  0.11791970055E+02 -0.42523930063E+02  0.45045683061E+02  0.00000000000E+00 0. -1.
         11    1    3    3    0    0  0.85172680136E+00 -0.34604335179E+01  0.51429328969E+01  0.62569799200E+01  0.51100000000E-03 0. -1.
        -11    1    3    3    0    0  0.28058602452E+01 -0.63476331292E+01  0.11989546293E+02  0.13853321574E+02  0.51100000000E-03 0.  1.
        -12    1    3    3    0    0  0.53855527092E+01 -0.19839034079E+01  0.25391450873E+02  0.26032015446E+02  0.00000000000E+00 0.  1.
</event>
<event>
 7    1  0.3046295E-009  0.4614232E+02  0.7816164E-02  0.1320468E+00
        -11   -1    0    0    0    0  0.00000000000E+00  0.00000000000E+00  0.45593999997E+02  0.45594000000E+02  0.51100000000E-03 0. -1.
         11   -1    0    0    0    0 -0.00000000000E+00 -0.00000000000E+00 -0.45593999997E+02  0.45594000000E+02  0.51100000000E-03 0.  1.
    9900012    2    1    2    0    0 -0.84340452721E+01 -0.54585985498E+01 -0.43911089030E+02  0.46142321432E+02  0.10000033477E+02 0.  0.
         12    1    1    2    0    0  0.84340452721E+01  0.54585985498E+01  0.43911089030E+02  0.45045678568E+02  0.00000000000E+00 0. -1.
         11    1    3    3    0    0 -0.88432335438E+01 -0.54990249664E+01 -0.29188177593E+02  0.30990188230E+02  0.51100000000E-03 0.  1.
        -11    1    3    3    0    0  0.15464737007E+01  0.30884373475E+00 -0.31732811311E+01  0.35435404269E+01  0.51100000000E-03 0. -1.
        -12    1    3    3    0    0 -0.11372854290E+01 -0.26841731824E+00 -0.11549630307E+02  0.11608592775E+02  0.00000000000E+00 0.  1.
</event>
<event>
 7    1  0.3046295E-009  0.4614232E+02  0.7816164E-02  0.1320468E+00
        -11   -1    0    0    0    0  0.00000000000E+00  0.00000000000E+00  0.45593999997E+02  0.45594000000E+02  0.51100000000E-03 0.  1.
         11   -1    0    0    0    0 -0.00000000000E+00 -0.00000000000E+00 -0.45593999997E+02  0.45594000000E+02  0.51100000000E-03 0. -1.
    9900012    2    1    2    0    0 -0.11777200265E+02 -0.43448008130E+02  0.16375707115E+01  0.46142317694E+02  0.99999993905E+01 0.  0.
         12    1    1    2    0    0  0.11777200265E+02  0.43448008130E+02 -0.16375707115E+01  0.45045682306E+02  0.00000000000E+00 0. -1.
         11    1    3    3    0    0 -0.24316766451E+01 -0.13573322177E+02 -0.32000837990E+01  0.14155870259E+02  0.51100000000E-03 0. -1.
        -11    1    3    3    0    0 -0.58967293387E+01 -0.23980388237E+02  0.27612876289E+01  0.24848644763E+02  0.51100000000E-03 0.  1.
        -12    1    3    3    0    0 -0.34487942816E+01 -0.58942977157E+01  0.20763668816E+01  0.71378026721E+01  0.00000000000E+00 0.  1.
</event>
<event>
 7    1  0.3046295E-009  0.4614232E+02  0.7816164E-02  0.1320468E+00
        -11   -1    0    0    0    0  0.00000000000E+00  0.00000000000E+00  0.45593999997E+02  0.45594000000E+02  0.51100000000E-03 0. -1.
         11   -1    0    0    0    0 -0.00000000000E+00 -0.00000000000E+00 -0.45593999997E+02  0.45594000000E+02  0.51100000000E-03 0.  1.
    9900012    2    1    2    0    0  0.16596899092E+02 -0.36530670791E+02 -0.20473558085E+02  0.46142317093E+02  0.99999939112E+01 0.  0.
         12    1    1    2    0    0 -0.16596899092E+02  0.36530670791E+02  0.20473558085E+02  0.45045682907E+02  0.00000000000E+00 0. -1.
         11    1    3    3    0    0  0.90973482430E+01 -0.11818161964E+02 -0.48409240220E+01  0.15680090653E+02  0.51100000000E-03 0. -1.
        -11    1    3    3    0    0  0.36709065366E+00 -0.49440930265E+01 -0.16719987817E+01  0.52320542418E+01  0.51100000000E-03 0.  1.
        -12    1    3    3    0    0  0.71324601953E+01 -0.19768415800E+02 -0.13960635281E+02  0.25230172198E+02  0.00000000000E+00 0.  1.
</event>
<event>
 7    1  0.3046295E-009  0.4614232E+02  0.7816164E-02  0.1320468E+00
        -11   -1    0    0    0    0  0.00000000000E+00  0.00000000000E+00  0.45593999997E+02  0.45594000000E+02  0.51100000000E-03 0.  1.
         11   -1    0    0    0    0 -0.00000000000E+00 -0.00000000000E+00 -0.45593999997E+02  0.45594000000E+02  0.51100000000E-03 0. -1.
    9900012    2    1    2    0    0  0.27508490572E+02  0.39111846242E+01  0.35455593698E+02  0.46142317153E+02  0.99999944547E+01 0.  0.
         12    1    1    2    0    0 -0.27508490572E+02 -0.39111846242E+01 -0.35455593698E+02  0.45045682847E+02  0.00000000000E+00 0. -1.
         11    1    3    3    0    0  0.49276135450E+01  0.30124688939E+01  0.51687904820E+01  0.77506605779E+01  0.51100000000E-03 0. -1.
        -11    1    3    3    0    0  0.69873493012E+01 -0.39206566154E+00  0.48040377804E+01  0.84885537635E+01  0.51100000000E-03 0.  1.
        -12    1    3    3    0    0  0.15593527725E+02  0.12907813918E+01  0.25482765435E+02  0.29903102812E+02  0.00000000000E+00 0.  1.
</event>
<event>
 7    1  0.3046295E-009  0.4614232E+02  0.7816164E-02  0.1320468E+00
        -11   -1    0    0    0    0  0.00000000000E+00  0.00000000000E+00  0.45593999997E+02  0.45594000000E+02  0.51100000000E-03 0.  1.
         11   -1    0    0    0    0 -0.00000000000E+00 -0.00000000000E+00 -0.45593999997E+02  0.45594000000E+02  0.51100000000E-03 0. -1.
    9900012    2    1    2    0    0 -0.34728590252E+02 -0.18488166071E+02  0.21936869365E+02  0.46142317598E+02  0.99999985114E+01 0.  0.
         12    1    1    2    0    0  0.34728590252E+02  0.18488166071E+02 -0.21936869365E+02  0.45045682402E+02  0.00000000000E+00 0. -1.
         11    1    3    3    0    0 -0.12059964174E+02 -0.95292786215E+01  0.74505607329E+01  0.17081005311E+02  0.51100000000E-03 0. -1.
        -11    1    3    3    0    0 -0.22343522994E+02 -0.95197642463E+01  0.14687199349E+02  0.28382613623E+02  0.51100000000E-03 0.  1.
         12    1    3    3    0    0 -0.32510308362E+00  0.56087679704E+00 -0.20089071718E+00  0.67869866413E+00  0.00000000000E+00 0. -1.
</event>
<event>
 7    1  0.3046295E-009  0.4614232E+02  0.7816164E-02  0.1320468E+00
        -11   -1    0    0    0    0  0.00000000000E+00  0.00000000000E+00  0.45593999997E+02  0.45594000000E+02  0.51100000000E-03 0.  1.
         11   -1    0    0    0    0 -0.00000000000E+00 -0.00000000000E+00 -0.45593999997E+02  0.45594000000E+02  0.51100000000E-03 0. -1.
    9900012    2    1    2    0    0  0.71705883205E+01  0.42580164360E+02  0.12830632878E+02  0.46142324582E+02  0.10000062202E+02 0.  0.
         12    1    1    2    0    0 -0.71705883205E+01 -0.42580164360E+02 -0.12830632878E+02  0.45045675418E+02  0.00000000000E+00 0. -1.
         11    1    3    3    0    0  0.64670674459E+00  0.12709350286E+02  0.14236048841E+01  0.12805173385E+02  0.51100000000E-03 0. -1.
        -11    1    3    3    0    0  0.46548021849E+01  0.24213707830E+02  0.62001758468E+01  0.25424653607E+02  0.51100000000E-03 0.  1.
        -12    1    3    3    0    0  0.18690793910E+01  0.56571062441E+01  0.52068521471E+01  0.79124975898E+01  0.00000000000E+00 0.  1.
</event>
<event>
 7    1  0.3046295E-009  0.4614231E+02  0.7816164E-02  0.1320468E+00
        -11   -1    0    0    0    0  0.00000000000E+00  0.00000000000E+00  0.45593999997E+02  0.45594000000E+02  0.51100000000E-03 0.  1.
         11   -1    0    0    0    0 -0.00000000000E+00 -0.00000000000E+00 -0.45593999997E+02  0.45594000000E+02  0.51100000000E-03 0. -1.
    9900012    2    1    2    0    0 -0.29909525897E+02 -0.14903970253E+02  0.30206061327E+02  0.46142309756E+02  0.99999270007E+01 0.  0.
         12    1    1    2    0    0  0.29909525897E+02  0.14903970253E+02 -0.30206061327E+02  0.45045690244E+02  0.00000000000E+00 0. -1.
         11    1    3    3    0    0 -0.10684332850E+02 -0.83014323760E+01  0.16686098125E+02  0.21482425814E+02  0.51100000000E-03 0. -1.
        -11    1    3    3    0    0 -0.10682855075E+02 -0.19228158827E+01  0.77727653054E+01  0.13350524118E+02  0.51100000000E-03 0.  1.
         12    1    3    3    0    0 -0.85423379717E+01 -0.46797219949E+01  0.57471978972E+01  0.11309359825E+02  0.00000000000E+00 0. -1.
</event>
<event>
 7    1  0.3046295E-009  0.4614232E+02  0.7816164E-02  0.1320468E+00
        -11   -1    0    0    0    0  0.00000000000E+00  0.00000000000E+00  0.45593999997E+02  0.45594000000E+02  0.51100000000E-03 0.  1.
         11   -1    0    0    0    0 -0.00000000000E+00 -0.00000000000E+00 -0.45593999997E+02  0.45594000000E+02  0.51100000000E-03 0. -1.
    9900012    2    1    2    0    0  0.65850005892E+00  0.27929372240E+01  0.44954190673E+02  0.46142318967E+02  0.10000010993E+02 0.  0.
         12    1    1    2    0    0 -0.65850005892E+00 -0.27929372240E+01 -0.44954190673E+02  0.45045681033E+02  0.00000000000E+00 0. -1.
         11    1    3    3    0    0 -0.30031186814E+00  0.64197122061E-01  0.28676067473E+02  0.28677711806E+02  0.51100000000E-03 0. -1.
        -11    1    3    3    0    0  0.17674439024E+01  0.22456040525E+01  0.16273617016E+02  0.16522627108E+02  0.51100000000E-03 0.  1.
         12    1    3    3    0    0 -0.80863197530E+00  0.48313604937E+00  0.45061849242E-02  0.94198005254E+00  0.00000000000E+00 0. -1.
</event>
<event>
 7    1  0.3046295E-009  0.4614232E+02  0.7816164E-02  0.1320468E+00
        -11   -1    0    0    0    0  0.00000000000E+00  0.00000000000E+00  0.45593999997E+02  0.45594000000E+02  0.51100000000E-03 0. -1.
         11   -1    0    0    0    0 -0.00000000000E+00 -0.00000000000E+00 -0.45593999997E+02  0.45594000000E+02  0.51100000000E-03 0.  1.
    9900012    2    1    2    0    0  0.41507155059E+02 -0.17174808150E+02 -0.33608909668E+01  0.46142317141E+02  0.99999943479E+01 0.  0.
         12    1    1    2    0    0 -0.41507155059E+02  0.17174808150E+02  0.33608909668E+01  0.45045682859E+02  0.00000000000E+00 0. -1.
         11    1    3    3    0    0  0.12246183148E+02 -0.42640055061E+01 -0.20255059878E+00  0.12968877039E+02  0.51100000000E-03 0. -1.
        -11    1    3    3    0    0  0.87142314973E+01 -0.50506489960E+00  0.10974636568E+01  0.87975762503E+01  0.51100000000E-03 0.  1.
         12    1    3    3    0    0  0.20546740414E+02 -0.12405737744E+02 -0.42558040248E+01  0.24375863852E+02  0.00000000000E+00 0. -1.
</event>
<event>
 7    1  0.3408755E-009  0.4614232E+02  0.7816164E-02  0.1320468E+00
        -11   -1    0    0    0    0  0.00000000000E+00  0.00000000000E+00  0.45593999997E+02  0.45594000000E+02  0.51100000000E-03 0.  1.
         11   -1    0    0    0    0 -0.00000000000E+00 -0.00000000000E+00 -0.45593999997E+02  0.45594000000E+02  0.51100000000E-03 0. -1.
    9900012    2    1    2    0    0  0.38287212671E+02  0.20222979384E+02  0.12419096272E+02  0.46142317615E+02  0.99999986674E+01 0.  0.
         12    1    1    2    0    0 -0.38287212671E+02 -0.20222979384E+02 -0.12419096272E+02  0.45045682385E+02  0.00000000000E+00 0. -1.
         11    1    3    3    0    0  0.37761813590E+01  0.21369725081E+00  0.20261007094E+01  0.42907221440E+01  0.51100000000E-03 0. -1.
        -11    1    3    3    0    0  0.10460260042E+02  0.82452218104E+01  0.64164582988E+01  0.14784169243E+02  0.51100000000E-03 0.  1.
        -12    1    3    3    0    0  0.24050771271E+02  0.11764060323E+02  0.39765372633E+01  0.27067426228E+02  0.00000000000E+00 0.  1.
</event>
<event>
 7    1  0.3046295E-009  0.4614232E+02  0.7816164E-02  0.1320468E+00
        -11   -1    0    0    0    0  0.00000000000E+00  0.00000000000E+00  0.45593999997E+02  0.45594000000E+02  0.51100000000E-03 0.  1.
         11   -1    0    0    0    0 -0.00000000000E+00 -0.00000000000E+00 -0.45593999997E+02  0.45594000000E+02  0.51100000000E-03 0. -1.
    9900012    2    1    2    0    0 -0.33677774257E+02  0.40345256962E+01  0.29641924216E+02  0.46142317102E+02  0.99999939898E+01 0.  0.
         12    1    1    2    0    0  0.33677774257E+02 -0.40345256962E+01 -0.29641924216E+02  0.45045682898E+02  0.00000000000E+00 0. -1.
         11    1    3    3    0    0 -0.16463672991E+01  0.48570875600E+00 -0.30962582002E+00  0.17442209404E+01  0.51100000000E-03 0. -1.
        -11    1    3    3    0    0 -0.25483210943E+02  0.50885907859E+01  0.22671107337E+02  0.34485749293E+02  0.51100000000E-03 0.  1.
        -12    1    3    3    0    0 -0.65481960145E+01 -0.15397738457E+01  0.72804426994E+01  0.99123468684E+01  0.00000000000E+00 0.  1.
</event>
<event>
 7    1  0.3046295E-009  0.4614232E+02  0.7816164E-02  0.1320468E+00
        -11   -1    0    0    0    0  0.00000000000E+00  0.00000000000E+00  0.45593999997E+02  0.45594000000E+02  0.51100000000E-03 0. -1.
         11   -1    0    0    0    0 -0.00000000000E+00 -0.00000000000E+00 -0.45593999997E+02  0.45594000000E+02  0.51100000000E-03 0.  1.
    9900012    2    1    2    0    0 -0.19700942162E+02  0.40371943061E+02  0.33305432072E+01  0.46142318447E+02  0.10000006251E+02 0.  0.
         12    1    1    2    0    0  0.19700942162E+02 -0.40371943061E+02 -0.33305432072E+01  0.45045681553E+02  0.00000000000E+00 0. -1.
         11    1    3    3    0    0 -0.27505499755E+01  0.92758710145E+01  0.29365107593E+01  0.10110905199E+02  0.51100000000E-03 0. -1.
        -11    1    3    3    0    0 -0.16285235555E+02  0.26274892350E+02 -0.11253343117E+01  0.30932915198E+02  0.51100000000E-03 0.  1.
        -12    1    3    3    0    0 -0.66515663080E+00  0.48211796966E+01  0.15193667596E+01  0.50984980494E+01  0.00000000000E+00 0.  1.
</event>
<event>
 7    1  0.3046295E-009  0.4614232E+02  0.7816164E-02  0.1320468E+00
        -11   -1    0    0    0    0  0.00000000000E+00  0.00000000000E+00  0.45593999997E+02  0.45594000000E+02  0.51100000000E-03 0.  1.
         11   -1    0    0    0    0 -0.00000000000E+00 -0.00000000000E+00 -0.45593999997E+02  0.45594000000E+02  0.51100000000E-03 0. -1.
    9900012    2    1    2    0    0 -0.32015798816E+02  0.26898750868E+02  0.16749902865E+02  0.46142318541E+02  0.10000007112E+02 0.  0.
         12    1    1    2    0    0  0.32015798816E+02 -0.26898750868E+02 -0.16749902865E+02  0.45045681459E+02  0.00000000000E+00 0. -1.
         11    1    3    3    0    0 -0.38852771395E+01  0.10389214056E+01  0.39941402296E+01  0.56681471905E+01  0.51100000000E-03 0. -1.
        -11    1    3    3    0    0 -0.10178603389E+02  0.10967479865E+02  0.65776838260E+01  0.16344892362E+02  0.51100000000E-03 0.  1.
         12    1    3    3    0    0 -0.17951918288E+02  0.14892349598E+02  0.61780788092E+01  0.24129278989E+02  0.00000000000E+00 0. -1.
</event>
<event>
 7    1  0.3046295E-009  0.4614232E+02  0.7816164E-02  0.1320468E+00
        -11   -1    0    0    0    0  0.00000000000E+00  0.00000000000E+00  0.45593999997E+02  0.45594000000E+02  0.51100000000E-03 0. -1.
         11   -1    0    0    0    0 -0.00000000000E+00 -0.00000000000E+00 -0.45593999997E+02  0.45594000000E+02  0.51100000000E-03 0.  1.
    9900012    2    1    2    0    0  0.29379762167E+01  0.56468240685E+01 -0.44593666946E+02  0.46142318098E+02  0.10000003069E+02 0.  0.
         12    1    1    2    0    0 -0.29379762167E+01 -0.56468240685E+01  0.44593666946E+02  0.45045681902E+02  0.00000000000E+00 0. -1.
         11    1    3    3    0    0  0.11909452764E+01  0.45147430867E+01 -0.76935069333E+01  0.89995169306E+01  0.51100000000E-03 0. -1.
        -11    1    3    3    0    0 -0.62253061359E+00 -0.38347935957E+00 -0.19748498427E+02  0.19762029025E+02  0.51100000000E-03 0.  1.
        -12    1    3    3    0    0  0.23695615540E+01  0.15155603413E+01 -0.17151661586E+02  0.17380772142E+02  0.00000000000E+00 0.  1.
</event>
<event>
 7    1  0.3046295E-009  0.4614232E+02  0.7816164E-02  0.1320468E+00
        -11   -1    0    0    0    0  0.00000000000E+00  0.00000000000E+00  0.45593999997E+02  0.45594000000E+02  0.51100000000E-03 0. -1.
         11   -1    0    0    0    0 -0.00000000000E+00 -0.00000000000E+00 -0.45593999997E+02  0.45594000000E+02  0.51100000000E-03 0.  1.
    9900012    2    1    2    0    0 -0.20385721993E+02  0.40167897667E+02 -0.27569601165E+00  0.46142315718E+02  0.99999813664E+01 0.  0.
         12    1    1    2    0    0  0.20385721993E+02 -0.40167897667E+02  0.27569601165E+00  0.45045684282E+02  0.00000000000E+00 0. -1.
         11    1    3    3    0    0 -0.93911132335E+01  0.25045144275E+02  0.11044537496E+01  0.26770731740E+02  0.51100000000E-03 0. -1.
        -11    1    3    3    0    0 -0.71542987239E+01  0.57494941805E+01 -0.10324384132E+01  0.92361573666E+01  0.51100000000E-03 0.  1.
        -12    1    3    3    0    0 -0.38403100352E+01  0.93732592113E+01 -0.34771134802E+00  0.10135426611E+02  0.00000000000E+00 0.  1.
</event>
<event>
 7    1  0.3046295E-009  0.4614232E+02  0.7816164E-02  0.1320468E+00
        -11   -1    0    0    0    0  0.00000000000E+00  0.00000000000E+00  0.45593999997E+02  0.45594000000E+02  0.51100000000E-03 0. -1.
         11   -1    0    0    0    0 -0.00000000000E+00 -0.00000000000E+00 -0.45593999997E+02  0.45594000000E+02  0.51100000000E-03 0.  1.
    9900012    2    1    2    0    0  0.41826878322E+02  0.16721997957E+02 -0.26782518108E-01  0.46142315599E+02  0.99999802833E+01 0.  0.
         12    1    1    2    0    0 -0.41826878322E+02 -0.16721997957E+02  0.26782518108E-01  0.45045684401E+02  0.00000000000E+00 0. -1.
         11    1    3    3    0    0  0.28478022952E+01 -0.10729138796E+01  0.13390144457E+00  0.30461536343E+01  0.51100000000E-03 0. -1.
        -11    1    3    3    0    0  0.22501395773E+02  0.83316593679E+01 -0.15449061497E+01  0.24044044893E+02  0.51100000000E-03 0.  1.
         12    1    3    3    0    0  0.16477680254E+02  0.94632524683E+01  0.13842221870E+01  0.19052117071E+02  0.00000000000E+00 0. -1.
</event>
<event>
 7    1  0.3046295E-009  0.4614232E+02  0.7816164E-02  0.1320468E+00
        -11   -1    0    0    0    0  0.00000000000E+00  0.00000000000E+00  0.45593999997E+02  0.45594000000E+02  0.51100000000E-03 0. -1.
         11   -1    0    0    0    0 -0.00000000000E+00 -0.00000000000E+00 -0.45593999997E+02  0.45594000000E+02  0.51100000000E-03 0.  1.
    9900012    2    1    2    0    0  0.32292564987E+02  0.29952125557E+02  0.94431993714E+01  0.46142316598E+02  0.99999893896E+01 0.  0.
         12    1    1    2    0    0 -0.32292564987E+02 -0.29952125557E+02 -0.94431993714E+01  0.45045683402E+02  0.00000000000E+00 0. -1.
         11    1    3    3    0    0  0.40333089752E+01  0.76813574484E+01  0.14393621567E+00  0.86770704408E+01  0.51100000000E-03 0. -1.
        -11    1    3    3    0    0  0.11293264322E+02  0.11425149513E+02  0.28057817918E+01  0.16307797895E+02  0.51100000000E-03 0.  1.
         12    1    3    3    0    0  0.16965991690E+02  0.10845618595E+02  0.64934813639E+01  0.21157448262E+02  0.00000000000E+00 0. -1.
</event>
<event>
 7    1  0.3046295E-009  0.4614232E+02  0.7816164E-02  0.1320468E+00
        -11   -1    0    0    0    0  0.00000000000E+00  0.00000000000E+00  0.45593999997E+02  0.45594000000E+02  0.51100000000E-03 0.  1.
         11   -1    0    0    0    0 -0.00000000000E+00 -0.00000000000E+00 -0.45593999997E+02  0.45594000000E+02  0.51100000000E-03 0. -1.
    9900012    2    1    2    0    0  0.21820104979E+02  0.20702573818E+02  0.33532071348E+02  0.46142319265E+02  0.10000013711E+02 0.  0.
         12    1    1    2    0    0 -0.21820104979E+02 -0.20702573818E+02 -0.33532071348E+02  0.45045680735E+02  0.00000000000E+00 0. -1.
         11    1    3    3    0    0  0.73806579981E+01  0.60977416047E+01  0.14941837652E+02  0.17745846777E+02  0.51100000000E-03 0. -1.
        -11    1    3    3    0    0  0.43631186864E+01  0.85531404794E+01  0.69414184785E+01  0.11848050789E+02  0.51100000000E-03 0.  1.
        -12    1    3    3    0    0  0.10076328295E+02  0.60516917342E+01  0.11648815218E+02  0.16548421699E+02  0.00000000000E+00 0.  1.
</event>
<event>
 7    1  0.3046295E-009  0.4614232E+02  0.7816164E-02  0.1320468E+00
        -11   -1    0    0    0    0  0.00000000000E+00  0.00000000000E+00  0.45593999997E+02  0.45594000000E+02  0.51100000000E-03 0. -1.
         11   -1    0    0    0    0 -0.00000000000E+00 -0.00000000000E+00 -0.45593999997E+02  0.45594000000E+02  0.51100000000E-03 0.  1.
    9900012    2    1    2    0    0 -0.11687153245E+02  0.42804001630E+02  0.77679543713E+01  0.46142320722E+02  0.10000027000E+02 0.  0.
         12    1    1    2    0    0  0.11687153245E+02 -0.42804001630E+02 -0.77679543713E+01  0.45045679278E+02  0.00000000000E+00 0. -1.
         11    1    3    3    0    0 -0.54854327562E+00  0.93033959094E+01 -0.11025449574E+01  0.93845447848E+01  0.51100000000E-03 0. -1.
        -11    1    3    3    0    0 -0.73657814843E+01  0.17345064025E+02  0.68240805285E+01  0.20041807759E+02  0.51100000000E-03 0.  1.
        -12    1    3    3    0    0 -0.37728284852E+01  0.16155541695E+02  0.20464188001E+01  0.16715968179E+02  0.00000000000E+00 0.  1.
</event>
<event>
 7    1  0.3046295E-009  0.4614232E+02  0.7816164E-02  0.1320468E+00
        -11   -1    0    0    0    0  0.00000000000E+00  0.00000000000E+00  0.45593999997E+02  0.45594000000E+02  0.51100000000E-03 0.  1.
         11   -1    0    0    0    0 -0.00000000000E+00 -0.00000000000E+00 -0.45593999997E+02  0.45594000000E+02  0.51100000000E-03 0. -1.
    9900012    2    1    2    0    0  0.26215248710E+02 -0.13636954844E+02  0.33998644089E+02  0.46142316497E+02  0.99999884746E+01 0.  0.
         12    1    1    2    0    0 -0.26215248710E+02  0.13636954844E+02 -0.33998644089E+02  0.45045683503E+02  0.00000000000E+00 0. -1.
         11    1    3    3    0    0  0.34160585513E+01 -0.59127376646E+01  0.63916695833E+01  0.93532541417E+01  0.51100000000E-03 0. -1.
        -11    1    3    3    0    0  0.11517000662E+02 -0.37049485691E+01  0.11286048305E+02  0.16545175574E+02  0.51100000000E-03 0.  1.
         12    1    3    3    0    0  0.11282189496E+02 -0.40192686108E+01  0.16320926200E+02  0.20243886782E+02  0.00000000000E+00 0. -1.
</event>
<event>
 7    1  0.3046295E-009  0.4614232E+02  0.7816164E-02  0.1320468E+00
        -11   -1    0    0    0    0  0.00000000000E+00  0.00000000000E+00  0.45593999997E+02  0.45594000000E+02  0.51100000000E-03 0.  1.
         11   -1    0    0    0    0 -0.00000000000E+00 -0.00000000000E+00 -0.45593999997E+02  0.45594000000E+02  0.51100000000E-03 0. -1.
    9900012    2    1    2    0    0  0.77910314827E+01  0.40691835025E+02  0.17680159935E+02  0.46142315805E+02  0.99999821661E+01 0.  0.
         12    1    1    2    0    0 -0.77910314827E+01 -0.40691835025E+02 -0.17680159935E+02  0.45045684195E+02  0.00000000000E+00 0. -1.
         11    1    3    3    0    0  0.39205946729E+01  0.25575816883E+02  0.12973722819E+02  0.28944964257E+02  0.51100000000E-03 0. -1.
        -11    1    3    3    0    0 -0.12057543421E+01  0.58727630534E+01  0.17403514794E+01  0.62427568388E+01  0.51100000000E-03 0.  1.
         12    1    3    3    0    0  0.50761911519E+01  0.92432550885E+01  0.29660856362E+01  0.10954594709E+02  0.00000000000E+00 0. -1.
</event>
<event>
 7    1  0.3046295E-009  0.4614232E+02  0.7816164E-02  0.1320468E+00
        -11   -1    0    0    0    0  0.00000000000E+00  0.00000000000E+00  0.45593999997E+02  0.45594000000E+02  0.51100000000E-03 0. -1.
         11   -1    0    0    0    0 -0.00000000000E+00 -0.00000000000E+00 -0.45593999997E+02  0.45594000000E+02  0.51100000000E-03 0.  1.
    9900012    2    1    2    0    0  0.26256511134E+02 -0.22961859508E+02 -0.28503720548E+02  0.46142318142E+02  0.10000003473E+02 0.  0.
         12    1    1    2    0    0 -0.26256511134E+02  0.22961859508E+02  0.28503720548E+02  0.45045681858E+02  0.00000000000E+00 0. -1.
         11    1    3    3    0    0  0.19264049413E+02 -0.11900903954E+02 -0.20040909959E+02  0.30238604250E+02  0.51100000000E-03 0. -1.
        -11    1    3    3    0    0  0.62223773950E+01 -0.71535963948E+01 -0.58528675856E+01  0.11142171290E+02  0.51100000000E-03 0.  1.
         12    1    3    3    0    0  0.77008432539E+00 -0.39073591598E+01 -0.26099430029E+01  0.47615426020E+01  0.00000000000E+00 0. -1.
</event>
<event>
 7    1  0.3046295E-009  0.4614232E+02  0.7816164E-02  0.1320468E+00
        -11   -1    0    0    0    0  0.00000000000E+00  0.00000000000E+00  0.45593999997E+02  0.45594000000E+02  0.51100000000E-03 0.  1.
         11   -1    0    0    0    0 -0.00000000000E+00 -0.00000000000E+00 -0.45593999997E+02  0.45594000000E+02  0.51100000000E-03 0. -1.
    9900012    2    1    2    0    0 -0.38010891248E+02  0.99237973985E+01  0.22040960279E+02  0.46142317207E+02  0.99999949475E+01 0.  0.
         12    1    1    2    0    0  0.38010891248E+02 -0.99237973985E+01 -0.22040960279E+02  0.45045682793E+02  0.00000000000E+00 0. -1.
         11    1    3    3    0    0 -0.11547778470E+02  0.51987483749E+01  0.10154620700E+02  0.16232513486E+02  0.51100000000E-03 0. -1.
        -11    1    3    3    0    0 -0.14787462351E+02  0.57116329693E+00  0.84871334466E+01  0.17059504820E+02  0.51100000000E-03 0.  1.
        -12    1    3    3    0    0 -0.11675650427E+02  0.41538857266E+01  0.33992061327E+01  0.12850298901E+02  0.00000000000E+00 0.  1.
</event>
<event>
 7    1  0.3046295E-009  0.4614232E+02  0.7816164E-02  0.1320468E+00
        -11   -1    0    0    0    0  0.00000000000E+00  0.00000000000E+00  0.45593999997E+02  0.45594000000E+02  0.51100000000E-03 0. -1.
         11   -1    0    0    0    0 -0.00000000000E+00 -0.00000000000E+00 -0.45593999997E+02  0.45594000000E+02  0.51100000000E-03 0.  1.
    9900012    2    1    2    0    0  0.22924224864E+02  0.38690212131E+02  0.25808601600E+01  0.46142318303E+02  0.10000004944E+02 0.  0.
         12    1    1    2    0    0 -0.22924224864E+02 -0.38690212131E+02 -0.25808601600E+01  0.45045681697E+02  0.00000000000E+00 0. -1.
         11    1    3    3    0    0  0.89959285691E+01  0.14410085834E+02  0.39900927454E+00  0.16992248622E+02  0.51100000000E-03 0. -1.
        -11    1    3    3    0    0  0.10868433499E+02  0.23086392203E+02  0.31875606323E+01  0.25715071354E+02  0.51100000000E-03 0.  1.
         12    1    3    3    0    0  0.30598627958E+01  0.11937340935E+01 -0.10057097468E+01  0.34349983275E+01  0.00000000000E+00 0. -1.
</event>
<event>
 7    1  0.3046295E-009  0.4614232E+02  0.7816164E-02  0.1320468E+00
        -11   -1    0    0    0    0  0.00000000000E+00  0.00000000000E+00  0.45593999997E+02  0.45594000000E+02  0.51100000000E-03 0. -1.
         11   -1    0    0    0    0 -0.00000000000E+00 -0.00000000000E+00 -0.45593999997E+02  0.45594000000E+02  0.51100000000E-03 0.  1.
    9900012    2    1    2    0    0  0.38297649754E+02  0.23637620988E+02 -0.19147694651E+01  0.46142318245E+02  0.10000004417E+02 0.  0.
         12    1    1    2    0    0 -0.38297649754E+02 -0.23637620988E+02  0.19147694651E+01  0.45045681755E+02  0.00000000000E+00 0. -1.
         11    1    3    3    0    0  0.10630694926E+02  0.86233501888E+01 -0.58523519083E+00  0.13700961411E+02  0.51100000000E-03 0. -1.
        -11    1    3    3    0    0  0.90611672528E+01  0.83061007401E+01 -0.28055397126E+01  0.12608216164E+02  0.51100000000E-03 0.  1.
        -12    1    3    3    0    0  0.18605787575E+02  0.67081700586E+01  0.14760054384E+01  0.19833140671E+02  0.00000000000E+00 0.  1.
</event>
<event>
 7    1  0.3046295E-009  0.4614232E+02  0.7816164E-02  0.1320468E+00
        -11   -1    0    0    0    0  0.00000000000E+00  0.00000000000E+00  0.45593999997E+02  0.45594000000E+02  0.51100000000E-03 0.  1.
         11   -1    0    0    0    0 -0.00000000000E+00 -0.00000000000E+00 -0.45593999997E+02  0.45594000000E+02  0.51100000000E-03 0. -1.
    9900012    2    1    2    0    0  0.17174455487E+02 -0.10291863960E+02  0.40351320653E+02  0.46142318037E+02  0.10000002517E+02 0.  0.
         12    1    1    2    0    0 -0.17174455487E+02  0.10291863960E+02 -0.40351320653E+02  0.45045681963E+02  0.00000000000E+00 0. -1.
         11    1    3    3    0    0  0.10392200688E+01  0.16587524195E+00  0.33519254793E-02  0.10523803703E+01  0.51100000000E-03 0. -1.
        -11    1    3    3    0    0  0.29071598322E+00 -0.20655110122E+01  0.58508233484E+01  0.62115203968E+01  0.51100000000E-03 0.  1.
        -12    1    3    3    0    0  0.15844519435E+02 -0.83922281900E+01  0.34497145379E+02  0.38878417270E+02  0.00000000000E+00 0.  1.
</event>
<event>
 7    1  0.3046295E-009  0.4614232E+02  0.7816164E-02  0.1320468E+00
        -11   -1    0    0    0    0  0.00000000000E+00  0.00000000000E+00  0.45593999997E+02  0.45594000000E+02  0.51100000000E-03 0.  1.
         11   -1    0    0    0    0 -0.00000000000E+00 -0.00000000000E+00 -0.45593999997E+02  0.45594000000E+02  0.51100000000E-03 0. -1.
    9900012    2    1    2    0    0 -0.24560273805E+02  0.37491608638E+02  0.45039630727E+01  0.46142318176E+02  0.10000003783E+02 0.  0.
         12    1    1    2    0    0  0.24560273805E+02 -0.37491608638E+02 -0.45039630727E+01  0.45045681824E+02  0.00000000000E+00 0. -1.
         11    1    3    3    0    0  0.89063522456E-01  0.29349775394E+01  0.10782294458E+01  0.31280352406E+01  0.51100000000E-03 0. -1.
        -11    1    3    3    0    0 -0.83617760713E+00  0.35464107737E+01 -0.65943675703E+00  0.37028474805E+01  0.51100000000E-03 0.  1.
         12    1    3    3    0    0 -0.23813159721E+02  0.31010220325E+02  0.40851703839E+01  0.39311435455E+02  0.00000000000E+00 0. -1.
</event>
<event>
 7    1  0.3046295E-009  0.4614232E+02  0.7816164E-02  0.1320468E+00
        -11   -1    0    0    0    0  0.00000000000E+00  0.00000000000E+00  0.45593999997E+02  0.45594000000E+02  0.51100000000E-03 0.  1.
         11   -1    0    0    0    0 -0.00000000000E+00 -0.00000000000E+00 -0.45593999997E+02  0.45594000000E+02  0.51100000000E-03 0. -1.
    9900012    2    1    2    0    0  0.35190611069E+02  0.97584918437E+01  0.26372451820E+02  0.46142317793E+02  0.10000000292E+02 0.  0.
         12    1    1    2    0    0 -0.35190611069E+02 -0.97584918437E+01 -0.26372451820E+02  0.45045682207E+02  0.00000000000E+00 0. -1.
         11    1    3    3    0    0  0.49675256709E+01  0.19147819593E+01  0.70545736706E+01  0.88379698561E+01  0.51100000000E-03 0. -1.
        -11    1    3    3    0    0  0.27912205579E+02  0.89666673925E+01  0.18162619933E+02  0.34487289072E+02  0.51100000000E-03 0.  1.
        -12    1    3    3    0    0  0.23108798192E+01 -0.11229575081E+01  0.11552582156E+01  0.28170588649E+01  0.00000000000E+00 0.  1.
</event>
<event>
 7    1  0.3046295E-009  0.4614232E+02  0.7816164E-02  0.1320468E+00
        -11   -1    0    0    0    0  0.00000000000E+00  0.00000000000E+00  0.45593999997E+02  0.45594000000E+02  0.51100000000E-03 0.  1.
         11   -1    0    0    0    0 -0.00000000000E+00 -0.00000000000E+00 -0.45593999997E+02  0.45594000000E+02  0.51100000000E-03 0. -1.
    9900012    2    1    2    0    0  0.33214564953E+02 -0.12780964085E+02  0.27614364273E+02  0.46142317830E+02  0.10000000631E+02 0.  0.
         12    1    1    2    0    0 -0.33214564953E+02  0.12780964085E+02 -0.27614364273E+02  0.45045682170E+02  0.00000000000E+00 0. -1.
         11    1    3    3    0    0  0.51342943501E+01 -0.55242454473E+01  0.45496152341E+01  0.88077957104E+01  0.51100000000E-03 0. -1.
        -11    1    3    3    0    0  0.58215071470E+01 -0.23449319304E+01  0.29525713113E+01  0.69358726077E+01  0.51100000000E-03 0.  1.
         12    1    3    3    0    0  0.22258763456E+02 -0.49117867075E+01  0.20112177727E+02  0.30398649512E+02  0.00000000000E+00 0. -1.
</event>
<event>
 7    1  0.3046295E-009  0.4614232E+02  0.7816164E-02  0.1320468E+00
        -11   -1    0    0    0    0  0.00000000000E+00  0.00000000000E+00  0.45593999997E+02  0.45594000000E+02  0.51100000000E-03 0.  1.
         11   -1    0    0    0    0 -0.00000000000E+00 -0.00000000000E+00 -0.45593999997E+02  0.45594000000E+02  0.51100000000E-03 0. -1.
    9900012    2    1    2    0    0 -0.72488393067E+01 -0.22311023349E+02  0.38454986558E+02  0.46142318461E+02  0.10000006380E+02 0.  0.
         12    1    1    2    0    0  0.72488393067E+01  0.22311023349E+02 -0.38454986558E+02  0.45045681539E+02  0.00000000000E+00 0. -1.
         11    1    3    3    0    0 -0.64395520374E+01 -0.18992703623E+02  0.25146666237E+02  0.32164350521E+02  0.51100000000E-03 0. -1.
        -11    1    3    3    0    0 -0.11586649313E+01 -0.31486760769E+00  0.48156969571E+01  0.49631223516E+01  0.51100000000E-03 0.  1.
         12    1    3    3    0    0  0.34937766206E+00 -0.30034521184E+01  0.84926233637E+01  0.90148455880E+01  0.00000000000E+00 0. -1.
</event>
<event>
 7    1  0.3046295E-009  0.4614232E+02  0.7816164E-02  0.1320468E+00
        -11   -1    0    0    0    0  0.00000000000E+00  0.00000000000E+00  0.45593999997E+02  0.45594000000E+02  0.51100000000E-03 0.  1.
         11   -1    0    0    0    0 -0.00000000000E+00 -0.00000000000E+00 -0.45593999997E+02  0.45594000000E+02  0.51100000000E-03 0. -1.
    9900012    2    1    2    0    0 -0.75784029063E+01  0.43644613834E+02 -0.81749017088E+01  0.46142317351E+02  0.99999962609E+01 0.  0.
         12    1    1    2    0    0  0.75784029063E+01 -0.43644613834E+02  0.81749017088E+01  0.45045682649E+02  0.00000000000E+00 0. -1.
         11    1    3    3    0    0 -0.90229923961E+01  0.38307557287E+02 -0.54432016090E+01  0.39730489313E+02  0.51100000000E-03 0.  1.
        -11    1    3    3    0    0  0.83595054125E+00  0.48099573101E+01 -0.18578818088E+01  0.52236220871E+01  0.51100000000E-03 0. -1.
        -12    1    3    3    0    0  0.60863894849E+00  0.52709923769E+00 -0.87381829092E+00  0.11882059508E+01  0.00000000000E+00 0.  1.
</event>
<event>
 7    1  0.3046295E-009  0.4614232E+02  0.7816164E-02  0.1320468E+00
        -11   -1    0    0    0    0  0.00000000000E+00  0.00000000000E+00  0.45593999997E+02  0.45594000000E+02  0.51100000000E-03 0. -1.
         11   -1    0    0    0    0 -0.00000000000E+00 -0.00000000000E+00 -0.45593999997E+02  0.45594000000E+02  0.51100000000E-03 0.  1.
    9900012    2    1    2    0    0  0.22300394406E+02 -0.31574866476E+02 -0.23126470863E+02  0.46142318317E+02  0.10000005073E+02 0.  0.
         12    1    1    2    0    0 -0.22300394406E+02  0.31574866476E+02  0.23126470863E+02  0.45045681683E+02  0.00000000000E+00 0. -1.
         11    1    3    3    0    0  0.24079936772E+01 -0.13755671478E-01 -0.77283729528E+00  0.25290117662E+01  0.51100000000E-03 0. -1.
        -11    1    3    3    0    0  0.91494068955E+01 -0.11729649257E+02 -0.95611655528E+01  0.17683670581E+02  0.51100000000E-03 0.  1.
         12    1    3    3    0    0  0.10742993833E+02 -0.19831461548E+02 -0.12792468015E+02  0.25929635970E+02  0.00000000000E+00 0. -1.
</event>
<event>
 7    1  0.3046295E-009  0.4614232E+02  0.7816164E-02  0.1320468E+00
        -11   -1    0    0    0    0  0.00000000000E+00  0.00000000000E+00  0.45593999997E+02  0.45594000000E+02  0.51100000000E-03 0.  1.
         11   -1    0    0    0    0 -0.00000000000E+00 -0.00000000000E+00 -0.45593999997E+02  0.45594000000E+02  0.51100000000E-03 0. -1.
    9900012    2    1    2    0    0 -0.24724728355E+02 -0.16128271212E+02  0.34024698604E+02  0.46142318302E+02  0.10000004933E+02 0.  0.
         12    1    1    2    0    0  0.24724728355E+02  0.16128271212E+02 -0.34024698604E+02  0.45045681698E+02  0.00000000000E+00 0. -1.
         11    1    3    3    0    0 -0.27516554647E+00 -0.29915563746E+00 -0.43899969719E+00  0.59827348984E+00  0.51100000000E-03 0.  1.
        -11    1    3    3    0    0 -0.74449230621E+01 -0.67474993741E+01  0.82251295056E+01  0.12984929066E+02  0.51100000000E-03 0. -1.
        -12    1    3    3    0    0 -0.17004639747E+02 -0.90816162008E+01  0.26238568796E+02  0.32559115746E+02  0.00000000000E+00 0.  1.
</event>
<event>
 7    1  0.3046295E-009  0.4614232E+02  0.7816164E-02  0.1320468E+00
        -11   -1    0    0    0    0  0.00000000000E+00  0.00000000000E+00  0.45593999997E+02  0.45594000000E+02  0.51100000000E-03 0.  1.
         11   -1    0    0    0    0 -0.00000000000E+00 -0.00000000000E+00 -0.45593999997E+02  0.45594000000E+02  0.51100000000E-03 0. -1.
    9900012    2    1    2    0    0 -0.16651061282E+02  0.33860614024E+02  0.24603138766E+02  0.46142318064E+02  0.10000002763E+02 0.  0.
         12    1    1    2    0    0  0.16651061282E+02 -0.33860614024E+02 -0.24603138766E+02  0.45045681936E+02  0.00000000000E+00 0. -1.
         11    1    3    3    0    0 -0.32195457044E+01  0.73536952895E+01  0.13519364949E+01  0.81406413446E+01  0.51100000000E-03 0. -1.
        -11    1    3    3    0    0 -0.13374213169E+02  0.23850706813E+02  0.20488552149E+02  0.34168795162E+02  0.51100000000E-03 0.  1.
        -12    1    3    3    0    0 -0.57302408815E-01  0.26562119218E+01  0.27626501220E+01  0.38328815577E+01  0.00000000000E+00 0.  1.
</event>
<event>
 7    1  0.3046295E-009  0.4614232E+02  0.7816164E-02  0.1320468E+00
        -11   -1    0    0    0    0  0.00000000000E+00  0.00000000000E+00  0.45593999997E+02  0.45594000000E+02  0.51100000000E-03 0. -1.
         11   -1    0    0    0    0 -0.00000000000E+00 -0.00000000000E+00 -0.45593999997E+02  0.45594000000E+02  0.51100000000E-03 0.  1.
    9900012    2    1    2    0    0  0.29589313570E+02 -0.33856405385E+02  0.27073859432E+01  0.46142316502E+02  0.99999885177E+01 0.  0.
         12    1    1    2    0    0 -0.29589313570E+02  0.33856405385E+02 -0.27073859432E+01  0.45045683498E+02  0.00000000000E+00 0. -1.
         11    1    3    3    0    0  0.16940667705E+02 -0.14459046499E+02 -0.29948647561E+00  0.22274198983E+02  0.51100000000E-03 0. -1.
        -11    1    3    3    0    0  0.16431080706E+01 -0.64059325724E+01  0.23446703951E+00  0.66174580699E+01  0.51100000000E-03 0.  1.
         12    1    3    3    0    0  0.11005537795E+02 -0.12991426314E+02  0.27724053793E+01  0.17250659449E+02  0.00000000000E+00 0. -1.
</event>
<event>
 7    1  0.3046295E-009  0.4614232E+02  0.7816164E-02  0.1320468E+00
        -11   -1    0    0    0    0  0.00000000000E+00  0.00000000000E+00  0.45593999997E+02  0.45594000000E+02  0.51100000000E-03 0.  1.
         11   -1    0    0    0    0 -0.00000000000E+00 -0.00000000000E+00 -0.45593999997E+02  0.45594000000E+02  0.51100000000E-03 0. -1.
    9900012    2    1    2    0    0 -0.83796067050E+01 -0.11371921299E+01  0.44244802016E+02  0.46142317411E+02  0.99999968085E+01 0.  0.
         12    1    1    2    0    0  0.83796067050E+01  0.11371921299E+01 -0.44244802016E+02  0.45045682589E+02  0.00000000000E+00 0. -1.
         11    1    3    3    0    0 -0.72374380549E+00 -0.29825545306E+00  0.14757522906E+00  0.79658026627E+00  0.51100000000E-03 0. -1.
        -11    1    3    3    0    0 -0.33616285804E+01 -0.39628202294E+01  0.24236422504E+02  0.24787268243E+02  0.51100000000E-03 0.  1.
         12    1    3    3    0    0 -0.42942343190E+01  0.31238835526E+01  0.19860804283E+02  0.20558468902E+02  0.00000000000E+00 0. -1.
</event>
<event>
 7    1  0.3046295E-009  0.4614232E+02  0.7816164E-02  0.1320468E+00
        -11   -1    0    0    0    0  0.00000000000E+00  0.00000000000E+00  0.45593999997E+02  0.45594000000E+02  0.51100000000E-03 0.  1.
         11   -1    0    0    0    0 -0.00000000000E+00 -0.00000000000E+00 -0.45593999997E+02  0.45594000000E+02  0.51100000000E-03 0. -1.
    9900012    2    1    2    0    0  0.10243072467E+02  0.31955363674E+02  0.30050750740E+02  0.46142318508E+02  0.10000006809E+02 0.  0.
         12    1    1    2    0    0 -0.10243072467E+02 -0.31955363674E+02 -0.30050750740E+02  0.45045681492E+02  0.00000000000E+00 0. -1.
         11    1    3    3    0    0  0.16043696420E+01  0.10823844463E+02  0.59812446100E+01  0.12470160313E+02  0.51100000000E-03 0. -1.
        -11    1    3    3    0    0  0.24776933982E+01  0.13698469367E+01  0.33164658952E+01  0.43605494494E+01  0.51100000000E-03 0.  1.
        -12    1    3    3    0    0  0.61610094266E+01  0.19761672274E+02  0.20753040235E+02  0.29311608745E+02  0.00000000000E+00 0.  1.
</event>
<event>
 7    1  0.3046295E-009  0.4614232E+02  0.7816164E-02  0.1320468E+00
        -11   -1    0    0    0    0  0.00000000000E+00  0.00000000000E+00  0.45593999997E+02  0.45594000000E+02  0.51100000000E-03 0. -1.
         11   -1    0    0    0    0 -0.00000000000E+00 -0.00000000000E+00 -0.45593999997E+02  0.45594000000E+02  0.51100000000E-03 0.  1.
    9900012    2    1    2    0    0  0.27622072802E+02  0.52441097769E+01 -0.35194232810E+02  0.46142316341E+02  0.99999870465E+01 0.  0.
         12    1    1    2    0    0 -0.27622072802E+02 -0.52441097769E+01  0.35194232810E+02  0.45045683659E+02  0.00000000000E+00 0. -1.
         11    1    3    3    0    0  0.10111301963E+02  0.38423172183E+01 -0.92181716680E+01  0.14211844291E+02  0.51100000000E-03 0. -1.
        -11    1    3    3    0    0  0.12925768850E+02  0.20128645635E+01 -0.22907788607E+02  0.26379801046E+02  0.51100000000E-03 0.  1.
         12    1    3    3    0    0  0.45850019895E+01 -0.61107200490E+00 -0.30682725354E+01  0.55506710036E+01  0.00000000000E+00 0. -1.
</event>
<event>
 7    1  0.3046295E-009  0.4614232E+02  0.7816164E-02  0.1320468E+00
        -11   -1    0    0    0    0  0.00000000000E+00  0.00000000000E+00  0.45593999997E+02  0.45594000000E+02  0.51100000000E-03 0.  1.
         11   -1    0    0    0    0 -0.00000000000E+00 -0.00000000000E+00 -0.45593999997E+02  0.45594000000E+02  0.51100000000E-03 0. -1.
    9900012    2    1    2    0    0 -0.24524269184E+02 -0.34830415603E+01  0.37623691406E+02  0.46142317492E+02  0.99999975505E+01 0.  0.
         12    1    1    2    0    0  0.24524269184E+02  0.34830415603E+01 -0.37623691406E+02  0.45045682508E+02  0.00000000000E+00 0. -1.
         11    1    3    3    0    0 -0.23630932023E+01 -0.29856483964E+01  0.72804386920E+01  0.82160266332E+01  0.51100000000E-03 0. -1.
        -11    1    3    3    0    0 -0.14422325514E+02 -0.67142900379E+00  0.15479316232E+02  0.21167510987E+02  0.51100000000E-03 0.  1.
         12    1    3    3    0    0 -0.77388504684E+01  0.17403583986E+00  0.14863936482E+02  0.16758779872E+02  0.00000000000E+00 0. -1.
</event>
<event>
 7    1  0.3046295E-009  0.4614232E+02  0.7816164E-02  0.1320468E+00
        -11   -1    0    0    0    0  0.00000000000E+00  0.00000000000E+00  0.45593999997E+02  0.45594000000E+02  0.51100000000E-03 0.  1.
         11   -1    0    0    0    0 -0.00000000000E+00 -0.00000000000E+00 -0.45593999997E+02  0.45594000000E+02  0.51100000000E-03 0. -1.
    9900012    2    1    2    0    0  0.44437401697E+02  0.73260266236E+01  0.87198228182E+00  0.46142315536E+02  0.99999797129E+01 0.  0.
         12    1    1    2    0    0 -0.44437401697E+02 -0.73260266236E+01 -0.87198228182E+00  0.45045684464E+02  0.00000000000E+00 0. -1.
         11    1    3    3    0    0  0.10295238342E+02  0.28801756441E+01  0.33230644261E+01  0.11195092750E+02  0.51100000000E-03 0. -1.
        -11    1    3    3    0    0  0.33724931891E+02  0.47606805639E+01 -0.17924900917E+01  0.34106423610E+02  0.51100000000E-03 0.  1.
        -12    1    3    3    0    0  0.41723146492E+00 -0.31482958432E+00 -0.65859205260E+00  0.84079917592E+00  0.00000000000E+00 0.  1.
</event>
<event>
 7    1  0.3046295E-009  0.4614231E+02  0.7816164E-02  0.1320468E+00
        -11   -1    0    0    0    0  0.00000000000E+00  0.00000000000E+00  0.45593999997E+02  0.45594000000E+02  0.51100000000E-03 0.  1.
         11   -1    0    0    0    0 -0.00000000000E+00 -0.00000000000E+00 -0.45593999997E+02  0.45594000000E+02  0.51100000000E-03 0. -1.
    9900012    2    1    2    0    0  0.12797637943E+02 -0.31150353907E+02  0.29916379665E+02  0.46142313662E+02  0.99999626183E+01 0.  0.
         12    1    1    2    0    0 -0.12797637943E+02  0.31150353907E+02 -0.29916379665E+02  0.45045686338E+02  0.00000000000E+00 0. -1.
         11    1    3    3    0    0  0.64312303053E+00 -0.58089337950E+01  0.23179363919E+01  0.62873005691E+01  0.51100000000E-03 0.  1.
        -11    1    3    3    0    0  0.66443365164E+01 -0.12926763345E+02  0.10079177576E+02  0.17687233791E+02  0.51100000000E-03 0. -1.
         12    1    3    3    0    0  0.55101783964E+01 -0.12414656767E+02  0.17519265697E+02  0.22167779302E+02  0.00000000000E+00 0. -1.
</event>
<event>
 7    1  0.3046295E-009  0.4614232E+02  0.7816164E-02  0.1320468E+00
        -11   -1    0    0    0    0  0.00000000000E+00  0.00000000000E+00  0.45593999997E+02  0.45594000000E+02  0.51100000000E-03 0.  1.
         11   -1    0    0    0    0 -0.00000000000E+00 -0.00000000000E+00 -0.45593999997E+02  0.45594000000E+02  0.51100000000E-03 0. -1.
    9900012    2    1    2    0    0  0.23842791276E+02  0.16368691353E+02  0.34535499299E+02  0.46142318028E+02  0.10000002436E+02 0.  0.
         12    1    1    2    0    0 -0.23842791276E+02 -0.16368691353E+02 -0.34535499299E+02  0.45045681972E+02  0.00000000000E+00 0. -1.
         11    1    3    3    0    0  0.22867015967E+02  0.15195796275E+02  0.29452949633E+02  0.40265231727E+02  0.51100000000E-03 0. -1.
        -11    1    3    3    0    0  0.73062431221E+00  0.19670414214E+01  0.39439204376E+01  0.44673898999E+01  0.51100000000E-03 0.  1.
         12    1    3    3    0    0  0.24515099765E+00 -0.79414634303E+00  0.11386292281E+01  0.14096964017E+01  0.00000000000E+00 0. -1.
</event>
<event>
 7    1  0.3046295E-009  0.4614232E+02  0.7816164E-02  0.1320468E+00
        -11   -1    0    0    0    0  0.00000000000E+00  0.00000000000E+00  0.45593999997E+02  0.45594000000E+02  0.51100000000E-03 0.  1.
         11   -1    0    0    0    0 -0.00000000000E+00 -0.00000000000E+00 -0.45593999997E+02  0.45594000000E+02  0.51100000000E-03 0. -1.
    9900012    2    1    2    0    0 -0.40476493333E+00  0.45014799329E+02 -0.16178985951E+01  0.46142316642E+02  0.99999897967E+01 0.  0.
         12    1    1    2    0    0  0.40476493333E+00 -0.45014799329E+02  0.16178985951E+01  0.45045683358E+02  0.00000000000E+00 0. -1.
         11    1    3    3    0    0 -0.35098171195E+01  0.12434526870E+02  0.75927149906E+00  0.12942672374E+02  0.51100000000E-03 0. -1.
        -11    1    3    3    0    0  0.76994763960E+00  0.27162069707E+02 -0.25877310649E+01  0.27295919154E+02  0.51100000000E-03 0.  1.
         12    1    3    3    0    0  0.23351045466E+01  0.54182027516E+01  0.21056097076E+00  0.59037251142E+01  0.00000000000E+00 0. -1.
</event>
<event>
 7    1  0.3046295E-009  0.4614232E+02  0.7816164E-02  0.1320468E+00
        -11   -1    0    0    0    0  0.00000000000E+00  0.00000000000E+00  0.45593999997E+02  0.45594000000E+02  0.51100000000E-03 0.  1.
         11   -1    0    0    0    0 -0.00000000000E+00 -0.00000000000E+00 -0.45593999997E+02  0.45594000000E+02  0.51100000000E-03 0. -1.
    9900012    2    1    2    0    0  0.91757767785E+01 -0.25735520465E+01  0.44026076566E+02  0.46142317994E+02  0.10000002119E+02 0.  0.
         12    1    1    2    0    0 -0.91757767785E+01  0.25735520465E+01 -0.44026076566E+02  0.45045682006E+02  0.00000000000E+00 0. -1.
         11    1    3    3    0    0  0.15476491064E+01 -0.19980204862E+01  0.15699077038E+02  0.15901205103E+02  0.51100000000E-03 0. -1.
        -11    1    3    3    0    0  0.78954264580E+01 -0.54835166522E+00  0.28705711291E+02  0.29776774666E+02  0.51100000000E-03 0.  1.
        -12    1    3    3    0    0 -0.26729878581E+00 -0.27179895076E-01 -0.37871176303E+00  0.46433822484E+00  0.00000000000E+00 0.  1.
</event>
<event>
 7    1  0.3880291E-009  0.4614232E+02  0.7816164E-02  0.1320468E+00
        -11   -1    0    0    0    0  0.00000000000E+00  0.00000000000E+00  0.45593999997E+02  0.45594000000E+02  0.51100000000E-03 0.  1.
         11   -1    0    0    0    0 -0.00000000000E+00 -0.00000000000E+00 -0.45593999997E+02  0.45594000000E+02  0.51100000000E-03 0. -1.
    9900012    2    1    2    0    0  0.25418707539E+02 -0.30462400571E+02  0.21331782013E+02  0.46142318016E+02  0.10000002327E+02 0.  0.
         12    1    1    2    0    0 -0.25418707539E+02  0.30462400571E+02 -0.21331782013E+02  0.45045681984E+02  0.00000000000E+00 0. -1.
         11    1    3    3    0    0  0.47841183720E+00 -0.94201275681E+00  0.25606368889E+01  0.27700410571E+01  0.51100000000E-03 0. -1.
        -11    1    3    3    0    0  0.25225346615E+02 -0.29482883734E+02  0.18539993043E+02  0.43003370651E+02  0.51100000000E-03 0.  1.
        -12    1    3    3    0    0 -0.28505091289E+00 -0.37504080251E-01  0.23115208180E+00  0.36890630775E+00  0.00000000000E+00 0.  1.
</event>
<event>
 7    1  0.3046295E-009  0.4614232E+02  0.7816164E-02  0.1320468E+00
        -11   -1    0    0    0    0  0.00000000000E+00  0.00000000000E+00  0.45593999997E+02  0.45594000000E+02  0.51100000000E-03 0.  1.
         11   -1    0    0    0    0 -0.00000000000E+00 -0.00000000000E+00 -0.45593999997E+02  0.45594000000E+02  0.51100000000E-03 0. -1.
    9900012    2    1    2    0    0 -0.43151156958E+02 -0.10736529715E+02 -0.71984767135E+01  0.46142317808E+02  0.10000000430E+02 0.  0.
         12    1    1    2    0    0  0.43151156958E+02  0.10736529715E+02  0.71984767135E+01  0.45045682192E+02  0.00000000000E+00 0. -1.
         11    1    3    3    0    0 -0.27088777454E+02 -0.10001451690E+02 -0.73530522897E+01  0.29797622021E+02  0.51100000000E-03 0. -1.
        -11    1    3    3    0    0 -0.70807647873E+01 -0.56775740652E+00  0.15033564340E+01  0.72608304810E+01  0.51100000000E-03 0.  1.
         12    1    3    3    0    0 -0.89816147167E+01 -0.16732061895E+00 -0.13487808577E+01  0.90838653067E+01  0.00000000000E+00 0. -1.
</event>
<event>
 7    1  0.3046295E-009  0.4614232E+02  0.7816164E-02  0.1320468E+00
        -11   -1    0    0    0    0  0.00000000000E+00  0.00000000000E+00  0.45593999997E+02  0.45594000000E+02  0.51100000000E-03 0. -1.
         11   -1    0    0    0    0 -0.00000000000E+00 -0.00000000000E+00 -0.45593999997E+02  0.45594000000E+02  0.51100000000E-03 0.  1.
    9900012    2    1    2    0    0 -0.32259820211E+02  0.22649766622E+02 -0.21803799217E+02  0.46142316651E+02  0.99999898771E+01 0.  0.
         12    1    1    2    0    0  0.32259820211E+02 -0.22649766622E+02  0.21803799217E+02  0.45045683349E+02  0.00000000000E+00 0. -1.
         11    1    3    3    0    0 -0.82063847279E+01  0.31233273142E+01 -0.47234578150E+01  0.99705053937E+01  0.51100000000E-03 0. -1.
        -11    1    3    3    0    0 -0.23918731113E+02  0.16978963306E+02 -0.15813722035E+02  0.33323635724E+02  0.51100000000E-03 0.  1.
        -12    1    3    3    0    0 -0.13470436998E+00  0.25474760018E+01 -0.12666193669E+01  0.28481755331E+01  0.00000000000E+00 0.  1.
</event>
<event>
 7    1  0.3046295E-009  0.4614232E+02  0.7816164E-02  0.1320468E+00
        -11   -1    0    0    0    0  0.00000000000E+00  0.00000000000E+00  0.45593999997E+02  0.45594000000E+02  0.51100000000E-03 0.  1.
         11   -1    0    0    0    0 -0.00000000000E+00 -0.00000000000E+00 -0.45593999997E+02  0.45594000000E+02  0.51100000000E-03 0. -1.
    9900012    2    1    2    0    0 -0.28675362785E+02 -0.29945641028E+02  0.17609532914E+02  0.46142317667E+02  0.99999991383E+01 0.  0.
         12    1    1    2    0    0  0.28675362785E+02  0.29945641028E+02 -0.17609532914E+02  0.45045682333E+02  0.00000000000E+00 0. -1.
         11    1    3    3    0    0 -0.50225357054E+01 -0.30540076186E+01  0.49514652767E+01  0.76856903459E+01  0.51100000000E-03 0. -1.
        -11    1    3    3    0    0 -0.19066420120E+01 -0.44525257563E+00  0.15197861223E-01  0.19580002181E+01  0.51100000000E-03 0.  1.
        -12    1    3    3    0    0 -0.21746185068E+02 -0.26446380833E+02  0.12642869777E+02  0.36498627103E+02  0.00000000000E+00 0.  1.
</event>
<event>
 7    1  0.3046295E-009  0.4614232E+02  0.7816164E-02  0.1320468E+00
        -11   -1    0    0    0    0  0.00000000000E+00  0.00000000000E+00  0.45593999997E+02  0.45594000000E+02  0.51100000000E-03 0.  1.
         11   -1    0    0    0    0 -0.00000000000E+00 -0.00000000000E+00 -0.45593999997E+02  0.45594000000E+02  0.51100000000E-03 0. -1.
    9900012    2    1    2    0    0  0.11371937609E+02  0.39232541732E+02  0.18989477197E+02  0.46142317188E+02  0.99999947776E+01 0.  0.
         12    1    1    2    0    0 -0.11371937609E+02 -0.39232541732E+02 -0.18989477197E+02  0.45045682812E+02  0.00000000000E+00 0. -1.
         11    1    3    3    0    0  0.24528111760E+01  0.37645956985E+01 -0.55320524966E-01  0.44934979759E+01  0.51100000000E-03 0. -1.
        -11    1    3    3    0    0  0.21879585721E+01  0.47082060437E+01  0.48676941400E+01  0.71167979714E+01  0.51100000000E-03 0.  1.
        -12    1    3    3    0    0  0.67311678605E+01  0.30759739990E+02  0.14177103582E+02  0.34532021241E+02  0.00000000000E+00 0.  1.
</event>
<event>
 7    1  0.3046295E-009  0.4614232E+02  0.7816164E-02  0.1320468E+00
        -11   -1    0    0    0    0  0.00000000000E+00  0.00000000000E+00  0.45593999997E+02  0.45594000000E+02  0.51100000000E-03 0.  1.
         11   -1    0    0    0    0 -0.00000000000E+00 -0.00000000000E+00 -0.45593999997E+02  0.45594000000E+02  0.51100000000E-03 0. -1.
    9900012    2    1    2    0    0 -0.21479400134E+02 -0.24027504154E+01  0.39521838183E+02  0.46142317265E+02  0.99999954791E+01 0.  0.
         12    1    1    2    0    0  0.21479400134E+02  0.24027504154E+01 -0.39521838183E+02  0.45045682735E+02  0.00000000000E+00 0. -1.
         11    1    3    3    0    0 -0.21323384122E+01 -0.35805237846E+01  0.51319007473E+01  0.66108564662E+01  0.51100000000E-03 0. -1.
        -11    1    3    3    0    0 -0.54614448802E+01  0.75324885243E+00  0.81250032644E+01  0.98188819283E+01  0.51100000000E-03 0.  1.
         12    1    3    3    0    0 -0.13885616842E+02  0.42452451678E+00  0.26264934171E+02  0.29712578871E+02  0.00000000000E+00 0. -1.
</event>
<event>
 7    1  0.3046295E-009  0.4614232E+02  0.7816164E-02  0.1320468E+00
        -11   -1    0    0    0    0  0.00000000000E+00  0.00000000000E+00  0.45593999997E+02  0.45594000000E+02  0.51100000000E-03 0.  1.
         11   -1    0    0    0    0 -0.00000000000E+00 -0.00000000000E+00 -0.45593999997E+02  0.45594000000E+02  0.51100000000E-03 0. -1.
    9900012    2    1    2    0    0 -0.24071420191E+02 -0.17787127717E+02  0.33664495821E+02  0.46142318061E+02  0.10000002737E+02 0.  0.
         12    1    1    2    0    0  0.24071420191E+02  0.17787127717E+02 -0.33664495821E+02  0.45045681939E+02  0.00000000000E+00 0. -1.
         11    1    3    3    0    0 -0.18351017664E+01 -0.22410003749E+01  0.15357934300E+01  0.32784665462E+01  0.51100000000E-03 0. -1.
        -11    1    3    3    0    0 -0.20092594930E+02 -0.10060641266E+02  0.24913302706E+02  0.33549985480E+02  0.51100000000E-03 0.  1.
        -12    1    3    3    0    0 -0.21437234944E+01 -0.54854860754E+01  0.72153996853E+01  0.93138660352E+01  0.00000000000E+00 0.  1.
</event>
<event>
 7    1  0.3046295E-009  0.4614232E+02  0.7816164E-02  0.1320468E+00
        -11   -1    0    0    0    0  0.00000000000E+00  0.00000000000E+00  0.45593999997E+02  0.45594000000E+02  0.51100000000E-03 0.  1.
         11   -1    0    0    0    0 -0.00000000000E+00 -0.00000000000E+00 -0.45593999997E+02  0.45594000000E+02  0.51100000000E-03 0. -1.
    9900012    2    1    2    0    0  0.96892313021E+01 -0.29891938601E+02  0.32275443851E+02  0.46142317939E+02  0.10000001625E+02 0.  0.
         12    1    1    2    0    0 -0.96892313021E+01  0.29891938601E+02 -0.32275443851E+02  0.45045682061E+02  0.00000000000E+00 0. -1.
         11    1    3    3    0    0 -0.79264622157E+00 -0.87699440405E+00  0.49826790219E-01  0.11831695514E+01  0.51100000000E-03 0. -1.
        -11    1    3    3    0    0  0.30141035256E+01 -0.51025528647E+01  0.91379266922E+01  0.10891398914E+02  0.51100000000E-03 0.  1.
        -12    1    3    3    0    0  0.74677739980E+01 -0.23912391332E+02  0.23087690368E+02  0.34067749474E+02  0.00000000000E+00 0.  1.
</event>
<event>
 7    1  0.3046295E-009  0.4614232E+02  0.7816164E-02  0.1320468E+00
        -11   -1    0    0    0    0  0.00000000000E+00  0.00000000000E+00  0.45593999997E+02  0.45594000000E+02  0.51100000000E-03 0.  1.
         11   -1    0    0    0    0 -0.00000000000E+00 -0.00000000000E+00 -0.45593999997E+02  0.45594000000E+02  0.51100000000E-03 0. -1.
    9900012    2    1    2    0    0 -0.16801248126E+02 -0.27694534629E+02  0.31302465234E+02  0.46142317448E+02  0.99999971427E+01 0.  0.
         12    1    1    2    0    0  0.16801248126E+02  0.27694534629E+02 -0.31302465234E+02  0.45045682552E+02  0.00000000000E+00 0. -1.
         11    1    3    3    0    0 -0.47871496484E+01 -0.65796451577E+01  0.13079867089E+02  0.15404267444E+02  0.51100000000E-03 0. -1.
        -11    1    3    3    0    0 -0.60839359588E+00 -0.46976652250E+01  0.40661309679E+01  0.62427255780E+01  0.51100000000E-03 0.  1.
         12    1    3    3    0    0 -0.11405704882E+02 -0.16417224246E+02  0.14156467176E+02  0.24495324426E+02  0.00000000000E+00 0. -1.
</event>
<event>
 7    1  0.3046295E-009  0.4614232E+02  0.7816164E-02  0.1320468E+00
        -11   -1    0    0    0    0  0.00000000000E+00  0.00000000000E+00  0.45593999997E+02  0.45594000000E+02  0.51100000000E-03 0.  1.
         11   -1    0    0    0    0 -0.00000000000E+00 -0.00000000000E+00 -0.45593999997E+02  0.45594000000E+02  0.51100000000E-03 0. -1.
    9900012    2    1    2    0    0 -0.30687675199E+02 -0.31259187437E+02  0.10499683022E+02  0.46142317055E+02  0.99999935642E+01 0.  0.
         12    1    1    2    0    0  0.30687675199E+02  0.31259187437E+02 -0.10499683022E+02  0.45045682945E+02  0.00000000000E+00 0. -1.
         11    1    3    3    0    0 -0.71082186263E+01 -0.31369493166E+01  0.21695051333E+00  0.77726630469E+01  0.51100000000E-03 0. -1.
        -11    1    3    3    0    0 -0.17474291261E+02 -0.22642011227E+02  0.64731491426E+01  0.29324276420E+02  0.51100000000E-03 0.  1.
         12    1    3    3    0    0 -0.61051653119E+01 -0.54802268939E+01  0.38095833657E+01  0.90453775883E+01  0.00000000000E+00 0. -1.
</event>
<event>
 7    1  0.3368670E-009  0.4614232E+02  0.7816164E-02  0.1320468E+00
        -11   -1    0    0    0    0  0.00000000000E+00  0.00000000000E+00  0.45593999997E+02  0.45594000000E+02  0.51100000000E-03 0. -1.
         11   -1    0    0    0    0 -0.00000000000E+00 -0.00000000000E+00 -0.45593999997E+02  0.45594000000E+02  0.51100000000E-03 0.  1.
    9900012    2    1    2    0    0  0.33529711197E+02  0.21768370358E+02 -0.20760779637E+02  0.46142318163E+02  0.10000003669E+02 0.  0.
         12    1    1    2    0    0 -0.33529711197E+02 -0.21768370358E+02  0.20760779637E+02  0.45045681837E+02  0.00000000000E+00 0. -1.
         11    1    3    3    0    0  0.80641494677E+01  0.84612636275E+01 -0.68151318163E+01  0.13530318206E+02  0.51100000000E-03 0. -1.
        -11    1    3    3    0    0  0.19459522980E+02  0.68199042247E+01 -0.92170726497E+01  0.22586247071E+02  0.51100000000E-03 0.  1.
        -12    1    3    3    0    0  0.60060387490E+01  0.64872025062E+01 -0.47285751708E+01  0.10025752887E+02  0.00000000000E+00 0.  1.
</event>
<event>
 7    1  0.3046295E-009  0.4614232E+02  0.7816164E-02  0.1320468E+00
        -11   -1    0    0    0    0  0.00000000000E+00  0.00000000000E+00  0.45593999997E+02  0.45594000000E+02  0.51100000000E-03 0. -1.
         11   -1    0    0    0    0 -0.00000000000E+00 -0.00000000000E+00 -0.45593999997E+02  0.45594000000E+02  0.51100000000E-03 0.  1.
    9900012    2    1    2    0    0  0.38854749791E+02 -0.46408422807E+01 -0.22313326840E+02  0.46142317043E+02  0.99999934512E+01 0.  0.
         12    1    1    2    0    0 -0.38854749791E+02  0.46408422807E+01  0.22313326840E+02  0.45045682957E+02  0.00000000000E+00 0. -1.
         11    1    3    3    0    0  0.11388081546E+02 -0.41805465758E+00 -0.94604706635E+01  0.14810930978E+02  0.51100000000E-03 0. -1.
        -11    1    3    3    0    0  0.15606397774E+02 -0.35770767772E+01 -0.10707110859E+02  0.19261291570E+02  0.51100000000E-03 0.  1.
         12    1    3    3    0    0  0.11860270471E+02 -0.64571084586E+00 -0.21457453177E+01  0.12070094495E+02  0.00000000000E+00 0. -1.
</event>
<event>
 7    1  0.4208649E-009  0.4614232E+02  0.7816164E-02  0.1320468E+00
        -11   -1    0    0    0    0  0.00000000000E+00  0.00000000000E+00  0.45593999997E+02  0.45594000000E+02  0.51100000000E-03 0.  1.
         11   -1    0    0    0    0 -0.00000000000E+00 -0.00000000000E+00 -0.45593999997E+02  0.45594000000E+02  0.51100000000E-03 0. -1.
    9900012    2    1    2    0    0  0.36977966843E+02  0.25525091185E+02 -0.31958318114E+01  0.46142315936E+02  0.99999833537E+01 0.  0.
         12    1    1    2    0    0 -0.36977966843E+02 -0.25525091185E+02  0.31958318114E+01  0.45045684064E+02  0.00000000000E+00 0. -1.
         11    1    3    3    0    0  0.64103427931E+01  0.21116760813E+01 -0.21217121129E+01  0.70748380298E+01  0.51100000000E-03 0. -1.
        -11    1    3    3    0    0  0.22302397124E+02  0.20379216149E+02 -0.11952424179E+00  0.30211316665E+02  0.51100000000E-03 0.  1.
        -12    1    3    3    0    0  0.82652269264E+01  0.30341989546E+01 -0.95459545665E+00  0.88561612410E+01  0.00000000000E+00 0.  1.
</event>
<event>
 7    1  0.3046295E-009  0.4614232E+02  0.7816164E-02  0.1320468E+00
        -11   -1    0    0    0    0  0.00000000000E+00  0.00000000000E+00  0.45593999997E+02  0.45594000000E+02  0.51100000000E-03 0. -1.
         11   -1    0    0    0    0 -0.00000000000E+00 -0.00000000000E+00 -0.45593999997E+02  0.45594000000E+02  0.51100000000E-03 0.  1.
    9900012    2    1    2    0    0 -0.64096483582E+00 -0.38164272379E+02 -0.23920514310E+02  0.46142317332E+02  0.99999960897E+01 0.  0.
         12    1    1    2    0    0  0.64096483582E+00  0.38164272379E+02  0.23920514310E+02  0.45045682668E+02  0.00000000000E+00 0. -1.
         11    1    3    3    0    0 -0.19335370570E+01 -0.13113392321E+02 -0.13263468275E+02  0.18751512330E+02  0.51100000000E-03 0. -1.
        -11    1    3    3    0    0  0.13916400918E+01 -0.20747971338E+02 -0.98591330300E+01  0.23013419588E+02  0.51100000000E-03 0.  1.
         12    1    3    3    0    0 -0.99067870662E-01 -0.43029087209E+01 -0.79791300456E+00  0.43773854144E+01  0.00000000000E+00 0. -1.
</event>
<event>
 7    1  0.3046295E-009  0.4614232E+02  0.7816164E-02  0.1320468E+00
        -11   -1    0    0    0    0  0.00000000000E+00  0.00000000000E+00  0.45593999997E+02  0.45594000000E+02  0.51100000000E-03 0.  1.
         11   -1    0    0    0    0 -0.00000000000E+00 -0.00000000000E+00 -0.45593999997E+02  0.45594000000E+02  0.51100000000E-03 0. -1.
    9900012    2    1    2    0    0  0.28163439026E+02  0.14819130269E+02  0.31879892584E+02  0.46142317955E+02  0.10000001770E+02 0.  0.
         12    1    1    2    0    0 -0.28163439026E+02 -0.14819130269E+02 -0.31879892584E+02  0.45045682045E+02  0.00000000000E+00 0. -1.
         11    1    3    3    0    0  0.14503128215E+02  0.10428094690E+02  0.13706249001E+02  0.22515486866E+02  0.51100000000E-03 0. -1.
        -11    1    3    3    0    0  0.24915761282E+01  0.72019763060E+00  0.67633796865E+01  0.72436138270E+01  0.51100000000E-03 0.  1.
        -12    1    3    3    0    0  0.11168734682E+02  0.36708379482E+01  0.11410263897E+02  0.16383217262E+02  0.00000000000E+00 0.  1.
</event>
<event>
 7    1  0.3046295E-009  0.4614231E+02  0.7816164E-02  0.1320468E+00
        -11   -1    0    0    0    0  0.00000000000E+00  0.00000000000E+00  0.45593999997E+02  0.45594000000E+02  0.51100000000E-03 0.  1.
         11   -1    0    0    0    0 -0.00000000000E+00 -0.00000000000E+00 -0.45593999997E+02  0.45594000000E+02  0.51100000000E-03 0. -1.
    9900012    2    1    2    0    0 -0.42982054904E+02  0.40125638237E+01  0.12866865901E+02  0.46142312633E+02  0.99999532422E+01 0.  0.
         12    1    1    2    0    0  0.42982054904E+02 -0.40125638237E+01 -0.12866865901E+02  0.45045687367E+02  0.00000000000E+00 0. -1.
         11    1    3    3    0    0 -0.18919897712E+02  0.38742618293E+01  0.63893860817E+01  0.20341993238E+02  0.51100000000E-03 0.  1.
        -11    1    3    3    0    0 -0.13562538451E+02 -0.10848418923E+01  0.68297584724E+01  0.15223827779E+02  0.51100000000E-03 0. -1.
         12    1    3    3    0    0 -0.10499618741E+02  0.12231438867E+01 -0.35227865295E+00  0.10576491617E+02  0.00000000000E+00 0. -1.
</event>
<event>
 7    1  0.3046295E-009  0.4614232E+02  0.7816164E-02  0.1320468E+00
        -11   -1    0    0    0    0  0.00000000000E+00  0.00000000000E+00  0.45593999997E+02  0.45594000000E+02  0.51100000000E-03 0. -1.
         11   -1    0    0    0    0 -0.00000000000E+00 -0.00000000000E+00 -0.45593999997E+02  0.45594000000E+02  0.51100000000E-03 0.  1.
    9900012    2    1    2    0    0 -0.20789733769E+02 -0.24849841805E+02 -0.31295141052E+02  0.46142317394E+02  0.99999966569E+01 0.  0.
         12    1    1    2    0    0  0.20789733769E+02  0.24849841805E+02  0.31295141052E+02  0.45045682606E+02  0.00000000000E+00 0. -1.
         11    1    3    3    0    0 -0.28304339367E+01 -0.82674555918E+01 -0.66056403246E+01  0.10954298818E+02  0.51100000000E-03 0. -1.
        -11    1    3    3    0    0 -0.12716073917E+02 -0.12701268375E+02 -0.21188957027E+02  0.27784755791E+02  0.51100000000E-03 0.  1.
         12    1    3    3    0    0 -0.52432259160E+01 -0.38811178378E+01 -0.35005437000E+01  0.74032627856E+01  0.00000000000E+00 0. -1.
</event>
<event>
 7    1  0.3046295E-009  0.4614232E+02  0.7816164E-02  0.1320468E+00
        -11   -1    0    0    0    0  0.00000000000E+00  0.00000000000E+00  0.45593999997E+02  0.45594000000E+02  0.51100000000E-03 0.  1.
         11   -1    0    0    0    0 -0.00000000000E+00 -0.00000000000E+00 -0.45593999997E+02  0.45594000000E+02  0.51100000000E-03 0. -1.
    9900012    2    1    2    0    0 -0.34688570448E+02  0.25112080755E+01  0.28627094521E+02  0.46142316228E+02  0.99999860204E+01 0.  0.
         12    1    1    2    0    0  0.34688570448E+02 -0.25112080755E+01 -0.28627094521E+02  0.45045683772E+02  0.00000000000E+00 0. -1.
         11    1    3    3    0    0 -0.33287929795E+01 -0.18444115846E+01  0.60220147231E+01  0.71237194204E+01  0.51100000000E-03 0. -1.
        -11    1    3    3    0    0 -0.11964058417E+02  0.41099570262E+00  0.94695056466E+01  0.15263654501E+02  0.51100000000E-03 0.  1.
         12    1    3    3    0    0 -0.19395719052E+02  0.39446239575E+01  0.13135574152E+02  0.23754942307E+02  0.00000000000E+00 0. -1.
</event>
<event>
 7    1  0.3046295E-009  0.4614232E+02  0.7816164E-02  0.1320468E+00
        -11   -1    0    0    0    0  0.00000000000E+00  0.00000000000E+00  0.45593999997E+02  0.45594000000E+02  0.51100000000E-03 0.  1.
         11   -1    0    0    0    0 -0.00000000000E+00 -0.00000000000E+00 -0.45593999997E+02  0.45594000000E+02  0.51100000000E-03 0. -1.
    9900012    2    1    2    0    0 -0.44963062333E+02  0.27228374772E+01  0.15054327605E+00  0.46142317837E+02  0.10000000691E+02 0.  0.
         12    1    1    2    0    0  0.44963062333E+02 -0.27228374772E+01 -0.15054327605E+00  0.45045682163E+02  0.00000000000E+00 0. -1.
         11    1    3    3    0    0 -0.66359381778E+01 -0.56896616503E+00  0.20154472263E+01  0.69585505516E+01  0.51100000000E-03 0. -1.
        -11    1    3    3    0    0 -0.32473070132E+02  0.15999820146E+01  0.82482275677E+00  0.32522923594E+02  0.51100000000E-03 0.  1.
        -12    1    3    3    0    0 -0.58540540227E+01  0.16918216277E+01 -0.26897267070E+01  0.66608436912E+01  0.00000000000E+00 0.  1.
</event>
<event>
 7    1  0.3046295E-009  0.4614232E+02  0.7816164E-02  0.1320468E+00
        -11   -1    0    0    0    0  0.00000000000E+00  0.00000000000E+00  0.45593999997E+02  0.45594000000E+02  0.51100000000E-03 0.  1.
         11   -1    0    0    0    0 -0.00000000000E+00 -0.00000000000E+00 -0.45593999997E+02  0.45594000000E+02  0.51100000000E-03 0. -1.
    9900012    2    1    2    0    0 -0.32246553303E+02  0.29593467374E+02  0.10653635453E+02  0.46142318081E+02  0.10000002917E+02 0.  0.
         12    1    1    2    0    0  0.32246553303E+02 -0.29593467374E+02 -0.10653635453E+02  0.45045681919E+02  0.00000000000E+00 0. -1.
         11    1    3    3    0    0 -0.14188523466E+02  0.15677990392E+02  0.22849053230E+01  0.21268153974E+02  0.51100000000E-03 0.  1.
        -11    1    3    3    0    0 -0.79894344961E+01  0.32636002640E+01  0.44091013030E+01  0.96913530950E+01  0.51100000000E-03 0. -1.
        -12    1    3    3    0    0 -0.10068595341E+02  0.10651876718E+02  0.39596288271E+01  0.15182811012E+02  0.00000000000E+00 0.  1.
</event>
<event>
 7    1  0.3046295E-009  0.4614232E+02  0.7816164E-02  0.1320468E+00
        -11   -1    0    0    0    0  0.00000000000E+00  0.00000000000E+00  0.45593999997E+02  0.45594000000E+02  0.51100000000E-03 0.  1.
         11   -1    0    0    0    0 -0.00000000000E+00 -0.00000000000E+00 -0.45593999997E+02  0.45594000000E+02  0.51100000000E-03 0. -1.
    9900012    2    1    2    0    0  0.18606660012E+02  0.40579125217E+02  0.60199835098E+01  0.46142318724E+02  0.10000008778E+02 0.  0.
         12    1    1    2    0    0 -0.18606660012E+02 -0.40579125217E+02 -0.60199835098E+01  0.45045681276E+02  0.00000000000E+00 0. -1.
         11    1    3    3    0    0  0.45642718637E+01  0.13081179023E+02  0.15812570578E+00  0.13855498052E+02  0.51100000000E-03 0. -1.
        -11    1    3    3    0    0  0.83297440207E+00  0.48366607266E+01  0.33381320362E+01  0.59355083262E+01  0.51100000000E-03 0.  1.
        -12    1    3    3    0    0  0.13209413746E+02  0.22661285468E+02  0.25237257677E+01  0.26351312345E+02  0.00000000000E+00 0.  1.
</event>
<event>
 7    1  0.3046295E-009  0.4614232E+02  0.7816164E-02  0.1320468E+00
        -11   -1    0    0    0    0  0.00000000000E+00  0.00000000000E+00  0.45593999997E+02  0.45594000000E+02  0.51100000000E-03 0.  1.
         11   -1    0    0    0    0 -0.00000000000E+00 -0.00000000000E+00 -0.45593999997E+02  0.45594000000E+02  0.51100000000E-03 0. -1.
    9900012    2    1    2    0    0 -0.29073035072E+02  0.33050883201E+02 -0.95661510363E+01  0.46142317695E+02  0.99999993976E+01 0.  0.
         12    1    1    2    0    0  0.29073035072E+02 -0.33050883201E+02  0.95661510363E+01  0.45045682305E+02  0.00000000000E+00 0. -1.
         11    1    3    3    0    0 -0.12871940901E+02  0.17134749684E+02 -0.16748589641E+01  0.21496317407E+02  0.51100000000E-03 0. -1.
        -11    1    3    3    0    0 -0.12149287755E+02  0.83919462668E+01 -0.43277697837E+01  0.15386992775E+02  0.51100000000E-03 0.  1.
         12    1    3    3    0    0 -0.40518064167E+01  0.75241872504E+01 -0.35635222886E+01  0.92590075126E+01  0.00000000000E+00 0. -1.
</event>
<event>
 7    1  0.3046295E-009  0.4614232E+02  0.7816164E-02  0.1320468E+00
        -11   -1    0    0    0    0  0.00000000000E+00  0.00000000000E+00  0.45593999997E+02  0.45594000000E+02  0.51100000000E-03 0.  1.
         11   -1    0    0    0    0 -0.00000000000E+00 -0.00000000000E+00 -0.45593999997E+02  0.45594000000E+02  0.51100000000E-03 0. -1.
    9900012    2    1    2    0    0  0.42170219763E+02 -0.82353633709E+01 -0.13526449251E+02  0.46142317920E+02  0.10000001446E+02 0.  0.
         12    1    1    2    0    0 -0.42170219763E+02  0.82353633709E+01  0.13526449251E+02  0.45045682080E+02  0.00000000000E+00 0. -1.
         11    1    3    3    0    0  0.10223217219E+02 -0.36693877628E+01 -0.24103578058E+01  0.11126023632E+02  0.51100000000E-03 0. -1.
        -11    1    3    3    0    0  0.29153681094E+02 -0.64158896476E+01 -0.98433622022E+01  0.31432348640E+02  0.51100000000E-03 0.  1.
        -12    1    3    3    0    0  0.27933214506E+01  0.18499140394E+01 -0.12727292427E+01  0.35839456475E+01  0.00000000000E+00 0.  1.
</event>
<event>
 7    1  0.3046295E-009  0.4614232E+02  0.7816164E-02  0.1320468E+00
        -11   -1    0    0    0    0  0.00000000000E+00  0.00000000000E+00  0.45593999997E+02  0.45594000000E+02  0.51100000000E-03 0.  1.
         11   -1    0    0    0    0 -0.00000000000E+00 -0.00000000000E+00 -0.45593999997E+02  0.45594000000E+02  0.51100000000E-03 0. -1.
    9900012    2    1    2    0    0 -0.20029793909E+02  0.31813026627E+02 -0.24816370260E+02  0.46142317187E+02  0.99999947664E+01 0.  0.
         12    1    1    2    0    0  0.20029793909E+02 -0.31813026627E+02  0.24816370260E+02  0.45045682813E+02  0.00000000000E+00 0. -1.
         11    1    3    3    0    0 -0.74765146817E+01  0.62762152541E+01 -0.83621778818E+01  0.12853605288E+02  0.51100000000E-03 0. -1.
        -11    1    3    3    0    0 -0.11887953199E+02  0.21064556948E+02 -0.12241716244E+02  0.27109013400E+02  0.51100000000E-03 0.  1.
         12    1    3    3    0    0 -0.66532602843E+00  0.44722544249E+01 -0.42124761336E+01  0.61796984992E+01  0.00000000000E+00 0. -1.
</event>
<event>
 7    1  0.3046295E-009  0.4614232E+02  0.7816164E-02  0.1320468E+00
        -11   -1    0    0    0    0  0.00000000000E+00  0.00000000000E+00  0.45593999997E+02  0.45594000000E+02  0.51100000000E-03 0.  1.
         11   -1    0    0    0    0 -0.00000000000E+00 -0.00000000000E+00 -0.45593999997E+02  0.45594000000E+02  0.51100000000E-03 0. -1.
    9900012    2    1    2    0    0  0.27715498528E+02 -0.20597753643E+02  0.28925717974E+02  0.46142317919E+02  0.10000001441E+02 0.  0.
         12    1    1    2    0    0 -0.27715498528E+02  0.20597753643E+02 -0.28925717974E+02  0.45045682081E+02  0.00000000000E+00 0. -1.
         11    1    3    3    0    0  0.22011297009E+01 -0.14755292736E+01 -0.22750970072E+00  0.26596841020E+01  0.51100000000E-03 0. -1.
        -11    1    3    3    0    0  0.67986490802E+01 -0.77593720466E+01  0.10486921552E+02  0.14710710648E+02  0.51100000000E-03 0.  1.
         12    1    3    3    0    0  0.18715719747E+02 -0.11362852323E+02  0.18666306122E+02  0.28771923169E+02  0.00000000000E+00 0. -1.
</event>
<event>
 7    1  0.3046295E-009  0.4614232E+02  0.7816164E-02  0.1320468E+00
        -11   -1    0    0    0    0  0.00000000000E+00  0.00000000000E+00  0.45593999997E+02  0.45594000000E+02  0.51100000000E-03 0.  1.
         11   -1    0    0    0    0 -0.00000000000E+00 -0.00000000000E+00 -0.45593999997E+02  0.45594000000E+02  0.51100000000E-03 0. -1.
    9900012    2    1    2    0    0 -0.36679264872E+02  0.26109418745E+02 -0.14294689967E+01  0.46142316518E+02  0.99999886649E+01 0.  0.
         12    1    1    2    0    0  0.36679264872E+02 -0.26109418745E+02  0.14294689967E+01  0.45045683482E+02  0.00000000000E+00 0. -1.
         11    1    3    3    0    0 -0.21447739182E+01  0.65660837109E+00 -0.16523826017E+01  0.27859573286E+01  0.51100000000E-03 0. -1.
        -11    1    3    3    0    0 -0.17213818587E+02  0.14532797980E+02  0.28702960264E+01  0.22710270078E+02  0.51100000000E-03 0.  1.
         12    1    3    3    0    0 -0.17320672366E+02  0.10920012394E+02 -0.26473824213E+01  0.20646089111E+02  0.00000000000E+00 0. -1.
</event>
<event>
 7    1  0.3046295E-009  0.4614232E+02  0.7816164E-02  0.1320468E+00
        -11   -1    0    0    0    0  0.00000000000E+00  0.00000000000E+00  0.45593999997E+02  0.45594000000E+02  0.51100000000E-03 0. -1.
         11   -1    0    0    0    0 -0.00000000000E+00 -0.00000000000E+00 -0.45593999997E+02  0.45594000000E+02  0.51100000000E-03 0.  1.
    9900012    2    1    2    0    0  0.38198996025E+02 -0.14146829493E+02  0.19230639563E+02  0.46142316744E+02  0.99999907213E+01 0.  0.
         12    1    1    2    0    0 -0.38198996025E+02  0.14146829493E+02 -0.19230639563E+02  0.45045683256E+02  0.00000000000E+00 0. -1.
         11    1    3    3    0    0  0.67976549247E+01 -0.45830185561E+01  0.35455824497E+01  0.89321512935E+01  0.51100000000E-03 0. -1.
        -11    1    3    3    0    0  0.30302698333E+02 -0.10423635211E+02  0.15941675127E+02  0.35791656896E+02  0.51100000000E-03 0.  1.
         12    1    3    3    0    0  0.10986427677E+01  0.85982427357E+00 -0.25661801397E+00  0.14185085539E+01  0.00000000000E+00 0. -1.
</event>
<event>
 7    1  0.3046295E-009  0.4614232E+02  0.7816164E-02  0.1320468E+00
        -11   -1    0    0    0    0  0.00000000000E+00  0.00000000000E+00  0.45593999997E+02  0.45594000000E+02  0.51100000000E-03 0. -1.
         11   -1    0    0    0    0 -0.00000000000E+00 -0.00000000000E+00 -0.45593999997E+02  0.45594000000E+02  0.51100000000E-03 0.  1.
    9900012    2    1    2    0    0 -0.30338619946E+02 -0.29704524148E+02 -0.15044031686E+02  0.46142317583E+02  0.99999983743E+01 0.  0.
         12    1    1    2    0    0  0.30338619946E+02  0.29704524148E+02  0.15044031686E+02  0.45045682417E+02  0.00000000000E+00 0. -1.
         11    1    3    3    0    0 -0.68758959849E+01 -0.98113736807E+01 -0.70990983309E+01  0.13926169483E+02  0.51100000000E-03 0. -1.
        -11    1    3    3    0    0 -0.16523337831E+02 -0.16719604126E+02 -0.70024345361E+01  0.24527534424E+02  0.51100000000E-03 0.  1.
         12    1    3    3    0    0 -0.69393861294E+01 -0.31735463410E+01 -0.94249881871E+00  0.76886136757E+01  0.00000000000E+00 0. -1.
</event>
<event>
 7    1  0.3758519E-009  0.4614232E+02  0.7816164E-02  0.1320468E+00
        -11   -1    0    0    0    0  0.00000000000E+00  0.00000000000E+00  0.45593999997E+02  0.45594000000E+02  0.51100000000E-03 0.  1.
         11   -1    0    0    0    0 -0.00000000000E+00 -0.00000000000E+00 -0.45593999997E+02  0.45594000000E+02  0.51100000000E-03 0. -1.
    9900012    2    1    2    0    0 -0.68586589316E+01  0.40083718590E+02  0.19374411323E+02  0.46142317493E+02  0.99999975589E+01 0.  0.
         12    1    1    2    0    0  0.68586589316E+01 -0.40083718590E+02 -0.19374411323E+02  0.45045682507E+02  0.00000000000E+00 0. -1.
         11    1    3    3    0    0  0.30305951544E-01 -0.14045047961E+00 -0.43524063405E+00  0.45834425771E+00  0.51100000000E-03 0. -1.
        -11    1    3    3    0    0 -0.55870590825E+01  0.31246998400E+02  0.12825521451E+02  0.34235714378E+02  0.51100000000E-03 0.  1.
        -12    1    3    3    0    0 -0.13019058006E+01  0.89771706699E+01  0.69841305064E+01  0.11448258858E+02  0.00000000000E+00 0.  1.
</event>
<event>
 7    1  0.3046295E-009  0.4614232E+02  0.7816164E-02  0.1320468E+00
        -11   -1    0    0    0    0  0.00000000000E+00  0.00000000000E+00  0.45593999997E+02  0.45594000000E+02  0.51100000000E-03 0. -1.
         11   -1    0    0    0    0 -0.00000000000E+00 -0.00000000000E+00 -0.45593999997E+02  0.45594000000E+02  0.51100000000E-03 0.  1.
    9900012    2    1    2    0    0  0.83442982475E+01  0.15766624383E+01 -0.44237995628E+02  0.46142318355E+02  0.10000005418E+02 0.  0.
         12    1    1    2    0    0 -0.83442982475E+01 -0.15766624383E+01  0.44237995628E+02  0.45045681645E+02  0.00000000000E+00 0. -1.
         11    1    3    3    0    0 -0.25479633572E+00 -0.81742818611E+00 -0.85397141160E+01  0.85825303644E+01  0.51100000000E-03 0. -1.
        -11    1    3    3    0    0  0.45656324696E+01 -0.25269622469E+01 -0.13714587348E+02  0.14673801295E+02  0.51100000000E-03 0.  1.
        -12    1    3    3    0    0  0.40334621136E+01  0.49210528712E+01 -0.21983694163E+02  0.22885986696E+02  0.00000000000E+00 0.  1.
</event>
<event>
 7    1  0.3046295E-009  0.4614232E+02  0.7816164E-02  0.1320468E+00
        -11   -1    0    0    0    0  0.00000000000E+00  0.00000000000E+00  0.45593999997E+02  0.45594000000E+02  0.51100000000E-03 0. -1.
         11   -1    0    0    0    0 -0.00000000000E+00 -0.00000000000E+00 -0.45593999997E+02  0.45594000000E+02  0.51100000000E-03 0.  1.
    9900012    2    1    2    0    0 -0.23150922251E+02  0.38531744315E+02  0.29074003046E+01  0.46142317659E+02  0.99999990683E+01 0.  0.
         12    1    1    2    0    0  0.23150922251E+02 -0.38531744315E+02 -0.29074003046E+01  0.45045682341E+02  0.00000000000E+00 0. -1.
         11    1    3    3    0    0 -0.66956684554E+01  0.14738106848E+02  0.29310408047E+01  0.16450980822E+02  0.51100000000E-03 0. -1.
        -11    1    3    3    0    0 -0.13612566907E+02  0.21345160648E+02 -0.21000099091E+01  0.25403304957E+02  0.51100000000E-03 0.  1.
        -12    1    3    3    0    0 -0.28426868885E+01  0.24484768191E+01  0.20763694090E+01  0.42880318798E+01  0.00000000000E+00 0.  1.
</event>
<event>
 7    1  0.3046295E-009  0.4614232E+02  0.7816164E-02  0.1320468E+00
        -11   -1    0    0    0    0  0.00000000000E+00  0.00000000000E+00  0.45593999997E+02  0.45594000000E+02  0.51100000000E-03 0.  1.
         11   -1    0    0    0    0 -0.00000000000E+00 -0.00000000000E+00 -0.45593999997E+02  0.45594000000E+02  0.51100000000E-03 0. -1.
    9900012    2    1    2    0    0  0.74424587821E+01 -0.42451259780E+02  0.13100150410E+02  0.46142316628E+02  0.99999896692E+01 0.  0.
         12    1    1    2    0    0 -0.74424587821E+01  0.42451259780E+02 -0.13100150410E+02  0.45045683372E+02  0.00000000000E+00 0. -1.
         11    1    3    3    0    0  0.71933289540E+01 -0.33790984768E+02  0.69579517439E+01  0.35241846230E+02  0.51100000000E-03 0. -1.
        -11    1    3    3    0    0 -0.85963439288E+00 -0.39468346247E+01  0.19042692053E+01  0.44657268514E+01  0.51100000000E-03 0.  1.
        -12    1    3    3    0    0  0.11087642209E+01 -0.47134403881E+01  0.42379294610E+01  0.64347435463E+01  0.00000000000E+00 0.  1.
</event>
<event>
 7    1  0.3046295E-009  0.4614232E+02  0.7816164E-02  0.1320468E+00
        -11   -1    0    0    0    0  0.00000000000E+00  0.00000000000E+00  0.45593999997E+02  0.45594000000E+02  0.51100000000E-03 0.  1.
         11   -1    0    0    0    0 -0.00000000000E+00 -0.00000000000E+00 -0.45593999997E+02  0.45594000000E+02  0.51100000000E-03 0. -1.
    9900012    2    1    2    0    0  0.37123016694E+02  0.17466716351E+02  0.18598625777E+02  0.46142318416E+02  0.10000005974E+02 0.  0.
         12    1    1    2    0    0 -0.37123016694E+02 -0.17466716351E+02 -0.18598625777E+02  0.45045681584E+02  0.00000000000E+00 0. -1.
         11    1    3    3    0    0  0.19670505741E+02  0.74373341908E+01  0.14231407595E+02  0.25392433881E+02  0.51100000000E-03 0. -1.
        -11    1    3    3    0    0  0.82979376881E+01  0.44218692950E+01  0.32853666760E+01  0.99600367667E+01  0.51100000000E-03 0.  1.
         12    1    3    3    0    0  0.91545732649E+01  0.56075128654E+01  0.10818515057E+01  0.10789847769E+02  0.00000000000E+00 0. -1.
</event>
<event>
 7    1  0.3046295E-009  0.4614232E+02  0.7816164E-02  0.1320468E+00
        -11   -1    0    0    0    0  0.00000000000E+00  0.00000000000E+00  0.45593999997E+02  0.45594000000E+02  0.51100000000E-03 0. -1.
         11   -1    0    0    0    0 -0.00000000000E+00 -0.00000000000E+00 -0.45593999997E+02  0.45594000000E+02  0.51100000000E-03 0.  1.
    9900012    2    1    2    0    0  0.43299293339E+02 -0.42692577992E+01 -0.11664395996E+02  0.46142317635E+02  0.99999988495E+01 0.  0.
         12    1    1    2    0    0 -0.43299293339E+02  0.42692577992E+01  0.11664395996E+02  0.45045682365E+02  0.00000000000E+00 0. -1.
         11    1    3    3    0    0  0.22434373352E+02 -0.49673926328E+01 -0.81829221748E+01  0.24391316341E+02  0.51100000000E-03 0. -1.
        -11    1    3    3    0    0  0.11613439521E+02 -0.66082730426E+00  0.37000961744E+00  0.11638108850E+02  0.51100000000E-03 0.  1.
        -12    1    3    3    0    0  0.92514804661E+01  0.13589621379E+01 -0.38514834388E+01  0.10112892444E+02  0.00000000000E+00 0.  1.
</event>
<event>
 7    1  0.3046295E-009  0.4614232E+02  0.7816164E-02  0.1320468E+00
        -11   -1    0    0    0    0  0.00000000000E+00  0.00000000000E+00  0.45593999997E+02  0.45594000000E+02  0.51100000000E-03 0. -1.
         11   -1    0    0    0    0 -0.00000000000E+00 -0.00000000000E+00 -0.45593999997E+02  0.45594000000E+02  0.51100000000E-03 0.  1.
    9900012    2    1    2    0    0  0.25669651914E+02 -0.15171689952E+02  0.33763921157E+02  0.46142316774E+02  0.99999910010E+01 0.  0.
         12    1    1    2    0    0 -0.25669651914E+02  0.15171689952E+02 -0.33763921157E+02  0.45045683226E+02  0.00000000000E+00 0. -1.
         11    1    3    3    0    0  0.47420197128E+01 -0.39969734132E+01  0.92787820793E+01  0.11160570978E+02  0.51100000000E-03 0. -1.
        -11    1    3    3    0    0  0.10186432615E+02 -0.93982604335E+01  0.16072816796E+02  0.21223245478E+02  0.51100000000E-03 0.  1.
        -12    1    3    3    0    0  0.10741199586E+02 -0.17764561055E+01  0.84123222822E+01  0.13758500318E+02  0.00000000000E+00 0.  1.
</event>
<event>
 7    1  0.3046295E-009  0.4614232E+02  0.7816164E-02  0.1320468E+00
        -11   -1    0    0    0    0  0.00000000000E+00  0.00000000000E+00  0.45593999997E+02  0.45594000000E+02  0.51100000000E-03 0.  1.
         11   -1    0    0    0    0 -0.00000000000E+00 -0.00000000000E+00 -0.45593999997E+02  0.45594000000E+02  0.51100000000E-03 0. -1.
    9900012    2    1    2    0    0 -0.35434416998E+02  0.18479705264E+02  0.20784995339E+02  0.46142318233E+02  0.10000004305E+02 0.  0.
         12    1    1    2    0    0  0.35434416998E+02 -0.18479705264E+02 -0.20784995339E+02  0.45045681767E+02  0.00000000000E+00 0. -1.
         11    1    3    3    0    0 -0.29820547994E+01  0.35472880038E+00 -0.75342386660E+00  0.30961477891E+01  0.51100000000E-03 0. -1.
        -11    1    3    3    0    0 -0.21389131321E+02  0.12856669918E+02  0.13277182412E+02  0.28267869978E+02  0.51100000000E-03 0.  1.
         12    1    3    3    0    0 -0.11063230878E+02  0.52683065454E+01  0.82612367936E+01  0.14778300466E+02  0.00000000000E+00 0. -1.
</event>
<event>
 7    1  0.3046295E-009  0.4614232E+02  0.7816164E-02  0.1320468E+00
        -11   -1    0    0    0    0  0.00000000000E+00  0.00000000000E+00  0.45593999997E+02  0.45594000000E+02  0.51100000000E-03 0. -1.
         11   -1    0    0    0    0 -0.00000000000E+00 -0.00000000000E+00 -0.45593999997E+02  0.45594000000E+02  0.51100000000E-03 0.  1.
    9900012    2    1    2    0    0 -0.11834030198E+02  0.38704872410E+02 -0.19773771759E+02  0.46142317980E+02  0.10000002001E+02 0.  0.
         12    1    1    2    0    0  0.11834030198E+02 -0.38704872410E+02  0.19773771759E+02  0.45045682020E+02  0.00000000000E+00 0. -1.
         11    1    3    3    0    0 -0.93420449601E-01 -0.59491024067E+00 -0.56592641698E+00  0.82638885848E+00  0.51100000000E-03 0. -1.
        -11    1    3    3    0    0 -0.24729496420E+01  0.10384006001E+02 -0.46953984503E+01  0.11661467636E+02  0.51100000000E-03 0.  1.
         12    1    3    3    0    0 -0.92676601068E+01  0.28915776650E+02 -0.14512446892E+02  0.33654461486E+02  0.00000000000E+00 0. -1.
</event>
<event>
 7    1  0.3046295E-009  0.4614232E+02  0.7816164E-02  0.1320468E+00
        -11   -1    0    0    0    0  0.00000000000E+00  0.00000000000E+00  0.45593999997E+02  0.45594000000E+02  0.51100000000E-03 0.  1.
         11   -1    0    0    0    0 -0.00000000000E+00 -0.00000000000E+00 -0.45593999997E+02  0.45594000000E+02  0.51100000000E-03 0. -1.
    9900012    2    1    2    0    0 -0.23306473737E+01 -0.15887550777E+02  0.42086426380E+02  0.46142317939E+02  0.10000001621E+02 0.  0.
         12    1    1    2    0    0  0.23306473737E+01  0.15887550777E+02 -0.42086426380E+02  0.45045682061E+02  0.00000000000E+00 0. -1.
         11    1    3    3    0    0  0.74342569896E+00 -0.14798315667E+01  0.15988288267E+01  0.23019203101E+01  0.51100000000E-03 0. -1.
        -11    1    3    3    0    0  0.22534013660E+01 -0.58806634061E+01  0.10867876162E+02  0.12560682798E+02  0.51100000000E-03 0.  1.
        -12    1    3    3    0    0 -0.53274744387E+01 -0.85270558043E+01  0.29619721392E+02  0.31279714831E+02  0.00000000000E+00 0.  1.
</event>
<event>
 7    1  0.3046295E-009  0.4614232E+02  0.7816164E-02  0.1320468E+00
        -11   -1    0    0    0    0  0.00000000000E+00  0.00000000000E+00  0.45593999997E+02  0.45594000000E+02  0.51100000000E-03 0.  1.
         11   -1    0    0    0    0 -0.00000000000E+00 -0.00000000000E+00 -0.45593999997E+02  0.45594000000E+02  0.51100000000E-03 0. -1.
    9900012    2    1    2    0    0 -0.14081313782E+02  0.41381052999E+02  0.10882950716E+02  0.46142316950E+02  0.99999926033E+01 0.  0.
         12    1    1    2    0    0  0.14081313782E+02 -0.41381052999E+02 -0.10882950716E+02  0.45045683050E+02  0.00000000000E+00 0. -1.
         11    1    3    3    0    0 -0.36502995625E+01  0.45275403382E+01 -0.62777854685E+00  0.58495653321E+01  0.51100000000E-03 0. -1.
        -11    1    3    3    0    0 -0.40817790895E+01  0.21221943774E+02  0.81038466314E+01  0.23080384498E+02  0.51100000000E-03 0.  1.
        -12    1    3    3    0    0 -0.63492351298E+01  0.15631568887E+02  0.34068826313E+01  0.17212367120E+02  0.00000000000E+00 0.  1.
</event>
<event>
 7    1  0.3046295E-009  0.4614232E+02  0.7816164E-02  0.1320468E+00
        -11   -1    0    0    0    0  0.00000000000E+00  0.00000000000E+00  0.45593999997E+02  0.45594000000E+02  0.51100000000E-03 0.  1.
         11   -1    0    0    0    0 -0.00000000000E+00 -0.00000000000E+00 -0.45593999997E+02  0.45594000000E+02  0.51100000000E-03 0. -1.
    9900012    2    1    2    0    0  0.97305831806E+01 -0.29769208230E+02  0.32376279020E+02  0.46142318177E+02  0.10000003793E+02 0.  0.
         12    1    1    2    0    0 -0.97305831806E+01  0.29769208230E+02 -0.32376279020E+02  0.45045681823E+02  0.00000000000E+00 0. -1.
         11    1    3    3    0    0  0.12079378940E+01 -0.64385797566E+01  0.12849674041E+02  0.14423194739E+02  0.51100000000E-03 0. -1.
        -11    1    3    3    0    0  0.31693671568E+01 -0.65796602438E+01  0.44251301088E+01  0.85392384813E+01  0.51100000000E-03 0.  1.
         12    1    3    3    0    0  0.53532781297E+01 -0.16750968230E+02  0.15101474870E+02  0.23179884957E+02  0.00000000000E+00 0. -1.
</event>
<event>
 7    1  0.3046295E-009  0.4614232E+02  0.7816164E-02  0.1320468E+00
        -11   -1    0    0    0    0  0.00000000000E+00  0.00000000000E+00  0.45593999997E+02  0.45594000000E+02  0.51100000000E-03 0. -1.
         11   -1    0    0    0    0 -0.00000000000E+00 -0.00000000000E+00 -0.45593999997E+02  0.45594000000E+02  0.51100000000E-03 0.  1.
    9900012    2    1    2    0    0  0.15173581450E+02  0.24817766377E+02 -0.34394104389E+02  0.46142317424E+02  0.99999969296E+01 0.  0.
         12    1    1    2    0    0 -0.15173581450E+02 -0.24817766377E+02  0.34394104389E+02  0.45045682576E+02  0.00000000000E+00 0. -1.
         11    1    3    3    0    0  0.24466564890E+01  0.32973385494E+01 -0.81034365395E+01  0.90842860751E+01  0.51100000000E-03 0.  1.
        -11    1    3    3    0    0  0.44371935058E+01  0.12339212254E+02 -0.17567475344E+02  0.21921702385E+02  0.51100000000E-03 0. -1.
        -12    1    3    3    0    0  0.82897314551E+01  0.91812155738E+01 -0.87231925062E+01  0.15136328964E+02  0.00000000000E+00 0.  1.
</event>
<event>
 7    1  0.3046295E-009  0.4614232E+02  0.7816164E-02  0.1320468E+00
        -11   -1    0    0    0    0  0.00000000000E+00  0.00000000000E+00  0.45593999997E+02  0.45594000000E+02  0.51100000000E-03 0. -1.
         11   -1    0    0    0    0 -0.00000000000E+00 -0.00000000000E+00 -0.45593999997E+02  0.45594000000E+02  0.51100000000E-03 0.  1.
    9900012    2    1    2    0    0  0.21208783433E+02  0.79717558674E+01 -0.38932660577E+02  0.46142318232E+02  0.10000004298E+02 0.  0.
         12    1    1    2    0    0 -0.21208783433E+02 -0.79717558674E+01  0.38932660577E+02  0.45045681768E+02  0.00000000000E+00 0. -1.
         11    1    3    3    0    0  0.91005400462E+00  0.36715868603E+00  0.17574935974E+00  0.99694126739E+00  0.51100000000E-03 0. -1.
        -11    1    3    3    0    0  0.59737930226E+01  0.52462781750E+01 -0.15752141613E+02  0.17644818033E+02  0.51100000000E-03 0.  1.
         12    1    3    3    0    0  0.14324936405E+02  0.23583190064E+01 -0.23356268324E+02  0.27500558932E+02  0.00000000000E+00 0. -1.
</event>
<event>
 7    1  0.3046295E-009  0.4614232E+02  0.7816164E-02  0.1320468E+00
        -11   -1    0    0    0    0  0.00000000000E+00  0.00000000000E+00  0.45593999997E+02  0.45594000000E+02  0.51100000000E-03 0.  1.
         11   -1    0    0    0    0 -0.00000000000E+00 -0.00000000000E+00 -0.45593999997E+02  0.45594000000E+02  0.51100000000E-03 0. -1.
    9900012    2    1    2    0    0 -0.16972887963E+02 -0.22509561107E+02  0.35133377249E+02  0.46142318033E+02  0.10000002476E+02 0.  0.
         12    1    1    2    0    0  0.16972887963E+02  0.22509561107E+02 -0.35133377249E+02  0.45045681967E+02  0.00000000000E+00 0. -1.
         11    1    3    3    0    0 -0.90445524948E+01 -0.65009644629E+01  0.15344285545E+02  0.18960843017E+02  0.51100000000E-03 0. -1.
        -11    1    3    3    0    0 -0.81068191339E+01 -0.11869276489E+02  0.16564691182E+02  0.21931466778E+02  0.51100000000E-03 0.  1.
         12    1    3    3    0    0  0.17848366592E+00 -0.41393201548E+01  0.32244005219E+01  0.52500082370E+01  0.00000000000E+00 0. -1.
</event>
<event>
 7    1  0.3046295E-009  0.4614232E+02  0.7816164E-02  0.1320468E+00
        -11   -1    0    0    0    0  0.00000000000E+00  0.00000000000E+00  0.45593999997E+02  0.45594000000E+02  0.51100000000E-03 0.  1.
         11   -1    0    0    0    0 -0.00000000000E+00 -0.00000000000E+00 -0.45593999997E+02  0.45594000000E+02  0.51100000000E-03 0. -1.
    9900012    2    1    2    0    0 -0.52259472703E+01  0.40212076227E+02 -0.19616112998E+02  0.46142317760E+02  0.99999999856E+01 0.  0.
         12    1    1    2    0    0  0.52259472703E+01 -0.40212076227E+02  0.19616112998E+02  0.45045682240E+02  0.00000000000E+00 0. -1.
         11    1    3    3    0    0  0.28510986705E+01  0.11373200129E+02 -0.61319437532E+01  0.13231748912E+02  0.51100000000E-03 0. -1.
        -11    1    3    3    0    0 -0.76430309162E+01  0.27761499497E+02 -0.12509674243E+02  0.31394405965E+02  0.51100000000E-03 0.  1.
         12    1    3    3    0    0 -0.43401502461E+00  0.10773766002E+01 -0.97449500171E+00  0.15161628832E+01  0.00000000000E+00 0. -1.
</event>
<event>
 7    1  0.3046295E-009  0.4614232E+02  0.7816164E-02  0.1320468E+00
        -11   -1    0    0    0    0  0.00000000000E+00  0.00000000000E+00  0.45593999997E+02  0.45594000000E+02  0.51100000000E-03 0.  1.
         11   -1    0    0    0    0 -0.00000000000E+00 -0.00000000000E+00 -0.45593999997E+02  0.45594000000E+02  0.51100000000E-03 0. -1.
    9900012    2    1    2    0    0 -0.37240199731E+02  0.92524169633E+01  0.23593935406E+02  0.46142317814E+02  0.10000000478E+02 0.  0.
         12    1    1    2    0    0  0.37240199731E+02 -0.92524169633E+01 -0.23593935406E+02  0.45045682186E+02  0.00000000000E+00 0. -1.
         11    1    3    3    0    0 -0.17037216111E+02  0.23212755899E+01  0.12839943486E+02  0.21459711139E+02  0.51100000000E-03 0. -1.
        -11    1    3    3    0    0 -0.14853344663E+02  0.34511997693E+01  0.48850956589E+01  0.16012394805E+02  0.51100000000E-03 0.  1.
        -12    1    3    3    0    0 -0.53496389570E+01  0.34799416041E+01  0.58688962614E+01  0.86702118697E+01  0.00000000000E+00 0.  1.
</event>
<event>
 7    1  0.3046295E-009  0.4614232E+02  0.7816164E-02  0.1320468E+00
        -11   -1    0    0    0    0  0.00000000000E+00  0.00000000000E+00  0.45593999997E+02  0.45594000000E+02  0.51100000000E-03 0.  1.
         11   -1    0    0    0    0 -0.00000000000E+00 -0.00000000000E+00 -0.45593999997E+02  0.45594000000E+02  0.51100000000E-03 0. -1.
    9900012    2    1    2    0    0 -0.12733258003E+02  0.15333735354E+02  0.40396215431E+02  0.46142317406E+02  0.99999967576E+01 0.  0.
         12    1    1    2    0    0  0.12733258003E+02 -0.15333735354E+02 -0.40396215431E+02  0.45045682594E+02  0.00000000000E+00 0. -1.
         11    1    3    3    0    0  0.34688366788E+00  0.76019383536E+00  0.42118567799E+01  0.42939446599E+01  0.51100000000E-03 0. -1.
        -11    1    3    3    0    0 -0.27955228997E+01  0.61581104709E+01  0.18712388305E+02  0.19897003523E+02  0.51100000000E-03 0.  1.
        -12    1    3    3    0    0 -0.10284618771E+02  0.84154310474E+01  0.17471970346E+02  0.21951369222E+02  0.00000000000E+00 0.  1.
</event>
<event>
 7    1  0.3046295E-009  0.4614232E+02  0.7816164E-02  0.1320468E+00
        -11   -1    0    0    0    0  0.00000000000E+00  0.00000000000E+00  0.45593999997E+02  0.45594000000E+02  0.51100000000E-03 0.  1.
         11   -1    0    0    0    0 -0.00000000000E+00 -0.00000000000E+00 -0.45593999997E+02  0.45594000000E+02  0.51100000000E-03 0. -1.
    9900012    2    1    2    0    0  0.42923881699E+02  0.28930251007E+00  0.13659070755E+02  0.46142317300E+02  0.99999957940E+01 0.  0.
         12    1    1    2    0    0 -0.42923881699E+02 -0.28930251007E+00 -0.13659070755E+02  0.45045682700E+02  0.00000000000E+00 0. -1.
         11    1    3    3    0    0  0.18957813249E+02 -0.15893484518E+01  0.71929825392E+01  0.20338724389E+02  0.51100000000E-03 0. -1.
        -11    1    3    3    0    0  0.61186002396E+01 -0.23857146399E+01  0.25206009285E+01  0.70343679557E+01  0.51100000000E-03 0.  1.
        -12    1    3    3    0    0  0.17847468210E+02  0.42643656017E+01  0.39454872877E+01  0.18769224955E+02  0.00000000000E+00 0.  1.
</event>
<event>
 7    1  0.3046295E-009  0.4614232E+02  0.7816164E-02  0.1320468E+00
        -11   -1    0    0    0    0  0.00000000000E+00  0.00000000000E+00  0.45593999997E+02  0.45594000000E+02  0.51100000000E-03 0.  1.
         11   -1    0    0    0    0 -0.00000000000E+00 -0.00000000000E+00 -0.45593999997E+02  0.45594000000E+02  0.51100000000E-03 0. -1.
    9900012    2    1    2    0    0 -0.37085436799E+01  0.28111223016E+02  0.35001706809E+02  0.46142316131E+02  0.99999851356E+01 0.  0.
         12    1    1    2    0    0  0.37085436799E+01 -0.28111223016E+02 -0.35001706809E+02  0.45045683869E+02  0.00000000000E+00 0. -1.
         11    1    3    3    0    0  0.15502606383E+00  0.10158612888E+02  0.13449690681E+02  0.16855729844E+02  0.51100000000E-03 0. -1.
        -11    1    3    3    0    0 -0.49928694114E+01  0.12324397363E+02  0.18506383118E+02  0.22788280578E+02  0.51100000000E-03 0.  1.
        -12    1    3    3    0    0  0.11292996677E+01  0.56282127644E+01  0.30456330106E+01  0.64983057096E+01  0.00000000000E+00 0.  1.
</event>
<event>
 7    1  0.3046295E-009  0.4614232E+02  0.7816164E-02  0.1320468E+00
        -11   -1    0    0    0    0  0.00000000000E+00  0.00000000000E+00  0.45593999997E+02  0.45594000000E+02  0.51100000000E-03 0. -1.
         11   -1    0    0    0    0 -0.00000000000E+00 -0.00000000000E+00 -0.45593999997E+02  0.45594000000E+02  0.51100000000E-03 0.  1.
    9900012    2    1    2    0    0 -0.98268258701E+01  0.42778969003E+02 -0.10124562542E+02  0.46142318051E+02  0.10000002640E+02 0.  0.
         12    1    1    2    0    0  0.98268258701E+01 -0.42778969003E+02  0.10124562542E+02  0.45045681949E+02  0.00000000000E+00 0. -1.
         11    1    3    3    0    0 -0.47501744737E+01  0.15580005576E+02 -0.14585514867E+01  0.16353229160E+02  0.51100000000E-03 0. -1.
        -11    1    3    3    0    0 -0.41887150288E+01  0.71020672396E+01 -0.38723267105E+01  0.91093143036E+01  0.51100000000E-03 0.  1.
         12    1    3    3    0    0 -0.88793636763E+00  0.20096896187E+02 -0.47936843445E+01  0.20679774587E+02  0.00000000000E+00 0. -1.
</event>
<event>
 7    1  0.3046295E-009  0.4614232E+02  0.7816164E-02  0.1320468E+00
        -11   -1    0    0    0    0  0.00000000000E+00  0.00000000000E+00  0.45593999997E+02  0.45594000000E+02  0.51100000000E-03 0.  1.
         11   -1    0    0    0    0 -0.00000000000E+00 -0.00000000000E+00 -0.45593999997E+02  0.45594000000E+02  0.51100000000E-03 0. -1.
    9900012    2    1    2    0    0  0.33109562851E+01 -0.34872221256E+02  0.28320996631E+02  0.46142322105E+02  0.10000039614E+02 0.  0.
         12    1    1    2    0    0 -0.33109562851E+01  0.34872221256E+02 -0.28320996631E+02  0.45045677895E+02  0.00000000000E+00 0. -1.
         11    1    3    3    0    0 -0.15297571391E+01 -0.13248973989E+02  0.67178193070E+01  0.14933337375E+02  0.51100000000E-03 0. -1.
        -11    1    3    3    0    0  0.10560052594E+01 -0.13706285342E+02  0.13016263460E+02  0.18931469032E+02  0.51100000000E-03 0.  1.
         12    1    3    3    0    0  0.37847081649E+01 -0.79169619249E+01  0.85869138633E+01  0.12277515698E+02  0.00000000000E+00 0. -1.
</event>
<event>
 7    1  0.3046295E-009  0.4614232E+02  0.7816164E-02  0.1320468E+00
        -11   -1    0    0    0    0  0.00000000000E+00  0.00000000000E+00  0.45593999997E+02  0.45594000000E+02  0.51100000000E-03 0.  1.
         11   -1    0    0    0    0 -0.00000000000E+00 -0.00000000000E+00 -0.45593999997E+02  0.45594000000E+02  0.51100000000E-03 0. -1.
    9900012    2    1    2    0    0  0.73632284671E+01 -0.44823400226E+00  0.44437543561E+02  0.46142319575E+02  0.10000016542E+02 0.  0.
         12    1    1    2    0    0 -0.73632284671E+01  0.44823400226E+00 -0.44437543561E+02  0.45045680425E+02  0.00000000000E+00 0. -1.
         11    1    3    3    0    0  0.44779278876E+01 -0.15301722831E+01  0.31194627144E+02  0.31551513883E+02  0.51100000000E-03 0. -1.
        -11    1    3    3    0    0  0.25412036339E+01  0.15982693701E+01  0.13563950967E+02  0.13892190144E+02  0.51100000000E-03 0.  1.
         12    1    3    3    0    0  0.34409694556E+00 -0.51633108924E+00 -0.32103455035E+00  0.69861554819E+00  0.00000000000E+00 0. -1.
</event>
<event>
 7    1  0.3046295E-009  0.4614232E+02  0.7816164E-02  0.1320468E+00
        -11   -1    0    0    0    0  0.00000000000E+00  0.00000000000E+00  0.45593999997E+02  0.45594000000E+02  0.51100000000E-03 0.  1.
         11   -1    0    0    0    0 -0.00000000000E+00 -0.00000000000E+00 -0.45593999997E+02  0.45594000000E+02  0.51100000000E-03 0. -1.
    9900012    2    1    2    0    0  0.44334680331E+02  0.37203878989E+01 -0.70504157225E+01  0.46142317321E+02  0.99999959824E+01 0.  0.
         12    1    1    2    0    0 -0.44334680331E+02 -0.37203878989E+01  0.70504157225E+01  0.45045682679E+02  0.00000000000E+00 0. -1.
         11    1    3    3    0    0  0.91459760247E+01  0.43891185908E+01 -0.18923704209E+01  0.10319607818E+02  0.51100000000E-03 0. -1.
        -11    1    3    3    0    0  0.15475287643E+02  0.16422171908E+01 -0.30994953141E+01  0.15867837798E+02  0.51100000000E-03 0.  1.
         12    1    3    3    0    0  0.19713416664E+02 -0.23109478827E+01 -0.20585499875E+01  0.19954871704E+02  0.00000000000E+00 0. -1.
</event>
<event>
 7    1  0.3046295E-009  0.4614232E+02  0.7816164E-02  0.1320468E+00
        -11   -1    0    0    0    0  0.00000000000E+00  0.00000000000E+00  0.45593999997E+02  0.45594000000E+02  0.51100000000E-03 0.  1.
         11   -1    0    0    0    0 -0.00000000000E+00 -0.00000000000E+00 -0.45593999997E+02  0.45594000000E+02  0.51100000000E-03 0. -1.
    9900012    2    1    2    0    0  0.34629690041E+02  0.14400053189E+02  0.24950682772E+02  0.46142317243E+02  0.99999952782E+01 0.  0.
         12    1    1    2    0    0 -0.34629690041E+02 -0.14400053189E+02 -0.24950682772E+02  0.45045682757E+02  0.00000000000E+00 0. -1.
         11    1    3    3    0    0  0.39925695407E+01  0.25871543675E+01  0.64647503564E+01  0.80266416820E+01  0.51100000000E-03 0. -1.
        -11    1    3    3    0    0  0.94790790700E+01  0.28176277475E+01  0.85385136918E+01  0.13065151452E+02  0.51100000000E-03 0.  1.
        -12    1    3    3    0    0  0.21158041431E+02  0.89952710738E+01  0.99474187243E+01  0.25050524109E+02  0.00000000000E+00 0.  1.
</event>
<event>
 7    1  0.3046295E-009  0.4614232E+02  0.7816164E-02  0.1320468E+00
        -11   -1    0    0    0    0  0.00000000000E+00  0.00000000000E+00  0.45593999997E+02  0.45594000000E+02  0.51100000000E-03 0. -1.
         11   -1    0    0    0    0 -0.00000000000E+00 -0.00000000000E+00 -0.45593999997E+02  0.45594000000E+02  0.51100000000E-03 0.  1.
    9900012    2    1    2    0    0 -0.25653318897E+02  0.13291979999E+02 -0.34559282241E+02  0.46142317724E+02  0.99999996637E+01 0.  0.
         12    1    1    2    0    0  0.25653318897E+02 -0.13291979999E+02  0.34559282241E+02  0.45045682276E+02  0.00000000000E+00 0. -1.
         11    1    3    3    0    0 -0.78659482257E+01 -0.89431823708E-01 -0.77563101416E+01  0.11047238877E+02  0.51100000000E-03 0. -1.
        -11    1    3    3    0    0 -0.11817332852E+02  0.63879894659E+01 -0.16745481144E+02  0.21467810884E+02  0.51100000000E-03 0.  1.
        -12    1    3    3    0    0 -0.59700378193E+01  0.69934223566E+01 -0.10057490955E+02  0.13627267963E+02  0.00000000000E+00 0.  1.
</event>
<event>
 7    1  0.3046295E-009  0.4614232E+02  0.7816164E-02  0.1320468E+00
        -11   -1    0    0    0    0  0.00000000000E+00  0.00000000000E+00  0.45593999997E+02  0.45594000000E+02  0.51100000000E-03 0.  1.
         11   -1    0    0    0    0 -0.00000000000E+00 -0.00000000000E+00 -0.45593999997E+02  0.45594000000E+02  0.51100000000E-03 0. -1.
    9900012    2    1    2    0    0  0.22547454381E+01 -0.33467677286E+02  0.30065664471E+02  0.46142317854E+02  0.10000000843E+02 0.  0.
         12    1    1    2    0    0 -0.22547454381E+01  0.33467677286E+02 -0.30065664471E+02  0.45045682146E+02  0.00000000000E+00 0. -1.
         11    1    3    3    0    0  0.14418177117E+01 -0.13485558693E+02  0.18519787113E+02  0.22954773938E+02  0.51100000000E-03 0. -1.
        -11    1    3    3    0    0 -0.64999815838E+00 -0.91941620665E+01  0.55454203267E+01  0.10756709561E+02  0.51100000000E-03 0.  1.
         12    1    3    3    0    0  0.14629258848E+01 -0.10787956527E+02  0.60004570313E+01  0.12430834355E+02  0.00000000000E+00 0. -1.
</event>
<event>
 7    1  0.3046295E-009  0.4614232E+02  0.7816164E-02  0.1320468E+00
        -11   -1    0    0    0    0  0.00000000000E+00  0.00000000000E+00  0.45593999997E+02  0.45594000000E+02  0.51100000000E-03 0.  1.
         11   -1    0    0    0    0 -0.00000000000E+00 -0.00000000000E+00 -0.45593999997E+02  0.45594000000E+02  0.51100000000E-03 0. -1.
    9900012    2    1    2    0    0 -0.12959257540E+02 -0.29600822834E+01  0.43039621511E+02  0.46142318043E+02  0.10000002572E+02 0.  0.
         12    1    1    2    0    0  0.12959257540E+02  0.29600822834E+01 -0.43039621511E+02  0.45045681957E+02  0.00000000000E+00 0. -1.
         11    1    3    3    0    0  0.44973762057E+00  0.14168125497E+00  0.42870751738E+01  0.43129283918E+01  0.51100000000E-03 0. -1.
        -11    1    3    3    0    0 -0.73256877299E+01 -0.10452381604E+01  0.10432519695E+02  0.12790453118E+02  0.51100000000E-03 0.  1.
        -12    1    3    3    0    0 -0.60833074305E+01 -0.20565253780E+01  0.28320026643E+02  0.29038936533E+02  0.00000000000E+00 0.  1.
</event>
<event>
 7    1  0.3046295E-009  0.4614232E+02  0.7816164E-02  0.1320468E+00
        -11   -1    0    0    0    0  0.00000000000E+00  0.00000000000E+00  0.45593999997E+02  0.45594000000E+02  0.51100000000E-03 0.  1.
         11   -1    0    0    0    0 -0.00000000000E+00 -0.00000000000E+00 -0.45593999997E+02  0.45594000000E+02  0.51100000000E-03 0. -1.
    9900012    2    1    2    0    0  0.68407373859E+01 -0.24614188393E+01  0.44455137787E+02  0.46142317118E+02  0.99999941331E+01 0.  0.
         12    1    1    2    0    0 -0.68407373859E+01  0.24614188393E+01 -0.44455137787E+02  0.45045682882E+02  0.00000000000E+00 0. -1.
         11    1    3    3    0    0  0.12504488232E+00 -0.28227544085E+01  0.59810875977E+01  0.66149064835E+01  0.51100000000E-03 0. -1.
        -11    1    3    3    0    0  0.41755769085E+01 -0.15987383428E+01  0.31904204097E+02  0.32215984327E+02  0.51100000000E-03 0.  1.
        -12    1    3    3    0    0  0.25401155951E+01  0.19600739120E+01  0.65698460919E+01  0.73114263074E+01  0.00000000000E+00 0.  1.
</event>
<event>
 7    1  0.3046295E-009  0.4614232E+02  0.7816164E-02  0.1320468E+00
        -11   -1    0    0    0    0  0.00000000000E+00  0.00000000000E+00  0.45593999997E+02  0.45594000000E+02  0.51100000000E-03 0.  1.
         11   -1    0    0    0    0 -0.00000000000E+00 -0.00000000000E+00 -0.45593999997E+02  0.45594000000E+02  0.51100000000E-03 0. -1.
    9900012    2    1    2    0    0  0.33233588302E+02 -0.26401245770E+02  0.15086957826E+02  0.46142318008E+02  0.10000002254E+02 0.  0.
         12    1    1    2    0    0 -0.33233588302E+02  0.26401245770E+02 -0.15086957826E+02  0.45045681992E+02  0.00000000000E+00 0. -1.
         11    1    3    3    0    0  0.11846904314E+00 -0.74263060179E+00 -0.87401053174E+00  0.11530090180E+01  0.51100000000E-03 0. -1.
        -11    1    3    3    0    0  0.15027540532E+02 -0.14031562302E+02  0.79239342543E+01  0.22034074734E+02  0.51100000000E-03 0.  1.
         12    1    3    3    0    0  0.18087578727E+02 -0.11627052867E+02  0.80370341031E+01  0.22955234256E+02  0.00000000000E+00 0. -1.
</event>
<event>
 7    1  0.3046295E-009  0.4614232E+02  0.7816164E-02  0.1320468E+00
        -11   -1    0    0    0    0  0.00000000000E+00  0.00000000000E+00  0.45593999997E+02  0.45594000000E+02  0.51100000000E-03 0.  1.
         11   -1    0    0    0    0 -0.00000000000E+00 -0.00000000000E+00 -0.45593999997E+02  0.45594000000E+02  0.51100000000E-03 0. -1.
    9900012    2    1    2    0    0 -0.29374623855E+02  0.29059270091E+02  0.17938890511E+02  0.46142317659E+02  0.99999990667E+01 0.  0.
         12    1    1    2    0    0  0.29374623855E+02 -0.29059270091E+02 -0.17938890511E+02  0.45045682341E+02  0.00000000000E+00 0. -1.
         11    1    3    3    0    0 -0.86533946304E+01  0.50123833651E+01  0.30167977611E+01  0.10445395858E+02  0.51100000000E-03 0. -1.
        -11    1    3    3    0    0 -0.20192817476E+02  0.20282076869E+02  0.13400943000E+02  0.31602180198E+02  0.51100000000E-03 0.  1.
        -12    1    3    3    0    0 -0.52841174856E+00  0.37648098568E+01  0.15211497495E+01  0.40947416028E+01  0.00000000000E+00 0.  1.
</event>
<event>
 7    1  0.3046295E-009  0.4614232E+02  0.7816164E-02  0.1320468E+00
        -11   -1    0    0    0    0  0.00000000000E+00  0.00000000000E+00  0.45593999997E+02  0.45594000000E+02  0.51100000000E-03 0.  1.
         11   -1    0    0    0    0 -0.00000000000E+00 -0.00000000000E+00 -0.45593999997E+02  0.45594000000E+02  0.51100000000E-03 0. -1.
    9900012    2    1    2    0    0 -0.50473350027E+01 -0.11243445091E+02  0.43326929741E+02  0.46142317755E+02  0.99999999401E+01 0.  0.
         12    1    1    2    0    0  0.50473350027E+01  0.11243445091E+02 -0.43326929741E+02  0.45045682245E+02  0.00000000000E+00 0. -1.
         11    1    3    3    0    0 -0.40085001288E+01 -0.25637211422E+01  0.73573322268E+01  0.87619105870E+01  0.51100000000E-03 0. -1.
        -11    1    3    3    0    0 -0.94748018710E+00 -0.49490226397E+00  0.99370827212E+00  0.14594873576E+01  0.51100000000E-03 0.  1.
         12    1    3    3    0    0 -0.91354686759E-01 -0.81848216853E+01  0.34975889242E+02  0.35920919810E+02  0.00000000000E+00 0. -1.
</event>
<event>
 7    1  0.3046295E-009  0.4614232E+02  0.7816164E-02  0.1320468E+00
        -11   -1    0    0    0    0  0.00000000000E+00  0.00000000000E+00  0.45593999997E+02  0.45594000000E+02  0.51100000000E-03 0.  1.
         11   -1    0    0    0    0 -0.00000000000E+00 -0.00000000000E+00 -0.45593999997E+02  0.45594000000E+02  0.51100000000E-03 0. -1.
    9900012    2    1    2    0    0 -0.25974745001E+02 -0.12380924138E+02  0.34657445104E+02  0.46142321389E+02  0.10000033078E+02 0.  0.
         12    1    1    2    0    0  0.25974745001E+02  0.12380924138E+02 -0.34657445104E+02  0.45045678611E+02  0.00000000000E+00 0. -1.
         11    1    3    3    0    0 -0.64262224210E+00 -0.62957229510E+00  0.59771710846E+00  0.10800882481E+01  0.51100000000E-03 0. -1.
        -11    1    3    3    0    0 -0.55166582796E+00  0.11609172469E+01  0.31076403674E+01  0.33629589582E+01  0.51100000000E-03 0.  1.
        -12    1    3    3    0    0 -0.24780456931E+02 -0.12912269090E+02  0.30952087628E+02  0.41699274182E+02  0.00000000000E+00 0.  1.
</event>
<event>
 7    1  0.3046295E-009  0.4614232E+02  0.7816164E-02  0.1320468E+00
        -11   -1    0    0    0    0  0.00000000000E+00  0.00000000000E+00  0.45593999997E+02  0.45594000000E+02  0.51100000000E-03 0. -1.
         11   -1    0    0    0    0 -0.00000000000E+00 -0.00000000000E+00 -0.45593999997E+02  0.45594000000E+02  0.51100000000E-03 0.  1.
    9900012    2    1    2    0    0  0.69532472273E+01 -0.44172119723E+02  0.54396298557E+01  0.46142318955E+02  0.10000010890E+02 0.  0.
         12    1    1    2    0    0 -0.69532472273E+01  0.44172119723E+02 -0.54396298557E+01  0.45045681045E+02  0.00000000000E+00 0. -1.
         11    1    3    3    0    0  0.18061333718E+01 -0.10497770588E+02 -0.21490017335E+01  0.10866623845E+02  0.51100000000E-03 0.  1.
        -11    1    3    3    0    0  0.45152362327E+01 -0.33485626231E+02  0.73957178387E+01  0.34588598771E+02  0.51100000000E-03 0. -1.
         12    1    3    3    0    0  0.63187762274E+00 -0.18872290347E+00  0.19291375057E+00  0.68709633936E+00  0.00000000000E+00 0. -1.
</event>
<event>
 7    1  0.3046295E-009  0.4614232E+02  0.7816164E-02  0.1320468E+00
        -11   -1    0    0    0    0  0.00000000000E+00  0.00000000000E+00  0.45593999997E+02  0.45594000000E+02  0.51100000000E-03 0.  1.
         11   -1    0    0    0    0 -0.00000000000E+00 -0.00000000000E+00 -0.45593999997E+02  0.45594000000E+02  0.51100000000E-03 0. -1.
    9900012    2    1    2    0    0  0.21116808666E+02  0.11966300469E+02  0.37947351661E+02  0.46142318152E+02  0.10000003561E+02 0.  0.
         12    1    1    2    0    0 -0.21116808666E+02 -0.11966300469E+02 -0.37947351661E+02  0.45045681848E+02  0.00000000000E+00 0. -1.
         11    1    3    3    0    0  0.53150582495E+01  0.78081431928E+01  0.17794311459E+02  0.20145829963E+02  0.51100000000E-03 0. -1.
        -11    1    3    3    0    0  0.95648334262E+00  0.20000289077E+00  0.19124216444E+01  0.21476075871E+01  0.51100000000E-03 0.  1.
         12    1    3    3    0    0  0.14845267074E+02  0.39581543856E+01  0.18240618557E+02  0.23848880602E+02  0.00000000000E+00 0. -1.
</event>
<event>
 7    1  0.3046295E-009  0.4614232E+02  0.7816164E-02  0.1320468E+00
        -11   -1    0    0    0    0  0.00000000000E+00  0.00000000000E+00  0.45593999997E+02  0.45594000000E+02  0.51100000000E-03 0.  1.
         11   -1    0    0    0    0 -0.00000000000E+00 -0.00000000000E+00 -0.45593999997E+02  0.45594000000E+02  0.51100000000E-03 0. -1.
    9900012    2    1    2    0    0 -0.37876557344E+02  0.25577086107E+01  0.24247433139E+02  0.46142317816E+02  0.10000000502E+02 0.  0.
         12    1    1    2    0    0  0.37876557344E+02 -0.25577086107E+01 -0.24247433139E+02  0.45045682184E+02  0.00000000000E+00 0. -1.
         11    1    3    3    0    0  0.75852947899E-02  0.12729157049E+00  0.13118361493E+01  0.13180193566E+01  0.51100000000E-03 0. -1.
        -11    1    3    3    0    0 -0.15369912714E+02 -0.35127421612E+00  0.12680136894E+02  0.19928459105E+02  0.51100000000E-03 0.  1.
        -12    1    3    3    0    0 -0.22514229926E+02  0.27816912564E+01  0.10255460095E+02  0.24895839354E+02  0.00000000000E+00 0.  1.
</event>
<event>
 7    1  0.3046295E-009  0.4614232E+02  0.7816164E-02  0.1320468E+00
        -11   -1    0    0    0    0  0.00000000000E+00  0.00000000000E+00  0.45593999997E+02  0.45594000000E+02  0.51100000000E-03 0.  1.
         11   -1    0    0    0    0 -0.00000000000E+00 -0.00000000000E+00 -0.45593999997E+02  0.45594000000E+02  0.51100000000E-03 0. -1.
    9900012    2    1    2    0    0  0.25301225695E+02 -0.42583968956E+01  0.37024679964E+02  0.46142324378E+02  0.10000060341E+02 0.  0.
         12    1    1    2    0    0 -0.25301225695E+02  0.42583968956E+01 -0.37024679964E+02  0.45045675622E+02  0.00000000000E+00 0. -1.
         11    1    3    3    0    0  0.78478146685E+01  0.52322848558E+00  0.17138335181E+02  0.18856948220E+02  0.51100000000E-03 0. -1.
        -11    1    3    3    0    0  0.17241361714E+02 -0.48934759355E+01  0.20123975239E+02  0.26947820695E+02  0.51100000000E-03 0.  1.
         12    1    3    3    0    0  0.21204931181E+00  0.11185055432E+00 -0.23763045669E+00  0.33755546372E+00  0.00000000000E+00 0. -1.
</event>
<event>
 7    1  0.3046295E-009  0.4614232E+02  0.7816164E-02  0.1320468E+00
        -11   -1    0    0    0    0  0.00000000000E+00  0.00000000000E+00  0.45593999997E+02  0.45594000000E+02  0.51100000000E-03 0.  1.
         11   -1    0    0    0    0 -0.00000000000E+00 -0.00000000000E+00 -0.45593999997E+02  0.45594000000E+02  0.51100000000E-03 0. -1.
    9900012    2    1    2    0    0 -0.40579211411E+01  0.20064130553E+02  0.40125770796E+02  0.46142317179E+02  0.99999946935E+01 0.  0.
         12    1    1    2    0    0  0.40579211411E+01 -0.20064130553E+02 -0.40125770796E+02  0.45045682821E+02  0.00000000000E+00 0. -1.
         11    1    3    3    0    0 -0.46012109975E+01  0.12999609697E+02  0.20426422285E+02  0.24645480773E+02  0.51100000000E-03 0. -1.
        -11    1    3    3    0    0 -0.11607764460E+01  0.58367506194E+00  0.10198616599E+01  0.16517253409E+01  0.51100000000E-03 0.  1.
         12    1    3    3    0    0  0.17040663023E+01  0.64808457940E+01  0.18679486851E+02  0.19845111065E+02  0.00000000000E+00 0. -1.
</event>
<event>
 7    1  0.3046295E-009  0.4614232E+02  0.7816164E-02  0.1320468E+00
        -11   -1    0    0    0    0  0.00000000000E+00  0.00000000000E+00  0.45593999997E+02  0.45594000000E+02  0.51100000000E-03 0.  1.
         11   -1    0    0    0    0 -0.00000000000E+00 -0.00000000000E+00 -0.45593999997E+02  0.45594000000E+02  0.51100000000E-03 0. -1.
    9900012    2    1    2    0    0  0.40772489416E+01 -0.34671823763E+02  0.28466723039E+02  0.46142316049E+02  0.99999843911E+01 0.  0.
         12    1    1    2    0    0 -0.40772489416E+01  0.34671823763E+02 -0.28466723039E+02  0.45045683951E+02  0.00000000000E+00 0. -1.
         11    1    3    3    0    0  0.53290745332E+01 -0.16225366801E+02  0.10032295388E+02  0.19806779501E+02  0.51100000000E-03 0. -1.
        -11    1    3    3    0    0  0.22431227289E+00 -0.10427457750E+02  0.12331489047E+02  0.16150783681E+02  0.51100000000E-03 0.  1.
        -12    1    3    3    0    0 -0.14761378645E+01 -0.80189992126E+01  0.61029386038E+01  0.10184752867E+02  0.00000000000E+00 0.  1.
</event>
<event>
 7    1  0.3046295E-009  0.4614232E+02  0.7816164E-02  0.1320468E+00
        -11   -1    0    0    0    0  0.00000000000E+00  0.00000000000E+00  0.45593999997E+02  0.45594000000E+02  0.51100000000E-03 0.  1.
         11   -1    0    0    0    0 -0.00000000000E+00 -0.00000000000E+00 -0.45593999997E+02  0.45594000000E+02  0.51100000000E-03 0. -1.
    9900012    2    1    2    0    0 -0.17222626275E+02 -0.14254920681E+02  0.39106160027E+02  0.46142319058E+02  0.10000011829E+02 0.  0.
         12    1    1    2    0    0  0.17222626275E+02  0.14254920681E+02 -0.39106160027E+02  0.45045680942E+02  0.00000000000E+00 0. -1.
         11    1    3    3    0    0 -0.79145606268E+01 -0.64685992523E+01  0.91206941629E+01  0.13699274013E+02  0.51100000000E-03 0. -1.
        -11    1    3    3    0    0 -0.69511442995E+01 -0.43191695633E+01  0.20444883204E+02  0.22021963633E+02  0.51100000000E-03 0.  1.
         12    1    3    3    0    0 -0.23569213489E+01 -0.34671518660E+01  0.95405826599E+01  0.10421081412E+02  0.00000000000E+00 0. -1.
</event>
<event>
 7    1  0.3046295E-009  0.4614232E+02  0.7816164E-02  0.1320468E+00
        -11   -1    0    0    0    0  0.00000000000E+00  0.00000000000E+00  0.45593999997E+02  0.45594000000E+02  0.51100000000E-03 0.  1.
         11   -1    0    0    0    0 -0.00000000000E+00 -0.00000000000E+00 -0.45593999997E+02  0.45594000000E+02  0.51100000000E-03 0. -1.
    9900012    2    1    2    0    0 -0.23030813207E+02 -0.37165938520E+02 -0.10834579053E+02  0.46142318228E+02  0.10000004257E+02 0.  0.
         12    1    1    2    0    0  0.23030813207E+02  0.37165938520E+02  0.10834579053E+02  0.45045681772E+02  0.00000000000E+00 0. -1.
         11    1    3    3    0    0 -0.54689934370E+01 -0.97345664873E+01  0.57317348388E+00  0.11180348922E+02  0.51100000000E-03 0. -1.
        -11    1    3    3    0    0 -0.10726281374E+01 -0.14299136883E+00  0.47569302259E-01  0.10831623850E+01  0.51100000000E-03 0.  1.
         12    1    3    3    0    0 -0.16489191632E+02 -0.27288380664E+02 -0.11455321839E+02  0.33878806921E+02  0.00000000000E+00 0. -1.
</event>
<event>
 7    1  0.3046295E-009  0.4614231E+02  0.7816164E-02  0.1320468E+00
        -11   -1    0    0    0    0  0.00000000000E+00  0.00000000000E+00  0.45593999997E+02  0.45594000000E+02  0.51100000000E-03 0.  1.
         11   -1    0    0    0    0 -0.00000000000E+00 -0.00000000000E+00 -0.45593999997E+02  0.45594000000E+02  0.51100000000E-03 0. -1.
    9900012    2    1    2    0    0 -0.20059072571E+02  0.11852658209E+02  0.38552068980E+02  0.46142312952E+02  0.99999561451E+01 0.  0.
         12    1    1    2    0    0  0.20059072571E+02 -0.11852658209E+02 -0.38552068980E+02  0.45045687048E+02  0.00000000000E+00 0. -1.
         11    1    3    3    0    0 -0.17015529816E+02  0.51136348340E+01  0.26448473128E+02  0.31862191501E+02  0.51100000000E-03 0. -1.
        -11    1    3    3    0    0 -0.21029385376E+01  0.53053753525E+01  0.10400531511E+02  0.11863406513E+02  0.51100000000E-03 0.  1.
         12    1    3    3    0    0 -0.94060421785E+00  0.14336480220E+01  0.17030643406E+01  0.24167149385E+01  0.00000000000E+00 0. -1.
</event>
<event>
 7    1  0.3046295E-009  0.4614232E+02  0.7816164E-02  0.1320468E+00
        -11   -1    0    0    0    0  0.00000000000E+00  0.00000000000E+00  0.45593999997E+02  0.45594000000E+02  0.51100000000E-03 0.  1.
         11   -1    0    0    0    0 -0.00000000000E+00 -0.00000000000E+00 -0.45593999997E+02  0.45594000000E+02  0.51100000000E-03 0. -1.
    9900012    2    1    2    0    0  0.10363776730E+02  0.29850758441E+02  0.32103550058E+02  0.46142316811E+02  0.99999913383E+01 0.  0.
         12    1    1    2    0    0 -0.10363776730E+02 -0.29850758441E+02 -0.32103550058E+02  0.45045683189E+02  0.00000000000E+00 0. -1.
         11    1    3    3    0    0 -0.48749687266E-01  0.29827481277E+01  0.27267856371E+01  0.40415990767E+01  0.51100000000E-03 0. -1.
        -11    1    3    3    0    0  0.45236283034E+01  0.19392371006E+02  0.23945310219E+02  0.31143300210E+02  0.51100000000E-03 0.  1.
        -12    1    3    3    0    0  0.58888981135E+01  0.74756393075E+01  0.54314542021E+01  0.10957417524E+02  0.00000000000E+00 0.  1.
</event>
<event>
 7    1  0.3046295E-009  0.4614232E+02  0.7816164E-02  0.1320468E+00
        -11   -1    0    0    0    0  0.00000000000E+00  0.00000000000E+00  0.45593999997E+02  0.45594000000E+02  0.51100000000E-03 0. -1.
         11   -1    0    0    0    0 -0.00000000000E+00 -0.00000000000E+00 -0.45593999997E+02  0.45594000000E+02  0.51100000000E-03 0.  1.
    9900012    2    1    2    0    0  0.17389886791E+02 -0.12864142931E+02 -0.39512267233E+02  0.46142316546E+02  0.99999889218E+01 0.  0.
         12    1    1    2    0    0 -0.17389886791E+02  0.12864142931E+02  0.39512267233E+02  0.45045683454E+02  0.00000000000E+00 0. -1.
         11    1    3    3    0    0 -0.62073219202E+00  0.32149265630E+00 -0.32337232614E+01  0.33084184099E+01  0.51100000000E-03 0. -1.
        -11    1    3    3    0    0  0.14219581284E+02 -0.82452405875E+01 -0.28099675427E+02  0.32554143263E+02  0.51100000000E-03 0.  1.
        -12    1    3    3    0    0  0.37910376996E+01 -0.49403949995E+01 -0.81788685438E+01  0.10279754873E+02  0.00000000000E+00 0.  1.
</event>
<event>
 7    1  0.3046295E-009  0.4614232E+02  0.7816164E-02  0.1320468E+00
        -11   -1    0    0    0    0  0.00000000000E+00  0.00000000000E+00  0.45593999997E+02  0.45594000000E+02  0.51100000000E-03 0.  1.
         11   -1    0    0    0    0 -0.00000000000E+00 -0.00000000000E+00 -0.45593999997E+02  0.45594000000E+02  0.51100000000E-03 0. -1.
    9900012    2    1    2    0    0 -0.34435778075E+02  0.26798593965E+02  0.11185982470E+02  0.46142315924E+02  0.99999832437E+01 0.  0.
         12    1    1    2    0    0  0.34435778075E+02 -0.26798593965E+02 -0.11185982470E+02  0.45045684076E+02  0.00000000000E+00 0. -1.
         11    1    3    3    0    0 -0.14242027955E+02  0.72315526882E+01  0.52459353513E+01  0.16812214385E+02  0.51100000000E-03 0. -1.
        -11    1    3    3    0    0 -0.66286549909E+01  0.70354177636E+01 -0.73262547835E+00  0.96939625772E+01  0.51100000000E-03 0.  1.
        -12    1    3    3    0    0 -0.13565095129E+02  0.12531623513E+02  0.66726725973E+01  0.19636138961E+02  0.00000000000E+00 0.  1.
</event>
<event>
 7    1  0.3046295E-009  0.4614232E+02  0.7816164E-02  0.1320468E+00
        -11   -1    0    0    0    0  0.00000000000E+00  0.00000000000E+00  0.45593999997E+02  0.45594000000E+02  0.51100000000E-03 0.  1.
         11   -1    0    0    0    0 -0.00000000000E+00 -0.00000000000E+00 -0.45593999997E+02  0.45594000000E+02  0.51100000000E-03 0. -1.
    9900012    2    1    2    0    0 -0.14861323771E+02 -0.31012899677E+02  0.29093891480E+02  0.46142318609E+02  0.10000007728E+02 0.  0.
         12    1    1    2    0    0  0.14861323771E+02  0.31012899677E+02 -0.29093891480E+02  0.45045681391E+02  0.00000000000E+00 0. -1.
         11    1    3    3    0    0 -0.77091425826E+00 -0.41609913465E+00  0.15889990465E+00  0.89033517524E+00  0.51100000000E-03 0. -1.
        -11    1    3    3    0    0 -0.12457488127E+02 -0.19181408764E+02  0.22320168373E+02  0.31957868657E+02  0.51100000000E-03 0.  1.
        -12    1    3    3    0    0 -0.16329213850E+01 -0.11415391778E+02  0.66148232016E+01  0.13294114776E+02  0.00000000000E+00 0.  1.
</event>
<event>
 7    1  0.3046295E-009  0.4614232E+02  0.7816164E-02  0.1320468E+00
        -11   -1    0    0    0    0  0.00000000000E+00  0.00000000000E+00  0.45593999997E+02  0.45594000000E+02  0.51100000000E-03 0.  1.
         11   -1    0    0    0    0 -0.00000000000E+00 -0.00000000000E+00 -0.45593999997E+02  0.45594000000E+02  0.51100000000E-03 0. -1.
    9900012    2    1    2    0    0  0.35419239819E+02  0.17672726369E+02  0.21500365144E+02  0.46142317544E+02  0.99999980157E+01 0.  0.
         12    1    1    2    0    0 -0.35419239819E+02 -0.17672726369E+02 -0.21500365144E+02  0.45045682456E+02  0.00000000000E+00 0. -1.
         11    1    3    3    0    0  0.26660888785E+02  0.16150010634E+02  0.18820853239E+02  0.36412228045E+02  0.51100000000E-03 0.  1.
        -11    1    3    3    0    0  0.85380854744E+01  0.16802560195E+01  0.19027126686E+01  0.89074395658E+01  0.51100000000E-03 0. -1.
        -12    1    3    3    0    0  0.22026555912E+00 -0.15754028449E+00  0.77679923682E+00  0.82264993290E+00  0.00000000000E+00 0.  1.
</event>
<event>
 7    1  0.4736638E-009  0.4614232E+02  0.7816164E-02  0.1320468E+00
        -11   -1    0    0    0    0  0.00000000000E+00  0.00000000000E+00  0.45593999997E+02  0.45594000000E+02  0.51100000000E-03 0. -1.
         11   -1    0    0    0    0 -0.00000000000E+00 -0.00000000000E+00 -0.45593999997E+02  0.45594000000E+02  0.51100000000E-03 0.  1.
    9900012    2    1    2    0    0  0.12766735010E+02 -0.10407142383E+02 -0.41926308696E+02  0.46142317674E+02  0.99999992029E+01 0.  0.
         12    1    1    2    0    0 -0.12766735010E+02  0.10407142383E+02  0.41926308696E+02  0.45045682326E+02  0.00000000000E+00 0. -1.
         11    1    3    3    0    0 -0.61338419986E+00 -0.31515315753E+00 -0.69218758005E+00  0.97708013819E+00  0.51100000000E-03 0. -1.
        -11    1    3    3    0    0  0.13211321053E+02 -0.93903763844E+01 -0.41369111561E+02  0.44431087812E+02  0.51100000000E-03 0.  1.
        -12    1    3    3    0    0  0.16879815754E+00 -0.70161284064E+00  0.13499044491E+00  0.73414972339E+00  0.00000000000E+00 0.  1.
</event>
<event>
 7    1  0.3046295E-009  0.4614232E+02  0.7816164E-02  0.1320468E+00
        -11   -1    0    0    0    0  0.00000000000E+00  0.00000000000E+00  0.45593999997E+02  0.45594000000E+02  0.51100000000E-03 0.  1.
         11   -1    0    0    0    0 -0.00000000000E+00 -0.00000000000E+00 -0.45593999997E+02  0.45594000000E+02  0.51100000000E-03 0. -1.
    9900012    2    1    2    0    0 -0.19632881117E+02 -0.15793221053E+00  0.40541812065E+02  0.46142317753E+02  0.99999999306E+01 0.  0.
         12    1    1    2    0    0  0.19632881117E+02  0.15793221053E+00 -0.40541812065E+02  0.45045682247E+02  0.00000000000E+00 0. -1.
         11    1    3    3    0    0 -0.63329222807E+01 -0.28344930248E+01  0.18926446126E+02  0.20158140255E+02  0.51100000000E-03 0. -1.
        -11    1    3    3    0    0 -0.59106314699E+01  0.51196308630E+00  0.53517163744E+01  0.79899023140E+01  0.51100000000E-03 0.  1.
        -12    1    3    3    0    0 -0.73893273662E+01  0.21645977280E+01  0.16263649565E+02  0.17994275185E+02  0.00000000000E+00 0.  1.
</event>
<event>
 7    1  0.3046295E-009  0.4614232E+02  0.7816164E-02  0.1320468E+00
        -11   -1    0    0    0    0  0.00000000000E+00  0.00000000000E+00  0.45593999997E+02  0.45594000000E+02  0.51100000000E-03 0.  1.
         11   -1    0    0    0    0 -0.00000000000E+00 -0.00000000000E+00 -0.45593999997E+02  0.45594000000E+02  0.51100000000E-03 0. -1.
    9900012    2    1    2    0    0 -0.23354782898E+02 -0.16120427066E+02  0.34982845725E+02  0.46142317099E+02  0.99999939645E+01 0.  0.
         12    1    1    2    0    0  0.23354782898E+02  0.16120427066E+02 -0.34982845725E+02  0.45045682901E+02  0.00000000000E+00 0. -1.
         11    1    3    3    0    0 -0.23654225733E+01 -0.17017443465E+00  0.63619002252E+01  0.67895477041E+01  0.51100000000E-03 0. -1.
        -11    1    3    3    0    0 -0.14490168429E+02 -0.76187033680E+01  0.15982660174E+02  0.22879140032E+02  0.51100000000E-03 0.  1.
        -12    1    3    3    0    0 -0.64991918956E+01 -0.83315492635E+01  0.12638285326E+02  0.16473629364E+02  0.00000000000E+00 0.  1.
</event>
<event>
 7    1  0.3046295E-009  0.4614232E+02  0.7816164E-02  0.1320468E+00
        -11   -1    0    0    0    0  0.00000000000E+00  0.00000000000E+00  0.45593999997E+02  0.45594000000E+02  0.51100000000E-03 0. -1.
         11   -1    0    0    0    0 -0.00000000000E+00 -0.00000000000E+00 -0.45593999997E+02  0.45594000000E+02  0.51100000000E-03 0.  1.
    9900012    2    1    2    0    0  0.16369561711E+02  0.80372755005E+01 -0.41189234988E+02  0.46142318442E+02  0.10000006211E+02 0.  0.
         12    1    1    2    0    0 -0.16369561711E+02 -0.80372755005E+01  0.41189234988E+02  0.45045681558E+02  0.00000000000E+00 0. -1.
         11    1    3    3    0    0 -0.26124081931E+00  0.12117073498E+01 -0.72320273742E+01  0.73374860593E+01  0.51100000000E-03 0. -1.
        -11    1    3    3    0    0  0.58818351125E+01  0.50165998664E+01 -0.11722394038E+02  0.14041964989E+02  0.51100000000E-03 0.  1.
        -12    1    3    3    0    0  0.10748967418E+02  0.18089682843E+01 -0.22234813576E+02  0.24762867394E+02  0.00000000000E+00 0.  1.
</event>
<event>
 7    1  0.3046295E-009  0.4614232E+02  0.7816164E-02  0.1320468E+00
        -11   -1    0    0    0    0  0.00000000000E+00  0.00000000000E+00  0.45593999997E+02  0.45594000000E+02  0.51100000000E-03 0.  1.
         11   -1    0    0    0    0 -0.00000000000E+00 -0.00000000000E+00 -0.45593999997E+02  0.45594000000E+02  0.51100000000E-03 0. -1.
    9900012    2    1    2    0    0  0.69134984028E+01 -0.15540658311E+02  0.41710969002E+02  0.46142318120E+02  0.10000003277E+02 0.  0.
         12    1    1    2    0    0 -0.69134984028E+01  0.15540658311E+02 -0.41710969002E+02  0.45045681880E+02  0.00000000000E+00 0. -1.
         11    1    3    3    0    0 -0.56372097023E+00  0.44747759720E+00  0.10838572523E+01  0.13010627720E+01  0.51100000000E-03 0. -1.
        -11    1    3    3    0    0  0.58813176006E+01 -0.73018844068E+01  0.27194555464E+02  0.28765452538E+02  0.51100000000E-03 0.  1.
         12    1    3    3    0    0  0.15959017725E+01 -0.86862515014E+01  0.13432556286E+02  0.16075802810E+02  0.00000000000E+00 0. -1.
</event>
<event>
 7    1  0.3046295E-009  0.4614232E+02  0.7816164E-02  0.1320468E+00
        -11   -1    0    0    0    0  0.00000000000E+00  0.00000000000E+00  0.45593999997E+02  0.45594000000E+02  0.51100000000E-03 0.  1.
         11   -1    0    0    0    0 -0.00000000000E+00 -0.00000000000E+00 -0.45593999997E+02  0.45594000000E+02  0.51100000000E-03 0. -1.
    9900012    2    1    2    0    0 -0.16638594342E+02  0.12224099650E+02  0.40035509709E+02  0.46142317948E+02  0.10000001701E+02 0.  0.
         12    1    1    2    0    0  0.16638594342E+02 -0.12224099650E+02 -0.40035509709E+02  0.45045682052E+02  0.00000000000E+00 0. -1.
         11    1    3    3    0    0 -0.97318230752E+01  0.81514092781E+01  0.27673326195E+02  0.30446130075E+02  0.51100000000E-03 0. -1.
        -11    1    3    3    0    0 -0.65491125874E+01  0.38305177621E+01  0.12924651893E+02  0.14987006667E+02  0.51100000000E-03 0.  1.
         12    1    3    3    0    0 -0.35765867967E+00  0.24217260973E+00 -0.56246837987E+00  0.70918120561E+00  0.00000000000E+00 0. -1.
</event>
<event>
 7    1  0.3046295E-009  0.4614232E+02  0.7816164E-02  0.1320468E+00
        -11   -1    0    0    0    0  0.00000000000E+00  0.00000000000E+00  0.45593999997E+02  0.45594000000E+02  0.51100000000E-03 0.  1.
         11   -1    0    0    0    0 -0.00000000000E+00 -0.00000000000E+00 -0.45593999997E+02  0.45594000000E+02  0.51100000000E-03 0. -1.
    9900012    2    1    2    0    0  0.13077230629E+02 -0.25955138653E+02  0.34415552765E+02  0.46142318125E+02  0.10000003323E+02 0.  0.
         12    1    1    2    0    0 -0.13077230629E+02  0.25955138653E+02 -0.34415552765E+02  0.45045681875E+02  0.00000000000E+00 0. -1.
         11    1    3    3    0    0  0.63152941379E+01 -0.92980657117E+01  0.10475869935E+02  0.15364921646E+02  0.51100000000E-03 0. -1.
        -11    1    3    3    0    0 -0.12602502857E+01 -0.39983877841E+01  0.70049512487E+01  0.81636191676E+01  0.51100000000E-03 0.  1.
        -12    1    3    3    0    0  0.80221867768E+01 -0.12658685157E+02  0.16934731581E+02  0.22613777312E+02  0.00000000000E+00 0.  1.
</event>
<event>
 7    1  0.3046295E-009  0.4614232E+02  0.7816164E-02  0.1320468E+00
        -11   -1    0    0    0    0  0.00000000000E+00  0.00000000000E+00  0.45593999997E+02  0.45594000000E+02  0.51100000000E-03 0.  1.
         11   -1    0    0    0    0 -0.00000000000E+00 -0.00000000000E+00 -0.45593999997E+02  0.45594000000E+02  0.51100000000E-03 0. -1.
    9900012    2    1    2    0    0  0.42765028681E+02 -0.12274912328E+02 -0.70421948046E+01  0.46142315874E+02  0.99999827877E+01 0.  0.
         12    1    1    2    0    0 -0.42765028681E+02  0.12274912328E+02  0.70421948046E+01  0.45045684126E+02  0.00000000000E+00 0. -1.
         11    1    3    3    0    0  0.62255275791E+01 -0.34782607152E+01 -0.24898856807E+01  0.75534774909E+01  0.51100000000E-03 0. -1.
        -11    1    3    3    0    0  0.31792600733E+02 -0.89912417833E+01 -0.60883023562E+01  0.33595822896E+02  0.51100000000E-03 0.  1.
        -12    1    3    3    0    0  0.47469003685E+01  0.19459017040E+00  0.15359932323E+01  0.49930154869E+01  0.00000000000E+00 0.  1.
</event>
<event>
 7    1  0.3046295E-009  0.4614231E+02  0.7816164E-02  0.1320468E+00
        -11   -1    0    0    0    0  0.00000000000E+00  0.00000000000E+00  0.45593999997E+02  0.45594000000E+02  0.51100000000E-03 0.  1.
         11   -1    0    0    0    0 -0.00000000000E+00 -0.00000000000E+00 -0.45593999997E+02  0.45594000000E+02  0.51100000000E-03 0. -1.
    9900012    2    1    2    0    0 -0.72965602196E+01  0.42391181653E+02 -0.13373936193E+02  0.46142309393E+02  0.99999236920E+01 0.  0.
         12    1    1    2    0    0  0.72965602196E+01 -0.42391181653E+02  0.13373936193E+02  0.45045690607E+02  0.00000000000E+00 0. -1.
         11    1    3    3    0    0 -0.52008306178E+00  0.21737774100E+01 -0.35348346680E+01  0.41822064763E+01  0.51100000000E-03 0. -1.
        -11    1    3    3    0    0 -0.20488244458E+01  0.11249773961E+02 -0.24783799046E+01  0.11700318927E+02  0.51100000000E-03 0.  1.
         12    1    3    3    0    0 -0.47276527120E+01  0.28967630282E+02 -0.73607216206E+01  0.30259783990E+02  0.00000000000E+00 0. -1.
</event>
<event>
 7    1  0.3046295E-009  0.4614232E+02  0.7816164E-02  0.1320468E+00
        -11   -1    0    0    0    0  0.00000000000E+00  0.00000000000E+00  0.45593999997E+02  0.45594000000E+02  0.51100000000E-03 0. -1.
         11   -1    0    0    0    0 -0.00000000000E+00 -0.00000000000E+00 -0.45593999997E+02  0.45594000000E+02  0.51100000000E-03 0.  1.
    9900012    2    1    2    0    0 -0.44580355058E+02 -0.54291047009E+01 -0.34972011823E+01  0.46142315955E+02  0.99999835309E+01 0.  0.
         12    1    1    2    0    0  0.44580355058E+02  0.54291047009E+01  0.34972011823E+01  0.45045684045E+02  0.00000000000E+00 0. -1.
         11    1    3    3    0    0 -0.12560180110E+02 -0.50852254355E+01 -0.59220693811E+00  0.13563493335E+02  0.51100000000E-03 0. -1.
        -11    1    3    3    0    0 -0.26314531768E+02 -0.53060593983E+00 -0.34434370223E+00  0.26322133228E+02  0.51100000000E-03 0.  1.
        -12    1    3    3    0    0 -0.57056431800E+01  0.18672667445E+00 -0.25606505420E+01  0.62566893918E+01  0.00000000000E+00 0.  1.
</event>
<event>
 7    1  0.3046295E-009  0.4614232E+02  0.7816164E-02  0.1320468E+00
        -11   -1    0    0    0    0  0.00000000000E+00  0.00000000000E+00  0.45593999997E+02  0.45594000000E+02  0.51100000000E-03 0. -1.
         11   -1    0    0    0    0 -0.00000000000E+00 -0.00000000000E+00 -0.45593999997E+02  0.45594000000E+02  0.51100000000E-03 0.  1.
    9900012    2    1    2    0    0 -0.67250588833E+01 -0.37223923951E+02 -0.24459484904E+02  0.46142319485E+02  0.10000015718E+02 0.  0.
         12    1    1    2    0    0  0.67250588833E+01  0.37223923951E+02  0.24459484904E+02  0.45045680515E+02  0.00000000000E+00 0. -1.
         11    1    3    3    0    0 -0.18775087326E+01 -0.14293017593E+02 -0.82310142890E+01  0.16600150223E+02  0.51100000000E-03 0. -1.
        -11    1    3    3    0    0 -0.88768128267E-01 -0.16934745850E+02 -0.99498639869E+01  0.19641621379E+02  0.51100000000E-03 0.  1.
         12    1    3    3    0    0 -0.47587820224E+01 -0.59961605083E+01 -0.62786066279E+01  0.99005478821E+01  0.00000000000E+00 0. -1.
</event>
<event>
 7    1  0.3046295E-009  0.4614232E+02  0.7816164E-02  0.1320468E+00
        -11   -1    0    0    0    0  0.00000000000E+00  0.00000000000E+00  0.45593999997E+02  0.45594000000E+02  0.51100000000E-03 0.  1.
         11   -1    0    0    0    0 -0.00000000000E+00 -0.00000000000E+00 -0.45593999997E+02  0.45594000000E+02  0.51100000000E-03 0. -1.
    9900012    2    1    2    0    0  0.16582870042E+02 -0.20857664817E+02  0.36319132740E+02  0.46142321368E+02  0.10000032891E+02 0.  0.
         12    1    1    2    0    0 -0.16582870042E+02  0.20857664817E+02 -0.36319132740E+02  0.45045678632E+02  0.00000000000E+00 0. -1.
         11    1    3    3    0    0 -0.10127200184E+00 -0.67016040283E-01  0.33826342312E-01  0.12606209013E+00  0.51100000000E-03 0. -1.
        -11    1    3    3    0    0  0.17223480863E+02 -0.20018531529E+02  0.36498779041E+02  0.45050535728E+02  0.51100000000E-03 0.  1.
        -12    1    3    3    0    0 -0.53933881903E+00 -0.77211724751E+00 -0.21347264366E+00  0.96572355010E+00  0.00000000000E+00 0.  1.
</event>
<event>
 7    1  0.3046295E-009  0.4614232E+02  0.7816164E-02  0.1320468E+00
        -11   -1    0    0    0    0  0.00000000000E+00  0.00000000000E+00  0.45593999997E+02  0.45594000000E+02  0.51100000000E-03 0. -1.
         11   -1    0    0    0    0 -0.00000000000E+00 -0.00000000000E+00 -0.45593999997E+02  0.45594000000E+02  0.51100000000E-03 0.  1.
    9900012    2    1    2    0    0 -0.30992443700E+02  0.29467216802E+02  0.14151503579E+02  0.46142317787E+02  0.10000000232E+02 0.  0.
         12    1    1    2    0    0  0.30992443700E+02 -0.29467216802E+02 -0.14151503579E+02  0.45045682213E+02  0.00000000000E+00 0. -1.
         11    1    3    3    0    0 -0.12376222371E+01  0.30228059766E+01  0.35539431464E+01  0.48269635303E+01  0.51100000000E-03 0. -1.
        -11    1    3    3    0    0 -0.24809464159E+01  0.28487680630E+01  0.18461937283E+01  0.42046410238E+01  0.51100000000E-03 0.  1.
         12    1    3    3    0    0 -0.27273875047E+02  0.23595642762E+02  0.87513667042E+01  0.37110713232E+02  0.00000000000E+00 0. -1.
</event>
<event>
 7    1  0.3046295E-009  0.4614232E+02  0.7816164E-02  0.1320468E+00
        -11   -1    0    0    0    0  0.00000000000E+00  0.00000000000E+00  0.45593999997E+02  0.45594000000E+02  0.51100000000E-03 0.  1.
         11   -1    0    0    0    0 -0.00000000000E+00 -0.00000000000E+00 -0.45593999997E+02  0.45594000000E+02  0.51100000000E-03 0. -1.
    9900012    2    1    2    0    0 -0.20880144999E+02  0.29457435255E+01  0.39805220864E+02  0.46142317986E+02  0.10000002051E+02 0.  0.
         12    1    1    2    0    0  0.20880144999E+02 -0.29457435255E+01 -0.39805220864E+02  0.45045682014E+02  0.00000000000E+00 0. -1.
         11    1    3    3    0    0 -0.14433212701E+02  0.42789278252E+01  0.22687944617E+02  0.27228104661E+02  0.51100000000E-03 0. -1.
        -11    1    3    3    0    0 -0.37981639764E+01  0.15383093187E+01  0.77955957957E+01  0.88070289669E+01  0.51100000000E-03 0.  1.
         12    1    3    3    0    0 -0.26487683211E+01 -0.28714936184E+01  0.93216804514E+01  0.10107184359E+02  0.00000000000E+00 0. -1.
</event>
<event>
 7    1  0.3046295E-009  0.4614232E+02  0.7816164E-02  0.1320468E+00
        -11   -1    0    0    0    0  0.00000000000E+00  0.00000000000E+00  0.45593999997E+02  0.45594000000E+02  0.51100000000E-03 0.  1.
         11   -1    0    0    0    0 -0.00000000000E+00 -0.00000000000E+00 -0.45593999997E+02  0.45594000000E+02  0.51100000000E-03 0. -1.
    9900012    2    1    2    0    0  0.27699212298E+02  0.32731585120E+02  0.13802552606E+02  0.46142317800E+02  0.10000000353E+02 0.  0.
         12    1    1    2    0    0 -0.27699212298E+02 -0.32731585120E+02 -0.13802552606E+02  0.45045682200E+02  0.00000000000E+00 0. -1.
         11    1    3    3    0    0  0.53242758248E+01  0.81121867845E+01  0.76940515341E+00  0.97338313133E+01  0.51100000000E-03 0. -1.
        -11    1    3    3    0    0  0.16809232658E+02  0.14332690317E+02  0.65743464507E+01  0.23047740579E+02  0.51100000000E-03 0.  1.
         12    1    3    3    0    0  0.55657038154E+01  0.10286708019E+02  0.64588010017E+01  0.13360745908E+02  0.00000000000E+00 0. -1.
</event>
<event>
 7    1  0.3046295E-009  0.4614232E+02  0.7816164E-02  0.1320468E+00
        -11   -1    0    0    0    0  0.00000000000E+00  0.00000000000E+00  0.45593999997E+02  0.45594000000E+02  0.51100000000E-03 0.  1.
         11   -1    0    0    0    0 -0.00000000000E+00 -0.00000000000E+00 -0.45593999997E+02  0.45594000000E+02  0.51100000000E-03 0. -1.
    9900012    2    1    2    0    0  0.31468184263E+02 -0.28533284472E+02 -0.14990615094E+02  0.46142317804E+02  0.10000000392E+02 0.  0.
         12    1    1    2    0    0 -0.31468184263E+02  0.28533284472E+02  0.14990615094E+02  0.45045682196E+02  0.00000000000E+00 0. -1.
         11    1    3    3    0    0  0.67885691903E+01 -0.14480884911E+01 -0.17857404531E+01  0.71673217562E+01  0.51100000000E-03 0. -1.
        -11    1    3    3    0    0  0.47134517229E+01 -0.53689687564E+01 -0.20026612799E+01  0.74197779693E+01  0.51100000000E-03 0.  1.
         12    1    3    3    0    0  0.19966163350E+02 -0.21716227224E+02 -0.11202213361E+02  0.31555218079E+02  0.00000000000E+00 0. -1.
</event>
<event>
 7    1  0.3124058E-009  0.4614232E+02  0.7816164E-02  0.1320468E+00
        -11   -1    0    0    0    0  0.00000000000E+00  0.00000000000E+00  0.45593999997E+02  0.45594000000E+02  0.51100000000E-03 0.  1.
         11   -1    0    0    0    0 -0.00000000000E+00 -0.00000000000E+00 -0.45593999997E+02  0.45594000000E+02  0.51100000000E-03 0. -1.
    9900012    2    1    2    0    0  0.41241365444E+02 -0.13601262925E+02  0.11969500228E+02  0.46142317493E+02  0.99999975509E+01 0.  0.
         12    1    1    2    0    0 -0.41241365444E+02  0.13601262925E+02 -0.11969500228E+02  0.45045682507E+02  0.00000000000E+00 0. -1.
         11    1    3    3    0    0  0.42862196136E+01 -0.32955871741E+01  0.46671063391E+00  0.54268215813E+01  0.51100000000E-03 0. -1.
        -11    1    3    3    0    0  0.27261982424E+02 -0.41661489777E+01  0.78431673569E+01  0.28672072779E+02  0.51100000000E-03 0.  1.
        -12    1    3    3    0    0  0.96931634065E+01 -0.61395267731E+01  0.36596222374E+01  0.12043423132E+02  0.00000000000E+00 0.  1.
</event>
<event>
 7    1  0.3046295E-009  0.4614232E+02  0.7816164E-02  0.1320468E+00
        -11   -1    0    0    0    0  0.00000000000E+00  0.00000000000E+00  0.45593999997E+02  0.45594000000E+02  0.51100000000E-03 0.  1.
         11   -1    0    0    0    0 -0.00000000000E+00 -0.00000000000E+00 -0.45593999997E+02  0.45594000000E+02  0.51100000000E-03 0. -1.
    9900012    2    1    2    0    0 -0.28197267296E+02 -0.28023687338E+02  0.21182551836E+02  0.46142318328E+02  0.10000005171E+02 0.  0.
         12    1    1    2    0    0  0.28197267296E+02  0.28023687338E+02 -0.21182551836E+02  0.45045681672E+02  0.00000000000E+00 0. -1.
         11    1    3    3    0    0 -0.71498892320E+01 -0.10490484267E+02  0.40844976120E+01  0.13336202503E+02  0.51100000000E-03 0. -1.
        -11    1    3    3    0    0 -0.18098497152E+02 -0.12388010462E+02  0.14735002849E+02  0.26422314653E+02  0.51100000000E-03 0.  1.
        -12    1    3    3    0    0 -0.29488809116E+01 -0.51451926086E+01  0.23630513754E+01  0.63838011728E+01  0.00000000000E+00 0.  1.
</event>
<event>
 7    1  0.3046295E-009  0.4614232E+02  0.7816164E-02  0.1320468E+00
        -11   -1    0    0    0    0  0.00000000000E+00  0.00000000000E+00  0.45593999997E+02  0.45594000000E+02  0.51100000000E-03 0.  1.
         11   -1    0    0    0    0 -0.00000000000E+00 -0.00000000000E+00 -0.45593999997E+02  0.45594000000E+02  0.51100000000E-03 0. -1.
    9900012    2    1    2    0    0 -0.14376171650E+02 -0.36866285494E+02  0.21524780423E+02  0.46142317747E+02  0.99999998707E+01 0.  0.
         12    1    1    2    0    0  0.14376171650E+02  0.36866285494E+02 -0.21524780423E+02  0.45045682253E+02  0.00000000000E+00 0. -1.
         11    1    3    3    0    0 -0.90740108812E+00 -0.47921127254E+01  0.76726593196E+00  0.49372480572E+01  0.51100000000E-03 0. -1.
        -11    1    3    3    0    0 -0.94913052587E+00 -0.80707953300E+01  0.75107971380E+01  0.11065742629E+02  0.51100000000E-03 0.  1.
         12    1    3    3    0    0 -0.12519640036E+02 -0.24003377438E+02  0.13246717353E+02  0.30139327061E+02  0.00000000000E+00 0. -1.
</event>
<event>
 7    1  0.3046295E-009  0.4614232E+02  0.7816164E-02  0.1320468E+00
        -11   -1    0    0    0    0  0.00000000000E+00  0.00000000000E+00  0.45593999997E+02  0.45594000000E+02  0.51100000000E-03 0. -1.
         11   -1    0    0    0    0 -0.00000000000E+00 -0.00000000000E+00 -0.45593999997E+02  0.45594000000E+02  0.51100000000E-03 0.  1.
    9900012    2    1    2    0    0 -0.28146628957E+02 -0.20787348001E+02 -0.28368414719E+02  0.46142317496E+02  0.99999975824E+01 0.  0.
         12    1    1    2    0    0  0.28146628957E+02  0.20787348001E+02  0.28368414719E+02  0.45045682504E+02  0.00000000000E+00 0. -1.
         11    1    3    3    0    0 -0.41081165979E+01 -0.53415167046E+01 -0.10175947569E+02  0.12204848704E+02  0.51100000000E-03 0. -1.
        -11    1    3    3    0    0 -0.14455116332E+02 -0.81831466158E+01 -0.10024030925E+02  0.19400914230E+02  0.51100000000E-03 0.  1.
         12    1    3    3    0    0 -0.95833960275E+01 -0.72626846808E+01 -0.81684362245E+01  0.14536554562E+02  0.00000000000E+00 0. -1.
</event>
<event>
 7    1  0.3046295E-009  0.4614232E+02  0.7816164E-02  0.1320468E+00
        -11   -1    0    0    0    0  0.00000000000E+00  0.00000000000E+00  0.45593999997E+02  0.45594000000E+02  0.51100000000E-03 0.  1.
         11   -1    0    0    0    0 -0.00000000000E+00 -0.00000000000E+00 -0.45593999997E+02  0.45594000000E+02  0.51100000000E-03 0. -1.
    9900012    2    1    2    0    0  0.16545058588E+02  0.19865306075E+02  0.36888265989E+02  0.46142317445E+02  0.99999971199E+01 0.  0.
         12    1    1    2    0    0 -0.16545058588E+02 -0.19865306075E+02 -0.36888265989E+02  0.45045682555E+02  0.00000000000E+00 0. -1.
         11    1    3    3    0    0  0.14455497336E+01  0.35985268278E+01  0.10637713265E+02  0.11322541814E+02  0.51100000000E-03 0. -1.
        -11    1    3    3    0    0  0.14389930332E+02  0.12847975301E+02  0.21014609193E+02  0.28526380144E+02  0.51100000000E-03 0.  1.
        -12    1    3    3    0    0  0.70957852211E+00  0.34188039459E+01  0.52359435313E+01  0.62933954875E+01  0.00000000000E+00 0.  1.
</event>
<event>
 7    1  0.3046295E-009  0.4614232E+02  0.7816164E-02  0.1320468E+00
        -11   -1    0    0    0    0  0.00000000000E+00  0.00000000000E+00  0.45593999997E+02  0.45594000000E+02  0.51100000000E-03 0.  1.
         11   -1    0    0    0    0 -0.00000000000E+00 -0.00000000000E+00 -0.45593999997E+02  0.45594000000E+02  0.51100000000E-03 0. -1.
    9900012    2    1    2    0    0  0.33872885378E+02 -0.70572036613E+01  0.28843316158E+02  0.46142319027E+02  0.10000011542E+02 0.  0.
         12    1    1    2    0    0 -0.33872885378E+02  0.70572036613E+01 -0.28843316158E+02  0.45045680973E+02  0.00000000000E+00 0. -1.
         11    1    3    3    0    0  0.18168766333E+02  0.55277806099E+00  0.14109359692E+02  0.23010512051E+02  0.51100000000E-03 0. -1.
        -11    1    3    3    0    0  0.22597884722E+01  0.12140678392E+00  0.12765052953E+01  0.25982397073E+01  0.51100000000E-03 0.  1.
         12    1    3    3    0    0  0.13444330573E+02 -0.77313885062E+01  0.13457451171E+02  0.20533567269E+02  0.00000000000E+00 0. -1.
</event>
<event>
 7    1  0.3046295E-009  0.4614232E+02  0.7816164E-02  0.1320468E+00
        -11   -1    0    0    0    0  0.00000000000E+00  0.00000000000E+00  0.45593999997E+02  0.45594000000E+02  0.51100000000E-03 0. -1.
         11   -1    0    0    0    0 -0.00000000000E+00 -0.00000000000E+00 -0.45593999997E+02  0.45594000000E+02  0.51100000000E-03 0.  1.
    9900012    2    1    2    0    0 -0.21175228530E+02  0.36695697278E+02 -0.15301928871E+02  0.46142317308E+02  0.99999958686E+01 0.  0.
         12    1    1    2    0    0  0.21175228530E+02 -0.36695697278E+02  0.15301928871E+02  0.45045682692E+02  0.00000000000E+00 0. -1.
         11    1    3    3    0    0 -0.83497592289E+01  0.14162669619E+02 -0.41335505192E+01  0.16952460886E+02  0.51100000000E-03 0. -1.
        -11    1    3    3    0    0 -0.12754248088E+02  0.20511502244E+02 -0.12039094893E+02  0.26987633737E+02  0.51100000000E-03 0.  1.
        -12    1    3    3    0    0 -0.71221213028E-01  0.20215254139E+01  0.87071654108E+00  0.22022226852E+01  0.00000000000E+00 0.  1.
</event>
<event>
 7    1  0.3046295E-009  0.4614232E+02  0.7816164E-02  0.1320468E+00
        -11   -1    0    0    0    0  0.00000000000E+00  0.00000000000E+00  0.45593999997E+02  0.45594000000E+02  0.51100000000E-03 0.  1.
         11   -1    0    0    0    0 -0.00000000000E+00 -0.00000000000E+00 -0.45593999997E+02  0.45594000000E+02  0.51100000000E-03 0. -1.
    9900012    2    1    2    0    0 -0.42103894089E+02 -0.13968594935E+02  0.78264900977E+01  0.46142317752E+02  0.99999999187E+01 0.  0.
         12    1    1    2    0    0  0.42103894089E+02  0.13968594935E+02 -0.78264900977E+01  0.45045682248E+02  0.00000000000E+00 0. -1.
         11    1    3    3    0    0 -0.15347197478E+01 -0.20726831020E+01  0.48219066492E+00  0.26237164565E+01  0.51100000000E-03 0. -1.
        -11    1    3    3    0    0 -0.10996670725E+01  0.43379114743E+00 -0.72692508938E+00  0.13877545808E+01  0.51100000000E-03 0.  1.
        -12    1    3    3    0    0 -0.39469507269E+02 -0.12329702980E+02  0.80712245222E+01  0.42130846715E+02  0.00000000000E+00 0.  1.
</event>
<event>
 7    1  0.3046295E-009  0.4614232E+02  0.7816164E-02  0.1320468E+00
        -11   -1    0    0    0    0  0.00000000000E+00  0.00000000000E+00  0.45593999997E+02  0.45594000000E+02  0.51100000000E-03 0.  1.
         11   -1    0    0    0    0 -0.00000000000E+00 -0.00000000000E+00 -0.45593999997E+02  0.45594000000E+02  0.51100000000E-03 0. -1.
    9900012    2    1    2    0    0 -0.33088535415E+02  0.29126963280E+02  0.92672700915E+01  0.46142318067E+02  0.10000002791E+02 0.  0.
         12    1    1    2    0    0  0.33088535415E+02 -0.29126963280E+02 -0.92672700915E+01  0.45045681933E+02  0.00000000000E+00 0. -1.
         11    1    3    3    0    0 -0.53805789791E+01  0.65072170677E+01  0.36213207343E+01  0.91874081349E+01  0.51100000000E-03 0. -1.
        -11    1    3    3    0    0 -0.69064829429E+01  0.28602223246E+01 -0.89387490197E+00  0.75285716433E+01  0.51100000000E-03 0.  1.
        -12    1    3    3    0    0 -0.20801473494E+02  0.19759523887E+02  0.65398242592E+01  0.29426338289E+02  0.00000000000E+00 0.  1.
</event>
<event>
 7    1  0.3046295E-009  0.4614232E+02  0.7816164E-02  0.1320468E+00
        -11   -1    0    0    0    0  0.00000000000E+00  0.00000000000E+00  0.45593999997E+02  0.45594000000E+02  0.51100000000E-03 0. -1.
         11   -1    0    0    0    0 -0.00000000000E+00 -0.00000000000E+00 -0.45593999997E+02  0.45594000000E+02  0.51100000000E-03 0.  1.
    9900012    2    1    2    0    0  0.11698207601E+02 -0.41990541785E+02 -0.11360449112E+02  0.46142318026E+02  0.10000002419E+02 0.  0.
         12    1    1    2    0    0 -0.11698207601E+02  0.41990541785E+02  0.11360449112E+02  0.45045681974E+02  0.00000000000E+00 0. -1.
         11    1    3    3    0    0 -0.20012336177E+00  0.46902820095E-01 -0.11513506090E+01  0.11695544965E+01  0.51100000000E-03 0. -1.
        -11    1    3    3    0    0  0.33421064177E+01 -0.10365909406E+02 -0.38735526284E+01  0.11559678341E+02  0.51100000000E-03 0.  1.
         12    1    3    3    0    0  0.85562245454E+01 -0.31671535199E+02 -0.63355458746E+01  0.33413085189E+02  0.00000000000E+00 0. -1.
</event>
<event>
 7    1  0.3046295E-009  0.4614232E+02  0.7816164E-02  0.1320468E+00
        -11   -1    0    0    0    0  0.00000000000E+00  0.00000000000E+00  0.45593999997E+02  0.45594000000E+02  0.51100000000E-03 0.  1.
         11   -1    0    0    0    0 -0.00000000000E+00 -0.00000000000E+00 -0.45593999997E+02  0.45594000000E+02  0.51100000000E-03 0. -1.
    9900012    2    1    2    0    0 -0.22096036832E+02  0.41428839596E+01  0.39034794169E+02  0.46142317777E+02  0.10000000143E+02 0.  0.
         12    1    1    2    0    0  0.22096036832E+02 -0.41428839596E+01 -0.39034794169E+02  0.45045682223E+02  0.00000000000E+00 0. -1.
         11    1    3    3    0    0 -0.17891643388E+02  0.30282123205E+01  0.24534073995E+02  0.30515598635E+02  0.51100000000E-03 0. -1.
        -11    1    3    3    0    0 -0.25249588547E+00  0.14573459251E+01  0.68605109861E+01  0.70181352630E+01  0.51100000000E-03 0.  1.
         12    1    3    3    0    0 -0.39518975585E+01 -0.34267428595E+00  0.76402091871E+01  0.86085838790E+01  0.00000000000E+00 0. -1.
</event>
<event>
 7    1  0.3046295E-009  0.4614232E+02  0.7816164E-02  0.1320468E+00
        -11   -1    0    0    0    0  0.00000000000E+00  0.00000000000E+00  0.45593999997E+02  0.45594000000E+02  0.51100000000E-03 0.  1.
         11   -1    0    0    0    0 -0.00000000000E+00 -0.00000000000E+00 -0.45593999997E+02  0.45594000000E+02  0.51100000000E-03 0. -1.
    9900012    2    1    2    0    0  0.22780303370E+02 -0.20493350994E+02  0.33018082701E+02  0.46142318278E+02  0.10000004712E+02 0.  0.
         12    1    1    2    0    0 -0.22780303370E+02  0.20493350994E+02 -0.33018082701E+02  0.45045681722E+02  0.00000000000E+00 0. -1.
         11    1    3    3    0    0  0.77800139332E+01 -0.11139246487E+02  0.12530656899E+02  0.18483202960E+02  0.51100000000E-03 0. -1.
        -11    1    3    3    0    0  0.67722008938E+01 -0.12545367028E+01  0.60050666168E+01  0.91376907705E+01  0.51100000000E-03 0.  1.
        -12    1    3    3    0    0  0.82280885431E+01 -0.80995678047E+01  0.14482359184E+02  0.18521424547E+02  0.00000000000E+00 0.  1.
</event>
<event>
 7    1  0.3046295E-009  0.4614232E+02  0.7816164E-02  0.1320468E+00
        -11   -1    0    0    0    0  0.00000000000E+00  0.00000000000E+00  0.45593999997E+02  0.45594000000E+02  0.51100000000E-03 0.  1.
         11   -1    0    0    0    0 -0.00000000000E+00 -0.00000000000E+00 -0.45593999997E+02  0.45594000000E+02  0.51100000000E-03 0. -1.
    9900012    2    1    2    0    0 -0.15445432569E+02 -0.19330521066E+02 -0.37641506584E+02  0.46142318189E+02  0.10000003903E+02 0.  0.
         12    1    1    2    0    0  0.15445432569E+02  0.19330521066E+02  0.37641506584E+02  0.45045681811E+02  0.00000000000E+00 0. -1.
         11    1    3    3    0    0 -0.52696398524E+01 -0.10825911022E+02 -0.12655025142E+02  0.17467659123E+02  0.51100000000E-03 0. -1.
        -11    1    3    3    0    0 -0.10222753234E+02 -0.66481651465E+01 -0.22136147092E+02  0.25272748008E+02  0.51100000000E-03 0.  1.
        -12    1    3    3    0    0  0.46960517472E-01 -0.18564448972E+01 -0.28503343499E+01  0.34019110590E+01  0.00000000000E+00 0.  1.
</event>
<event>
 7    1  0.3046295E-009  0.4614232E+02  0.7816164E-02  0.1320468E+00
        -11   -1    0    0    0    0  0.00000000000E+00  0.00000000000E+00  0.45593999997E+02  0.45594000000E+02  0.51100000000E-03 0.  1.
         11   -1    0    0    0    0 -0.00000000000E+00 -0.00000000000E+00 -0.45593999997E+02  0.45594000000E+02  0.51100000000E-03 0. -1.
    9900012    2    1    2    0    0 -0.25418799185E+02 -0.36959875469E+02  0.41189429538E+01  0.46142318323E+02  0.10000005126E+02 0.  0.
         12    1    1    2    0    0  0.25418799185E+02  0.36959875469E+02 -0.41189429538E+01  0.45045681677E+02  0.00000000000E+00 0. -1.
         11    1    3    3    0    0 -0.10161603771E+01 -0.45632835254E+01 -0.89111064503E+00  0.47592243999E+01  0.51100000000E-03 0. -1.
        -11    1    3    3    0    0 -0.16374146502E+02 -0.17345756902E+02  0.10796834486E+01  0.23877890878E+02  0.51100000000E-03 0.  1.
        -12    1    3    3    0    0 -0.80284923057E+01 -0.15050835041E+02  0.39303701503E+01  0.17505203045E+02  0.00000000000E+00 0.  1.
</event>
<event>
 7    1  0.3046295E-009  0.4614233E+02  0.7816164E-02  0.1320468E+00
        -11   -1    0    0    0    0  0.00000000000E+00  0.00000000000E+00  0.45593999997E+02  0.45594000000E+02  0.51100000000E-03 0.  1.
         11   -1    0    0    0    0 -0.00000000000E+00 -0.00000000000E+00 -0.45593999997E+02  0.45594000000E+02  0.51100000000E-03 0. -1.
    9900012    2    1    2    0    0 -0.38617790924E+02 -0.20882195563E+02  0.10085245432E+02  0.46142333807E+02  0.10000146317E+02 0.  0.
         12    1    1    2    0    0  0.38617790924E+02  0.20882195563E+02 -0.10085245432E+02  0.45045666193E+02  0.00000000000E+00 0. -1.
         11    1    3    3    0    0 -0.25915741420E+01  0.16038674527E+00 -0.10959088274E+01  0.28183322836E+01  0.51100000000E-03 0. -1.
        -11    1    3    3    0    0 -0.20866548049E+02 -0.10664435923E+02  0.52072606353E+01  0.24005386575E+02  0.51100000000E-03 0.  1.
         12    1    3    3    0    0 -0.15159668732E+02 -0.10378146385E+02  0.59738936245E+01  0.19318614948E+02  0.00000000000E+00 0. -1.
</event>
<event>
 7    1  0.3046295E-009  0.4614232E+02  0.7816164E-02  0.1320468E+00
        -11   -1    0    0    0    0  0.00000000000E+00  0.00000000000E+00  0.45593999997E+02  0.45594000000E+02  0.51100000000E-03 0. -1.
         11   -1    0    0    0    0 -0.00000000000E+00 -0.00000000000E+00 -0.45593999997E+02  0.45594000000E+02  0.51100000000E-03 0.  1.
    9900012    2    1    2    0    0  0.23901034569E+02  0.33555094335E+02  0.18218387842E+02  0.46142318022E+02  0.10000002378E+02 0.  0.
         12    1    1    2    0    0 -0.23901034569E+02 -0.33555094335E+02 -0.18218387842E+02  0.45045681978E+02  0.00000000000E+00 0. -1.
         11    1    3    3    0    0 -0.35765412264E+00  0.10991565757E+01  0.18056703047E+01  0.21439466318E+01  0.51100000000E-03 0. -1.
        -11    1    3    3    0    0  0.12962222119E+02  0.21138127488E+02  0.90746912047E+01  0.26404349200E+02  0.51100000000E-03 0.  1.
         12    1    3    3    0    0  0.11296466573E+02  0.11317810272E+02  0.73380263325E+01  0.17594022190E+02  0.00000000000E+00 0. -1.
</event>
<event>
 7    1  0.3046295E-009  0.4614232E+02  0.7816164E-02  0.1320468E+00
        -11   -1    0    0    0    0  0.00000000000E+00  0.00000000000E+00  0.45593999997E+02  0.45594000000E+02  0.51100000000E-03 0. -1.
         11   -1    0    0    0    0 -0.00000000000E+00 -0.00000000000E+00 -0.45593999997E+02  0.45594000000E+02  0.51100000000E-03 0.  1.
    9900012    2    1    2    0    0  0.81410113042E+01 -0.18957836678E+02 -0.40042950867E+02  0.46142317069E+02  0.99999936923E+01 0.  0.
         12    1    1    2    0    0 -0.81410113042E+01  0.18957836678E+02  0.40042950867E+02  0.45045682931E+02  0.00000000000E+00 0. -1.
         11    1    3    3    0    0 -0.50117075020E+00  0.59787078582E+00 -0.22678891923E+01  0.23983209225E+01  0.51100000000E-03 0. -1.
        -11    1    3    3    0    0  0.56414524367E+00 -0.74164160207E+01 -0.14017546407E+02  0.15868619788E+02  0.51100000000E-03 0.  1.
         12    1    3    3    0    0  0.80780368107E+01 -0.12139291443E+02 -0.23757515268E+02  0.27875376359E+02  0.00000000000E+00 0. -1.
</event>
<event>
 7    1  0.3046295E-009  0.4614232E+02  0.7816164E-02  0.1320468E+00
        -11   -1    0    0    0    0  0.00000000000E+00  0.00000000000E+00  0.45593999997E+02  0.45594000000E+02  0.51100000000E-03 0.  1.
         11   -1    0    0    0    0 -0.00000000000E+00 -0.00000000000E+00 -0.45593999997E+02  0.45594000000E+02  0.51100000000E-03 0. -1.
    9900012    2    1    2    0    0  0.74924630151E+01  0.15940405929E+02  0.41459377114E+02  0.46142317700E+02  0.99999994439E+01 0.  0.
         12    1    1    2    0    0 -0.74924630151E+01 -0.15940405929E+02 -0.41459377114E+02  0.45045682300E+02  0.00000000000E+00 0. -1.
         11    1    3    3    0    0  0.11652038291E+01  0.72218990552E+01  0.22729812939E+02  0.23877979865E+02  0.51100000000E-03 0. -1.
        -11    1    3    3    0    0  0.72118454530E+00 -0.74205674526E+00  0.14211509078E+01  0.17579606154E+01  0.51100000000E-03 0.  1.
         12    1    3    3    0    0  0.56060746407E+01  0.94605636188E+01  0.17308413267E+02  0.20506377220E+02  0.00000000000E+00 0. -1.
</event>
<event>
 7    1  0.3046295E-009  0.4614232E+02  0.7816164E-02  0.1320468E+00
        -11   -1    0    0    0    0  0.00000000000E+00  0.00000000000E+00  0.45593999997E+02  0.45594000000E+02  0.51100000000E-03 0.  1.
         11   -1    0    0    0    0 -0.00000000000E+00 -0.00000000000E+00 -0.45593999997E+02  0.45594000000E+02  0.51100000000E-03 0. -1.
    9900012    2    1    2    0    0  0.42254506596E+02 -0.58515025018E+01 -0.14471683452E+02  0.46142322836E+02  0.10000046279E+02 0.  0.
         12    1    1    2    0    0 -0.42254506596E+02  0.58515025018E+01  0.14471683452E+02  0.45045677164E+02  0.00000000000E+00 0. -1.
         11    1    3    3    0    0  0.12875634302E+02 -0.51067803852E+01 -0.17767340245E+01  0.13964882693E+02  0.51100000000E-03 0. -1.
        -11    1    3    3    0    0  0.91735006087E+01 -0.11860563565E+01 -0.52747029256E+01  0.10648114120E+02  0.51100000000E-03 0.  1.
         12    1    3    3    0    0  0.20205371686E+02  0.44133423989E+00 -0.74202465015E+01  0.21529326023E+02  0.00000000000E+00 0. -1.
</event>
<event>
 7    1  0.3046295E-009  0.4614232E+02  0.7816164E-02  0.1320468E+00
        -11   -1    0    0    0    0  0.00000000000E+00  0.00000000000E+00  0.45593999997E+02  0.45594000000E+02  0.51100000000E-03 0. -1.
         11   -1    0    0    0    0 -0.00000000000E+00 -0.00000000000E+00 -0.45593999997E+02  0.45594000000E+02  0.51100000000E-03 0.  1.
    9900012    2    1    2    0    0  0.15645227413E+02  0.38110882569E+02 -0.18218147504E+02  0.46142318636E+02  0.10000007982E+02 0.  0.
         12    1    1    2    0    0 -0.15645227413E+02 -0.38110882569E+02  0.18218147504E+02  0.45045681364E+02  0.00000000000E+00 0. -1.
         11    1    3    3    0    0  0.49115979828E+01  0.10310238435E+02 -0.18469457096E+01  0.11568751879E+02  0.51100000000E-03 0. -1.
        -11    1    3    3    0    0  0.61171293351E+01  0.22871026776E+02 -0.13290943079E+02  0.27150548895E+02  0.51100000000E-03 0.  1.
        -12    1    3    3    0    0  0.46165000956E+01  0.49296173581E+01 -0.30802587150E+01  0.74230178621E+01  0.00000000000E+00 0.  1.
</event>
<event>
 7    1  0.3046295E-009  0.4614232E+02  0.7816164E-02  0.1320468E+00
        -11   -1    0    0    0    0  0.00000000000E+00  0.00000000000E+00  0.45593999997E+02  0.45594000000E+02  0.51100000000E-03 0.  1.
         11   -1    0    0    0    0 -0.00000000000E+00 -0.00000000000E+00 -0.45593999997E+02  0.45594000000E+02  0.51100000000E-03 0. -1.
    9900012    2    1    2    0    0 -0.19965905914E+02 -0.48189729754E+01  0.40090567508E+02  0.46142317603E+02  0.99999985554E+01 0.  0.
         12    1    1    2    0    0  0.19965905914E+02  0.48189729754E+01 -0.40090567508E+02  0.45045682397E+02  0.00000000000E+00 0. -1.
         11    1    3    3    0    0 -0.28239889341E+01  0.18638893254E+01  0.40156079764E+01  0.52511050835E+01  0.51100000000E-03 0. -1.
        -11    1    3    3    0    0 -0.48892399969E+01 -0.14309978148E+01  0.52913920559E+01  0.73451516420E+01  0.51100000000E-03 0.  1.
         12    1    3    3    0    0 -0.12252676983E+02 -0.52518644859E+01  0.30783567476E+02  0.33546060877E+02  0.00000000000E+00 0. -1.
</event>
<event>
 7    1  0.3046295E-009  0.4614232E+02  0.7816164E-02  0.1320468E+00
        -11   -1    0    0    0    0  0.00000000000E+00  0.00000000000E+00  0.45593999997E+02  0.45594000000E+02  0.51100000000E-03 0.  1.
         11   -1    0    0    0    0 -0.00000000000E+00 -0.00000000000E+00 -0.45593999997E+02  0.45594000000E+02  0.51100000000E-03 0. -1.
    9900012    2    1    2    0    0  0.27055818114E+02  0.31367782401E+02  0.17696281622E+02  0.46142318189E+02  0.10000003905E+02 0.  0.
         12    1    1    2    0    0 -0.27055818114E+02 -0.31367782401E+02 -0.17696281622E+02  0.45045681811E+02  0.00000000000E+00 0. -1.
         11    1    3    3    0    0  0.50228703774E+01  0.11277746140E+02  0.54349513833E+01  0.13489087501E+02  0.51100000000E-03 0. -1.
        -11    1    3    3    0    0  0.16354641592E+02  0.17025511188E+02  0.80268262171E+01  0.24935361883E+02  0.51100000000E-03 0.  1.
         12    1    3    3    0    0  0.56783061442E+01  0.30645250725E+01  0.42345040213E+01  0.77178688051E+01  0.00000000000E+00 0. -1.
</event>
<event>
 7    1  0.3046295E-009  0.4614232E+02  0.7816164E-02  0.1320468E+00
        -11   -1    0    0    0    0  0.00000000000E+00  0.00000000000E+00  0.45593999997E+02  0.45594000000E+02  0.51100000000E-03 0.  1.
         11   -1    0    0    0    0 -0.00000000000E+00 -0.00000000000E+00 -0.45593999997E+02  0.45594000000E+02  0.51100000000E-03 0. -1.
    9900012    2    1    2    0    0  0.27106586482E+02 -0.69714023490E+00  0.35970272333E+02  0.46142317333E+02  0.99999960961E+01 0.  0.
         12    1    1    2    0    0 -0.27106586482E+02  0.69714023490E+00 -0.35970272333E+02  0.45045682667E+02  0.00000000000E+00 0. -1.
         11    1    3    3    0    0  0.75350056152E+01 -0.38792696974E+01  0.14300679774E+02  0.16623311501E+02  0.51100000000E-03 0. -1.
        -11    1    3    3    0    0  0.13730514050E+02  0.86440320607E+00  0.15117160252E+02  0.20440223661E+02  0.51100000000E-03 0.  1.
         12    1    3    3    0    0  0.58410668169E+01  0.23177262565E+01  0.65524323075E+01  0.90787821707E+01  0.00000000000E+00 0. -1.
</event>
<event>
 7    1  0.3046295E-009  0.4614232E+02  0.7816164E-02  0.1320468E+00
        -11   -1    0    0    0    0  0.00000000000E+00  0.00000000000E+00  0.45593999997E+02  0.45594000000E+02  0.51100000000E-03 0.  1.
         11   -1    0    0    0    0 -0.00000000000E+00 -0.00000000000E+00 -0.45593999997E+02  0.45594000000E+02  0.51100000000E-03 0. -1.
    9900012    2    1    2    0    0  0.25168336453E+02  0.33563591987E+02  0.16405892702E+02  0.46142321159E+02  0.10000030986E+02 0.  0.
         12    1    1    2    0    0 -0.25168336453E+02 -0.33563591987E+02 -0.16405892702E+02  0.45045678841E+02  0.00000000000E+00 0. -1.
         11    1    3    3    0    0  0.26606526378E+01  0.79049572404E+01  0.24365697731E+01  0.86893206842E+01  0.51100000000E-03 0. -1.
        -11    1    3    3    0    0  0.16846835665E-01  0.46259418115E+00 -0.52529193202E+00  0.70014931784E+00  0.51100000000E-03 0.  1.
        -12    1    3    3    0    0  0.22490836980E+02  0.25196040565E+02  0.14494614861E+02  0.36752851157E+02  0.00000000000E+00 0.  1.
</event>
<event>
 7    1  0.3046295E-009  0.4614232E+02  0.7816164E-02  0.1320468E+00
        -11   -1    0    0    0    0  0.00000000000E+00  0.00000000000E+00  0.45593999997E+02  0.45594000000E+02  0.51100000000E-03 0.  1.
         11   -1    0    0    0    0 -0.00000000000E+00 -0.00000000000E+00 -0.45593999997E+02  0.45594000000E+02  0.51100000000E-03 0. -1.
    9900012    2    1    2    0    0  0.96410315878E+01  0.18887066486E+02  0.39742204331E+02  0.46142316793E+02  0.99999911679E+01 0.  0.
         12    1    1    2    0    0 -0.96410315878E+01 -0.18887066486E+02 -0.39742204331E+02  0.45045683207E+02  0.00000000000E+00 0. -1.
         11    1    3    3    0    0  0.39882383100E+01  0.65365437768E+01  0.11234838590E+02  0.13596104139E+02  0.51100000000E-03 0. -1.
        -11    1    3    3    0    0  0.51152886609E+01  0.22648204919E+01  0.96443339246E+01  0.11149384156E+02  0.51100000000E-03 0.  1.
         12    1    3    3    0    0  0.53750461685E+00  0.10085702217E+02  0.18863031817E+02  0.21396828498E+02  0.00000000000E+00 0. -1.
</event>
<event>
 7    1  0.3046295E-009  0.4614232E+02  0.7816164E-02  0.1320468E+00
        -11   -1    0    0    0    0  0.00000000000E+00  0.00000000000E+00  0.45593999997E+02  0.45594000000E+02  0.51100000000E-03 0. -1.
         11   -1    0    0    0    0 -0.00000000000E+00 -0.00000000000E+00 -0.45593999997E+02  0.45594000000E+02  0.51100000000E-03 0.  1.
    9900012    2    1    2    0    0 -0.28237075870E+00 -0.23796595498E+02 -0.38245990911E+02  0.46142317506E+02  0.99999976774E+01 0.  0.
         12    1    1    2    0    0  0.28237075870E+00  0.23796595498E+02  0.38245990911E+02  0.45045682494E+02  0.00000000000E+00 0. -1.
         11    1    3    3    0    0  0.32333057682E+01 -0.62526383059E+01 -0.71267394800E+01  0.10016993953E+02  0.51100000000E-03 0. -1.
        -11    1    3    3    0    0 -0.86279128904E+00 -0.96605843932E+01 -0.20114181206E+02  0.22330507953E+02  0.51100000000E-03 0.  1.
        -12    1    3    3    0    0 -0.26528852378E+01 -0.78833727990E+01 -0.11005070226E+02  0.13794815600E+02  0.00000000000E+00 0.  1.
</event>
<event>
 7    1  0.3046295E-009  0.4614232E+02  0.7816164E-02  0.1320468E+00
        -11   -1    0    0    0    0  0.00000000000E+00  0.00000000000E+00  0.45593999997E+02  0.45594000000E+02  0.51100000000E-03 0.  1.
         11   -1    0    0    0    0 -0.00000000000E+00 -0.00000000000E+00 -0.45593999997E+02  0.45594000000E+02  0.51100000000E-03 0. -1.
    9900012    2    1    2    0    0  0.21151128675E+02  0.30627664228E+02  0.25371035359E+02  0.46142317682E+02  0.99999992816E+01 0.  0.
         12    1    1    2    0    0 -0.21151128675E+02 -0.30627664228E+02 -0.25371035359E+02  0.45045682318E+02  0.00000000000E+00 0. -1.
         11    1    3    3    0    0  0.67153327739E+00  0.15296314506E-01 -0.33017449760E-01  0.67251864880E+00  0.51100000000E-03 0. -1.
        -11    1    3    3    0    0  0.37198330829E+01  0.38414725848E+01  0.74420643401E+00  0.53988807416E+01  0.51100000000E-03 0.  1.
        -12    1    3    3    0    0  0.16759762315E+02  0.26770895328E+02  0.24659846375E+02  0.40070918292E+02  0.00000000000E+00 0.  1.
</event>
<event>
 7    1  0.6379992E-009  0.4614232E+02  0.7816164E-02  0.1320468E+00
        -11   -1    0    0    0    0  0.00000000000E+00  0.00000000000E+00  0.45593999997E+02  0.45594000000E+02  0.51100000000E-03 0.  1.
         11   -1    0    0    0    0 -0.00000000000E+00 -0.00000000000E+00 -0.45593999997E+02  0.45594000000E+02  0.51100000000E-03 0. -1.
    9900012    2    1    2    0    0  0.30029983482E+02  0.29300601900E+02 -0.16394764587E+02  0.46142317793E+02  0.10000000291E+02 0.  0.
         12    1    1    2    0    0 -0.30029983482E+02 -0.29300601900E+02  0.16394764587E+02  0.45045682207E+02  0.00000000000E+00 0. -1.
         11    1    3    3    0    0  0.10809693448E+01  0.37712211558E+01 -0.13165235587E+01  0.41380959718E+01  0.51100000000E-03 0. -1.
        -11    1    3    3    0    0  0.27806014551E+02  0.21921309193E+02 -0.13924740201E+02  0.38047557502E+02  0.51100000000E-03 0.  1.
        -12    1    3    3    0    0  0.11429995856E+01  0.36080715517E+01 -0.11535008271E+01  0.39566643190E+01  0.00000000000E+00 0.  1.
</event>
<event>
 7    1  0.3046295E-009  0.4614232E+02  0.7816164E-02  0.1320468E+00
        -11   -1    0    0    0    0  0.00000000000E+00  0.00000000000E+00  0.45593999997E+02  0.45594000000E+02  0.51100000000E-03 0.  1.
         11   -1    0    0    0    0 -0.00000000000E+00 -0.00000000000E+00 -0.45593999997E+02  0.45594000000E+02  0.51100000000E-03 0. -1.
    9900012    2    1    2    0    0 -0.60513273872E+01 -0.26747647558E+02  0.35735953720E+02  0.46142316508E+02  0.99999885688E+01 0.  0.
         12    1    1    2    0    0  0.60513273872E+01  0.26747647558E+02 -0.35735953720E+02  0.45045683492E+02  0.00000000000E+00 0. -1.
         11    1    3    3    0    0 -0.26300015317E+00  0.52980782151E+00  0.22465448266E+01  0.23231076874E+01  0.51100000000E-03 0. -1.
        -11    1    3    3    0    0 -0.90551500095E+00 -0.11140144509E+01  0.31405787126E+01  0.34531464673E+01  0.51100000000E-03 0.  1.
         12    1    3    3    0    0 -0.48828122331E+01 -0.26163440929E+02  0.30348830180E+02  0.40366062353E+02  0.00000000000E+00 0. -1.
</event>
<event>
 7    1  0.3046295E-009  0.4614232E+02  0.7816164E-02  0.1320468E+00
        -11   -1    0    0    0    0  0.00000000000E+00  0.00000000000E+00  0.45593999997E+02  0.45594000000E+02  0.51100000000E-03 0.  1.
         11   -1    0    0    0    0 -0.00000000000E+00 -0.00000000000E+00 -0.45593999997E+02  0.45594000000E+02  0.51100000000E-03 0. -1.
    9900012    2    1    2    0    0  0.26971035091E+02 -0.35813288338E+02  0.43686558168E+01  0.46142317531E+02  0.99999979006E+01 0.  0.
         12    1    1    2    0    0 -0.26971035091E+02  0.35813288338E+02 -0.43686558168E+01  0.45045682469E+02  0.00000000000E+00 0. -1.
         11    1    3    3    0    0  0.12442904894E+02 -0.11229562889E+02 -0.17360016896E+00  0.16761834689E+02  0.51100000000E-03 0. -1.
        -11    1    3    3    0    0  0.98248753203E+01 -0.14186723152E+02  0.46584312392E+00  0.17262916872E+02  0.51100000000E-03 0.  1.
         12    1    3    3    0    0  0.47032548765E+01 -0.10397002297E+02  0.40764128618E+01  0.12117565970E+02  0.00000000000E+00 0. -1.
</event>
<event>
 7    1  0.3046295E-009  0.4614232E+02  0.7816164E-02  0.1320468E+00
        -11   -1    0    0    0    0  0.00000000000E+00  0.00000000000E+00  0.45593999997E+02  0.45594000000E+02  0.51100000000E-03 0.  1.
         11   -1    0    0    0    0 -0.00000000000E+00 -0.00000000000E+00 -0.45593999997E+02  0.45594000000E+02  0.51100000000E-03 0. -1.
    9900012    2    1    2    0    0  0.58760596743E+01  0.42095868344E+02  0.14917210150E+02  0.46142319101E+02  0.10000012221E+02 0.  0.
         12    1    1    2    0    0 -0.58760596743E+01 -0.42095868344E+02 -0.14917210150E+02  0.45045680899E+02  0.00000000000E+00 0. -1.
         11    1    3    3    0    0  0.34758024869E+01  0.10350003781E+02  0.91047136913E+00  0.10955945399E+02  0.51100000000E-03 0. -1.
        -11    1    3    3    0    0  0.38095784401E+01  0.17098459872E+02  0.66793558523E+01  0.18747906890E+02  0.51100000000E-03 0.  1.
         12    1    3    3    0    0 -0.14093212527E+01  0.14647404691E+02  0.73273829285E+01  0.16438466813E+02  0.00000000000E+00 0. -1.
</event>
<event>
 7    1  0.3046295E-009  0.4614232E+02  0.7816164E-02  0.1320468E+00
        -11   -1    0    0    0    0  0.00000000000E+00  0.00000000000E+00  0.45593999997E+02  0.45594000000E+02  0.51100000000E-03 0. -1.
         11   -1    0    0    0    0 -0.00000000000E+00 -0.00000000000E+00 -0.45593999997E+02  0.45594000000E+02  0.51100000000E-03 0.  1.
    9900012    2    1    2    0    0  0.60184050294E+01 -0.42062880799E+02 -0.14953470883E+02  0.46142318390E+02  0.10000005737E+02 0.  0.
         12    1    1    2    0    0 -0.60184050294E+01  0.42062880799E+02  0.14953470883E+02  0.45045681610E+02  0.00000000000E+00 0. -1.
         11    1    3    3    0    0  0.77794855649E+01 -0.32657161577E+02 -0.11834731929E+02  0.35595947495E+02  0.51100000000E-03 0.  1.
        -11    1    3    3    0    0 -0.20611485477E+01 -0.83134464986E+01 -0.36312249403E+01  0.93030920048E+01  0.51100000000E-03 0. -1.
        -12    1    3    3    0    0  0.30006801225E+00 -0.10922727234E+01  0.51248598646E+00  0.12432788909E+01  0.00000000000E+00 0.  1.
</event>
<event>
 7    1  0.3046295E-009  0.4614232E+02  0.7816164E-02  0.1320468E+00
        -11   -1    0    0    0    0  0.00000000000E+00  0.00000000000E+00  0.45593999997E+02  0.45594000000E+02  0.51100000000E-03 0.  1.
         11   -1    0    0    0    0 -0.00000000000E+00 -0.00000000000E+00 -0.45593999997E+02  0.45594000000E+02  0.51100000000E-03 0. -1.
    9900012    2    1    2    0    0 -0.29466506708E+01 -0.34670518877E+01  0.44815290502E+02  0.46142318057E+02  0.10000002699E+02 0.  0.
         12    1    1    2    0    0  0.29466506708E+01  0.34670518877E+01 -0.44815290502E+02  0.45045681943E+02  0.00000000000E+00 0. -1.
         11    1    3    3    0    0  0.12682835599E+01  0.14120970625E+01  0.16340736871E+02  0.16450600082E+02  0.51100000000E-03 0. -1.
        -11    1    3    3    0    0 -0.12030852479E+01 -0.45460482679E+01  0.22573504551E+02  0.23058123881E+02  0.51100000000E-03 0.  1.
         12    1    3    3    0    0 -0.30118489828E+01 -0.33310068235E+00  0.59010490797E+01  0.66335940938E+01  0.00000000000E+00 0. -1.
</event>
<event>
 7    1  0.3046295E-009  0.4614232E+02  0.7816164E-02  0.1320468E+00
        -11   -1    0    0    0    0  0.00000000000E+00  0.00000000000E+00  0.45593999997E+02  0.45594000000E+02  0.51100000000E-03 0.  1.
         11   -1    0    0    0    0 -0.00000000000E+00 -0.00000000000E+00 -0.45593999997E+02  0.45594000000E+02  0.51100000000E-03 0. -1.
    9900012    2    1    2    0    0 -0.34230852539E+02 -0.19359001070E+02  0.21967962507E+02  0.46142316914E+02  0.99999922773E+01 0.  0.
         12    1    1    2    0    0  0.34230852539E+02  0.19359001070E+02 -0.21967962507E+02  0.45045683086E+02  0.00000000000E+00 0. -1.
         11    1    3    3    0    0 -0.20625331064E+02 -0.11086016508E+02  0.14941217516E+02  0.27776681311E+02  0.51100000000E-03 0. -1.
        -11    1    3    3    0    0 -0.12578969489E+02 -0.57464323700E+01  0.72768684965E+01  0.15627052626E+02  0.51100000000E-03 0.  1.
         12    1    3    3    0    0 -0.10265519856E+01 -0.25265521915E+01 -0.25012350598E+00  0.27385829773E+01  0.00000000000E+00 0. -1.
</event>
<event>
 7    1  0.3046295E-009  0.4614232E+02  0.7816164E-02  0.1320468E+00
        -11   -1    0    0    0    0  0.00000000000E+00  0.00000000000E+00  0.45593999997E+02  0.45594000000E+02  0.51100000000E-03 0.  1.
         11   -1    0    0    0    0 -0.00000000000E+00 -0.00000000000E+00 -0.45593999997E+02  0.45594000000E+02  0.51100000000E-03 0. -1.
    9900012    2    1    2    0    0  0.38346325927E+02 -0.12022668241E+02  0.20350143843E+02  0.46142316320E+02  0.99999868601E+01 0.  0.
         12    1    1    2    0    0 -0.38346325927E+02  0.12022668241E+02 -0.20350143843E+02  0.45045683680E+02  0.00000000000E+00 0. -1.
         11    1    3    3    0    0  0.68420297684E+01 -0.21394075139E+01  0.72215356244E+01  0.10175510449E+02  0.51100000000E-03 0. -1.
        -11    1    3    3    0    0  0.27299780742E+02 -0.86456977032E+01  0.13314307425E+02  0.31580007913E+02  0.51100000000E-03 0.  1.
        -12    1    3    3    0    0  0.42045154166E+01 -0.12375630237E+01 -0.18569920611E+00  0.43867979577E+01  0.00000000000E+00 0.  1.
</event>
<event>
 7    1  0.3046295E-009  0.4614233E+02  0.7816164E-02  0.1320468E+00
        -11   -1    0    0    0    0  0.00000000000E+00  0.00000000000E+00  0.45593999997E+02  0.45594000000E+02  0.51100000000E-03 0.  1.
         11   -1    0    0    0    0 -0.00000000000E+00 -0.00000000000E+00 -0.45593999997E+02  0.45594000000E+02  0.51100000000E-03 0. -1.
    9900012    2    1    2    0    0  0.54497193479E+00 -0.30053296588E+02  0.33550189267E+02  0.46142325067E+02  0.10000066625E+02 0.  0.
         12    1    1    2    0    0 -0.54497193479E+00  0.30053296588E+02 -0.33550189267E+02  0.45045674933E+02  0.00000000000E+00 0. -1.
         11    1    3    3    0    0  0.22898585776E+01 -0.95299125301E+01  0.15303804650E+02  0.18173307959E+02  0.51100000000E-03 0. -1.
        -11    1    3    3    0    0  0.94765615374E+00 -0.14387442280E+02  0.13550381223E+02  0.19786595945E+02  0.51100000000E-03 0.  1.
        -12    1    3    3    0    0 -0.26925427965E+01 -0.61359417784E+01  0.46960033942E+01  0.81824211636E+01  0.00000000000E+00 0.  1.
</event>
<event>
 7    1  0.3046295E-009  0.4614232E+02  0.7816164E-02  0.1320468E+00
        -11   -1    0    0    0    0  0.00000000000E+00  0.00000000000E+00  0.45593999997E+02  0.45594000000E+02  0.51100000000E-03 0.  1.
         11   -1    0    0    0    0 -0.00000000000E+00 -0.00000000000E+00 -0.45593999997E+02  0.45594000000E+02  0.51100000000E-03 0. -1.
    9900012    2    1    2    0    0 -0.41843758413E+02 -0.15061841615E+02  0.71661704810E+01  0.46142321070E+02  0.10000030171E+02 0.  0.
         12    1    1    2    0    0  0.41843758413E+02  0.15061841615E+02 -0.71661704810E+01  0.45045678930E+02  0.00000000000E+00 0. -1.
         11    1    3    3    0    0 -0.17552013586E+01  0.36064465396E+00 -0.38615448200E+00  0.18330062523E+01  0.51100000000E-03 0. -1.
        -11    1    3    3    0    0 -0.21523364039E+02 -0.53481085187E+01  0.10260402939E+01  0.22201581548E+02  0.51100000000E-03 0.  1.
        -12    1    3    3    0    0 -0.18565193015E+02 -0.10074377750E+02  0.65262846691E+01  0.22107733269E+02  0.00000000000E+00 0.  1.
</event>
<event>
 7    1  0.3046295E-009  0.4614232E+02  0.7816164E-02  0.1320468E+00
        -11   -1    0    0    0    0  0.00000000000E+00  0.00000000000E+00  0.45593999997E+02  0.45594000000E+02  0.51100000000E-03 0. -1.
         11   -1    0    0    0    0 -0.00000000000E+00 -0.00000000000E+00 -0.45593999997E+02  0.45594000000E+02  0.51100000000E-03 0.  1.
    9900012    2    1    2    0    0  0.44751359034E+02 -0.45941557931E+01 -0.23071842522E+01  0.46142317610E+02  0.99999986180E+01 0.  0.
         12    1    1    2    0    0 -0.44751359034E+02  0.45941557931E+01  0.23071842522E+01  0.45045682390E+02  0.00000000000E+00 0. -1.
         11    1    3    3    0    0  0.13328871135E+01 -0.74133339366E+00 -0.17166596201E+01  0.22963196142E+01  0.51100000000E-03 0. -1.
        -11    1    3    3    0    0  0.13442940435E+02 -0.10143857805E+00  0.16977238149E+01  0.13550099769E+02  0.51100000000E-03 0.  1.
         12    1    3    3    0    0  0.29975531485E+02 -0.37513838214E+01 -0.22882484470E+01  0.30295898227E+02  0.00000000000E+00 0. -1.
</event>
<event>
 7    1  0.3046295E-009  0.4614232E+02  0.7816164E-02  0.1320468E+00
        -11   -1    0    0    0    0  0.00000000000E+00  0.00000000000E+00  0.45593999997E+02  0.45594000000E+02  0.51100000000E-03 0. -1.
         11   -1    0    0    0    0 -0.00000000000E+00 -0.00000000000E+00 -0.45593999997E+02  0.45594000000E+02  0.51100000000E-03 0.  1.
    9900012    2    1    2    0    0 -0.41746840757E+02 -0.15140710974E+02 -0.75547113155E+01  0.46142317576E+02  0.99999983106E+01 0.  0.
         12    1    1    2    0    0  0.41746840757E+02  0.15140710974E+02  0.75547113155E+01  0.45045682424E+02  0.00000000000E+00 0. -1.
         11    1    3    3    0    0 -0.96403665533E+01 -0.52027294377E+01 -0.55984701190E+01  0.12302354605E+02  0.51100000000E-03 0.  1.
        -11    1    3    3    0    0 -0.19215227180E+02 -0.43834261978E+01 -0.35638787521E+00  0.19712087494E+02  0.51100000000E-03 0. -1.
         12    1    3    3    0    0 -0.12891247024E+02 -0.55545553384E+01 -0.15998533213E+01  0.14127875477E+02  0.00000000000E+00 0. -1.
</event>
<event>
 7    1  0.3046295E-009  0.4614232E+02  0.7816164E-02  0.1320468E+00
        -11   -1    0    0    0    0  0.00000000000E+00  0.00000000000E+00  0.45593999997E+02  0.45594000000E+02  0.51100000000E-03 0. -1.
         11   -1    0    0    0    0 -0.00000000000E+00 -0.00000000000E+00 -0.45593999997E+02  0.45594000000E+02  0.51100000000E-03 0.  1.
    9900012    2    1    2    0    0 -0.31707646045E+02  0.22656801850E+02 -0.22592209440E+02  0.46142318574E+02  0.10000007409E+02 0.  0.
         12    1    1    2    0    0  0.31707646045E+02 -0.22656801850E+02  0.22592209440E+02  0.45045681426E+02  0.00000000000E+00 0. -1.
         11    1    3    3    0    0 -0.16437120119E+02  0.11762029530E+02 -0.94857331764E+01  0.22327189492E+02  0.51100000000E-03 0. -1.
        -11    1    3    3    0    0 -0.51050361057E+01  0.63380216807E+01 -0.27106262509E+01  0.85778439831E+01  0.51100000000E-03 0.  1.
         12    1    3    3    0    0 -0.10165489820E+02  0.45567506398E+01 -0.10395850013E+02  0.15237285098E+02  0.00000000000E+00 0. -1.
</event>
<event>
 7    1  0.3046295E-009  0.4614232E+02  0.7816164E-02  0.1320468E+00
        -11   -1    0    0    0    0  0.00000000000E+00  0.00000000000E+00  0.45593999997E+02  0.45594000000E+02  0.51100000000E-03 0. -1.
         11   -1    0    0    0    0 -0.00000000000E+00 -0.00000000000E+00 -0.45593999997E+02  0.45594000000E+02  0.51100000000E-03 0.  1.
    9900012    2    1    2    0    0 -0.24698964803E+02  0.33536204439E+02 -0.17158016788E+02  0.46142318624E+02  0.10000007869E+02 0.  0.
         12    1    1    2    0    0  0.24698964803E+02 -0.33536204439E+02  0.17158016788E+02  0.45045681376E+02  0.00000000000E+00 0. -1.
         11    1    3    3    0    0 -0.29479270326E+01  0.96894799835E+01 -0.45765487282E+01  0.11114004439E+02  0.51100000000E-03 0. -1.
        -11    1    3    3    0    0 -0.93674369279E+01  0.66579014063E+01 -0.39502554442E+01  0.12152408982E+02  0.51100000000E-03 0.  1.
        -12    1    3    3    0    0 -0.12383600843E+02  0.17188823049E+02 -0.86312126156E+01  0.22875905203E+02  0.00000000000E+00 0.  1.
</event>
<event>
 7    1  0.3046295E-009  0.4614232E+02  0.7816164E-02  0.1320468E+00
        -11   -1    0    0    0    0  0.00000000000E+00  0.00000000000E+00  0.45593999997E+02  0.45594000000E+02  0.51100000000E-03 0. -1.
         11   -1    0    0    0    0 -0.00000000000E+00 -0.00000000000E+00 -0.45593999997E+02  0.45594000000E+02  0.51100000000E-03 0.  1.
    9900012    2    1    2    0    0  0.34862040106E+01  0.29360156700E+02 -0.33984423812E+02  0.46142317836E+02  0.10000000680E+02 0.  0.
         12    1    1    2    0    0 -0.34862040106E+01 -0.29360156700E+02  0.33984423812E+02  0.45045682164E+02  0.00000000000E+00 0. -1.
         11    1    3    3    0    0 -0.25068837057E+01  0.86534048713E+01 -0.91571360567E+01  0.12845973019E+02  0.51100000000E-03 0. -1.
        -11    1    3    3    0    0  0.39540872494E+00  0.10805193571E+02 -0.12072996867E+02  0.16206967939E+02  0.51100000000E-03 0.  1.
         12    1    3    3    0    0  0.55976789914E+01  0.99015582574E+01 -0.12754290888E+02  0.17089376878E+02  0.00000000000E+00 0. -1.
</event>
<event>
 7    1  0.3046295E-009  0.4614232E+02  0.7816164E-02  0.1320468E+00
        -11   -1    0    0    0    0  0.00000000000E+00  0.00000000000E+00  0.45593999997E+02  0.45594000000E+02  0.51100000000E-03 0.  1.
         11   -1    0    0    0    0 -0.00000000000E+00 -0.00000000000E+00 -0.45593999997E+02  0.45594000000E+02  0.51100000000E-03 0. -1.
    9900012    2    1    2    0    0  0.33456050267E+02 -0.29465090478E+02 -0.64509378155E+01  0.46142318131E+02  0.10000003371E+02 0.  0.
         12    1    1    2    0    0 -0.33456050267E+02  0.29465090478E+02  0.64509378155E+01  0.45045681869E+02  0.00000000000E+00 0. -1.
         11    1    3    3    0    0  0.62766556585E+01 -0.47344273815E+01 -0.32775412945E+01  0.85178334149E+01  0.51100000000E-03 0.  1.
        -11    1    3    3    0    0  0.14322474681E+02 -0.81052898173E+01 -0.83497982567E+00  0.16478051935E+02  0.51100000000E-03 0. -1.
        -12    1    3    3    0    0  0.12856919928E+02 -0.16625373279E+02 -0.23384166953E+01  0.21146432781E+02  0.00000000000E+00 0.  1.
</event>
<event>
 7    1  0.3046295E-009  0.4614231E+02  0.7816164E-02  0.1320468E+00
        -11   -1    0    0    0    0  0.00000000000E+00  0.00000000000E+00  0.45593999997E+02  0.45594000000E+02  0.51100000000E-03 0.  1.
         11   -1    0    0    0    0 -0.00000000000E+00 -0.00000000000E+00 -0.45593999997E+02  0.45594000000E+02  0.51100000000E-03 0. -1.
    9900012    2    1    2    0    0  0.22802567217E+02 -0.37868281907E+02 -0.86689157717E+01  0.46142312671E+02  0.99999535834E+01 0.  0.
         12    1    1    2    0    0 -0.22802567217E+02  0.37868281907E+02  0.86689157717E+01  0.45045687329E+02  0.00000000000E+00 0. -1.
         11    1    3    3    0    0  0.11906505919E+02 -0.13292019954E+02 -0.28454554354E+01  0.18070398295E+02  0.51100000000E-03 0. -1.
        -11    1    3    3    0    0  0.76114513217E+01 -0.12149751151E+02 -0.50313582346E+01  0.15194249248E+02  0.51100000000E-03 0.  1.
        -12    1    3    3    0    0  0.32846099772E+01 -0.12426510802E+02 -0.79210210171E+00  0.12877665128E+02  0.00000000000E+00 0.  1.
</event>
<event>
 7    1  0.3046295E-009  0.4614232E+02  0.7816164E-02  0.1320468E+00
        -11   -1    0    0    0    0  0.00000000000E+00  0.00000000000E+00  0.45593999997E+02  0.45594000000E+02  0.51100000000E-03 0.  1.
         11   -1    0    0    0    0 -0.00000000000E+00 -0.00000000000E+00 -0.45593999997E+02  0.45594000000E+02  0.51100000000E-03 0. -1.
    9900012    2    1    2    0    0 -0.69058931709E+01  0.39710643266E+02  0.20111861212E+02  0.46142317516E+02  0.99999977606E+01 0.  0.
         12    1    1    2    0    0  0.69058931709E+01 -0.39710643266E+02 -0.20111861212E+02  0.45045682484E+02  0.00000000000E+00 0. -1.
         11    1    3    3    0    0 -0.99414902611E-01  0.19741808327E+02  0.86318929659E+01  0.21546657647E+02  0.51100000000E-03 0. -1.
        -11    1    3    3    0    0 -0.43897586637E+01  0.12068017215E+02  0.98258160992E+01  0.16169529458E+02  0.51100000000E-03 0.  1.
        -12    1    3    3    0    0 -0.24167196046E+01  0.79008177242E+01  0.16541521464E+01  0.84261304098E+01  0.00000000000E+00 0.  1.
</event>
<event>
 7    1  0.3046295E-009  0.4614232E+02  0.7816164E-02  0.1320468E+00
        -11   -1    0    0    0    0  0.00000000000E+00  0.00000000000E+00  0.45593999997E+02  0.45594000000E+02  0.51100000000E-03 0. -1.
         11   -1    0    0    0    0 -0.00000000000E+00 -0.00000000000E+00 -0.45593999997E+02  0.45594000000E+02  0.51100000000E-03 0.  1.
    9900012    2    1    2    0    0  0.33718594541E+02 -0.29781102892E+02  0.22925455883E+01  0.46142317936E+02  0.10000001598E+02 0.  0.
         12    1    1    2    0    0 -0.33718594541E+02  0.29781102892E+02 -0.22925455883E+01  0.45045682064E+02  0.00000000000E+00 0. -1.
         11    1    3    3    0    0  0.32056326570E+01 -0.10572622226E+01  0.10824572788E+01  0.35447987476E+01  0.51100000000E-03 0. -1.
        -11    1    3    3    0    0  0.25285190120E+02 -0.20477279270E+02 -0.11313541145E+01  0.32556716176E+02  0.51100000000E-03 0.  1.
         12    1    3    3    0    0  0.52277717636E+01 -0.82465613992E+01  0.23414424239E+01  0.10040803013E+02  0.00000000000E+00 0. -1.
</event>
<event>
 7    1  0.3046295E-009  0.4614232E+02  0.7816164E-02  0.1320468E+00
        -11   -1    0    0    0    0  0.00000000000E+00  0.00000000000E+00  0.45593999997E+02  0.45594000000E+02  0.51100000000E-03 0. -1.
         11   -1    0    0    0    0 -0.00000000000E+00 -0.00000000000E+00 -0.45593999997E+02  0.45594000000E+02  0.51100000000E-03 0.  1.
    9900012    2    1    2    0    0 -0.25849677322E+02 -0.27279118250E+02 -0.24834600590E+02  0.46142317670E+02  0.99999991647E+01 0.  0.
         12    1    1    2    0    0  0.25849677322E+02  0.27279118250E+02  0.24834600590E+02  0.45045682330E+02  0.00000000000E+00 0. -1.
         11    1    3    3    0    0 -0.21683952676E+02 -0.19229115345E+02 -0.22408052206E+02  0.36634321128E+02  0.51100000000E-03 0. -1.
        -11    1    3    3    0    0 -0.22057203329E+01 -0.57671224419E+01 -0.18362182748E+01  0.64417855646E+01  0.51100000000E-03 0.  1.
         12    1    3    3    0    0 -0.19600043137E+01 -0.22828804623E+01 -0.59033010960E+00  0.30662109766E+01  0.00000000000E+00 0. -1.
</event>
<event>
 7    1  0.3046295E-009  0.4614232E+02  0.7816164E-02  0.1320468E+00
        -11   -1    0    0    0    0  0.00000000000E+00  0.00000000000E+00  0.45593999997E+02  0.45594000000E+02  0.51100000000E-03 0.  1.
         11   -1    0    0    0    0 -0.00000000000E+00 -0.00000000000E+00 -0.45593999997E+02  0.45594000000E+02  0.51100000000E-03 0. -1.
    9900012    2    1    2    0    0  0.25337716939E+02 -0.15851789896E+02  0.33702141524E+02  0.46142317789E+02  0.10000000252E+02 0.  0.
         12    1    1    2    0    0 -0.25337716939E+02  0.15851789896E+02 -0.33702141524E+02  0.45045682211E+02  0.00000000000E+00 0. -1.
         11    1    3    3    0    0  0.66119494964E+01 -0.83853093470E+01  0.10447200010E+02  0.14939052088E+02  0.51100000000E-03 0. -1.
        -11    1    3    3    0    0  0.68431866478E+01 -0.66719597672E+00  0.56343043230E+01  0.88893047779E+01  0.51100000000E-03 0.  1.
        -12    1    3    3    0    0  0.11882580794E+02 -0.67992845725E+01  0.17620637191E+02  0.22313960923E+02  0.00000000000E+00 0.  1.
</event>
<event>
 7    1  0.3046295E-009  0.4614232E+02  0.7816164E-02  0.1320468E+00
        -11   -1    0    0    0    0  0.00000000000E+00  0.00000000000E+00  0.45593999997E+02  0.45594000000E+02  0.51100000000E-03 0.  1.
         11   -1    0    0    0    0 -0.00000000000E+00 -0.00000000000E+00 -0.45593999997E+02  0.45594000000E+02  0.51100000000E-03 0. -1.
    9900012    2    1    2    0    0 -0.42434231654E+02 -0.51053781905E+01  0.14226194010E+02  0.46142317648E+02  0.99999989712E+01 0.  0.
         12    1    1    2    0    0  0.42434231654E+02  0.51053781905E+01 -0.14226194010E+02  0.45045682352E+02  0.00000000000E+00 0. -1.
         11    1    3    3    0    0 -0.10541154520E+02 -0.46950702258E+01  0.54874758329E+01  0.12777793797E+02  0.51100000000E-03 0. -1.
        -11    1    3    3    0    0 -0.24425352874E+02  0.70914069156E+00  0.50142793652E+01  0.24944813917E+02  0.51100000000E-03 0.  1.
        -12    1    3    3    0    0 -0.74677242596E+01 -0.11194486563E+01  0.37244388117E+01  0.84197099340E+01  0.00000000000E+00 0.  1.
</event>
<event>
 7    1  0.3046295E-009  0.4614232E+02  0.7816164E-02  0.1320468E+00
        -11   -1    0    0    0    0  0.00000000000E+00  0.00000000000E+00  0.45593999997E+02  0.45594000000E+02  0.51100000000E-03 0.  1.
         11   -1    0    0    0    0 -0.00000000000E+00 -0.00000000000E+00 -0.45593999997E+02  0.45594000000E+02  0.51100000000E-03 0. -1.
    9900012    2    1    2    0    0 -0.20930717337E+02  0.93416129083E+01  0.38778252426E+02  0.46142317396E+02  0.99999966746E+01 0.  0.
         12    1    1    2    0    0  0.20930717337E+02 -0.93416129083E+01 -0.38778252426E+02  0.45045682604E+02  0.00000000000E+00 0. -1.
         11    1    3    3    0    0 -0.16079074703E+01  0.91580316616E+00  0.57902071708E+00  0.19388984306E+01  0.51100000000E-03 0. -1.
        -11    1    3    3    0    0 -0.19016077559E+02  0.91842154184E+01  0.37786330472E+02  0.43287039508E+02  0.51100000000E-03 0.  1.
        -12    1    3    3    0    0 -0.30673230753E+00 -0.75840567630E+00  0.41290123722E+00  0.91637945744E+00  0.00000000000E+00 0.  1.
</event>
<event>
 7    1  0.3046295E-009  0.4614232E+02  0.7816164E-02  0.1320468E+00
        -11   -1    0    0    0    0  0.00000000000E+00  0.00000000000E+00  0.45593999997E+02  0.45594000000E+02  0.51100000000E-03 0.  1.
         11   -1    0    0    0    0 -0.00000000000E+00 -0.00000000000E+00 -0.45593999997E+02  0.45594000000E+02  0.51100000000E-03 0. -1.
    9900012    2    1    2    0    0  0.78722583803E+01  0.20190487293E+02  0.39490320100E+02  0.46142316403E+02  0.99999876163E+01 0.  0.
         12    1    1    2    0    0 -0.78722583803E+01 -0.20190487293E+02 -0.39490320100E+02  0.45045683597E+02  0.00000000000E+00 0. -1.
         11    1    3    3    0    0  0.74577996233E+01  0.82837487701E+01  0.15385051405E+02  0.18998396667E+02  0.51100000000E-03 0. -1.
        -11    1    3    3    0    0 -0.13098038047E+01  0.28668615004E+01  0.45951277996E+01  0.55722240286E+01  0.51100000000E-03 0.  1.
        -12    1    3    3    0    0  0.17242625617E+01  0.90398770224E+01  0.19510140895E+02  0.21571695708E+02  0.00000000000E+00 0.  1.
</event>
<event>
 7    1  0.3046295E-009  0.4614232E+02  0.7816164E-02  0.1320468E+00
        -11   -1    0    0    0    0  0.00000000000E+00  0.00000000000E+00  0.45593999997E+02  0.45594000000E+02  0.51100000000E-03 0.  1.
         11   -1    0    0    0    0 -0.00000000000E+00 -0.00000000000E+00 -0.45593999997E+02  0.45594000000E+02  0.51100000000E-03 0. -1.
    9900012    2    1    2    0    0 -0.36508999944E+02  0.21698859267E+02  0.15012191428E+02  0.46142318055E+02  0.10000002680E+02 0.  0.
         12    1    1    2    0    0  0.36508999944E+02 -0.21698859267E+02 -0.15012191428E+02  0.45045681945E+02  0.00000000000E+00 0. -1.
         11    1    3    3    0    0 -0.13861134378E+02  0.53395248008E+01  0.21859755853E+01  0.15013995499E+02  0.51100000000E-03 0. -1.
        -11    1    3    3    0    0 -0.19371607688E+02  0.11670359646E+02  0.96797677625E+01  0.24599885831E+02  0.51100000000E-03 0.  1.
         12    1    3    3    0    0 -0.32762578787E+01  0.46889748203E+01  0.31464480802E+01  0.65284367252E+01  0.00000000000E+00 0. -1.
</event>
<event>
 7    1  0.3046295E-009  0.4614232E+02  0.7816164E-02  0.1320468E+00
        -11   -1    0    0    0    0  0.00000000000E+00  0.00000000000E+00  0.45593999997E+02  0.45594000000E+02  0.51100000000E-03 0. -1.
         11   -1    0    0    0    0 -0.00000000000E+00 -0.00000000000E+00 -0.45593999997E+02  0.45594000000E+02  0.51100000000E-03 0.  1.
    9900012    2    1    2    0    0 -0.26693671296E+02  0.15343578400E+02 -0.32880630724E+02  0.46142319162E+02  0.10000012776E+02 0.  0.
         12    1    1    2    0    0  0.26693671296E+02 -0.15343578400E+02  0.32880630724E+02  0.45045680838E+02  0.00000000000E+00 0. -1.
         11    1    3    3    0    0 -0.25428709485E+00 -0.15069569545E+00  0.94779245143E-01  0.31041018937E+00  0.51100000000E-03 0. -1.
        -11    1    3    3    0    0 -0.14087920936E+02  0.13122916939E+02 -0.19822588171E+02  0.27633593095E+02  0.51100000000E-03 0.  1.
        -12    1    3    3    0    0 -0.12351463265E+02  0.23713571564E+01 -0.13152821797E+02  0.18198315878E+02  0.00000000000E+00 0.  1.
</event>
<event>
 7    1  0.3046295E-009  0.4614232E+02  0.7816164E-02  0.1320468E+00
        -11   -1    0    0    0    0  0.00000000000E+00  0.00000000000E+00  0.45593999997E+02  0.45594000000E+02  0.51100000000E-03 0. -1.
         11   -1    0    0    0    0 -0.00000000000E+00 -0.00000000000E+00 -0.45593999997E+02  0.45594000000E+02  0.51100000000E-03 0.  1.
    9900012    2    1    2    0    0 -0.26860782494E+02 -0.18361012088E+02 -0.31152608979E+02  0.46142318217E+02  0.10000004161E+02 0.  0.
         12    1    1    2    0    0  0.26860782494E+02  0.18361012088E+02  0.31152608979E+02  0.45045681783E+02  0.00000000000E+00 0. -1.
         11    1    3    3    0    0 -0.86977403109E+01 -0.36229828118E+01 -0.81099777092E+01  0.12431750869E+02  0.51100000000E-03 0. -1.
        -11    1    3    3    0    0 -0.65194799852E+01 -0.80640032382E+01 -0.14409618982E+02  0.17752996563E+02  0.51100000000E-03 0.  1.
        -12    1    3    3    0    0 -0.11643562198E+02 -0.66740260378E+01 -0.86330122879E+01  0.15957570785E+02  0.00000000000E+00 0.  1.
</event>
<event>
 7    1  0.3046295E-009  0.4614232E+02  0.7816164E-02  0.1320468E+00
        -11   -1    0    0    0    0  0.00000000000E+00  0.00000000000E+00  0.45593999997E+02  0.45594000000E+02  0.51100000000E-03 0.  1.
         11   -1    0    0    0    0 -0.00000000000E+00 -0.00000000000E+00 -0.45593999997E+02  0.45594000000E+02  0.51100000000E-03 0. -1.
    9900012    2    1    2    0    0  0.82618652084E+01 -0.52184452618E+01  0.43972979106E+02  0.46142317864E+02  0.10000000938E+02 0.  0.
         12    1    1    2    0    0 -0.82618652084E+01  0.52184452618E+01 -0.43972979106E+02  0.45045682136E+02  0.00000000000E+00 0. -1.
         11    1    3    3    0    0  0.38315318628E+01 -0.60315790744E+00  0.61321164785E+01  0.72558451364E+01  0.51100000000E-03 0. -1.
        -11    1    3    3    0    0  0.37164687067E+01 -0.30982524726E+00  0.26016194814E+02  0.26282133175E+02  0.51100000000E-03 0.  1.
        -12    1    3    3    0    0  0.71386463892E+00 -0.43054621071E+01  0.11824667813E+02  0.12604339553E+02  0.00000000000E+00 0.  1.
</event>
<event>
 7    1  0.3046295E-009  0.4614232E+02  0.7816164E-02  0.1320468E+00
        -11   -1    0    0    0    0  0.00000000000E+00  0.00000000000E+00  0.45593999997E+02  0.45594000000E+02  0.51100000000E-03 0.  1.
         11   -1    0    0    0    0 -0.00000000000E+00 -0.00000000000E+00 -0.45593999997E+02  0.45594000000E+02  0.51100000000E-03 0. -1.
    9900012    2    1    2    0    0  0.20255468254E+02 -0.29039095829E+02  0.27848887578E+02  0.46142316299E+02  0.99999866672E+01 0.  0.
         12    1    1    2    0    0 -0.20255468254E+02  0.29039095829E+02 -0.27848887578E+02  0.45045683701E+02  0.00000000000E+00 0. -1.
         11    1    3    3    0    0  0.13139253190E+01 -0.58055401608E+01  0.47203200972E+01  0.75968492406E+01  0.51100000000E-03 0. -1.
        -11    1    3    3    0    0  0.23240725682E+01 -0.62819038421E+01  0.78328521069E+01  0.10306172984E+02  0.51100000000E-03 0.  1.
         12    1    3    3    0    0  0.16617470367E+02 -0.16951651826E+02  0.15295715374E+02  0.28239294075E+02  0.00000000000E+00 0. -1.
</event>
<event>
 7    1  0.3046295E-009  0.4614232E+02  0.7816164E-02  0.1320468E+00
        -11   -1    0    0    0    0  0.00000000000E+00  0.00000000000E+00  0.45593999997E+02  0.45594000000E+02  0.51100000000E-03 0. -1.
         11   -1    0    0    0    0 -0.00000000000E+00 -0.00000000000E+00 -0.45593999997E+02  0.45594000000E+02  0.51100000000E-03 0.  1.
    9900012    2    1    2    0    0 -0.26650936412E+02 -0.28379811246E+02 -0.22658935361E+02  0.46142318191E+02  0.10000003916E+02 0.  0.
         12    1    1    2    0    0  0.26650936412E+02  0.28379811246E+02  0.22658935361E+02  0.45045681809E+02  0.00000000000E+00 0. -1.
         11    1    3    3    0    0 -0.13728856709E+02 -0.17009484783E+02 -0.15911463283E+02  0.27036618561E+02  0.51100000000E-03 0.  1.
        -11    1    3    3    0    0 -0.77861100796E+01 -0.74896552144E+01 -0.66133619616E+01  0.12667083409E+02  0.51100000000E-03 0. -1.
         12    1    3    3    0    0 -0.51359696236E+01 -0.38806712485E+01 -0.13411011576E+00  0.64386162206E+01  0.00000000000E+00 0. -1.
</event>
<event>
 7    1  0.3046295E-009  0.4614232E+02  0.7816164E-02  0.1320468E+00
        -11   -1    0    0    0    0  0.00000000000E+00  0.00000000000E+00  0.45593999997E+02  0.45594000000E+02  0.51100000000E-03 0.  1.
         11   -1    0    0    0    0 -0.00000000000E+00 -0.00000000000E+00 -0.45593999997E+02  0.45594000000E+02  0.51100000000E-03 0. -1.
    9900012    2    1    2    0    0  0.10203224263E+02  0.10139377282E+01  0.43863192813E+02  0.46142317201E+02  0.99999948924E+01 0.  0.
         12    1    1    2    0    0 -0.10203224263E+02 -0.10139377282E+01 -0.43863192813E+02  0.45045682799E+02  0.00000000000E+00 0. -1.
         11    1    3    3    0    0  0.38580596666E+01 -0.35986440346E+01  0.14025861783E+02  0.14985314888E+02  0.51100000000E-03 0. -1.
        -11    1    3    3    0    0  0.63170307176E+01  0.24695408360E+01  0.23941428990E+02  0.24883639834E+02  0.51100000000E-03 0.  1.
        -12    1    3    3    0    0  0.28133878317E-01  0.21430409268E+01  0.58959020399E+01  0.62733624790E+01  0.00000000000E+00 0.  1.
</event>
<event>
 7    1  0.3046295E-009  0.4614232E+02  0.7816164E-02  0.1320468E+00
        -11   -1    0    0    0    0  0.00000000000E+00  0.00000000000E+00  0.45593999997E+02  0.45594000000E+02  0.51100000000E-03 0.  1.
         11   -1    0    0    0    0 -0.00000000000E+00 -0.00000000000E+00 -0.45593999997E+02  0.45594000000E+02  0.51100000000E-03 0. -1.
    9900012    2    1    2    0    0  0.44947013137E+02 -0.24110759613E+01 -0.17510753456E+01  0.46142317165E+02  0.99999945611E+01 0.  0.
         12    1    1    2    0    0 -0.44947013137E+02  0.24110759613E+01  0.17510753456E+01  0.45045682835E+02  0.00000000000E+00 0. -1.
         11    1    3    3    0    0  0.56325126618E+01 -0.23534367978E+01 -0.18601187391E+01  0.63815284714E+01  0.51100000000E-03 0. -1.
        -11    1    3    3    0    0  0.17745456191E+02 -0.52470604534E+00 -0.28641929461E+01  0.17982773238E+02  0.51100000000E-03 0.  1.
         12    1    3    3    0    0  0.21569044285E+02  0.46706688184E+00  0.29732363395E+01  0.21778015455E+02  0.00000000000E+00 0. -1.
</event>
<event>
 7    1  0.3046295E-009  0.4614232E+02  0.7816164E-02  0.1320468E+00
        -11   -1    0    0    0    0  0.00000000000E+00  0.00000000000E+00  0.45593999997E+02  0.45594000000E+02  0.51100000000E-03 0. -1.
         11   -1    0    0    0    0 -0.00000000000E+00 -0.00000000000E+00 -0.45593999997E+02  0.45594000000E+02  0.51100000000E-03 0.  1.
    9900012    2    1    2    0    0  0.29464903167E+02 -0.33360401344E+01 -0.33908756184E+02  0.46142318427E+02  0.10000006068E+02 0.  0.
         12    1    1    2    0    0 -0.29464903167E+02  0.33360401344E+01  0.33908756184E+02  0.45045681573E+02  0.00000000000E+00 0. -1.
         11    1    3    3    0    0  0.63435175222E+01  0.17204503748E+01 -0.56233531699E+01  0.86499864266E+01  0.51100000000E-03 0. -1.
        -11    1    3    3    0    0  0.76577844010E+01 -0.42828497701E+01 -0.73020858340E+01  0.11415118128E+02  0.51100000000E-03 0.  1.
         12    1    3    3    0    0  0.15463601244E+02 -0.77364073914E+00 -0.20983317180E+02  0.26077213872E+02  0.00000000000E+00 0. -1.
</event>
<event>
 7    1  0.3046295E-009  0.4614232E+02  0.7816164E-02  0.1320468E+00
        -11   -1    0    0    0    0  0.00000000000E+00  0.00000000000E+00  0.45593999997E+02  0.45594000000E+02  0.51100000000E-03 0.  1.
         11   -1    0    0    0    0 -0.00000000000E+00 -0.00000000000E+00 -0.45593999997E+02  0.45594000000E+02  0.51100000000E-03 0. -1.
    9900012    2    1    2    0    0 -0.15674708590E+02  0.14668081069E+01  0.42205039557E+02  0.46142318970E+02  0.10000011027E+02 0.  0.
         12    1    1    2    0    0  0.15674708590E+02 -0.14668081069E+01 -0.42205039557E+02  0.45045681030E+02  0.00000000000E+00 0. -1.
         11    1    3    3    0    0 -0.12393239688E+02 -0.28700495051E+00  0.23704763708E+02  0.26750524939E+02  0.51100000000E-03 0. -1.
        -11    1    3    3    0    0 -0.82042891197E-01  0.23282680955E+01  0.10520161383E+02  0.10775034067E+02  0.51100000000E-03 0.  1.
        -12    1    3    3    0    0 -0.31994260110E+01 -0.57445503807E+00  0.79801144665E+01  0.86167599647E+01  0.00000000000E+00 0.  1.
</event>
<event>
 7    1  0.3046295E-009  0.4614232E+02  0.7816164E-02  0.1320468E+00
        -11   -1    0    0    0    0  0.00000000000E+00  0.00000000000E+00  0.45593999997E+02  0.45594000000E+02  0.51100000000E-03 0.  1.
         11   -1    0    0    0    0 -0.00000000000E+00 -0.00000000000E+00 -0.45593999997E+02  0.45594000000E+02  0.51100000000E-03 0. -1.
    9900012    2    1    2    0    0  0.24222313553E+02 -0.35581284993E+02  0.13280255460E+02  0.46142317624E+02  0.99999987473E+01 0.  0.
         12    1    1    2    0    0 -0.24222313553E+02  0.35581284993E+02 -0.13280255460E+02  0.45045682376E+02  0.00000000000E+00 0. -1.
         11    1    3    3    0    0  0.90066803642E+01 -0.13666403582E+02  0.25660390586E+01  0.16567300165E+02  0.51100000000E-03 0. -1.
        -11    1    3    3    0    0  0.11628633857E+02 -0.11030459426E+02  0.73373359720E+01  0.17627610727E+02  0.51100000000E-03 0.  1.
        -12    1    3    3    0    0  0.35869993320E+01 -0.10884421986E+02  0.33768804294E+01  0.11947406732E+02  0.00000000000E+00 0.  1.
</event>
<event>
 7    1  0.3046295E-009  0.4614232E+02  0.7816164E-02  0.1320468E+00
        -11   -1    0    0    0    0  0.00000000000E+00  0.00000000000E+00  0.45593999997E+02  0.45594000000E+02  0.51100000000E-03 0. -1.
         11   -1    0    0    0    0 -0.00000000000E+00 -0.00000000000E+00 -0.45593999997E+02  0.45594000000E+02  0.51100000000E-03 0.  1.
    9900012    2    1    2    0    0  0.16254704650E+02  0.61235134377E+01 -0.41562009664E+02  0.46142317772E+02  0.10000000102E+02 0.  0.
         12    1    1    2    0    0 -0.16254704650E+02 -0.61235134377E+01  0.41562009664E+02  0.45045682228E+02  0.00000000000E+00 0. -1.
         11    1    3    3    0    0  0.14454293918E+01 -0.17683118988E+01 -0.33182457233E+01  0.40282686156E+01  0.51100000000E-03 0. -1.
        -11    1    3    3    0    0  0.46779287399E+01  0.45579635018E+01 -0.19285826580E+02  0.20361757186E+02  0.51100000000E-03 0.  1.
        -12    1    3    3    0    0  0.10131346518E+02  0.33338618348E+01 -0.18957937360E+02  0.21752291970E+02  0.00000000000E+00 0.  1.
</event>
<event>
 7    1  0.3046295E-009  0.4614232E+02  0.7816164E-02  0.1320468E+00
        -11   -1    0    0    0    0  0.00000000000E+00  0.00000000000E+00  0.45593999997E+02  0.45594000000E+02  0.51100000000E-03 0.  1.
         11   -1    0    0    0    0 -0.00000000000E+00 -0.00000000000E+00 -0.45593999997E+02  0.45594000000E+02  0.51100000000E-03 0. -1.
    9900012    2    1    2    0    0  0.24539783717E+02 -0.36191346560E+01  0.37600723447E+02  0.46142317362E+02  0.99999963636E+01 0.  0.
         12    1    1    2    0    0 -0.24539783717E+02  0.36191346560E+01 -0.37600723447E+02  0.45045682638E+02  0.00000000000E+00 0. -1.
         11    1    3    3    0    0  0.25873385689E+00 -0.88977879244E+00  0.21090727668E+01  0.23036574626E+01  0.51100000000E-03 0. -1.
        -11    1    3    3    0    0  0.52588078358E+01  0.26508017862E+01  0.67931409534E+01  0.89904713023E+01  0.51100000000E-03 0.  1.
        -12    1    3    3    0    0  0.19022242024E+02 -0.53801576498E+01  0.28698509727E+02  0.34848188597E+02  0.00000000000E+00 0.  1.
</event>
<event>
 7    1  0.3046295E-009  0.4614232E+02  0.7816164E-02  0.1320468E+00
        -11   -1    0    0    0    0  0.00000000000E+00  0.00000000000E+00  0.45593999997E+02  0.45594000000E+02  0.51100000000E-03 0. -1.
         11   -1    0    0    0    0 -0.00000000000E+00 -0.00000000000E+00 -0.45593999997E+02  0.45594000000E+02  0.51100000000E-03 0.  1.
    9900012    2    1    2    0    0 -0.23925486050E+02  0.27402912598E+02 -0.26566236874E+02  0.46142318263E+02  0.10000004574E+02 0.  0.
         12    1    1    2    0    0  0.23925486050E+02 -0.27402912598E+02  0.26566236874E+02  0.45045681737E+02  0.00000000000E+00 0. -1.
         11    1    3    3    0    0 -0.48062624784E+01  0.37392397015E+01 -0.17944514443E+01  0.63483957661E+01  0.51100000000E-03 0. -1.
        -11    1    3    3    0    0 -0.40779961062E+01  0.99491162402E+01 -0.76617668317E+01  0.13202940485E+02  0.51100000000E-03 0.  1.
        -12    1    3    3    0    0 -0.15041227465E+02  0.13714556656E+02 -0.17110018598E+02  0.26590982012E+02  0.00000000000E+00 0.  1.
</event>
<event>
 7    1  0.3046295E-009  0.4614231E+02  0.7816164E-02  0.1320468E+00
        -11   -1    0    0    0    0  0.00000000000E+00  0.00000000000E+00  0.45593999997E+02  0.45594000000E+02  0.51100000000E-03 0.  1.
         11   -1    0    0    0    0 -0.00000000000E+00 -0.00000000000E+00 -0.45593999997E+02  0.45594000000E+02  0.51100000000E-03 0. -1.
    9900012    2    1    2    0    0 -0.77118076543E+00  0.30539559788E+02 -0.33103691138E+02  0.46142314315E+02  0.99999685766E+01 0.  0.
         12    1    1    2    0    0  0.77118076543E+00 -0.30539559788E+02  0.33103691138E+02  0.45045685685E+02  0.00000000000E+00 0. -1.
         11    1    3    3    0    0  0.65483380643E+00  0.13087737281E+02 -0.16114276005E+02  0.20769871591E+02  0.51100000000E-03 0. -1.
        -11    1    3    3    0    0  0.15778743054E+01  0.14537772945E+02 -0.13846995150E+02  0.20138912693E+02  0.51100000000E-03 0.  1.
         12    1    3    3    0    0 -0.30038888773E+01  0.29140495625E+01 -0.31424199831E+01  0.52335300314E+01  0.00000000000E+00 0. -1.
</event>
<event>
 7    1  0.3046295E-009  0.4614232E+02  0.7816164E-02  0.1320468E+00
        -11   -1    0    0    0    0  0.00000000000E+00  0.00000000000E+00  0.45593999997E+02  0.45594000000E+02  0.51100000000E-03 0. -1.
         11   -1    0    0    0    0 -0.00000000000E+00 -0.00000000000E+00 -0.45593999997E+02  0.45594000000E+02  0.51100000000E-03 0.  1.
    9900012    2    1    2    0    0  0.16287007164E+02  0.40132561312E+02 -0.12378386432E+02  0.46142317293E+02  0.99999957333E+01 0.  0.
         12    1    1    2    0    0 -0.16287007164E+02 -0.40132561312E+02  0.12378386432E+02  0.45045682707E+02  0.00000000000E+00 0. -1.
         11    1    3    3    0    0 -0.12125130189E+00  0.31182463268E+01  0.54564707972E-02  0.31206076438E+01  0.51100000000E-03 0. -1.
        -11    1    3    3    0    0  0.62798016612E+01  0.84974722401E+01 -0.57938102009E+01  0.12050360172E+02  0.51100000000E-03 0.  1.
        -12    1    3    3    0    0  0.10128456805E+02  0.28516842745E+02 -0.65900327019E+01  0.30971349477E+02  0.00000000000E+00 0.  1.
</event>
<event>
 7    1  0.3046295E-009  0.4614231E+02  0.7816164E-02  0.1320468E+00
        -11   -1    0    0    0    0  0.00000000000E+00  0.00000000000E+00  0.45593999997E+02  0.45594000000E+02  0.51100000000E-03 0.  1.
         11   -1    0    0    0    0 -0.00000000000E+00 -0.00000000000E+00 -0.45593999997E+02  0.45594000000E+02  0.51100000000E-03 0. -1.
    9900012    2    1    2    0    0 -0.28906760299E+02  0.11658211777E+02  0.32520749168E+02  0.46142314088E+02  0.99999665018E+01 0.  0.
         12    1    1    2    0    0  0.28906760299E+02 -0.11658211777E+02 -0.32520749168E+02  0.45045685912E+02  0.00000000000E+00 0. -1.
         11    1    3    3    0    0 -0.55162299622E+01  0.26165992721E+01  0.11374529305E+02  0.12909504325E+02  0.51100000000E-03 0. -1.
        -11    1    3    3    0    0 -0.11776640907E+02  0.71895616278E+01  0.10114657766E+02  0.17108049843E+02  0.51100000000E-03 0.  1.
        -12    1    3    3    0    0 -0.11613889430E+02  0.18520508772E+01  0.11031562097E+02  0.16124759919E+02  0.00000000000E+00 0.  1.
</event>
<event>
 7    1  0.3046295E-009  0.4614231E+02  0.7816164E-02  0.1320468E+00
        -11   -1    0    0    0    0  0.00000000000E+00  0.00000000000E+00  0.45593999997E+02  0.45594000000E+02  0.51100000000E-03 0. -1.
         11   -1    0    0    0    0 -0.00000000000E+00 -0.00000000000E+00 -0.45593999997E+02  0.45594000000E+02  0.51100000000E-03 0.  1.
    9900012    2    1    2    0    0 -0.19039048335E+02 -0.13564583251E+01  0.40801818589E+02  0.46142314958E+02  0.99999744399E+01 0.  0.
         12    1    1    2    0    0  0.19039048335E+02  0.13564583251E+01 -0.40801818589E+02  0.45045685042E+02  0.00000000000E+00 0. -1.
         11    1    3    3    0    0  0.26433851822E+00 -0.71280309938E+00  0.16485429029E-01  0.76041774124E+00  0.51100000000E-03 0. -1.
        -11    1    3    3    0    0 -0.18253259101E+02 -0.85343720052E+00  0.40207514254E+02  0.44165076991E+02  0.51100000000E-03 0.  1.
        -12    1    3    3    0    0 -0.10501277525E+01  0.20978197480E+00  0.57781890583E+00  0.12168202256E+01  0.00000000000E+00 0.  1.
</event>
<event>
 7    1  0.3046295E-009  0.4614232E+02  0.7816164E-02  0.1320468E+00
        -11   -1    0    0    0    0  0.00000000000E+00  0.00000000000E+00  0.45593999997E+02  0.45594000000E+02  0.51100000000E-03 0.  1.
         11   -1    0    0    0    0 -0.00000000000E+00 -0.00000000000E+00 -0.45593999997E+02  0.45594000000E+02  0.51100000000E-03 0. -1.
    9900012    2    1    2    0    0  0.10469022751E+02  0.35125070733E+02  0.26186681998E+02  0.46142319348E+02  0.10000014467E+02 0.  0.
         12    1    1    2    0    0 -0.10469022751E+02 -0.35125070733E+02 -0.26186681998E+02  0.45045680652E+02  0.00000000000E+00 0. -1.
         11    1    3    3    0    0  0.32274102592E+01  0.53084105657E+01  0.69297739005E+01  0.93068343860E+01  0.51100000000E-03 0. -1.
        -11    1    3    3    0    0  0.14022466825E+01  0.10893135396E+02  0.10455042552E+02  0.15163594876E+02  0.51100000000E-03 0.  1.
         12    1    3    3    0    0  0.58393658092E+01  0.18923524772E+02  0.88018655447E+01  0.21671890086E+02  0.00000000000E+00 0. -1.
</event>
<event>
 7    1  0.4207555E-009  0.4614232E+02  0.7816164E-02  0.1320468E+00
        -11   -1    0    0    0    0  0.00000000000E+00  0.00000000000E+00  0.45593999997E+02  0.45594000000E+02  0.51100000000E-03 0.  1.
         11   -1    0    0    0    0 -0.00000000000E+00 -0.00000000000E+00 -0.45593999997E+02  0.45594000000E+02  0.51100000000E-03 0. -1.
    9900012    2    1    2    0    0  0.19760881873E+02 -0.36931800595E+02  0.16572964734E+02  0.46142317547E+02  0.99999980502E+01 0.  0.
         12    1    1    2    0    0 -0.19760881873E+02  0.36931800595E+02 -0.16572964734E+02  0.45045682453E+02  0.00000000000E+00 0. -1.
         11    1    3    3    0    0  0.29251583277E+01 -0.24729023155E+01  0.18871138947E+00  0.38350240357E+01  0.51100000000E-03 0. -1.
        -11    1    3    3    0    0  0.11290769010E+02 -0.28400142296E+02  0.14740650746E+02  0.33931347335E+02  0.51100000000E-03 0.  1.
        -12    1    3    3    0    0  0.55449545346E+01 -0.60587559834E+01  0.16436025984E+01  0.83759461769E+01  0.00000000000E+00 0.  1.
</event>
<event>
 7    1  0.3046295E-009  0.4614232E+02  0.7816164E-02  0.1320468E+00
        -11   -1    0    0    0    0  0.00000000000E+00  0.00000000000E+00  0.45593999997E+02  0.45594000000E+02  0.51100000000E-03 0.  1.
         11   -1    0    0    0    0 -0.00000000000E+00 -0.00000000000E+00 -0.45593999997E+02  0.45594000000E+02  0.51100000000E-03 0. -1.
    9900012    2    1    2    0    0 -0.30717917083E+01 -0.43975368177E+02  0.92652252358E+01  0.46142319749E+02  0.10000018128E+02 0.  0.
         12    1    1    2    0    0  0.30717917083E+01  0.43975368177E+02 -0.92652252358E+01  0.45045680251E+02  0.00000000000E+00 0. -1.
         11    1    3    3    0    0  0.34696464373E+00 -0.11369276369E+02  0.61665167173E+01  0.12938576363E+02  0.51100000000E-03 0. -1.
        -11    1    3    3    0    0 -0.30994628643E+00 -0.21790916440E+02  0.16088356144E+01  0.21852424540E+02  0.51100000000E-03 0.  1.
        -12    1    3    3    0    0 -0.31088100656E+01 -0.10815175368E+02  0.14898729042E+01  0.11351318846E+02  0.00000000000E+00 0.  1.
</event>
<event>
 7    1  0.3046295E-009  0.4614232E+02  0.7816164E-02  0.1320468E+00
        -11   -1    0    0    0    0  0.00000000000E+00  0.00000000000E+00  0.45593999997E+02  0.45594000000E+02  0.51100000000E-03 0. -1.
         11   -1    0    0    0    0 -0.00000000000E+00 -0.00000000000E+00 -0.45593999997E+02  0.45594000000E+02  0.51100000000E-03 0.  1.
    9900012    2    1    2    0    0  0.39418216633E+02  0.19725201070E+02 -0.92862319705E+01  0.46142318032E+02  0.10000002466E+02 0.  0.
         12    1    1    2    0    0 -0.39418216633E+02 -0.19725201070E+02  0.92862319705E+01  0.45045681968E+02  0.00000000000E+00 0. -1.
         11    1    3    3    0    0  0.71892007376E+01  0.21730631088E+01  0.15191148595E+01  0.76625400970E+01  0.51100000000E-03 0. -1.
        -11    1    3    3    0    0  0.10394048787E+02  0.62327888736E+01 -0.55503747698E+01  0.13330062554E+02  0.51100000000E-03 0.  1.
         12    1    3    3    0    0  0.21834967108E+02  0.11319349088E+02 -0.52549720602E+01  0.25149715381E+02  0.00000000000E+00 0. -1.
</event>
<event>
 7    1  0.3046295E-009  0.4614232E+02  0.7816164E-02  0.1320468E+00
        -11   -1    0    0    0    0  0.00000000000E+00  0.00000000000E+00  0.45593999997E+02  0.45594000000E+02  0.51100000000E-03 0.  1.
         11   -1    0    0    0    0 -0.00000000000E+00 -0.00000000000E+00 -0.45593999997E+02  0.45594000000E+02  0.51100000000E-03 0. -1.
    9900012    2    1    2    0    0 -0.10796720466E+02  0.31917324933E+02  0.29896968775E+02  0.46142317125E+02  0.99999942029E+01 0.  0.
         12    1    1    2    0    0  0.10796720466E+02 -0.31917324933E+02 -0.29896968775E+02  0.45045682875E+02  0.00000000000E+00 0. -1.
         11    1    3    3    0    0 -0.22839639339E+00 -0.10163797699E+00 -0.12813032260E+00  0.28091427798E+00  0.51100000000E-03 0. -1.
        -11    1    3    3    0    0 -0.65967947797E+01  0.10192794732E+02  0.76370215472E+01  0.14343460677E+02  0.51100000000E-03 0.  1.
        -12    1    3    3    0    0 -0.39715292929E+01  0.21826168178E+02  0.22388077551E+02  0.31517942171E+02  0.00000000000E+00 0.  1.
</event>
<event>
 7    1  0.3350019E-009  0.4614232E+02  0.7816164E-02  0.1320468E+00
        -11   -1    0    0    0    0  0.00000000000E+00  0.00000000000E+00  0.45593999997E+02  0.45594000000E+02  0.51100000000E-03 0.  1.
         11   -1    0    0    0    0 -0.00000000000E+00 -0.00000000000E+00 -0.45593999997E+02  0.45594000000E+02  0.51100000000E-03 0. -1.
    9900012    2    1    2    0    0  0.22659026074E+02 -0.14534550670E+02  0.36116877203E+02  0.46142318246E+02  0.10000004418E+02 0.  0.
         12    1    1    2    0    0 -0.22659026074E+02  0.14534550670E+02 -0.36116877203E+02  0.45045681754E+02  0.00000000000E+00 0. -1.
         11    1    3    3    0    0  0.12473458399E+01  0.32956393832E+00  0.42613196782E+01  0.44523398000E+01  0.51100000000E-03 0. -1.
        -11    1    3    3    0    0  0.95275760539E+01 -0.10234496864E+02  0.14404838244E+02  0.20075333039E+02  0.51100000000E-03 0.  1.
        -12    1    3    3    0    0  0.11884104180E+02 -0.46296177441E+01  0.17450719282E+02  0.21614645407E+02  0.00000000000E+00 0.  1.
</event>
<event>
 7    1  0.3046295E-009  0.4614232E+02  0.7816164E-02  0.1320468E+00
        -11   -1    0    0    0    0  0.00000000000E+00  0.00000000000E+00  0.45593999997E+02  0.45594000000E+02  0.51100000000E-03 0.  1.
         11   -1    0    0    0    0 -0.00000000000E+00 -0.00000000000E+00 -0.45593999997E+02  0.45594000000E+02  0.51100000000E-03 0. -1.
    9900012    2    1    2    0    0 -0.30392351199E+02  0.21328362709E+02  0.25505285052E+02  0.46142316158E+02  0.99999853814E+01 0.  0.
         12    1    1    2    0    0  0.30392351199E+02 -0.21328362709E+02 -0.25505285052E+02  0.45045683842E+02  0.00000000000E+00 0. -1.
         11    1    3    3    0    0 -0.10495706204E+02  0.61245156608E+01  0.11232065664E+02  0.16547774477E+02  0.51100000000E-03 0. -1.
        -11    1    3    3    0    0 -0.14976848944E+02  0.11254970319E+02  0.13799632240E+02  0.23268223210E+02  0.51100000000E-03 0.  1.
         12    1    3    3    0    0 -0.49197960506E+01  0.39488767294E+01  0.47358714828E+00  0.63263184705E+01  0.00000000000E+00 0. -1.
</event>
<event>
 7    1  0.3046295E-009  0.4614232E+02  0.7816164E-02  0.1320468E+00
        -11   -1    0    0    0    0  0.00000000000E+00  0.00000000000E+00  0.45593999997E+02  0.45594000000E+02  0.51100000000E-03 0.  1.
         11   -1    0    0    0    0 -0.00000000000E+00 -0.00000000000E+00 -0.45593999997E+02  0.45594000000E+02  0.51100000000E-03 0. -1.
    9900012    2    1    2    0    0  0.10724092361E+02 -0.99856797443E+01  0.42595698876E+02  0.46142317413E+02  0.99999968290E+01 0.  0.
         12    1    1    2    0    0 -0.10724092361E+02  0.99856797443E+01 -0.42595698876E+02  0.45045682587E+02  0.00000000000E+00 0. -1.
         11    1    3    3    0    0 -0.11362736569E+01 -0.34470113295E+01  0.49784192730E+01  0.61609791144E+01  0.51100000000E-03 0. -1.
        -11    1    3    3    0    0  0.38926901219E+01 -0.21114222789E+01  0.12099954423E+02  0.12884876318E+02  0.51100000000E-03 0.  1.
         12    1    3    3    0    0  0.79676758965E+01 -0.44272461359E+01  0.25517325180E+02  0.27096461981E+02  0.00000000000E+00 0. -1.
</event>
<event>
 7    1  0.3046295E-009  0.4614232E+02  0.7816164E-02  0.1320468E+00
        -11   -1    0    0    0    0  0.00000000000E+00  0.00000000000E+00  0.45593999997E+02  0.45594000000E+02  0.51100000000E-03 0. -1.
         11   -1    0    0    0    0 -0.00000000000E+00 -0.00000000000E+00 -0.45593999997E+02  0.45594000000E+02  0.51100000000E-03 0.  1.
    9900012    2    1    2    0    0  0.40409612271E+01  0.44183080617E+02 -0.77871393042E+01  0.46142317422E+02  0.99999969032E+01 0.  0.
         12    1    1    2    0    0 -0.40409612271E+01 -0.44183080617E+02  0.77871393042E+01  0.45045682578E+02  0.00000000000E+00 0. -1.
         11    1    3    3    0    0 -0.18681331708E+01  0.40936673255E+01 -0.18419533218E+01  0.48621832562E+01  0.51100000000E-03 0. -1.
        -11    1    3    3    0    0  0.96464484999E-01  0.68250053967E+01 -0.27572423685E+01  0.73615480574E+01  0.51100000000E-03 0.  1.
         12    1    3    3    0    0  0.58126299129E+01  0.33264407894E+02 -0.31879436139E+01  0.33918586108E+02  0.00000000000E+00 0. -1.
</event>
<event>
 7    1  0.3046295E-009  0.4614232E+02  0.7816164E-02  0.1320468E+00
        -11   -1    0    0    0    0  0.00000000000E+00  0.00000000000E+00  0.45593999997E+02  0.45594000000E+02  0.51100000000E-03 0.  1.
         11   -1    0    0    0    0 -0.00000000000E+00 -0.00000000000E+00 -0.45593999997E+02  0.45594000000E+02  0.51100000000E-03 0. -1.
    9900012    2    1    2    0    0  0.23046109486E+02 -0.24689503011E+02  0.29806354886E+02  0.46142317488E+02  0.99999975132E+01 0.  0.
         12    1    1    2    0    0 -0.23046109486E+02  0.24689503011E+02 -0.29806354886E+02  0.45045682512E+02  0.00000000000E+00 0. -1.
         11    1    3    3    0    0  0.75971955869E+00 -0.21510125334E+01  0.17780139301E+01  0.28922936441E+01  0.51100000000E-03 0. -1.
        -11    1    3    3    0    0  0.16122401065E+02 -0.13967043854E+02  0.23571061569E+02  0.31790015317E+02  0.51100000000E-03 0.  1.
        -12    1    3    3    0    0  0.61639888619E+01 -0.85714466234E+01  0.44572793868E+01  0.11460008527E+02  0.00000000000E+00 0.  1.
</event>
<event>
 7    1  0.3046295E-009  0.4614232E+02  0.7816164E-02  0.1320468E+00
        -11   -1    0    0    0    0  0.00000000000E+00  0.00000000000E+00  0.45593999997E+02  0.45594000000E+02  0.51100000000E-03 0. -1.
         11   -1    0    0    0    0 -0.00000000000E+00 -0.00000000000E+00 -0.45593999997E+02  0.45594000000E+02  0.51100000000E-03 0.  1.
    9900012    2    1    2    0    0 -0.58261628058E+01 -0.23756181179E+01 -0.44604102678E+02  0.46142315299E+02  0.99999775475E+01 0.  0.
         12    1    1    2    0    0  0.58261628058E+01  0.23756181179E+01  0.44604102678E+02  0.45045684701E+02  0.00000000000E+00 0. -1.
         11    1    3    3    0    0 -0.10903628010E+01 -0.12835898609E+01 -0.82204770094E+00  0.18741015587E+01  0.51100000000E-03 0. -1.
        -11    1    3    3    0    0  0.76083722483E+00 -0.38502434062E+00 -0.98212961180E+01  0.98582439980E+01  0.51100000000E-03 0.  1.
         12    1    3    3    0    0 -0.54966372296E+01 -0.70700391643E+00 -0.33960758859E+02  0.34409969742E+02  0.00000000000E+00 0. -1.
</event>
<event>
 7    1  0.3046295E-009  0.4614232E+02  0.7816164E-02  0.1320468E+00
        -11   -1    0    0    0    0  0.00000000000E+00  0.00000000000E+00  0.45593999997E+02  0.45594000000E+02  0.51100000000E-03 0. -1.
         11   -1    0    0    0    0 -0.00000000000E+00 -0.00000000000E+00 -0.45593999997E+02  0.45594000000E+02  0.51100000000E-03 0.  1.
    9900012    2    1    2    0    0  0.13156775556E+02  0.26515704924E+02 -0.33954825581E+02  0.46142317290E+02  0.99999957010E+01 0.  0.
         12    1    1    2    0    0 -0.13156775556E+02 -0.26515704924E+02  0.33954825581E+02  0.45045682710E+02  0.00000000000E+00 0. -1.
         11    1    3    3    0    0  0.34733606798E+01  0.74046027560E+01 -0.51852628779E+01  0.96839727261E+01  0.51100000000E-03 0.  1.
        -11    1    3    3    0    0  0.36602076484E+01  0.14075297954E+02 -0.18770572585E+02  0.23745431728E+02  0.51100000000E-03 0. -1.
         12    1    3    3    0    0  0.60232072278E+01  0.50358042136E+01 -0.99989901180E+01  0.12712912836E+02  0.00000000000E+00 0. -1.
</event>
<event>
 7    1  0.3050516E-009  0.4614232E+02  0.7816164E-02  0.1320468E+00
        -11   -1    0    0    0    0  0.00000000000E+00  0.00000000000E+00  0.45593999997E+02  0.45594000000E+02  0.51100000000E-03 0. -1.
         11   -1    0    0    0    0 -0.00000000000E+00 -0.00000000000E+00 -0.45593999997E+02  0.45594000000E+02  0.51100000000E-03 0.  1.
    9900012    2    1    2    0    0  0.63203350335E+01  0.38851032959E+02 -0.21903514461E+02  0.46142319379E+02  0.10000014750E+02 0.  0.
         12    1    1    2    0    0 -0.63203350335E+01 -0.38851032959E+02  0.21903514461E+02  0.45045680621E+02  0.00000000000E+00 0. -1.
         11    1    3    3    0    0  0.55633357555E+00  0.15727124704E+01  0.28878713454E+00  0.16930238723E+01  0.51100000000E-03 0. -1.
        -11    1    3    3    0    0  0.73271292415E+01  0.29847550851E+02 -0.19473737619E+02  0.36383919138E+02  0.51100000000E-03 0.  1.
        -12    1    3    3    0    0 -0.15631277836E+01  0.74307696373E+01 -0.27185639767E+01  0.80653763685E+01  0.00000000000E+00 0.  1.
</event>
<event>
 7    1  0.3046295E-009  0.4614232E+02  0.7816164E-02  0.1320468E+00
        -11   -1    0    0    0    0  0.00000000000E+00  0.00000000000E+00  0.45593999997E+02  0.45594000000E+02  0.51100000000E-03 0. -1.
         11   -1    0    0    0    0 -0.00000000000E+00 -0.00000000000E+00 -0.45593999997E+02  0.45594000000E+02  0.51100000000E-03 0.  1.
    9900012    2    1    2    0    0 -0.99516040429E+01  0.42822893266E+02 -0.98121794410E+01  0.46142317898E+02  0.10000001244E+02 0.  0.
         12    1    1    2    0    0  0.99516040429E+01 -0.42822893266E+02  0.98121794410E+01  0.45045682102E+02  0.00000000000E+00 0. -1.
         11    1    3    3    0    0 -0.71635373074E+00  0.27287946762E+01  0.14516340371E+00  0.28249877393E+01  0.51100000000E-03 0. -1.
        -11    1    3    3    0    0 -0.90027121584E+01  0.33192388803E+02 -0.48581067516E+01  0.34733049134E+02  0.51100000000E-03 0.  1.
        -12    1    3    3    0    0 -0.23253815373E+00  0.69017097863E+01 -0.50992360932E+01  0.85842810241E+01  0.00000000000E+00 0.  1.
</event>
<event>
 7    1  0.3046295E-009  0.4614232E+02  0.7816164E-02  0.1320468E+00
        -11   -1    0    0    0    0  0.00000000000E+00  0.00000000000E+00  0.45593999997E+02  0.45594000000E+02  0.51100000000E-03 0.  1.
         11   -1    0    0    0    0 -0.00000000000E+00 -0.00000000000E+00 -0.45593999997E+02  0.45594000000E+02  0.51100000000E-03 0. -1.
    9900012    2    1    2    0    0  0.19625341057E+02 -0.37518231183E+02  0.15373417195E+02  0.46142316090E+02  0.99999847597E+01 0.  0.
         12    1    1    2    0    0 -0.19625341057E+02  0.37518231183E+02 -0.15373417195E+02  0.45045683910E+02  0.00000000000E+00 0. -1.
         11    1    3    3    0    0  0.27577823514E+01 -0.32709561836E+01 -0.78378497409E+00  0.43495789450E+01  0.51100000000E-03 0. -1.
        -11    1    3    3    0    0  0.56228836243E+01 -0.65784649334E+01  0.30370609352E+01  0.91715189864E+01  0.51100000000E-03 0.  1.
         12    1    3    3    0    0  0.11244675081E+02 -0.27668810066E+02  0.13120141234E+02  0.32621218158E+02  0.00000000000E+00 0. -1.
</event>
<event>
 7    1  0.3046295E-009  0.4614232E+02  0.7816164E-02  0.1320468E+00
        -11   -1    0    0    0    0  0.00000000000E+00  0.00000000000E+00  0.45593999997E+02  0.45594000000E+02  0.51100000000E-03 0. -1.
         11   -1    0    0    0    0 -0.00000000000E+00 -0.00000000000E+00 -0.45593999997E+02  0.45594000000E+02  0.51100000000E-03 0.  1.
    9900012    2    1    2    0    0 -0.16504260257E+02  0.16905047162E+02 -0.38352865997E+02  0.46142317007E+02  0.99999931208E+01 0.  0.
         12    1    1    2    0    0  0.16504260257E+02 -0.16905047162E+02  0.38352865997E+02  0.45045682993E+02  0.00000000000E+00 0. -1.
         11    1    3    3    0    0 -0.39623050407E+01  0.10579036553E+02 -0.15086431593E+02  0.18847182657E+02  0.51100000000E-03 0. -1.
        -11    1    3    3    0    0 -0.75082254552E+01  0.33400391877E+01 -0.15789413431E+02  0.17799856404E+02  0.51100000000E-03 0.  1.
         12    1    3    3    0    0 -0.50337297613E+01  0.29859714206E+01 -0.74770209724E+01  0.94952779452E+01  0.00000000000E+00 0. -1.
</event>
<event>
 7    1  0.3046295E-009  0.4614232E+02  0.7816164E-02  0.1320468E+00
        -11   -1    0    0    0    0  0.00000000000E+00  0.00000000000E+00  0.45593999997E+02  0.45594000000E+02  0.51100000000E-03 0.  1.
         11   -1    0    0    0    0 -0.00000000000E+00 -0.00000000000E+00 -0.45593999997E+02  0.45594000000E+02  0.51100000000E-03 0. -1.
    9900012    2    1    2    0    0 -0.33587082850E+02 -0.29873877593E+02  0.29279555340E+01  0.46142316295E+02  0.99999866311E+01 0.  0.
         12    1    1    2    0    0  0.33587082850E+02  0.29873877593E+02 -0.29279555340E+01  0.45045683705E+02  0.00000000000E+00 0. -1.
         11    1    3    3    0    0 -0.89043779814E+01 -0.30853799944E+01  0.10129426051E+01  0.94780572866E+01  0.51100000000E-03 0. -1.
        -11    1    3    3    0    0 -0.22668075945E+02 -0.22828203872E+02  0.16935143065E+01  0.32215470663E+02  0.51100000000E-03 0.  1.
         12    1    3    3    0    0 -0.20146289235E+01 -0.39602937264E+01  0.22149862243E+00  0.44487883450E+01  0.00000000000E+00 0. -1.
</event>
<event>
 7    1  0.3046295E-009  0.4614232E+02  0.7816164E-02  0.1320468E+00
        -11   -1    0    0    0    0  0.00000000000E+00  0.00000000000E+00  0.45593999997E+02  0.45594000000E+02  0.51100000000E-03 0.  1.
         11   -1    0    0    0    0 -0.00000000000E+00 -0.00000000000E+00 -0.45593999997E+02  0.45594000000E+02  0.51100000000E-03 0. -1.
    9900012    2    1    2    0    0  0.13933479954E+01 -0.58447438362E+01  0.44643151796E+02  0.46142318171E+02  0.10000003739E+02 0.  0.
         12    1    1    2    0    0 -0.13933479954E+01  0.58447438362E+01 -0.44643151796E+02  0.45045681829E+02  0.00000000000E+00 0. -1.
         11    1    3    3    0    0 -0.31597044579E+01  0.41165441718E+00  0.14351542714E+02  0.14701019357E+02  0.51100000000E-03 0. -1.
        -11    1    3    3    0    0  0.19578417063E+01 -0.40952525021E+01  0.22434712739E+02  0.22889311329E+02  0.51100000000E-03 0.  1.
         12    1    3    3    0    0  0.25952107470E+01 -0.21611457513E+01  0.78568963435E+01  0.85519874843E+01  0.00000000000E+00 0. -1.
</event>
<event>
 7    1  0.3046295E-009  0.4614232E+02  0.7816164E-02  0.1320468E+00
        -11   -1    0    0    0    0  0.00000000000E+00  0.00000000000E+00  0.45593999997E+02  0.45594000000E+02  0.51100000000E-03 0.  1.
         11   -1    0    0    0    0 -0.00000000000E+00 -0.00000000000E+00 -0.45593999997E+02  0.45594000000E+02  0.51100000000E-03 0. -1.
    9900012    2    1    2    0    0 -0.38909557740E+01  0.13647964362E+02  0.42751689537E+02  0.46142318450E+02  0.10000006278E+02 0.  0.
         12    1    1    2    0    0  0.38909557740E+01 -0.13647964362E+02 -0.42751689537E+02  0.45045681550E+02  0.00000000000E+00 0. -1.
         11    1    3    3    0    0  0.79294348731E+00  0.56034362764E+01  0.69319832164E+01  0.89487233196E+01  0.51100000000E-03 0. -1.
        -11    1    3    3    0    0 -0.13660329629E+01  0.16473114243E+01  0.15220646449E+02  0.15370353268E+02  0.51100000000E-03 0.  1.
         12    1    3    3    0    0 -0.33178662984E+01  0.63972166613E+01  0.20599059872E+02  0.21823241862E+02  0.00000000000E+00 0. -1.
</event>
<event>
 7    1  0.3046295E-009  0.4614232E+02  0.7816164E-02  0.1320468E+00
        -11   -1    0    0    0    0  0.00000000000E+00  0.00000000000E+00  0.45593999997E+02  0.45594000000E+02  0.51100000000E-03 0.  1.
         11   -1    0    0    0    0 -0.00000000000E+00 -0.00000000000E+00 -0.45593999997E+02  0.45594000000E+02  0.51100000000E-03 0. -1.
    9900012    2    1    2    0    0 -0.25018805123E+02  0.21112238185E+02  0.30942630256E+02  0.46142316765E+02  0.99999909164E+01 0.  0.
         12    1    1    2    0    0  0.25018805123E+02 -0.21112238185E+02 -0.30942630256E+02  0.45045683235E+02  0.00000000000E+00 0. -1.
         11    1    3    3    0    0 -0.93459801079E+01  0.87562918239E+01  0.12138705504E+02  0.17645627284E+02  0.51100000000E-03 0.  1.
        -11    1    3    3    0    0 -0.66520618901E+01  0.77811378201E+01  0.50245952797E+01  0.11403621844E+02  0.51100000000E-03 0. -1.
         12    1    3    3    0    0 -0.90207631248E+01  0.45748085409E+01  0.13779329472E+02  0.17093067637E+02  0.00000000000E+00 0. -1.
</event>
<event>
 7    1  0.3046295E-009  0.4614232E+02  0.7816164E-02  0.1320468E+00
        -11   -1    0    0    0    0  0.00000000000E+00  0.00000000000E+00  0.45593999997E+02  0.45594000000E+02  0.51100000000E-03 0.  1.
         11   -1    0    0    0    0 -0.00000000000E+00 -0.00000000000E+00 -0.45593999997E+02  0.45594000000E+02  0.51100000000E-03 0. -1.
    9900012    2    1    2    0    0 -0.29096020122E+02  0.20574306391E+02  0.27554179607E+02  0.46142320027E+02  0.10000020663E+02 0.  0.
         12    1    1    2    0    0  0.29096020122E+02 -0.20574306391E+02 -0.27554179607E+02  0.45045679973E+02  0.00000000000E+00 0. -1.
         11    1    3    3    0    0 -0.96523710755E+01  0.61498677886E+01  0.14296522399E+02  0.18313374734E+02  0.51100000000E-03 0. -1.
        -11    1    3    3    0    0 -0.40169126082E+01  0.45157297226E+01  0.43386556391E+01  0.74398477704E+01  0.51100000000E-03 0.  1.
         12    1    3    3    0    0 -0.15426736438E+02  0.99087088794E+01  0.89190015696E+01  0.20389097523E+02  0.00000000000E+00 0. -1.
</event>
<event>
 7    1  0.3046295E-009  0.4614232E+02  0.7816164E-02  0.1320468E+00
        -11   -1    0    0    0    0  0.00000000000E+00  0.00000000000E+00  0.45593999997E+02  0.45594000000E+02  0.51100000000E-03 0.  1.
         11   -1    0    0    0    0 -0.00000000000E+00 -0.00000000000E+00 -0.45593999997E+02  0.45594000000E+02  0.51100000000E-03 0. -1.
    9900012    2    1    2    0    0 -0.23512160800E+02  0.36601602540E+02  0.11688229432E+02  0.46142315176E+02  0.99999764268E+01 0.  0.
         12    1    1    2    0    0  0.23512160800E+02 -0.36601602540E+02 -0.11688229432E+02  0.45045684824E+02  0.00000000000E+00 0. -1.
         11    1    3    3    0    0 -0.12493253318E+02  0.15882297451E+02  0.85863038991E+01  0.21955713737E+02  0.51100000000E-03 0.  1.
        -11    1    3    3    0    0 -0.21121401412E+01  0.71588784760E+01 -0.78035850985E+00  0.75046410091E+01  0.51100000000E-03 0. -1.
         12    1    3    3    0    0 -0.89067673405E+01  0.13560426613E+02  0.38822840430E+01  0.16681960430E+02  0.00000000000E+00 0. -1.
</event>
<event>
 7    1  0.3046295E-009  0.4614232E+02  0.7816164E-02  0.1320468E+00
        -11   -1    0    0    0    0  0.00000000000E+00  0.00000000000E+00  0.45593999997E+02  0.45594000000E+02  0.51100000000E-03 0.  1.
         11   -1    0    0    0    0 -0.00000000000E+00 -0.00000000000E+00 -0.45593999997E+02  0.45594000000E+02  0.51100000000E-03 0. -1.
    9900012    2    1    2    0    0 -0.68644771174E+01  0.20307626121E+02  0.39618086408E+02  0.46142317683E+02  0.99999992892E+01 0.  0.
         12    1    1    2    0    0  0.68644771174E+01 -0.20307626121E+02 -0.39618086408E+02  0.45045682317E+02  0.00000000000E+00 0. -1.
         11    1    3    3    0    0 -0.95413864644E+00  0.13935748822E+02  0.25951014162E+02  0.29471522052E+02  0.51100000000E-03 0. -1.
        -11    1    3    3    0    0 -0.38752282257E+01  0.41166401184E+01  0.11853800873E+02  0.13133039065E+02  0.51100000000E-03 0.  1.
         12    1    3    3    0    0 -0.20351102453E+01  0.22552371807E+01  0.18132713726E+01  0.35377565663E+01  0.00000000000E+00 0. -1.
</event>
<event>
 7    1  0.3046295E-009  0.4614232E+02  0.7816164E-02  0.1320468E+00
        -11   -1    0    0    0    0  0.00000000000E+00  0.00000000000E+00  0.45593999997E+02  0.45594000000E+02  0.51100000000E-03 0.  1.
         11   -1    0    0    0    0 -0.00000000000E+00 -0.00000000000E+00 -0.45593999997E+02  0.45594000000E+02  0.51100000000E-03 0. -1.
    9900012    2    1    2    0    0  0.40282739180E+01 -0.43124372784E+02  0.12376389821E+02  0.46142317146E+02  0.99999943890E+01 0.  0.
         12    1    1    2    0    0 -0.40282739180E+01  0.43124372784E+02 -0.12376389821E+02  0.45045682854E+02  0.00000000000E+00 0. -1.
         11    1    3    3    0    0 -0.16227872281E+01 -0.57912183571E+01 -0.59994059909E+00  0.60441357886E+01  0.51100000000E-03 0. -1.
        -11    1    3    3    0    0  0.59468954807E+01 -0.31526062659E+02  0.10280079317E+02  0.33688844202E+02  0.51100000000E-03 0.  1.
        -12    1    3    3    0    0 -0.29583433459E+00 -0.58070917678E+01  0.26962511033E+01  0.64093371549E+01  0.00000000000E+00 0.  1.
</event>
<event>
 7    1  0.3046295E-009  0.4614231E+02  0.7816164E-02  0.1320468E+00
        -11   -1    0    0    0    0  0.00000000000E+00  0.00000000000E+00  0.45593999997E+02  0.45594000000E+02  0.51100000000E-03 0. -1.
         11   -1    0    0    0    0 -0.00000000000E+00 -0.00000000000E+00 -0.45593999997E+02  0.45594000000E+02  0.51100000000E-03 0.  1.
    9900012    2    1    2    0    0  0.33496291158E+02  0.27784625761E+02  0.11624407347E+02  0.46142314345E+02  0.99999688454E+01 0.  0.
         12    1    1    2    0    0 -0.33496291158E+02 -0.27784625761E+02 -0.11624407347E+02  0.45045685655E+02  0.00000000000E+00 0. -1.
         11    1    3    3    0    0  0.16796668096E+01  0.32897525690E+00 -0.81726108851E+00  0.18966869164E+01  0.51100000000E-03 0. -1.
        -11    1    3    3    0    0  0.12822783639E+02  0.13510801573E+02  0.79767813907E+01  0.20263133544E+02  0.51100000000E-03 0.  1.
        -12    1    3    3    0    0  0.18993840709E+02  0.13944848931E+02  0.44648870446E+01  0.23982493884E+02  0.00000000000E+00 0.  1.
</event>
<event>
 7    1  0.3046295E-009  0.4614232E+02  0.7816164E-02  0.1320468E+00
        -11   -1    0    0    0    0  0.00000000000E+00  0.00000000000E+00  0.45593999997E+02  0.45594000000E+02  0.51100000000E-03 0.  1.
         11   -1    0    0    0    0 -0.00000000000E+00 -0.00000000000E+00 -0.45593999997E+02  0.45594000000E+02  0.51100000000E-03 0. -1.
    9900012    2    1    2    0    0 -0.20444336863E+02 -0.18681350113E+02  0.35526745764E+02  0.46142318561E+02  0.10000007291E+02 0.  0.
         12    1    1    2    0    0  0.20444336863E+02  0.18681350113E+02 -0.35526745764E+02  0.45045681439E+02  0.00000000000E+00 0. -1.
         11    1    3    3    0    0 -0.38004328915E+01 -0.96981881088E+00  0.60858870522E+01  0.72402942041E+01  0.51100000000E-03 0. -1.
        -11    1    3    3    0    0 -0.10235201021E+02 -0.15578931439E+02  0.20705380514E+02  0.27859921522E+02  0.51100000000E-03 0.  1.
        -12    1    3    3    0    0 -0.64087029498E+01 -0.21325998632E+01  0.87354781971E+01  0.11042102834E+02  0.00000000000E+00 0.  1.
</event>
<event>
 7    1  0.3046295E-009  0.4614232E+02  0.7816164E-02  0.1320468E+00
        -11   -1    0    0    0    0  0.00000000000E+00  0.00000000000E+00  0.45593999997E+02  0.45594000000E+02  0.51100000000E-03 0.  1.
         11   -1    0    0    0    0 -0.00000000000E+00 -0.00000000000E+00 -0.45593999997E+02  0.45594000000E+02  0.51100000000E-03 0. -1.
    9900012    2    1    2    0    0 -0.23951512939E+02 -0.35440164782E+02  0.14122085837E+02  0.46142316963E+02  0.99999927223E+01 0.  0.
         12    1    1    2    0    0  0.23951512939E+02  0.35440164782E+02 -0.14122085837E+02  0.45045683037E+02  0.00000000000E+00 0. -1.
         11    1    3    3    0    0 -0.52172350600E+01 -0.91453410366E+01  0.55117888012E+01  0.11884301427E+02  0.51100000000E-03 0. -1.
        -11    1    3    3    0    0 -0.41738724534E+01 -0.11417874101E+02  0.14433037951E+01  0.12242229632E+02  0.51100000000E-03 0.  1.
         12    1    3    3    0    0 -0.14560405426E+02 -0.14876949644E+02  0.71669932409E+01  0.22015785905E+02  0.00000000000E+00 0. -1.
</event>
<event>
 7    1  0.3046295E-009  0.4614232E+02  0.7816164E-02  0.1320468E+00
        -11   -1    0    0    0    0  0.00000000000E+00  0.00000000000E+00  0.45593999997E+02  0.45594000000E+02  0.51100000000E-03 0. -1.
         11   -1    0    0    0    0 -0.00000000000E+00 -0.00000000000E+00 -0.45593999997E+02  0.45594000000E+02  0.51100000000E-03 0.  1.
    9900012    2    1    2    0    0  0.44559427790E+02  0.11375796631E+01  0.65020602164E+01  0.46142317859E+02  0.10000000891E+02 0.  0.
         12    1    1    2    0    0 -0.44559427790E+02 -0.11375796631E+01 -0.65020602164E+01  0.45045682141E+02  0.00000000000E+00 0. -1.
         11    1    3    3    0    0  0.52920716165E+01  0.24185271279E+01  0.20704948975E+01  0.61759408064E+01  0.51100000000E-03 0. -1.
        -11    1    3    3    0    0  0.26325508971E+02 -0.24336939810E+01  0.69585622572E+00  0.26446918632E+02  0.51100000000E-03 0.  1.
         12    1    3    3    0    0  0.12941847203E+02  0.11527465162E+01  0.37357090932E+01  0.13519458420E+02  0.00000000000E+00 0. -1.
</event>
<event>
 7    1  0.3046295E-009  0.4614232E+02  0.7816164E-02  0.1320468E+00
        -11   -1    0    0    0    0  0.00000000000E+00  0.00000000000E+00  0.45593999997E+02  0.45594000000E+02  0.51100000000E-03 0.  1.
         11   -1    0    0    0    0 -0.00000000000E+00 -0.00000000000E+00 -0.45593999997E+02  0.45594000000E+02  0.51100000000E-03 0. -1.
    9900012    2    1    2    0    0  0.41778319511E+02 -0.16276238104E+02 -0.43323960601E+01  0.46142316926E+02  0.99999923866E+01 0.  0.
         12    1    1    2    0    0 -0.41778319511E+02  0.16276238104E+02  0.43323960601E+01  0.45045683074E+02  0.00000000000E+00 0. -1.
         11    1    3    3    0    0  0.32318465485E+02 -0.10239933929E+02 -0.39086718516E+01  0.34126487866E+02  0.51100000000E-03 0.  1.
        -11    1    3    3    0    0  0.64034040569E+01 -0.53195386910E+01 -0.19121152146E+01  0.85415022248E+01  0.51100000000E-03 0. -1.
        -12    1    3    3    0    0  0.30564499692E+01 -0.71676548442E+00  0.14883910061E+01  0.34743268357E+01  0.00000000000E+00 0.  1.
</event>
<event>
 7    1  0.3046295E-009  0.4614232E+02  0.7816164E-02  0.1320468E+00
        -11   -1    0    0    0    0  0.00000000000E+00  0.00000000000E+00  0.45593999997E+02  0.45594000000E+02  0.51100000000E-03 0.  1.
         11   -1    0    0    0    0 -0.00000000000E+00 -0.00000000000E+00 -0.45593999997E+02  0.45594000000E+02  0.51100000000E-03 0. -1.
    9900012    2    1    2    0    0  0.21138569424E+02  0.38639342369E+02 -0.94485757381E+01  0.46142317860E+02  0.10000000898E+02 0.  0.
         12    1    1    2    0    0 -0.21138569424E+02 -0.38639342369E+02  0.94485757381E+01  0.45045682140E+02  0.00000000000E+00 0. -1.
         11    1    3    3    0    0  0.51697612056E+01  0.80669488375E+01  0.13238124249E+01  0.96723613491E+01  0.51100000000E-03 0. -1.
        -11    1    3    3    0    0  0.11418268853E+02  0.20507671650E+02 -0.49681393361E+01  0.23992162654E+02  0.51100000000E-03 0.  1.
        -12    1    3    3    0    0  0.45505393651E+01  0.10064721882E+02 -0.58042488270E+01  0.12477793857E+02  0.00000000000E+00 0.  1.
</event>
<event>
 7    1  0.3046295E-009  0.4614232E+02  0.7816164E-02  0.1320468E+00
        -11   -1    0    0    0    0  0.00000000000E+00  0.00000000000E+00  0.45593999997E+02  0.45594000000E+02  0.51100000000E-03 0.  1.
         11   -1    0    0    0    0 -0.00000000000E+00 -0.00000000000E+00 -0.45593999997E+02  0.45594000000E+02  0.51100000000E-03 0. -1.
    9900012    2    1    2    0    0 -0.28830759358E+02  0.14382402143E+02  0.31480903863E+02  0.46142317803E+02  0.10000000381E+02 0.  0.
         12    1    1    2    0    0  0.28830759358E+02 -0.14382402143E+02 -0.31480903863E+02  0.45045682197E+02  0.00000000000E+00 0. -1.
         11    1    3    3    0    0 -0.31494266222E+00 -0.96210406004E-01 -0.32153032562E+00  0.46024703597E+00  0.51100000000E-03 0. -1.
        -11    1    3    3    0    0 -0.13704744797E+02  0.45793762178E+01  0.18363766893E+02  0.23367041988E+02  0.51100000000E-03 0.  1.
        -12    1    3    3    0    0 -0.14811071899E+02  0.98992363308E+01  0.13438667296E+02  0.22315028779E+02  0.00000000000E+00 0.  1.
</event>
<event>
 7    1  0.3046295E-009  0.4614232E+02  0.7816164E-02  0.1320468E+00
        -11   -1    0    0    0    0  0.00000000000E+00  0.00000000000E+00  0.45593999997E+02  0.45594000000E+02  0.51100000000E-03 0. -1.
         11   -1    0    0    0    0 -0.00000000000E+00 -0.00000000000E+00 -0.45593999997E+02  0.45594000000E+02  0.51100000000E-03 0.  1.
    9900012    2    1    2    0    0  0.18612684372E+02 -0.27473347970E+02 -0.30461394903E+02  0.46142318213E+02  0.10000004120E+02 0.  0.
         12    1    1    2    0    0 -0.18612684372E+02  0.27473347970E+02  0.30461394903E+02  0.45045681787E+02  0.00000000000E+00 0. -1.
         11    1    3    3    0    0 -0.91093632129E-01  0.20760101768E-01  0.90030269939E-01  0.12974876595E+00  0.51100000000E-03 0. -1.
        -11    1    3    3    0    0  0.97992968836E+01 -0.15238351402E+02 -0.10699512673E+02  0.21040749620E+02  0.51100000000E-03 0.  1.
        -12    1    3    3    0    0  0.89044811210E+01 -0.12255756670E+02 -0.19851912499E+02  0.24971819827E+02  0.00000000000E+00 0.  1.
</event>
<event>
 7    1  0.3046295E-009  0.4614231E+02  0.7816164E-02  0.1320468E+00
        -11   -1    0    0    0    0  0.00000000000E+00  0.00000000000E+00  0.45593999997E+02  0.45594000000E+02  0.51100000000E-03 0. -1.
         11   -1    0    0    0    0 -0.00000000000E+00 -0.00000000000E+00 -0.45593999997E+02  0.45594000000E+02  0.51100000000E-03 0.  1.
    9900012    2    1    2    0    0 -0.31364177960E+02  0.31472593883E+02 -0.74079781431E+01  0.46142312470E+02  0.99999517524E+01 0.  0.
         12    1    1    2    0    0  0.31364177960E+02 -0.31472593883E+02  0.74079781431E+01  0.45045687530E+02  0.00000000000E+00 0. -1.
         11    1    3    3    0    0 -0.34462046172E+00  0.32171342083E+01 -0.74944183201E+00  0.33212014539E+01  0.51100000000E-03 0. -1.
        -11    1    3    3    0    0 -0.31229858338E+02  0.28166999562E+02 -0.65312387019E+01  0.42559851919E+02  0.51100000000E-03 0.  1.
        -12    1    3    3    0    0  0.21030083927E+00  0.88460113313E-01 -0.12729760914E+00  0.26125909733E+00  0.00000000000E+00 0.  1.
</event>
<event>
 7    1  0.3698724E-009  0.4614232E+02  0.7816164E-02  0.1320468E+00
        -11   -1    0    0    0    0  0.00000000000E+00  0.00000000000E+00  0.45593999997E+02  0.45594000000E+02  0.51100000000E-03 0. -1.
         11   -1    0    0    0    0 -0.00000000000E+00 -0.00000000000E+00 -0.45593999997E+02  0.45594000000E+02  0.51100000000E-03 0.  1.
    9900012    2    1    2    0    0  0.37026036197E+02 -0.39426550427E+01 -0.25350376949E+02  0.46142317668E+02  0.99999991533E+01 0.  0.
         12    1    1    2    0    0 -0.37026036197E+02  0.39426550427E+01  0.25350376949E+02  0.45045682332E+02  0.00000000000E+00 0. -1.
         11    1    3    3    0    0  0.82901626791E+00  0.41273799431E+00  0.24690085749E+00  0.95842627205E+00  0.51100000000E-03 0. -1.
        -11    1    3    3    0    0  0.29278158886E+02 -0.59890955125E+01 -0.22604215891E+02  0.37470394035E+02  0.51100000000E-03 0.  1.
        -12    1    3    3    0    0  0.69188610433E+01  0.16337024756E+01 -0.29930619162E+01  0.77134973617E+01  0.00000000000E+00 0.  1.
</event>
<event>
 7    1  0.3046295E-009  0.4614232E+02  0.7816164E-02  0.1320468E+00
        -11   -1    0    0    0    0  0.00000000000E+00  0.00000000000E+00  0.45593999997E+02  0.45594000000E+02  0.51100000000E-03 0. -1.
         11   -1    0    0    0    0 -0.00000000000E+00 -0.00000000000E+00 -0.45593999997E+02  0.45594000000E+02  0.51100000000E-03 0.  1.
    9900012    2    1    2    0    0  0.43843337902E+02 -0.41509118787E+01 -0.94681010233E+01  0.46142320021E+02  0.10000020605E+02 0.  0.
         12    1    1    2    0    0 -0.43843337902E+02  0.41509118787E+01  0.94681010233E+01  0.45045679979E+02  0.00000000000E+00 0. -1.
         11    1    3    3    0    0  0.21387288593E+02 -0.31238907058E+01 -0.12533313167E+01  0.21650534547E+02  0.51100000000E-03 0. -1.
        -11    1    3    3    0    0  0.92718122753E+01  0.15308011413E+01 -0.51518661920E+01  0.10716882967E+02  0.51100000000E-03 0.  1.
        -12    1    3    3    0    0  0.13184237033E+02 -0.25578223141E+01 -0.30629035146E+01  0.13774902507E+02  0.00000000000E+00 0.  1.
</event>
<event>
 7    1  0.3046295E-009  0.4614232E+02  0.7816164E-02  0.1320468E+00
        -11   -1    0    0    0    0  0.00000000000E+00  0.00000000000E+00  0.45593999997E+02  0.45594000000E+02  0.51100000000E-03 0.  1.
         11   -1    0    0    0    0 -0.00000000000E+00 -0.00000000000E+00 -0.45593999997E+02  0.45594000000E+02  0.51100000000E-03 0. -1.
    9900012    2    1    2    0    0  0.48150813083E+00  0.11435584682E+02  0.43567292915E+02  0.46142318087E+02  0.10000002971E+02 0.  0.
         12    1    1    2    0    0 -0.48150813083E+00 -0.11435584682E+02 -0.43567292915E+02  0.45045681913E+02  0.00000000000E+00 0. -1.
         11    1    3    3    0    0  0.26772930799E+01  0.14955735448E+01  0.84392188953E+01  0.89791455210E+01  0.51100000000E-03 0. -1.
        -11    1    3    3    0    0 -0.24726021276E+01  0.85958704023E+01  0.34523856787E+02  0.35663699149E+02  0.51100000000E-03 0.  1.
        -12    1    3    3    0    0  0.27681717854E+00  0.13441407344E+01  0.60421723210E+00  0.14994734168E+01  0.00000000000E+00 0.  1.
</event>
<event>
 7    1  0.3046295E-009  0.4614232E+02  0.7816164E-02  0.1320468E+00
        -11   -1    0    0    0    0  0.00000000000E+00  0.00000000000E+00  0.45593999997E+02  0.45594000000E+02  0.51100000000E-03 0. -1.
         11   -1    0    0    0    0 -0.00000000000E+00 -0.00000000000E+00 -0.45593999997E+02  0.45594000000E+02  0.51100000000E-03 0.  1.
    9900012    2    1    2    0    0 -0.25383536470E+02  0.25220603238E+02  0.27362581988E+02  0.46142316028E+02  0.99999842003E+01 0.  0.
         12    1    1    2    0    0  0.25383536470E+02 -0.25220603238E+02 -0.27362581988E+02  0.45045683972E+02  0.00000000000E+00 0. -1.
         11    1    3    3    0    0 -0.12918561737E+01  0.66733011788E+00  0.63409361467E+00  0.15862839699E+01  0.51100000000E-03 0. -1.
        -11    1    3    3    0    0 -0.23150142728E+02  0.25348153202E+02  0.25160555704E+02  0.42561855489E+02  0.51100000000E-03 0.  1.
        -12    1    3    3    0    0 -0.94153756816E+00 -0.79488008128E+00  0.15679326692E+01  0.19941765697E+01  0.00000000000E+00 0.  1.
</event>
<event>
 7    1  0.3046295E-009  0.4614232E+02  0.7816164E-02  0.1320468E+00
        -11   -1    0    0    0    0  0.00000000000E+00  0.00000000000E+00  0.45593999997E+02  0.45594000000E+02  0.51100000000E-03 0.  1.
         11   -1    0    0    0    0 -0.00000000000E+00 -0.00000000000E+00 -0.45593999997E+02  0.45594000000E+02  0.51100000000E-03 0. -1.
    9900012    2    1    2    0    0 -0.77439289988E+01  0.59245203655E+01  0.43977777950E+02  0.46142319505E+02  0.10000015900E+02 0.  0.
         12    1    1    2    0    0  0.77439289988E+01 -0.59245203655E+01 -0.43977777950E+02  0.45045680495E+02  0.00000000000E+00 0. -1.
         11    1    3    3    0    0 -0.16514170900E+01 -0.61152395610E+00  0.21363585121E+01  0.27686039636E+01  0.51100000000E-03 0. -1.
        -11    1    3    3    0    0 -0.31085993089E+01  0.26852746842E+01  0.64392173471E+01  0.76379061330E+01  0.51100000000E-03 0.  1.
        -12    1    3    3    0    0 -0.29839125998E+01  0.38507696374E+01  0.35402202090E+02  0.35735809408E+02  0.00000000000E+00 0.  1.
</event>
<event>
 7    1  0.3046295E-009  0.4614230E+02  0.7816164E-02  0.1320468E+00
        -11   -1    0    0    0    0  0.00000000000E+00  0.00000000000E+00  0.45593999997E+02  0.45594000000E+02  0.51100000000E-03 0.  1.
         11   -1    0    0    0    0 -0.00000000000E+00 -0.00000000000E+00 -0.45593999997E+02  0.45594000000E+02  0.51100000000E-03 0. -1.
    9900012    2    1    2    0    0 -0.95710843551E+01 -0.43211102402E+02 -0.83850951357E+01  0.46142302681E+02  0.99998624839E+01 0.  0.
         12    1    1    2    0    0  0.95710843551E+01  0.43211102402E+02  0.83850951357E+01  0.45045697319E+02  0.00000000000E+00 0. -1.
         11    1    3    3    0    0 -0.13748559892E+01 -0.21013696804E+02 -0.50339251569E+01  0.21651930286E+02  0.51100000000E-03 0. -1.
        -11    1    3    3    0    0 -0.64938696332E+01 -0.21202845550E+02 -0.24097716975E+01  0.22305559893E+02  0.51100000000E-03 0.  1.
         12    1    3    3    0    0 -0.17023587327E+01 -0.99456004774E+00 -0.94139828128E+00  0.21848125016E+01  0.00000000000E+00 0. -1.
</event>
<event>
 7    1  0.3046295E-009  0.4614232E+02  0.7816164E-02  0.1320468E+00
        -11   -1    0    0    0    0  0.00000000000E+00  0.00000000000E+00  0.45593999997E+02  0.45594000000E+02  0.51100000000E-03 0.  1.
         11   -1    0    0    0    0 -0.00000000000E+00 -0.00000000000E+00 -0.45593999997E+02  0.45594000000E+02  0.51100000000E-03 0. -1.
    9900012    2    1    2    0    0 -0.33184121051E+02  0.30440714941E+02  0.11360207220E+01  0.46142316976E+02  0.99999928375E+01 0.  0.
         12    1    1    2    0    0  0.33184121051E+02 -0.30440714941E+02 -0.11360207220E+01  0.45045683024E+02  0.00000000000E+00 0. -1.
         11    1    3    3    0    0 -0.25887450089E+02  0.26933966682E+02 -0.19495405394E+01  0.37408546376E+02  0.51100000000E-03 0. -1.
        -11    1    3    3    0    0 -0.21148678534E+01  0.85346397098E+00  0.13878371662E+01  0.26696739591E+01  0.51100000000E-03 0.  1.
         12    1    3    3    0    0 -0.51818031085E+01  0.26532842878E+01  0.16977240953E+01  0.60640966409E+01  0.00000000000E+00 0. -1.
</event>
<event>
 7    1  0.4883218E-009  0.4614232E+02  0.7816164E-02  0.1320468E+00
        -11   -1    0    0    0    0  0.00000000000E+00  0.00000000000E+00  0.45593999997E+02  0.45594000000E+02  0.51100000000E-03 0. -1.
         11   -1    0    0    0    0 -0.00000000000E+00 -0.00000000000E+00 -0.45593999997E+02  0.45594000000E+02  0.51100000000E-03 0.  1.
    9900012    2    1    2    0    0 -0.61259203602E+01  0.17809109483E+02 -0.40919704313E+02  0.46142317833E+02  0.10000000657E+02 0.  0.
         12    1    1    2    0    0  0.61259203602E+01 -0.17809109483E+02  0.40919704313E+02  0.45045682167E+02  0.00000000000E+00 0. -1.
         11    1    3    3    0    0 -0.77533582227E+00  0.20331750226E+01 -0.12033542716E+01  0.24865655177E+01  0.51100000000E-03 0. -1.
        -11    1    3    3    0    0 -0.49831301671E+01  0.12105381199E+02 -0.22347355610E+02  0.25899346387E+02  0.51100000000E-03 0.  1.
        -12    1    3    3    0    0 -0.36745437089E+00  0.36705532610E+01 -0.17368994431E+02  0.17756405928E+02  0.00000000000E+00 0.  1.
</event>
<event>
 7    1  0.3046295E-009  0.4614232E+02  0.7816164E-02  0.1320468E+00
        -11   -1    0    0    0    0  0.00000000000E+00  0.00000000000E+00  0.45593999997E+02  0.45594000000E+02  0.51100000000E-03 0. -1.
         11   -1    0    0    0    0 -0.00000000000E+00 -0.00000000000E+00 -0.45593999997E+02  0.45594000000E+02  0.51100000000E-03 0.  1.
    9900012    2    1    2    0    0  0.17259428459E+02  0.69130156446E+01 -0.41029693820E+02  0.46142318398E+02  0.10000005810E+02 0.  0.
         12    1    1    2    0    0 -0.17259428459E+02 -0.69130156446E+01  0.41029693820E+02  0.45045681602E+02  0.00000000000E+00 0. -1.
         11    1    3    3    0    0  0.91279886190E+01 -0.18823687272E+00 -0.14188689777E+02  0.16872300590E+02  0.51100000000E-03 0. -1.
        -11    1    3    3    0    0  0.86319376644E+01  0.61648318667E+01 -0.24644951178E+02  0.26830749498E+02  0.51100000000E-03 0.  1.
        -12    1    3    3    0    0 -0.50049782414E+00  0.93642065058E+00 -0.21960528639E+01  0.24392683100E+01  0.00000000000E+00 0.  1.
</event>
<event>
 7    1  0.3046295E-009  0.4614232E+02  0.7816164E-02  0.1320468E+00
        -11   -1    0    0    0    0  0.00000000000E+00  0.00000000000E+00  0.45593999997E+02  0.45594000000E+02  0.51100000000E-03 0.  1.
         11   -1    0    0    0    0 -0.00000000000E+00 -0.00000000000E+00 -0.45593999997E+02  0.45594000000E+02  0.51100000000E-03 0. -1.
    9900012    2    1    2    0    0  0.11134965233E+01  0.21786521497E+02  0.39410926051E+02  0.46142317791E+02  0.10000000275E+02 0.  0.
         12    1    1    2    0    0 -0.11134965233E+01 -0.21786521497E+02 -0.39410926051E+02  0.45045682209E+02  0.00000000000E+00 0. -1.
         11    1    3    3    0    0  0.38053509493E+00  0.27148384823E+01  0.26150625660E+01  0.37886287003E+01  0.51100000000E-03 0. -1.
        -11    1    3    3    0    0  0.43314370900E+01  0.13267866002E+02  0.27254766977E+02  0.30620580314E+02  0.51100000000E-03 0.  1.
        -12    1    3    3    0    0 -0.35984756616E+01  0.58038170133E+01  0.95410965077E+01  0.11733108777E+02  0.00000000000E+00 0.  1.
</event>
<event>
 7    1  0.3046295E-009  0.4614232E+02  0.7816164E-02  0.1320468E+00
        -11   -1    0    0    0    0  0.00000000000E+00  0.00000000000E+00  0.45593999997E+02  0.45594000000E+02  0.51100000000E-03 0.  1.
         11   -1    0    0    0    0 -0.00000000000E+00 -0.00000000000E+00 -0.45593999997E+02  0.45594000000E+02  0.51100000000E-03 0. -1.
    9900012    2    1    2    0    0 -0.26372787268E+02  0.14451430072E+02  0.33537222156E+02  0.46142323078E+02  0.10000048482E+02 0.  0.
         12    1    1    2    0    0  0.26372787268E+02 -0.14451430072E+02 -0.33537222156E+02  0.45045676922E+02  0.00000000000E+00 0. -1.
         11    1    3    3    0    0 -0.30603928047E+01  0.30133908067E+01  0.96706514052E+00  0.44024701612E+01  0.51100000000E-03 0. -1.
        -11    1    3    3    0    0 -0.99380982183E+01  0.35424521372E+01  0.12338586558E+02  0.16234391946E+02  0.51100000000E-03 0.  1.
         12    1    3    3    0    0 -0.13374296245E+02  0.78955871278E+01  0.20231570458E+02  0.25505460971E+02  0.00000000000E+00 0. -1.
</event>
<event>
 7    1  0.3046295E-009  0.4614232E+02  0.7816164E-02  0.1320468E+00
        -11   -1    0    0    0    0  0.00000000000E+00  0.00000000000E+00  0.45593999997E+02  0.45594000000E+02  0.51100000000E-03 0. -1.
         11   -1    0    0    0    0 -0.00000000000E+00 -0.00000000000E+00 -0.45593999997E+02  0.45594000000E+02  0.51100000000E-03 0.  1.
    9900012    2    1    2    0    0 -0.31763440880E+02  0.18911141148E+02 -0.25740357563E+02  0.46142318259E+02  0.10000004541E+02 0.  0.
         12    1    1    2    0    0  0.31763440880E+02 -0.18911141148E+02  0.25740357563E+02  0.45045681741E+02  0.00000000000E+00 0. -1.
         11    1    3    3    0    0 -0.51424597582E+01  0.44685889990E+01 -0.78230084458E+00  0.68574904214E+01  0.51100000000E-03 0.  1.
        -11    1    3    3    0    0 -0.23797471284E+02  0.12346490437E+02 -0.21704379119E+02  0.34493992793E+02  0.51100000000E-03 0. -1.
        -12    1    3    3    0    0 -0.28235098377E+01  0.20960617121E+01 -0.32536775992E+01  0.47908350445E+01  0.00000000000E+00 0.  1.
</event>
<event>
 7    1  0.3046295E-009  0.4614232E+02  0.7816164E-02  0.1320468E+00
        -11   -1    0    0    0    0  0.00000000000E+00  0.00000000000E+00  0.45593999997E+02  0.45594000000E+02  0.51100000000E-03 0.  1.
         11   -1    0    0    0    0 -0.00000000000E+00 -0.00000000000E+00 -0.45593999997E+02  0.45594000000E+02  0.51100000000E-03 0. -1.
    9900012    2    1    2    0    0  0.35803884164E+02 -0.20030030331E+02  0.18600882758E+02  0.46142322342E+02  0.10000041769E+02 0.  0.
         12    1    1    2    0    0 -0.35803884164E+02  0.20030030331E+02 -0.18600882758E+02  0.45045677658E+02  0.00000000000E+00 0. -1.
         11    1    3    3    0    0  0.81687662370E+01 -0.50105986969E+01  0.16604406251E+01  0.97258369546E+01  0.51100000000E-03 0. -1.
        -11    1    3    3    0    0  0.13624495192E+02 -0.99702246741E+01  0.12047373568E+02  0.20740575196E+02  0.51100000000E-03 0.  1.
        -12    1    3    3    0    0  0.14010622735E+02 -0.50492069599E+01  0.48930685650E+01  0.15675910191E+02  0.00000000000E+00 0.  1.
</event>
<event>
 7    1  0.3046295E-009  0.4614232E+02  0.7816164E-02  0.1320468E+00
        -11   -1    0    0    0    0  0.00000000000E+00  0.00000000000E+00  0.45593999997E+02  0.45594000000E+02  0.51100000000E-03 0.  1.
         11   -1    0    0    0    0 -0.00000000000E+00 -0.00000000000E+00 -0.45593999997E+02  0.45594000000E+02  0.51100000000E-03 0. -1.
    9900012    2    1    2    0    0  0.27472062488E+02 -0.19824566314E+02  0.29688143000E+02  0.46142317836E+02  0.10000000682E+02 0.  0.
         12    1    1    2    0    0 -0.27472062488E+02  0.19824566314E+02 -0.29688143000E+02  0.45045682164E+02  0.00000000000E+00 0. -1.
         11    1    3    3    0    0  0.27331692631E+01 -0.84992784554E-01  0.20596270105E+00  0.27422361112E+01  0.51100000000E-03 0. -1.
        -11    1    3    3    0    0  0.19864255070E+02 -0.13982153363E+02  0.21951584495E+02  0.32740820152E+02  0.51100000000E-03 0.  1.
         12    1    3    3    0    0  0.48746381550E+01 -0.57574201661E+01  0.75305958039E+01  0.10659261573E+02  0.00000000000E+00 0. -1.
</event>
<event>
 7    1  0.3046295E-009  0.4614232E+02  0.7816164E-02  0.1320468E+00
        -11   -1    0    0    0    0  0.00000000000E+00  0.00000000000E+00  0.45593999997E+02  0.45594000000E+02  0.51100000000E-03 0.  1.
         11   -1    0    0    0    0 -0.00000000000E+00 -0.00000000000E+00 -0.45593999997E+02  0.45594000000E+02  0.51100000000E-03 0. -1.
    9900012    2    1    2    0    0 -0.68224761567E+01 -0.37735469271E+02  0.23634750313E+02  0.46142320470E+02  0.10000024701E+02 0.  0.
         12    1    1    2    0    0  0.68224761567E+01  0.37735469271E+02 -0.23634750313E+02  0.45045679530E+02  0.00000000000E+00 0. -1.
         11    1    3    3    0    0  0.23473163393E+00 -0.39936257089E+00  0.10967276393E+01  0.11905465883E+01  0.51100000000E-03 0.  1.
        -11    1    3    3    0    0  0.14613830568E+01 -0.12423665655E+02  0.83926712114E+01  0.15063865343E+02  0.51100000000E-03 0. -1.
        -12    1    3    3    0    0 -0.85185908474E+01 -0.24912441045E+02  0.14145351462E+02  0.29887908539E+02  0.00000000000E+00 0.  1.
</event>
<event>
 7    1  0.3046295E-009  0.4614232E+02  0.7816164E-02  0.1320468E+00
        -11   -1    0    0    0    0  0.00000000000E+00  0.00000000000E+00  0.45593999997E+02  0.45594000000E+02  0.51100000000E-03 0.  1.
         11   -1    0    0    0    0 -0.00000000000E+00 -0.00000000000E+00 -0.45593999997E+02  0.45594000000E+02  0.51100000000E-03 0. -1.
    9900012    2    1    2    0    0  0.10094522085E+01  0.27158174116E+02  0.35923919766E+02  0.46142318448E+02  0.10000006267E+02 0.  0.
         12    1    1    2    0    0 -0.10094522085E+01 -0.27158174116E+02 -0.35923919766E+02  0.45045681552E+02  0.00000000000E+00 0. -1.
         11    1    3    3    0    0 -0.77190428864E+00  0.44711623084E+01  0.31782678706E+01  0.55397216119E+01  0.51100000000E-03 0. -1.
        -11    1    3    3    0    0 -0.60657506012E+00  0.21084464958E+02  0.28043687751E+02  0.35090896523E+02  0.51100000000E-03 0.  1.
         12    1    3    3    0    0  0.23879315572E+01  0.16025468501E+01  0.47019641442E+01  0.55117003131E+01  0.00000000000E+00 0. -1.
</event>
<event>
 7    1  0.3046295E-009  0.4614232E+02  0.7816164E-02  0.1320468E+00
        -11   -1    0    0    0    0  0.00000000000E+00  0.00000000000E+00  0.45593999997E+02  0.45594000000E+02  0.51100000000E-03 0.  1.
         11   -1    0    0    0    0 -0.00000000000E+00 -0.00000000000E+00 -0.45593999997E+02  0.45594000000E+02  0.51100000000E-03 0. -1.
    9900012    2    1    2    0    0 -0.76545246607E+01 -0.31264395502E+02  0.31512844048E+02  0.46142317478E+02  0.99999974229E+01 0.  0.
         12    1    1    2    0    0  0.76545246607E+01  0.31264395502E+02 -0.31512844048E+02  0.45045682522E+02  0.00000000000E+00 0. -1.
         11    1    3    3    0    0 -0.25721289023E+01 -0.61275919906E+01  0.11200858270E+02  0.13023918647E+02  0.51100000000E-03 0. -1.
        -11    1    3    3    0    0 -0.59905258846E+01 -0.23786125201E+02  0.18954760183E+02  0.30999178800E+02  0.51100000000E-03 0.  1.
        -12    1    3    3    0    0  0.90813012617E+00 -0.13506783103E+01  0.13572255946E+01  0.21192200307E+01  0.00000000000E+00 0.  1.
</event>
<event>
 7    1  0.3046295E-009  0.4614232E+02  0.7816164E-02  0.1320468E+00
        -11   -1    0    0    0    0  0.00000000000E+00  0.00000000000E+00  0.45593999997E+02  0.45594000000E+02  0.51100000000E-03 0.  1.
         11   -1    0    0    0    0 -0.00000000000E+00 -0.00000000000E+00 -0.45593999997E+02  0.45594000000E+02  0.51100000000E-03 0. -1.
    9900012    2    1    2    0    0 -0.15639914566E+02  0.88553690619E+01  0.41304831299E+02  0.46142316772E+02  0.99999909790E+01 0.  0.
         12    1    1    2    0    0  0.15639914566E+02 -0.88553690619E+01 -0.41304831299E+02  0.45045683228E+02  0.00000000000E+00 0. -1.
         11    1    3    3    0    0 -0.10841365511E+01 -0.56144035342E+00  0.92528156038E+01  0.93330147429E+01  0.51100000000E-03 0. -1.
        -11    1    3    3    0    0 -0.11023710591E+02  0.43942058065E+01  0.22830160346E+02  0.25730282967E+02  0.51100000000E-03 0.  1.
         12    1    3    3    0    0 -0.35320674235E+01  0.50226036088E+01  0.92218553496E+01  0.11079019062E+02  0.00000000000E+00 0. -1.
</event>
<event>
 7    1  0.3046295E-009  0.4614232E+02  0.7816164E-02  0.1320468E+00
        -11   -1    0    0    0    0  0.00000000000E+00  0.00000000000E+00  0.45593999997E+02  0.45594000000E+02  0.51100000000E-03 0.  1.
         11   -1    0    0    0    0 -0.00000000000E+00 -0.00000000000E+00 -0.45593999997E+02  0.45594000000E+02  0.51100000000E-03 0. -1.
    9900012    2    1    2    0    0 -0.31738103917E+02 -0.20060456018E+02  0.24887435027E+02  0.46142316987E+02  0.99999929368E+01 0.  0.
         12    1    1    2    0    0  0.31738103917E+02  0.20060456018E+02 -0.24887435027E+02  0.45045683013E+02  0.00000000000E+00 0. -1.
         11    1    3    3    0    0 -0.60079815167E+01 -0.33237206831E+01  0.11981883822E+01  0.69698362064E+01  0.51100000000E-03 0. -1.
        -11    1    3    3    0    0 -0.10764876132E+02 -0.77993969595E+01  0.13667400387E+02  0.19065964037E+02  0.51100000000E-03 0.  1.
        -12    1    3    3    0    0 -0.14965246268E+02 -0.89373383755E+01  0.10021846258E+02  0.20106516743E+02  0.00000000000E+00 0.  1.
</event>
<event>
 7    1  0.3046295E-009  0.4614231E+02  0.7816164E-02  0.1320468E+00
        -11   -1    0    0    0    0  0.00000000000E+00  0.00000000000E+00  0.45593999997E+02  0.45594000000E+02  0.51100000000E-03 0.  1.
         11   -1    0    0    0    0 -0.00000000000E+00 -0.00000000000E+00 -0.45593999997E+02  0.45594000000E+02  0.51100000000E-03 0. -1.
    9900012    2    1    2    0    0  0.21529621244E+02  0.17682382344E+02  0.35396652230E+02  0.46142309581E+02  0.99999254069E+01 0.  0.
         12    1    1    2    0    0 -0.21529621244E+02 -0.17682382344E+02 -0.35396652230E+02  0.45045690419E+02  0.00000000000E+00 0. -1.
         11    1    3    3    0    0  0.33966015104E+01  0.25424595333E+01  0.18608648867E+01  0.46329062894E+01  0.51100000000E-03 0. -1.
        -11    1    3    3    0    0  0.71615620448E+01  0.97940475825E+01  0.18808015403E+02  0.22381974502E+02  0.51100000000E-03 0.  1.
        -12    1    3    3    0    0  0.10971457688E+02  0.53458752283E+01  0.14727771940E+02  0.19127428789E+02  0.00000000000E+00 0.  1.
</event>
<event>
 7    1  0.3068149E-009  0.4614232E+02  0.7816164E-02  0.1320468E+00
        -11   -1    0    0    0    0  0.00000000000E+00  0.00000000000E+00  0.45593999997E+02  0.45594000000E+02  0.51100000000E-03 0.  1.
         11   -1    0    0    0    0 -0.00000000000E+00 -0.00000000000E+00 -0.45593999997E+02  0.45594000000E+02  0.51100000000E-03 0. -1.
    9900012    2    1    2    0    0  0.38113262915E+02  0.22215364985E+02 -0.91087994861E+01  0.46142317859E+02  0.10000000896E+02 0.  0.
         12    1    1    2    0    0 -0.38113262915E+02 -0.22215364985E+02  0.91087994861E+01  0.45045682141E+02  0.00000000000E+00 0. -1.
         11    1    3    3    0    0  0.11831355640E+01  0.10105454728E+01  0.75990295287E+00  0.17316075405E+01  0.51100000000E-03 0. -1.
        -11    1    3    3    0    0  0.32928769437E+02  0.18761984036E+02 -0.11232475824E+02  0.39528273615E+02  0.51100000000E-03 0.  1.
        -12    1    3    3    0    0  0.40013579141E+01  0.24428354757E+01  0.13637733851E+01  0.48824367036E+01  0.00000000000E+00 0.  1.
</event>
<event>
 7    1  0.3046295E-009  0.4614232E+02  0.7816164E-02  0.1320468E+00
        -11   -1    0    0    0    0  0.00000000000E+00  0.00000000000E+00  0.45593999997E+02  0.45594000000E+02  0.51100000000E-03 0.  1.
         11   -1    0    0    0    0 -0.00000000000E+00 -0.00000000000E+00 -0.45593999997E+02  0.45594000000E+02  0.51100000000E-03 0. -1.
    9900012    2    1    2    0    0  0.38480129164E+02 -0.22026135930E+02  0.79525149103E+01  0.46142317655E+02  0.99999990356E+01 0.  0.
         12    1    1    2    0    0 -0.38480129164E+02  0.22026135930E+02 -0.79525149103E+01  0.45045682345E+02  0.00000000000E+00 0. -1.
         11    1    3    3    0    0  0.30258063152E+01 -0.34872224080E+01 -0.85773111144E+00  0.46959479235E+01  0.51100000000E-03 0. -1.
        -11    1    3    3    0    0  0.44740912057E+01 -0.13942179585E+01 -0.80794961940E+00  0.47554304412E+01  0.51100000000E-03 0.  1.
        -12    1    3    3    0    0  0.30980231643E+02 -0.17144695564E+02  0.96181956411E+01  0.36690939291E+02  0.00000000000E+00 0.  1.
</event>
<event>
 7    1  0.3046295E-009  0.4614232E+02  0.7816164E-02  0.1320468E+00
        -11   -1    0    0    0    0  0.00000000000E+00  0.00000000000E+00  0.45593999997E+02  0.45594000000E+02  0.51100000000E-03 0.  1.
         11   -1    0    0    0    0 -0.00000000000E+00 -0.00000000000E+00 -0.45593999997E+02  0.45594000000E+02  0.51100000000E-03 0. -1.
    9900012    2    1    2    0    0 -0.22118076477E+02  0.51401643148E+01  0.38903507468E+02  0.46142317748E+02  0.99999998843E+01 0.  0.
         12    1    1    2    0    0  0.22118076477E+02 -0.51401643148E+01 -0.38903507468E+02  0.45045682252E+02  0.00000000000E+00 0. -1.
         11    1    3    3    0    0 -0.34740323900E+01 -0.24866630994E+01  0.85098161848E+01  0.95220463230E+01  0.51100000000E-03 0. -1.
        -11    1    3    3    0    0 -0.55181463962E+01  0.23213383643E+01  0.11985941903E+02  0.13397811576E+02  0.51100000000E-03 0.  1.
         12    1    3    3    0    0 -0.13125897691E+02  0.53054890500E+01  0.18407749380E+02  0.23222459850E+02  0.00000000000E+00 0. -1.
</event>
<event>
 7    1  0.3046295E-009  0.4614232E+02  0.7816164E-02  0.1320468E+00
        -11   -1    0    0    0    0  0.00000000000E+00  0.00000000000E+00  0.45593999997E+02  0.45594000000E+02  0.51100000000E-03 0. -1.
         11   -1    0    0    0    0 -0.00000000000E+00 -0.00000000000E+00 -0.45593999997E+02  0.45594000000E+02  0.51100000000E-03 0.  1.
    9900012    2    1    2    0    0 -0.27131126389E+02 -0.29499004391E+02 -0.20562690914E+02  0.46142317223E+02  0.99999950906E+01 0.  0.
         12    1    1    2    0    0  0.27131126389E+02  0.29499004391E+02  0.20562690914E+02  0.45045682777E+02  0.00000000000E+00 0. -1.
         11    1    3    3    0    0 -0.52676258581E+00 -0.17133250200E-02  0.43639099650E+00  0.68404613897E+00  0.51100000000E-03 0. -1.
        -11    1    3    3    0    0 -0.24598796492E+02 -0.27923694177E+02 -0.17483643153E+02  0.41115827408E+02  0.51100000000E-03 0.  1.
        -12    1    3    3    0    0 -0.20055673118E+01 -0.15735968896E+01 -0.35154387580E+01  0.43424436755E+01  0.00000000000E+00 0.  1.
</event>
<event>
 7    1  0.3046295E-009  0.4614232E+02  0.7816164E-02  0.1320468E+00
        -11   -1    0    0    0    0  0.00000000000E+00  0.00000000000E+00  0.45593999997E+02  0.45594000000E+02  0.51100000000E-03 0. -1.
         11   -1    0    0    0    0 -0.00000000000E+00 -0.00000000000E+00 -0.45593999997E+02  0.45594000000E+02  0.51100000000E-03 0.  1.
    9900012    2    1    2    0    0 -0.36960893673E+02  0.25157014663E+02  0.54891171447E+01  0.46142318133E+02  0.10000003392E+02 0.  0.
         12    1    1    2    0    0  0.36960893673E+02 -0.25157014663E+02 -0.54891171447E+01  0.45045681867E+02  0.00000000000E+00 0. -1.
         11    1    3    3    0    0 -0.63902288899E+01  0.68269358502E+01 -0.13576249379E+01  0.94490858871E+01  0.51100000000E-03 0. -1.
        -11    1    3    3    0    0 -0.77345691032E+01  0.43027565659E+01  0.40945110931E+01  0.97520405367E+01  0.51100000000E-03 0.  1.
         12    1    3    3    0    0 -0.22836095680E+02  0.14027322247E+02  0.27522309895E+01  0.26941191709E+02  0.00000000000E+00 0. -1.
</event>
<event>
 7    1  0.3046295E-009  0.4614232E+02  0.7816164E-02  0.1320468E+00
        -11   -1    0    0    0    0  0.00000000000E+00  0.00000000000E+00  0.45593999997E+02  0.45594000000E+02  0.51100000000E-03 0. -1.
         11   -1    0    0    0    0 -0.00000000000E+00 -0.00000000000E+00 -0.45593999997E+02  0.45594000000E+02  0.51100000000E-03 0.  1.
    9900012    2    1    2    0    0  0.33997487904E+02 -0.81375574026E+01 -0.28408881343E+02  0.46142316928E+02  0.99999924039E+01 0.  0.
         12    1    1    2    0    0 -0.33997487904E+02  0.81375574026E+01  0.28408881343E+02  0.45045683072E+02  0.00000000000E+00 0. -1.
         11    1    3    3    0    0  0.12551082816E+02 -0.18267528608E+01 -0.16380756648E+02  0.20717043575E+02  0.51100000000E-03 0. -1.
        -11    1    3    3    0    0  0.15025378001E+02 -0.38106868820E+01 -0.86488746735E+01  0.17750671874E+02  0.51100000000E-03 0.  1.
         12    1    3    3    0    0  0.64210270863E+01 -0.25001176597E+01 -0.33792500221E+01  0.76746014794E+01  0.00000000000E+00 0. -1.
</event>
<event>
 7    1  0.3046295E-009  0.4614232E+02  0.7816164E-02  0.1320468E+00
        -11   -1    0    0    0    0  0.00000000000E+00  0.00000000000E+00  0.45593999997E+02  0.45594000000E+02  0.51100000000E-03 0.  1.
         11   -1    0    0    0    0 -0.00000000000E+00 -0.00000000000E+00 -0.45593999997E+02  0.45594000000E+02  0.51100000000E-03 0. -1.
    9900012    2    1    2    0    0  0.44452985981E+02  0.14380245930E+01 -0.71398609024E+01  0.46142317732E+02  0.99999997308E+01 0.  0.
         12    1    1    2    0    0 -0.44452985981E+02 -0.14380245930E+01  0.71398609024E+01  0.45045682268E+02  0.00000000000E+00 0. -1.
         11    1    3    3    0    0  0.26254294014E+02 -0.20503245311E+01 -0.45676116019E+01  0.26727417774E+02  0.51100000000E-03 0. -1.
        -11    1    3    3    0    0  0.13523377063E+02  0.47738194816E+01 -0.12883814856E+01  0.14398993254E+02  0.51100000000E-03 0.  1.
         12    1    3    3    0    0  0.46753149039E+01 -0.12854703576E+01 -0.12838678149E+01  0.50159067034E+01  0.00000000000E+00 0. -1.
</event>
<event>
 7    1  0.3046295E-009  0.4614232E+02  0.7816164E-02  0.1320468E+00
        -11   -1    0    0    0    0  0.00000000000E+00  0.00000000000E+00  0.45593999997E+02  0.45594000000E+02  0.51100000000E-03 0. -1.
         11   -1    0    0    0    0 -0.00000000000E+00 -0.00000000000E+00 -0.45593999997E+02  0.45594000000E+02  0.51100000000E-03 0.  1.
    9900012    2    1    2    0    0  0.31462884993E+02 -0.26976869378E+02 -0.17647912772E+02  0.46142318312E+02  0.10000005024E+02 0.  0.
         12    1    1    2    0    0 -0.31462884993E+02  0.26976869378E+02  0.17647912772E+02  0.45045681688E+02  0.00000000000E+00 0. -1.
         11    1    3    3    0    0  0.13376983844E+02 -0.16681475779E+02 -0.75793842614E+01  0.22686171933E+02  0.51100000000E-03 0. -1.
        -11    1    3    3    0    0  0.47344211585E+01 -0.23037603070E+01 -0.45099262700E+01  0.69326395031E+01  0.51100000000E-03 0.  1.
         12    1    3    3    0    0  0.13351479990E+02 -0.79916332921E+01 -0.55586022408E+01  0.16523506876E+02  0.00000000000E+00 0. -1.
</event>
<event>
 7    1  0.3046295E-009  0.4614232E+02  0.7816164E-02  0.1320468E+00
        -11   -1    0    0    0    0  0.00000000000E+00  0.00000000000E+00  0.45593999997E+02  0.45594000000E+02  0.51100000000E-03 0.  1.
         11   -1    0    0    0    0 -0.00000000000E+00 -0.00000000000E+00 -0.45593999997E+02  0.45594000000E+02  0.51100000000E-03 0. -1.
    9900012    2    1    2    0    0  0.51068292001E+01  0.36639785914E+02  0.25701359556E+02  0.46142317640E+02  0.99999988932E+01 0.  0.
         12    1    1    2    0    0 -0.51068292001E+01 -0.36639785914E+02 -0.25701359556E+02  0.45045682360E+02  0.00000000000E+00 0. -1.
         11    1    3    3    0    0  0.35179562041E+01  0.17040637406E+02  0.17717999356E+02  0.24833180233E+02  0.51100000000E-03 0. -1.
        -11    1    3    3    0    0 -0.14171274876E+00  0.10020921345E+02  0.41986110842E+01  0.10865876973E+02  0.51100000000E-03 0.  1.
         12    1    3    3    0    0  0.17305857447E+01  0.95782271632E+01  0.37847491158E+01  0.10443260433E+02  0.00000000000E+00 0. -1.
</event>
<event>
 7    1  0.3870864E-009  0.4614232E+02  0.7816164E-02  0.1320468E+00
        -11   -1    0    0    0    0  0.00000000000E+00  0.00000000000E+00  0.45593999997E+02  0.45594000000E+02  0.51100000000E-03 0. -1.
         11   -1    0    0    0    0 -0.00000000000E+00 -0.00000000000E+00 -0.45593999997E+02  0.45594000000E+02  0.51100000000E-03 0.  1.
    9900012    2    1    2    0    0  0.23913604534E+02 -0.37992353805E+02 -0.37194109773E+01  0.46142318215E+02  0.10000004135E+02 0.  0.
         12    1    1    2    0    0 -0.23913604534E+02  0.37992353805E+02  0.37194109773E+01  0.45045681785E+02  0.00000000000E+00 0. -1.
         11    1    3    3    0    0  0.31286076608E+01 -0.96616135723E+01 -0.75550111095E-01  0.10155819553E+02  0.51100000000E-03 0. -1.
        -11    1    3    3    0    0  0.14460655727E+02 -0.16062114192E+02 -0.47874489952E+01  0.22136434775E+02  0.51100000000E-03 0.  1.
        -12    1    3    3    0    0  0.63243411464E+01 -0.12268626041E+02  0.11435881290E+01  0.13850063887E+02  0.00000000000E+00 0.  1.
</event>
<event>
 7    1  0.3046295E-009  0.4614233E+02  0.7816164E-02  0.1320468E+00
        -11   -1    0    0    0    0  0.00000000000E+00  0.00000000000E+00  0.45593999997E+02  0.45594000000E+02  0.51100000000E-03 0.  1.
         11   -1    0    0    0    0 -0.00000000000E+00 -0.00000000000E+00 -0.45593999997E+02  0.45594000000E+02  0.51100000000E-03 0. -1.
    9900012    2    1    2    0    0 -0.32071612261E+02  0.12917140550E+02  0.28873375149E+02  0.46142327338E+02  0.10000087334E+02 0.  0.
         12    1    1    2    0    0  0.32071612261E+02 -0.12917140550E+02 -0.28873375149E+02  0.45045672662E+02  0.00000000000E+00 0. -1.
         11    1    3    3    0    0 -0.36159564411E+00 -0.82820883259E+00  0.84033405206E+00  0.12340351941E+01  0.51100000000E-03 0. -1.
        -11    1    3    3    0    0 -0.27610007524E+02  0.10588626468E+02  0.21431153898E+02  0.36520211988E+02  0.51100000000E-03 0.  1.
         12    1    3    3    0    0 -0.41000090924E+01  0.31567229154E+01  0.66018871992E+01  0.83880801566E+01  0.00000000000E+00 0. -1.
</event>
<event>
 7    1  0.3046295E-009  0.4614232E+02  0.7816164E-02  0.1320468E+00
        -11   -1    0    0    0    0  0.00000000000E+00  0.00000000000E+00  0.45593999997E+02  0.45594000000E+02  0.51100000000E-03 0.  1.
         11   -1    0    0    0    0 -0.00000000000E+00 -0.00000000000E+00 -0.45593999997E+02  0.45594000000E+02  0.51100000000E-03 0. -1.
    9900012    2    1    2    0    0  0.38434714024E+02  0.20799615407E+02  0.10920729799E+02  0.46142316716E+02  0.99999904679E+01 0.  0.
         12    1    1    2    0    0 -0.38434714024E+02 -0.20799615407E+02 -0.10920729799E+02  0.45045683284E+02  0.00000000000E+00 0. -1.
         11    1    3    3    0    0  0.85495136317E+00  0.78294004600E-01 -0.20420072362E+00  0.88247945086E+00  0.51100000000E-03 0. -1.
        -11    1    3    3    0    0  0.37031368936E+02  0.19323074630E+02  0.91182312556E+01  0.42753311450E+02  0.51100000000E-03 0.  1.
        -12    1    3    3    0    0  0.54839372542E+00  0.13982467720E+01  0.20066992674E+01  0.25065258154E+01  0.00000000000E+00 0.  1.
</event>
<event>
 7    1  0.3046295E-009  0.4614232E+02  0.7816164E-02  0.1320468E+00
        -11   -1    0    0    0    0  0.00000000000E+00  0.00000000000E+00  0.45593999997E+02  0.45594000000E+02  0.51100000000E-03 0.  1.
         11   -1    0    0    0    0 -0.00000000000E+00 -0.00000000000E+00 -0.45593999997E+02  0.45594000000E+02  0.51100000000E-03 0. -1.
    9900012    2    1    2    0    0 -0.20200746348E+02  0.11118778392E+02  0.38696461212E+02  0.46142317673E+02  0.99999991941E+01 0.  0.
         12    1    1    2    0    0  0.20200746348E+02 -0.11118778392E+02 -0.38696461212E+02  0.45045682327E+02  0.00000000000E+00 0. -1.
         11    1    3    3    0    0 -0.48386812754E+01  0.78612456353E+00  0.30164291046E+01  0.57558381769E+01  0.51100000000E-03 0. -1.
        -11    1    3    3    0    0 -0.13019792119E+02  0.73404493658E+01  0.26041496309E+02  0.30025934023E+02  0.51100000000E-03 0.  1.
        -12    1    3    3    0    0 -0.23422729542E+01  0.29922044628E+01  0.96385357991E+01  0.10360545473E+02  0.00000000000E+00 0.  1.
</event>
<event>
 7    1  0.3046295E-009  0.4614232E+02  0.7816164E-02  0.1320468E+00
        -11   -1    0    0    0    0  0.00000000000E+00  0.00000000000E+00  0.45593999997E+02  0.45594000000E+02  0.51100000000E-03 0.  1.
         11   -1    0    0    0    0 -0.00000000000E+00 -0.00000000000E+00 -0.45593999997E+02  0.45594000000E+02  0.51100000000E-03 0. -1.
    9900012    2    1    2    0    0 -0.27137412449E+02  0.10185975210E+02  0.34480724257E+02  0.46142316625E+02  0.99999896388E+01 0.  0.
         12    1    1    2    0    0  0.27137412449E+02 -0.10185975210E+02 -0.34480724257E+02  0.45045683375E+02  0.00000000000E+00 0. -1.
         11    1    3    3    0    0 -0.94072299004E+01  0.33486021908E+01  0.17312790132E+02  0.19986040464E+02  0.51100000000E-03 0. -1.
        -11    1    3    3    0    0 -0.16751920576E+02  0.70807763510E+01  0.17345970991E+02  0.25132587344E+02  0.51100000000E-03 0.  1.
         12    1    3    3    0    0 -0.97826197231E+00 -0.24340333169E+00 -0.17803686484E+00  0.10236888168E+01  0.00000000000E+00 0. -1.
</event>
<event>
 7    1  0.3046295E-009  0.4614232E+02  0.7816164E-02  0.1320468E+00
        -11   -1    0    0    0    0  0.00000000000E+00  0.00000000000E+00  0.45593999997E+02  0.45594000000E+02  0.51100000000E-03 0.  1.
         11   -1    0    0    0    0 -0.00000000000E+00 -0.00000000000E+00 -0.45593999997E+02  0.45594000000E+02  0.51100000000E-03 0. -1.
    9900012    2    1    2    0    0 -0.28217443113E+02  0.92666991458E+01  0.33867648183E+02  0.46142318715E+02  0.10000008703E+02 0.  0.
         12    1    1    2    0    0  0.28217443113E+02 -0.92666991458E+01 -0.33867648183E+02  0.45045681285E+02  0.00000000000E+00 0. -1.
         11    1    3    3    0    0 -0.84180758325E+01  0.19724311087E+01  0.58763945516E+01  0.10454018289E+02  0.51100000000E-03 0. -1.
        -11    1    3    3    0    0 -0.43296632125E+00  0.20221103554E+01  0.25899803824E+01  0.33142704728E+01  0.51100000000E-03 0.  1.
        -12    1    3    3    0    0 -0.19366400960E+02  0.52721576817E+01  0.25401273249E+02  0.32374029954E+02  0.00000000000E+00 0.  1.
</event>
<event>
 7    1  0.3046295E-009  0.4614232E+02  0.7816164E-02  0.1320468E+00
        -11   -1    0    0    0    0  0.00000000000E+00  0.00000000000E+00  0.45593999997E+02  0.45594000000E+02  0.51100000000E-03 0.  1.
         11   -1    0    0    0    0 -0.00000000000E+00 -0.00000000000E+00 -0.45593999997E+02  0.45594000000E+02  0.51100000000E-03 0. -1.
    9900012    2    1    2    0    0  0.21232878214E+02  0.26880713042E+02  0.29252435910E+02  0.46142324763E+02  0.10000063850E+02 0.  0.
         12    1    1    2    0    0 -0.21232878214E+02 -0.26880713042E+02 -0.29252435910E+02  0.45045675237E+02  0.00000000000E+00 0. -1.
         11    1    3    3    0    0  0.91410682388E+01  0.10582812259E+02  0.79843770350E+01  0.16102959999E+02  0.51100000000E-03 0. -1.
        -11    1    3    3    0    0  0.11105727935E+02  0.16197011699E+02  0.21392954457E+02  0.29040297546E+02  0.51100000000E-03 0.  1.
         12    1    3    3    0    0  0.98608204083E+00  0.10088908465E+00 -0.12489558201E+00  0.99906721748E+00  0.00000000000E+00 0. -1.
</event>
<event>
 7    1  0.3046295E-009  0.4614232E+02  0.7816164E-02  0.1320468E+00
        -11   -1    0    0    0    0  0.00000000000E+00  0.00000000000E+00  0.45593999997E+02  0.45594000000E+02  0.51100000000E-03 0. -1.
         11   -1    0    0    0    0 -0.00000000000E+00 -0.00000000000E+00 -0.45593999997E+02  0.45594000000E+02  0.51100000000E-03 0.  1.
    9900012    2    1    2    0    0 -0.31782845311E+02  0.29392504692E+02 -0.12451702019E+02  0.46142317950E+02  0.10000001723E+02 0.  0.
         12    1    1    2    0    0  0.31782845311E+02 -0.29392504692E+02  0.12451702019E+02  0.45045682050E+02  0.00000000000E+00 0. -1.
         11    1    3    3    0    0 -0.11114283850E+02  0.10305595781E+02 -0.73133152730E+01  0.16829057919E+02  0.51100000000E-03 0. -1.
        -11    1    3    3    0    0 -0.11154160124E+02  0.13362325145E+02 -0.90382956215E+00  0.17429398426E+02  0.51100000000E-03 0.  1.
        -12    1    3    3    0    0 -0.95144013373E+01  0.57245837668E+01 -0.42345571839E+01  0.11883861605E+02  0.00000000000E+00 0.  1.
</event>
<event>
 7    1  0.3046295E-009  0.4614232E+02  0.7816164E-02  0.1320468E+00
        -11   -1    0    0    0    0  0.00000000000E+00  0.00000000000E+00  0.45593999997E+02  0.45594000000E+02  0.51100000000E-03 0. -1.
         11   -1    0    0    0    0 -0.00000000000E+00 -0.00000000000E+00 -0.45593999997E+02  0.45594000000E+02  0.51100000000E-03 0.  1.
    9900012    2    1    2    0    0  0.41816380611E+01 -0.54981918920E+01 -0.44512888821E+02  0.46142317830E+02  0.10000000630E+02 0.  0.
         12    1    1    2    0    0 -0.41816380611E+01  0.54981918920E+01  0.44512888821E+02  0.45045682170E+02  0.00000000000E+00 0. -1.
         11    1    3    3    0    0  0.27641771681E+01 -0.77458223428E+01 -0.33288921050E+02  0.34289804667E+02  0.51100000000E-03 0. -1.
        -11    1    3    3    0    0 -0.13946497728E+00 -0.24091774683E+00 -0.45860866060E+01  0.45945274469E+01  0.51100000000E-03 0.  1.
         12    1    3    3    0    0  0.15569258702E+01  0.24885481976E+01 -0.66378811650E+01  0.72579857163E+01  0.00000000000E+00 0. -1.
</event>
<event>
 7    1  0.3046295E-009  0.4614231E+02  0.7816164E-02  0.1320468E+00
        -11   -1    0    0    0    0  0.00000000000E+00  0.00000000000E+00  0.45593999997E+02  0.45594000000E+02  0.51100000000E-03 0.  1.
         11   -1    0    0    0    0 -0.00000000000E+00 -0.00000000000E+00 -0.45593999997E+02  0.45594000000E+02  0.51100000000E-03 0. -1.
    9900012    2    1    2    0    0  0.66304014798E+01  0.26789053316E+01  0.44474435656E+02  0.46142310034E+02  0.99999295370E+01 0.  0.
         12    1    1    2    0    0 -0.66304014798E+01 -0.26789053316E+01 -0.44474435656E+02  0.45045689966E+02  0.00000000000E+00 0. -1.
         11    1    3    3    0    0  0.42410545169E+00  0.78082291629E+00  0.27431409571E+02  0.27445797150E+02  0.51100000000E-03 0. -1.
        -11    1    3    3    0    0  0.20364598714E+01 -0.74970048009E+00  0.23654088179E+01  0.32100434194E+01  0.51100000000E-03 0.  1.
        -12    1    3    3    0    0  0.41698361567E+01  0.26477828954E+01  0.14677617267E+02  0.15486469465E+02  0.00000000000E+00 0.  1.
</event>
<event>
 7    1  0.3046295E-009  0.4614232E+02  0.7816164E-02  0.1320468E+00
        -11   -1    0    0    0    0  0.00000000000E+00  0.00000000000E+00  0.45593999997E+02  0.45594000000E+02  0.51100000000E-03 0.  1.
         11   -1    0    0    0    0 -0.00000000000E+00 -0.00000000000E+00 -0.45593999997E+02  0.45594000000E+02  0.51100000000E-03 0. -1.
    9900012    2    1    2    0    0 -0.79072244752E+01 -0.56861424498E+01  0.43980185198E+02  0.46142322018E+02  0.10000038817E+02 0.  0.
         12    1    1    2    0    0  0.79072244752E+01  0.56861424498E+01 -0.43980185198E+02  0.45045677982E+02  0.00000000000E+00 0. -1.
         11    1    3    3    0    0 -0.34840193834E+01 -0.31845647509E+00  0.44188686718E+01  0.56361517182E+01  0.51100000000E-03 0. -1.
        -11    1    3    3    0    0 -0.15254765011E+01 -0.10019622794E+01  0.24337347302E+02  0.24405685422E+02  0.51100000000E-03 0.  1.
        -12    1    3    3    0    0 -0.28977285907E+01 -0.43657236954E+01  0.15223969224E+02  0.16100484878E+02  0.00000000000E+00 0.  1.
</event>
<event>
 7    1  0.3046295E-009  0.4614232E+02  0.7816164E-02  0.1320468E+00
        -11   -1    0    0    0    0  0.00000000000E+00  0.00000000000E+00  0.45593999997E+02  0.45594000000E+02  0.51100000000E-03 0. -1.
         11   -1    0    0    0    0 -0.00000000000E+00 -0.00000000000E+00 -0.45593999997E+02  0.45594000000E+02  0.51100000000E-03 0.  1.
    9900012    2    1    2    0    0  0.79079653742E+01  0.44225186207E+02 -0.32726828424E+01  0.46142318028E+02  0.10000002430E+02 0.  0.
         12    1    1    2    0    0 -0.79079653742E+01 -0.44225186207E+02  0.32726828424E+01  0.45045681972E+02  0.00000000000E+00 0. -1.
         11    1    3    3    0    0  0.48654503014E+00  0.33749846115E+01  0.21310082241E+01  0.40210003117E+01  0.51100000000E-03 0. -1.
        -11    1    3    3    0    0  0.44990489052E+01  0.23936561341E+02 -0.88292862671E+00  0.24371704354E+02  0.51100000000E-03 0.  1.
         12    1    3    3    0    0  0.29223714388E+01  0.16913640254E+02 -0.45207624398E+01  0.17749613362E+02  0.00000000000E+00 0. -1.
</event>
<event>
 7    1  0.3046295E-009  0.4614232E+02  0.7816164E-02  0.1320468E+00
        -11   -1    0    0    0    0  0.00000000000E+00  0.00000000000E+00  0.45593999997E+02  0.45594000000E+02  0.51100000000E-03 0.  1.
         11   -1    0    0    0    0 -0.00000000000E+00 -0.00000000000E+00 -0.45593999997E+02  0.45594000000E+02  0.51100000000E-03 0. -1.
    9900012    2    1    2    0    0  0.14587006231E+02  0.50529215077E+00  0.42615459804E+02  0.46142317796E+02  0.10000000318E+02 0.  0.
         12    1    1    2    0    0 -0.14587006231E+02 -0.50529215077E+00 -0.42615459804E+02  0.45045682204E+02  0.00000000000E+00 0. -1.
         11    1    3    3    0    0  0.10227719259E+02 -0.77242579006E+00  0.20867591931E+02  0.23252081113E+02  0.51100000000E-03 0. -1.
        -11    1    3    3    0    0 -0.52914989702E+00  0.98707703180E-01 -0.30223871812E-01  0.53912574389E+00  0.51100000000E-03 0.  1.
        -12    1    3    3    0    0  0.48884368689E+01  0.11790102376E+01  0.21778091745E+02  0.22351110939E+02  0.00000000000E+00 0.  1.
</event>
<event>
 7    1  0.3046295E-009  0.4614232E+02  0.7816164E-02  0.1320468E+00
        -11   -1    0    0    0    0  0.00000000000E+00  0.00000000000E+00  0.45593999997E+02  0.45594000000E+02  0.51100000000E-03 0. -1.
         11   -1    0    0    0    0 -0.00000000000E+00 -0.00000000000E+00 -0.45593999997E+02  0.45594000000E+02  0.51100000000E-03 0.  1.
    9900012    2    1    2    0    0 -0.24339404192E+02 -0.11775457518E+01 -0.37885619736E+02  0.46142318818E+02  0.10000009638E+02 0.  0.
         12    1    1    2    0    0  0.24339404192E+02  0.11775457518E+01  0.37885619736E+02  0.45045681182E+02  0.00000000000E+00 0. -1.
         11    1    3    3    0    0 -0.84719610991E+00 -0.15476402382E+01 -0.96003825755E+00  0.20086326873E+01  0.51100000000E-03 0. -1.
        -11    1    3    3    0    0 -0.15710541119E+02  0.26962539868E+01 -0.26395583016E+02  0.30835331859E+02  0.51100000000E-03 0.  1.
         12    1    3    3    0    0 -0.77816669627E+01 -0.23261595004E+01 -0.10529998462E+02  0.13298354272E+02  0.00000000000E+00 0. -1.
</event>
<event>
 7    1  0.3046295E-009  0.4614232E+02  0.7816164E-02  0.1320468E+00
        -11   -1    0    0    0    0  0.00000000000E+00  0.00000000000E+00  0.45593999997E+02  0.45594000000E+02  0.51100000000E-03 0.  1.
         11   -1    0    0    0    0 -0.00000000000E+00 -0.00000000000E+00 -0.45593999997E+02  0.45594000000E+02  0.51100000000E-03 0. -1.
    9900012    2    1    2    0    0  0.22430485645E+02  0.32519515340E+02  0.21644121224E+02  0.46142317102E+02  0.99999939874E+01 0.  0.
         12    1    1    2    0    0 -0.22430485645E+02 -0.32519515340E+02 -0.21644121224E+02  0.45045682898E+02  0.00000000000E+00 0. -1.
         11    1    3    3    0    0  0.50126317589E+01  0.49952489786E+01  0.29068321287E+00  0.70826186188E+01  0.51100000000E-03 0. -1.
        -11    1    3    3    0    0  0.76462179836E+01  0.14384858195E+02  0.96750516416E+01  0.18947174440E+02  0.51100000000E-03 0.  1.
         12    1    3    3    0    0  0.97716359025E+01  0.13139408167E+02  0.11678386369E+02  0.20112524043E+02  0.00000000000E+00 0. -1.
</event>
<event>
 7    1  0.3046295E-009  0.4614232E+02  0.7816164E-02  0.1320468E+00
        -11   -1    0    0    0    0  0.00000000000E+00  0.00000000000E+00  0.45593999997E+02  0.45594000000E+02  0.51100000000E-03 0. -1.
         11   -1    0    0    0    0 -0.00000000000E+00 -0.00000000000E+00 -0.45593999997E+02  0.45594000000E+02  0.51100000000E-03 0.  1.
    9900012    2    1    2    0    0  0.58626399808E+01  0.26646598745E+02 -0.35842736575E+02  0.46142317217E+02  0.99999950374E+01 0.  0.
         12    1    1    2    0    0 -0.58626399808E+01 -0.26646598745E+02  0.35842736575E+02  0.45045682783E+02  0.00000000000E+00 0. -1.
         11    1    3    3    0    0  0.40908734413E+01  0.12946653059E+02 -0.10226936605E+02  0.16998273545E+02  0.51100000000E-03 0. -1.
        -11    1    3    3    0    0  0.63372955399E+00  0.32741298651E+01 -0.75687656412E+01  0.82708979629E+01  0.51100000000E-03 0.  1.
         12    1    3    3    0    0  0.11380369855E+01  0.10425815821E+02 -0.18047034328E+02  0.20873145709E+02  0.00000000000E+00 0. -1.
</event>
<event>
 7    1  0.3046295E-009  0.4614232E+02  0.7816164E-02  0.1320468E+00
        -11   -1    0    0    0    0  0.00000000000E+00  0.00000000000E+00  0.45593999997E+02  0.45594000000E+02  0.51100000000E-03 0. -1.
         11   -1    0    0    0    0 -0.00000000000E+00 -0.00000000000E+00 -0.45593999997E+02  0.45594000000E+02  0.51100000000E-03 0.  1.
    9900012    2    1    2    0    0  0.11473495472E+02 -0.41104503991E+02 -0.14418464653E+02  0.46142317969E+02  0.10000001897E+02 0.  0.
         12    1    1    2    0    0 -0.11473495472E+02  0.41104503991E+02  0.14418464653E+02  0.45045682031E+02  0.00000000000E+00 0. -1.
         11    1    3    3    0    0 -0.16845881839E+01 -0.61517195723E+01 -0.15942290583E+01  0.65744245069E+01  0.51100000000E-03 0. -1.
        -11    1    3    3    0    0  0.84301550158E+01 -0.25424144672E+02 -0.95812163307E+01  0.28447396235E+02  0.51100000000E-03 0.  1.
         12    1    3    3    0    0  0.47279286400E+01 -0.95286397461E+01 -0.32430192641E+01  0.11120497227E+02  0.00000000000E+00 0. -1.
</event>
<event>
 7    1  0.3046295E-009  0.4614232E+02  0.7816164E-02  0.1320468E+00
        -11   -1    0    0    0    0  0.00000000000E+00  0.00000000000E+00  0.45593999997E+02  0.45594000000E+02  0.51100000000E-03 0.  1.
         11   -1    0    0    0    0 -0.00000000000E+00 -0.00000000000E+00 -0.45593999997E+02  0.45594000000E+02  0.51100000000E-03 0. -1.
    9900012    2    1    2    0    0  0.23521948403E+02  0.25231030737E+02  0.28969405995E+02  0.46142318160E+02  0.10000003636E+02 0.  0.
         12    1    1    2    0    0 -0.23521948403E+02 -0.25231030737E+02 -0.28969405995E+02  0.45045681840E+02  0.00000000000E+00 0. -1.
         11    1    3    3    0    0  0.15932776914E+01  0.56854932064E+01  0.30117167397E+01  0.66282580504E+01  0.51100000000E-03 0. -1.
        -11    1    3    3    0    0  0.73512714110E+01  0.96635907060E+01  0.96078684520E+01  0.15483452882E+02  0.51100000000E-03 0.  1.
         12    1    3    3    0    0  0.14577399301E+02  0.98819468248E+01  0.16349820803E+02  0.24030607228E+02  0.00000000000E+00 0. -1.
</event>
<event>
 7    1  0.3046295E-009  0.4614232E+02  0.7816164E-02  0.1320468E+00
        -11   -1    0    0    0    0  0.00000000000E+00  0.00000000000E+00  0.45593999997E+02  0.45594000000E+02  0.51100000000E-03 0. -1.
         11   -1    0    0    0    0 -0.00000000000E+00 -0.00000000000E+00 -0.45593999997E+02  0.45594000000E+02  0.51100000000E-03 0.  1.
    9900012    2    1    2    0    0 -0.44498385232E+02  0.10962361407E+01  0.69141466422E+01  0.46142318234E+02  0.10000004315E+02 0.  0.
         12    1    1    2    0    0  0.44498385232E+02 -0.10962361407E+01 -0.69141466422E+01  0.45045681766E+02  0.00000000000E+00 0. -1.
         11    1    3    3    0    0 -0.25525559656E+01  0.11226458102E+01  0.42223557872E+00  0.28203118122E+01  0.51100000000E-03 0. -1.
        -11    1    3    3    0    0 -0.57285218508E+01  0.46603423326E+00 -0.20599910744E+01  0.61054659109E+01  0.51100000000E-03 0.  1.
        -12    1    3    3    0    0 -0.36217307416E+02 -0.49244390271E+00  0.85519021380E+01  0.37216540511E+02  0.00000000000E+00 0.  1.
</event>
<event>
 7    1  0.3046295E-009  0.4614233E+02  0.7816164E-02  0.1320468E+00
        -11   -1    0    0    0    0  0.00000000000E+00  0.00000000000E+00  0.45593999997E+02  0.45594000000E+02  0.51100000000E-03 0.  1.
         11   -1    0    0    0    0 -0.00000000000E+00 -0.00000000000E+00 -0.45593999997E+02  0.45594000000E+02  0.51100000000E-03 0. -1.
    9900012    2    1    2    0    0  0.28997185533E+02  0.60597972617E+01  0.33934558554E+02  0.46142332329E+02  0.10000132838E+02 0.  0.
         12    1    1    2    0    0 -0.28997185533E+02 -0.60597972617E+01 -0.33934558554E+02  0.45045667671E+02  0.00000000000E+00 0. -1.
         11    1    3    3    0    0  0.93731377516E+00  0.51345687269E+00  0.42886936672E+01  0.44198516610E+01  0.51100000000E-03 0. -1.
        -11    1    3    3    0    0  0.95292208723E+01  0.18102198043E+01  0.14758266515E+02  0.17660390057E+02  0.51100000000E-03 0.  1.
         12    1    3    3    0    0  0.18530650886E+02  0.37361205847E+01  0.14887598371E+02  0.24062090610E+02  0.00000000000E+00 0. -1.
</event>
<event>
 7    1  0.3046295E-009  0.4614232E+02  0.7816164E-02  0.1320468E+00
        -11   -1    0    0    0    0  0.00000000000E+00  0.00000000000E+00  0.45593999997E+02  0.45594000000E+02  0.51100000000E-03 0.  1.
         11   -1    0    0    0    0 -0.00000000000E+00 -0.00000000000E+00 -0.45593999997E+02  0.45594000000E+02  0.51100000000E-03 0. -1.
    9900012    2    1    2    0    0  0.55781017264E+01 -0.14751256661E+02  0.42194769728E+02  0.46142318916E+02  0.10000010528E+02 0.  0.
         12    1    1    2    0    0 -0.55781017264E+01  0.14751256661E+02 -0.42194769728E+02  0.45045681084E+02  0.00000000000E+00 0. -1.
         11    1    3    3    0    0 -0.10762545336E+00 -0.76620478013E+01  0.13401970354E+02  0.15437984628E+02  0.51100000000E-03 0. -1.
        -11    1    3    3    0    0  0.44818051222E+01 -0.26872300661E+01  0.21295568338E+02  0.21927357654E+02  0.51100000000E-03 0.  1.
        -12    1    3    3    0    0  0.12039220575E+01 -0.44019787937E+01  0.74972310362E+01  0.87769766338E+01  0.00000000000E+00 0.  1.
</event>
<event>
 7    1  0.3046295E-009  0.4614233E+02  0.7816164E-02  0.1320468E+00
        -11   -1    0    0    0    0  0.00000000000E+00  0.00000000000E+00  0.45593999997E+02  0.45594000000E+02  0.51100000000E-03 0.  1.
         11   -1    0    0    0    0 -0.00000000000E+00 -0.00000000000E+00 -0.45593999997E+02  0.45594000000E+02  0.51100000000E-03 0. -1.
    9900012    2    1    2    0    0  0.34152538094E+02  0.13046115599E+00  0.29371741411E+02  0.46142333484E+02  0.10000143373E+02 0.  0.
         12    1    1    2    0    0 -0.34152538094E+02 -0.13046115599E+00 -0.29371741411E+02  0.45045666516E+02  0.00000000000E+00 0. -1.
         11    1    3    3    0    0  0.27379971483E+01  0.17932526591E+01  0.38256065579E+01  0.50346449011E+01  0.51100000000E-03 0. -1.
        -11    1    3    3    0    0  0.27528267460E+02 -0.37492604429E+01  0.22437285044E+02  0.35711261860E+02  0.51100000000E-03 0.  1.
        -12    1    3    3    0    0  0.38862734855E+01  0.20864689398E+01  0.31088498087E+01  0.53964267227E+01  0.00000000000E+00 0.  1.
</event>
<event>
 7    1  0.3046295E-009  0.4614232E+02  0.7816164E-02  0.1320468E+00
        -11   -1    0    0    0    0  0.00000000000E+00  0.00000000000E+00  0.45593999997E+02  0.45594000000E+02  0.51100000000E-03 0.  1.
         11   -1    0    0    0    0 -0.00000000000E+00 -0.00000000000E+00 -0.45593999997E+02  0.45594000000E+02  0.51100000000E-03 0. -1.
    9900012    2    1    2    0    0  0.84750768124E+01  0.31743045420E+02  0.30816646159E+02  0.46142317188E+02  0.99999947728E+01 0.  0.
         12    1    1    2    0    0 -0.84750768124E+01 -0.31743045420E+02 -0.30816646159E+02  0.45045682812E+02  0.00000000000E+00 0. -1.
         11    1    3    3    0    0  0.83382324006E+01  0.12763203839E+02  0.14832047534E+02  0.21270052330E+02  0.51100000000E-03 0. -1.
        -11    1    3    3    0    0  0.85093862762E+00  0.78597352554E+01  0.63007557614E+01  0.10109354987E+02  0.51100000000E-03 0.  1.
         12    1    3    3    0    0 -0.71409421578E+00  0.11120106326E+02  0.96838428636E+01  0.14762909871E+02  0.00000000000E+00 0. -1.
</event>
<event>
 7    1  0.3046295E-009  0.4614232E+02  0.7816164E-02  0.1320468E+00
        -11   -1    0    0    0    0  0.00000000000E+00  0.00000000000E+00  0.45593999997E+02  0.45594000000E+02  0.51100000000E-03 0.  1.
         11   -1    0    0    0    0 -0.00000000000E+00 -0.00000000000E+00 -0.45593999997E+02  0.45594000000E+02  0.51100000000E-03 0. -1.
    9900012    2    1    2    0    0 -0.97330523038E+00 -0.63484678640E+00  0.45030690092E+02  0.46142318702E+02  0.10000008576E+02 0.  0.
         12    1    1    2    0    0  0.97330523038E+00  0.63484678640E+00 -0.45030690092E+02  0.45045681298E+02  0.00000000000E+00 0. -1.
         11    1    3    3    0    0 -0.27484916653E+01 -0.20835329454E+01  0.15490258749E+02  0.15869575682E+02  0.51100000000E-03 0. -1.
        -11    1    3    3    0    0 -0.23294363533E+01  0.73457109308E+00  0.11711777669E+02  0.11963762153E+02  0.51100000000E-03 0.  1.
         12    1    3    3    0    0  0.41046227882E+01  0.71411506588E+00  0.17828653674E+02  0.18308980867E+02  0.00000000000E+00 0. -1.
</event>
<event>
 7    1  0.3046295E-009  0.4614232E+02  0.7816164E-02  0.1320468E+00
        -11   -1    0    0    0    0  0.00000000000E+00  0.00000000000E+00  0.45593999997E+02  0.45594000000E+02  0.51100000000E-03 0. -1.
         11   -1    0    0    0    0 -0.00000000000E+00 -0.00000000000E+00 -0.45593999997E+02  0.45594000000E+02  0.51100000000E-03 0.  1.
    9900012    2    1    2    0    0 -0.35553921815E+02 -0.25826866599E+02 -0.98997586808E+01  0.46142316337E+02  0.99999870124E+01 0.  0.
         12    1    1    2    0    0  0.35553921815E+02  0.25826866599E+02  0.98997586808E+01  0.45045683663E+02  0.00000000000E+00 0. -1.
         11    1    3    3    0    0 -0.33009741026E+01 -0.53287416406E+01  0.15140361029E+00  0.62701547678E+01  0.51100000000E-03 0. -1.
        -11    1    3    3    0    0 -0.23708551213E+02 -0.15507194835E+02 -0.50187566231E+01  0.28770756169E+02  0.51100000000E-03 0.  1.
        -12    1    3    3    0    0 -0.85443964995E+01 -0.49909301236E+01 -0.50324056680E+01  0.11101405400E+02  0.00000000000E+00 0.  1.
</event>
<event>
 7    1  0.3046295E-009  0.4614232E+02  0.7816164E-02  0.1320468E+00
        -11   -1    0    0    0    0  0.00000000000E+00  0.00000000000E+00  0.45593999997E+02  0.45594000000E+02  0.51100000000E-03 0. -1.
         11   -1    0    0    0    0 -0.00000000000E+00 -0.00000000000E+00 -0.45593999997E+02  0.45594000000E+02  0.51100000000E-03 0.  1.
    9900012    2    1    2    0    0  0.95955877729E+01  0.34545561078E+02 -0.27269808618E+02  0.46142317000E+02  0.99999930576E+01 0.  0.
         12    1    1    2    0    0 -0.95955877729E+01 -0.34545561078E+02  0.27269808618E+02  0.45045683000E+02  0.00000000000E+00 0. -1.
         11    1    3    3    0    0  0.36128669322E+01  0.61013591236E+01 -0.18377335820E+01  0.73250703481E+01  0.51100000000E-03 0. -1.
        -11    1    3    3    0    0  0.45876411138E+01  0.21780214553E+02 -0.17168538163E+02  0.28110192100E+02  0.51100000000E-03 0.  1.
         12    1    3    3    0    0  0.13950797269E+01  0.66639874010E+01 -0.82635368726E+01  0.10707054552E+02  0.00000000000E+00 0. -1.
</event>
<event>
 7    1  0.3046295E-009  0.4614232E+02  0.7816164E-02  0.1320468E+00
        -11   -1    0    0    0    0  0.00000000000E+00  0.00000000000E+00  0.45593999997E+02  0.45594000000E+02  0.51100000000E-03 0.  1.
         11   -1    0    0    0    0 -0.00000000000E+00 -0.00000000000E+00 -0.45593999997E+02  0.45594000000E+02  0.51100000000E-03 0. -1.
    9900012    2    1    2    0    0  0.26123484283E+02  0.14373084556E+02  0.33765241134E+02  0.46142317637E+02  0.99999988699E+01 0.  0.
         12    1    1    2    0    0 -0.26123484283E+02 -0.14373084556E+02 -0.33765241134E+02  0.45045682363E+02  0.00000000000E+00 0. -1.
         11    1    3    3    0    0  0.17080976803E+01  0.15488594640E+01  0.10337132204E+01  0.25268808060E+01  0.51100000000E-03 0. -1.
        -11    1    3    3    0    0  0.23555241566E+02  0.13972002022E+02  0.31267778284E+02  0.41566094414E+02  0.51100000000E-03 0.  1.
        -12    1    3    3    0    0  0.86014503613E+00 -0.11477769305E+01  0.14637496293E+01  0.20493424171E+01  0.00000000000E+00 0.  1.
</event>
<event>
 7    1  0.3046295E-009  0.4614232E+02  0.7816164E-02  0.1320468E+00
        -11   -1    0    0    0    0  0.00000000000E+00  0.00000000000E+00  0.45593999997E+02  0.45594000000E+02  0.51100000000E-03 0.  1.
         11   -1    0    0    0    0 -0.00000000000E+00 -0.00000000000E+00 -0.45593999997E+02  0.45594000000E+02  0.51100000000E-03 0. -1.
    9900012    2    1    2    0    0 -0.25051387845E+02 -0.25992298797E+02 -0.26943309115E+02  0.46142317235E+02  0.99999952005E+01 0.  0.
         12    1    1    2    0    0  0.25051387845E+02  0.25992298797E+02  0.26943309115E+02  0.45045682765E+02  0.00000000000E+00 0. -1.
         11    1    3    3    0    0 -0.96985748836E+01 -0.16379861160E+02 -0.13928274338E+02  0.23587264205E+02  0.51100000000E-03 0. -1.
        -11    1    3    3    0    0 -0.10385632782E+02 -0.45991823690E+01 -0.77602836511E+01  0.13756302169E+02  0.51100000000E-03 0.  1.
        -12    1    3    3    0    0 -0.49671801790E+01 -0.50132552681E+01 -0.52547511263E+01  0.87987508610E+01  0.00000000000E+00 0.  1.
</event>
<event>
 7    1  0.3046295E-009  0.4614232E+02  0.7816164E-02  0.1320468E+00
        -11   -1    0    0    0    0  0.00000000000E+00  0.00000000000E+00  0.45593999997E+02  0.45594000000E+02  0.51100000000E-03 0.  1.
         11   -1    0    0    0    0 -0.00000000000E+00 -0.00000000000E+00 -0.45593999997E+02  0.45594000000E+02  0.51100000000E-03 0. -1.
    9900012    2    1    2    0    0  0.21245664497E+02 -0.13979388252E+02  0.37179456266E+02  0.46142317365E+02  0.99999963912E+01 0.  0.
         12    1    1    2    0    0 -0.21245664497E+02  0.13979388252E+02 -0.37179456266E+02  0.45045682635E+02  0.00000000000E+00 0. -1.
         11    1    3    3    0    0  0.84417655669E+01 -0.90344802789E+01  0.19229484060E+02  0.22861721223E+02  0.51100000000E-03 0. -1.
        -11    1    3    3    0    0  0.10970507410E+02 -0.23441862396E+01  0.16025855387E+02  0.19562087903E+02  0.51100000000E-03 0.  1.
        -12    1    3    3    0    0  0.18333915193E+01 -0.26007217331E+01  0.19241168189E+01  0.37185082397E+01  0.00000000000E+00 0.  1.
</event>
<event>
 7    1  0.3046295E-009  0.4614232E+02  0.7816164E-02  0.1320468E+00
        -11   -1    0    0    0    0  0.00000000000E+00  0.00000000000E+00  0.45593999997E+02  0.45594000000E+02  0.51100000000E-03 0.  1.
         11   -1    0    0    0    0 -0.00000000000E+00 -0.00000000000E+00 -0.45593999997E+02  0.45594000000E+02  0.51100000000E-03 0. -1.
    9900012    2    1    2    0    0  0.16398079895E+02 -0.22433845550E+02  0.35453336251E+02  0.46142317613E+02  0.99999986480E+01 0.  0.
         12    1    1    2    0    0 -0.16398079895E+02  0.22433845550E+02 -0.35453336251E+02  0.45045682387E+02  0.00000000000E+00 0. -1.
         11    1    3    3    0    0  0.10480915744E+02 -0.89451696843E+01  0.18726460242E+02  0.23249644491E+02  0.51100000000E-03 0. -1.
        -11    1    3    3    0    0  0.48667435868E+01 -0.71601494332E+01  0.65233893389E+01  0.10840089565E+02  0.51100000000E-03 0.  1.
        -12    1    3    3    0    0  0.10504205644E+01 -0.63285264325E+01  0.10203486670E+02  0.12052583557E+02  0.00000000000E+00 0.  1.
</event>
<event>
 7    1  0.3046295E-009  0.4614232E+02  0.7816164E-02  0.1320468E+00
        -11   -1    0    0    0    0  0.00000000000E+00  0.00000000000E+00  0.45593999997E+02  0.45594000000E+02  0.51100000000E-03 0.  1.
         11   -1    0    0    0    0 -0.00000000000E+00 -0.00000000000E+00 -0.45593999997E+02  0.45594000000E+02  0.51100000000E-03 0. -1.
    9900012    2    1    2    0    0 -0.43362308903E+02 -0.99908509656E+01  0.70004656216E+01  0.46142318128E+02  0.10000003347E+02 0.  0.
         12    1    1    2    0    0  0.43362308903E+02  0.99908509656E+01 -0.70004656216E+01  0.45045681872E+02  0.00000000000E+00 0. -1.
         11    1    3    3    0    0 -0.38392761464E+02 -0.94219481119E+01  0.78328167143E+01  0.40300499464E+02  0.51100000000E-03 0. -1.
        -11    1    3    3    0    0 -0.24901582086E+01 -0.10639178254E+01  0.81052345873E+00  0.28266159239E+01  0.51100000000E-03 0.  1.
         12    1    3    3    0    0 -0.24793892298E+01  0.49501497177E+00 -0.16428745514E+01  0.30152027406E+01  0.00000000000E+00 0. -1.
</event>
<event>
 7    1  0.3046295E-009  0.4614232E+02  0.7816164E-02  0.1320468E+00
        -11   -1    0    0    0    0  0.00000000000E+00  0.00000000000E+00  0.45593999997E+02  0.45594000000E+02  0.51100000000E-03 0.  1.
         11   -1    0    0    0    0 -0.00000000000E+00 -0.00000000000E+00 -0.45593999997E+02  0.45594000000E+02  0.51100000000E-03 0. -1.
    9900012    2    1    2    0    0  0.16164951976E+02  0.44897016912E+01  0.41804908829E+02  0.46142317678E+02  0.99999992382E+01 0.  0.
         12    1    1    2    0    0 -0.16164951976E+02 -0.44897016912E+01 -0.41804908829E+02  0.45045682322E+02  0.00000000000E+00 0. -1.
         11    1    3    3    0    0 -0.45573406822E+00  0.54463425357E+00  0.36139545885E+01  0.36830677485E+01  0.51100000000E-03 0. -1.
        -11    1    3    3    0    0  0.17185214098E+02  0.44336420498E+01  0.37215806496E+02  0.41231117119E+02  0.51100000000E-03 0.  1.
         12    1    3    3    0    0 -0.56452805436E+00 -0.48857461220E+00  0.97514774474E+00  0.12281328104E+01  0.00000000000E+00 0. -1.
</event>
<event>
 7    1  0.3046295E-009  0.4614232E+02  0.7816164E-02  0.1320468E+00
        -11   -1    0    0    0    0  0.00000000000E+00  0.00000000000E+00  0.45593999997E+02  0.45594000000E+02  0.51100000000E-03 0.  1.
         11   -1    0    0    0    0 -0.00000000000E+00 -0.00000000000E+00 -0.45593999997E+02  0.45594000000E+02  0.51100000000E-03 0. -1.
    9900012    2    1    2    0    0 -0.30292479009E+02 -0.28849909515E+02  0.16708138989E+02  0.46142317943E+02  0.10000001655E+02 0.  0.
         12    1    1    2    0    0  0.30292479009E+02  0.28849909515E+02 -0.16708138989E+02  0.45045682057E+02  0.00000000000E+00 0. -1.
         11    1    3    3    0    0 -0.18368589009E+02 -0.15889874583E+02  0.11796442607E+02  0.27000911742E+02  0.51100000000E-03 0. -1.
        -11    1    3    3    0    0 -0.12226617480E+02 -0.12676619175E+02  0.38869652740E+01  0.18035945997E+02  0.51100000000E-03 0.  1.
         12    1    3    3    0    0  0.30272747995E+00 -0.28341575731E+00  0.10247311078E+01  0.11054602037E+01  0.00000000000E+00 0. -1.
</event>
<event>
 7    1  0.3046295E-009  0.4614232E+02  0.7816164E-02  0.1320468E+00
        -11   -1    0    0    0    0  0.00000000000E+00  0.00000000000E+00  0.45593999997E+02  0.45594000000E+02  0.51100000000E-03 0.  1.
         11   -1    0    0    0    0 -0.00000000000E+00 -0.00000000000E+00 -0.45593999997E+02  0.45594000000E+02  0.51100000000E-03 0. -1.
    9900012    2    1    2    0    0 -0.20459152889E+01  0.17543441645E+02  0.41438573091E+02  0.46142318143E+02  0.10000003486E+02 0.  0.
         12    1    1    2    0    0  0.20459152889E+01 -0.17543441645E+02 -0.41438573091E+02  0.45045681857E+02  0.00000000000E+00 0. -1.
         11    1    3    3    0    0 -0.45931713979E-01  0.55525879415E+01  0.20015750775E+02  0.20771702432E+02  0.51100000000E-03 0. -1.
        -11    1    3    3    0    0 -0.27436013292E+01  0.63921257591E+01  0.69422411043E+01  0.98275801591E+01  0.51100000000E-03 0.  1.
        -12    1    3    3    0    0  0.74361775422E+00  0.55987279449E+01  0.14480581212E+02  0.15543035553E+02  0.00000000000E+00 0.  1.
</event>
<event>
 7    1  0.3046295E-009  0.4614232E+02  0.7816164E-02  0.1320468E+00
        -11   -1    0    0    0    0  0.00000000000E+00  0.00000000000E+00  0.45593999997E+02  0.45594000000E+02  0.51100000000E-03 0. -1.
         11   -1    0    0    0    0 -0.00000000000E+00 -0.00000000000E+00 -0.45593999997E+02  0.45594000000E+02  0.51100000000E-03 0.  1.
    9900012    2    1    2    0    0  0.43985444620E+02  0.84760647385E+01  0.47487319651E+01  0.46142317997E+02  0.10000002151E+02 0.  0.
         12    1    1    2    0    0 -0.43985444620E+02 -0.84760647385E+01 -0.47487319651E+01  0.45045682003E+02  0.00000000000E+00 0. -1.
         11    1    3    3    0    0  0.38113458959E+01  0.19890956133E+01 -0.18735411442E+01  0.46896711587E+01  0.51100000000E-03 0. -1.
        -11    1    3    3    0    0  0.23484366992E+02  0.44910317764E+01  0.59069227972E+01  0.24628775785E+02  0.51100000000E-03 0.  1.
        -12    1    3    3    0    0  0.16689731731E+02  0.19959373489E+01  0.71535031221E+00  0.16823871054E+02  0.00000000000E+00 0.  1.
</event>
<event>
 7    1  0.3046295E-009  0.4614232E+02  0.7816164E-02  0.1320468E+00
        -11   -1    0    0    0    0  0.00000000000E+00  0.00000000000E+00  0.45593999997E+02  0.45594000000E+02  0.51100000000E-03 0.  1.
         11   -1    0    0    0    0 -0.00000000000E+00 -0.00000000000E+00 -0.45593999997E+02  0.45594000000E+02  0.51100000000E-03 0. -1.
    9900012    2    1    2    0    0 -0.71464452309E+01  0.23031350575E+02  0.38047320845E+02  0.46142318606E+02  0.10000007709E+02 0.  0.
         12    1    1    2    0    0  0.71464452309E+01 -0.23031350575E+02 -0.38047320845E+02  0.45045681394E+02  0.00000000000E+00 0. -1.
         11    1    3    3    0    0 -0.50028146151E+01  0.77657053119E+01  0.20953330921E+02  0.22899266583E+02  0.51100000000E-03 0.  1.
        -11    1    3    3    0    0  0.37444245397E+00  0.55408332381E+01  0.76667229840E+01  0.94667672253E+01  0.51100000000E-03 0. -1.
        -12    1    3    3    0    0 -0.25180730698E+01  0.97248120245E+01  0.94272669396E+01  0.13776284798E+02  0.00000000000E+00 0.  1.
</event>
<event>
 7    1  0.3046295E-009  0.4614232E+02  0.7816164E-02  0.1320468E+00
        -11   -1    0    0    0    0  0.00000000000E+00  0.00000000000E+00  0.45593999997E+02  0.45594000000E+02  0.51100000000E-03 0.  1.
         11   -1    0    0    0    0 -0.00000000000E+00 -0.00000000000E+00 -0.45593999997E+02  0.45594000000E+02  0.51100000000E-03 0. -1.
    9900012    2    1    2    0    0  0.11307406056E+01  0.31490140602E+02  0.32190152549E+02  0.46142318180E+02  0.10000003823E+02 0.  0.
         12    1    1    2    0    0 -0.11307406056E+01 -0.31490140602E+02 -0.32190152549E+02  0.45045681820E+02  0.00000000000E+00 0. -1.
         11    1    3    3    0    0  0.20308141700E+01  0.82855980178E+01  0.54903247887E+01  0.10144900554E+02  0.51100000000E-03 0. -1.
        -11    1    3    3    0    0 -0.49065801814E+00  0.43814053570E+01  0.95981738542E+01  0.10562310343E+02  0.51100000000E-03 0.  1.
        -12    1    3    3    0    0 -0.40941554627E+00  0.18823137227E+02  0.17101653906E+02  0.25435107283E+02  0.00000000000E+00 0.  1.
</event>
<event>
 7    1  0.3046295E-009  0.4614232E+02  0.7816164E-02  0.1320468E+00
        -11   -1    0    0    0    0  0.00000000000E+00  0.00000000000E+00  0.45593999997E+02  0.45594000000E+02  0.51100000000E-03 0. -1.
         11   -1    0    0    0    0 -0.00000000000E+00 -0.00000000000E+00 -0.45593999997E+02  0.45594000000E+02  0.51100000000E-03 0.  1.
    9900012    2    1    2    0    0  0.43722525846E+02 -0.82399624126E+01  0.70396892423E+01  0.46142317948E+02  0.10000001701E+02 0.  0.
         12    1    1    2    0    0 -0.43722525846E+02  0.82399624126E+01 -0.70396892423E+01  0.45045682052E+02  0.00000000000E+00 0. -1.
         11    1    3    3    0    0  0.30683613008E+01 -0.16830819092E+01  0.87618762821E+00  0.36076738775E+01  0.51100000000E-03 0. -1.
        -11    1    3    3    0    0  0.62203901264E+01 -0.60969413409E+00  0.42112885527E+01  0.75365729478E+01  0.51100000000E-03 0.  1.
        -12    1    3    3    0    0  0.34433774419E+02 -0.59471863693E+01  0.19522130614E+01  0.34998071122E+02  0.00000000000E+00 0.  1.
</event>
<event>
 7    1  0.3046295E-009  0.4614232E+02  0.7816164E-02  0.1320468E+00
        -11   -1    0    0    0    0  0.00000000000E+00  0.00000000000E+00  0.45593999997E+02  0.45594000000E+02  0.51100000000E-03 0.  1.
         11   -1    0    0    0    0 -0.00000000000E+00 -0.00000000000E+00 -0.45593999997E+02  0.45594000000E+02  0.51100000000E-03 0. -1.
    9900012    2    1    2    0    0 -0.15802974165E+02 -0.12651417903E+02  0.40240789592E+02  0.46142317472E+02  0.99999973603E+01 0.  0.
         12    1    1    2    0    0  0.15802974165E+02  0.12651417903E+02 -0.40240789592E+02  0.45045682528E+02  0.00000000000E+00 0. -1.
         11    1    3    3    0    0 -0.47004171594E+01 -0.59301205336E+01  0.16685518535E+02  0.18321211206E+02  0.51100000000E-03 0. -1.
        -11    1    3    3    0    0 -0.33027390390E+01 -0.22673703350E+01  0.20174033699E+01  0.44854174849E+01  0.51100000000E-03 0.  1.
        -12    1    3    3    0    0 -0.77998179671E+01 -0.44539270348E+01  0.21537867687E+02  0.23335688781E+02  0.00000000000E+00 0.  1.
</event>
<event>
 7    1  0.3046295E-009  0.4614232E+02  0.7816164E-02  0.1320468E+00
        -11   -1    0    0    0    0  0.00000000000E+00  0.00000000000E+00  0.45593999997E+02  0.45594000000E+02  0.51100000000E-03 0. -1.
         11   -1    0    0    0    0 -0.00000000000E+00 -0.00000000000E+00 -0.45593999997E+02  0.45594000000E+02  0.51100000000E-03 0.  1.
    9900012    2    1    2    0    0 -0.13346786826E+02  0.18764094955E+01 -0.42982040928E+02  0.46142317926E+02  0.10000001503E+02 0.  0.
         12    1    1    2    0    0  0.13346786826E+02 -0.18764094955E+01  0.42982040928E+02  0.45045682074E+02  0.00000000000E+00 0. -1.
         11    1    3    3    0    0 -0.23325323150E+01  0.19270903027E+01 -0.21069065187E+02  0.21285203597E+02  0.51100000000E-03 0. -1.
        -11    1    3    3    0    0 -0.21451595737E+01  0.10097109239E+01 -0.78232123835E+01  0.81745873293E+01  0.51100000000E-03 0.  1.
         12    1    3    3    0    0 -0.88690949374E+01 -0.10603917311E+01 -0.14089763358E+02  0.16682527000E+02  0.00000000000E+00 0. -1.
</event>
<event>
 7    1  0.3046295E-009  0.4614232E+02  0.7816164E-02  0.1320468E+00
        -11   -1    0    0    0    0  0.00000000000E+00  0.00000000000E+00  0.45593999997E+02  0.45594000000E+02  0.51100000000E-03 0. -1.
         11   -1    0    0    0    0 -0.00000000000E+00 -0.00000000000E+00 -0.45593999997E+02  0.45594000000E+02  0.51100000000E-03 0.  1.
    9900012    2    1    2    0    0  0.35165085991E+02  0.23730004326E+02 -0.15146522058E+02  0.46142317538E+02  0.99999979623E+01 0.  0.
         12    1    1    2    0    0 -0.35165085991E+02 -0.23730004326E+02  0.15146522058E+02  0.45045682462E+02  0.00000000000E+00 0. -1.
         11    1    3    3    0    0  0.27476670458E+01  0.25283138858E+01  0.76674499467E-01  0.37346920274E+01  0.51100000000E-03 0. -1.
        -11    1    3    3    0    0  0.20128181080E+02  0.17231541203E+02 -0.83691662058E+01  0.27786914709E+02  0.51100000000E-03 0.  1.
        -12    1    3    3    0    0  0.12289237865E+02  0.39701492374E+01 -0.68540303514E+01  0.14620710801E+02  0.00000000000E+00 0.  1.
</event>
<event>
 7    1  0.3046295E-009  0.4614232E+02  0.7816164E-02  0.1320468E+00
        -11   -1    0    0    0    0  0.00000000000E+00  0.00000000000E+00  0.45593999997E+02  0.45594000000E+02  0.51100000000E-03 0.  1.
         11   -1    0    0    0    0 -0.00000000000E+00 -0.00000000000E+00 -0.45593999997E+02  0.45594000000E+02  0.51100000000E-03 0. -1.
    9900012    2    1    2    0    0 -0.16233592737E+02 -0.32358710903E+02  0.26804808396E+02  0.46142318103E+02  0.10000003117E+02 0.  0.
         12    1    1    2    0    0  0.16233592737E+02  0.32358710903E+02 -0.26804808396E+02  0.45045681897E+02  0.00000000000E+00 0. -1.
         11    1    3    3    0    0 -0.41654657829E+01 -0.11436857532E+02  0.12925165752E+02  0.17754231196E+02  0.51100000000E-03 0. -1.
        -11    1    3    3    0    0 -0.37525869612E+00 -0.43483528400E+01  0.14482795046E+01  0.45985329503E+01  0.51100000000E-03 0.  1.
        -12    1    3    3    0    0 -0.11692868258E+02 -0.16573500531E+02  0.12431363139E+02  0.23789553956E+02  0.00000000000E+00 0.  1.
</event>
<event>
 7    1  0.3046295E-009  0.4614232E+02  0.7816164E-02  0.1320468E+00
        -11   -1    0    0    0    0  0.00000000000E+00  0.00000000000E+00  0.45593999997E+02  0.45594000000E+02  0.51100000000E-03 0.  1.
         11   -1    0    0    0    0 -0.00000000000E+00 -0.00000000000E+00 -0.45593999997E+02  0.45594000000E+02  0.51100000000E-03 0. -1.
    9900012    2    1    2    0    0  0.17951402031E+02 -0.36710664427E+01  0.41150745792E+02  0.46142318265E+02  0.10000004597E+02 0.  0.
         12    1    1    2    0    0 -0.17951402031E+02  0.36710664427E+01 -0.41150745792E+02  0.45045681735E+02  0.00000000000E+00 0. -1.
         11    1    3    3    0    0 -0.21051796505E-01 -0.40386454730E+00  0.67957362374E+01  0.68077588838E+01  0.51100000000E-03 0. -1.
        -11    1    3    3    0    0  0.12106914211E+02  0.38705746175E+00  0.19593331494E+02  0.23035316896E+02  0.51100000000E-03 0.  1.
        -12    1    3    3    0    0  0.58655396170E+01 -0.36542593571E+01  0.14761678060E+02  0.16299242486E+02  0.00000000000E+00 0.  1.
</event>
<event>
 7    1  0.3046295E-009  0.4614232E+02  0.7816164E-02  0.1320468E+00
        -11   -1    0    0    0    0  0.00000000000E+00  0.00000000000E+00  0.45593999997E+02  0.45594000000E+02  0.51100000000E-03 0.  1.
         11   -1    0    0    0    0 -0.00000000000E+00 -0.00000000000E+00 -0.45593999997E+02  0.45594000000E+02  0.51100000000E-03 0. -1.
    9900012    2    1    2    0    0 -0.57944016152E+01  0.99371165625E+01  0.43552176150E+02  0.46142318486E+02  0.10000006613E+02 0.  0.
         12    1    1    2    0    0  0.57944016152E+01 -0.99371165625E+01 -0.43552176150E+02  0.45045681514E+02  0.00000000000E+00 0. -1.
         11    1    3    3    0    0  0.15182779218E+01  0.21102117925E+01  0.76600732279E+01  0.80891831340E+01  0.51100000000E-03 0. -1.
        -11    1    3    3    0    0 -0.40095794578E+01 -0.12818837071E+00  0.12309733161E+02  0.12946918183E+02  0.51100000000E-03 0.  1.
         12    1    3    3    0    0 -0.33031000792E+01  0.79550931408E+01  0.23582369761E+02  0.25106217169E+02  0.00000000000E+00 0. -1.
</event>
<event>
 7    1  0.3046295E-009  0.4614231E+02  0.7816164E-02  0.1320468E+00
        -11   -1    0    0    0    0  0.00000000000E+00  0.00000000000E+00  0.45593999997E+02  0.45594000000E+02  0.51100000000E-03 0. -1.
         11   -1    0    0    0    0 -0.00000000000E+00 -0.00000000000E+00 -0.45593999997E+02  0.45594000000E+02  0.51100000000E-03 0.  1.
    9900012    2    1    2    0    0  0.49651801590E+00  0.19678672083E+02 -0.40516874030E+02  0.46142314899E+02  0.99999738982E+01 0.  0.
         12    1    1    2    0    0 -0.49651801590E+00 -0.19678672083E+02  0.40516874030E+02  0.45045685101E+02  0.00000000000E+00 0. -1.
         11    1    3    3    0    0 -0.90306676585E+00  0.56267654236E+01 -0.14254380895E+02  0.15351331984E+02  0.51100000000E-03 0. -1.
        -11    1    3    3    0    0  0.45142756183E+01  0.65951548597E+01 -0.13178202456E+02  0.15412325335E+02  0.51100000000E-03 0.  1.
        -12    1    3    3    0    0 -0.31146908365E+01  0.74567517992E+01 -0.13084290679E+02  0.15378657580E+02  0.00000000000E+00 0.  1.
</event>
<event>
 7    1  0.3046295E-009  0.4614232E+02  0.7816164E-02  0.1320468E+00
        -11   -1    0    0    0    0  0.00000000000E+00  0.00000000000E+00  0.45593999997E+02  0.45594000000E+02  0.51100000000E-03 0.  1.
         11   -1    0    0    0    0 -0.00000000000E+00 -0.00000000000E+00 -0.45593999997E+02  0.45594000000E+02  0.51100000000E-03 0. -1.
    9900012    2    1    2    0    0 -0.31115136501E+02 -0.17494509309E+02  0.27475515133E+02  0.46142317552E+02  0.99999980894E+01 0.  0.
         12    1    1    2    0    0  0.31115136501E+02  0.17494509309E+02 -0.27475515133E+02  0.45045682448E+02  0.00000000000E+00 0. -1.
         11    1    3    3    0    0 -0.36093384319E+01 -0.14022679196E+01  0.31092271879E+01  0.49659815950E+01  0.51100000000E-03 0. -1.
        -11    1    3    3    0    0 -0.94351818690E+01 -0.41549404883E+01  0.29620980468E+01  0.10726612348E+02  0.51100000000E-03 0.  1.
        -12    1    3    3    0    0 -0.18070616200E+02 -0.11937300901E+02  0.21404189898E+02  0.30449723609E+02  0.00000000000E+00 0.  1.
</event>
<event>
 7    1  0.3046295E-009  0.4614232E+02  0.7816164E-02  0.1320468E+00
        -11   -1    0    0    0    0  0.00000000000E+00  0.00000000000E+00  0.45593999997E+02  0.45594000000E+02  0.51100000000E-03 0.  1.
         11   -1    0    0    0    0 -0.00000000000E+00 -0.00000000000E+00 -0.45593999997E+02  0.45594000000E+02  0.51100000000E-03 0. -1.
    9900012    2    1    2    0    0  0.21062607154E+02 -0.37291033219E+02  0.13959187023E+02  0.46142317843E+02  0.10000000749E+02 0.  0.
         12    1    1    2    0    0 -0.21062607154E+02  0.37291033219E+02 -0.13959187023E+02  0.45045682157E+02  0.00000000000E+00 0. -1.
         11    1    3    3    0    0  0.42725630496E+01 -0.56727582212E+01  0.18698202282E+00  0.71042201111E+01  0.51100000000E-03 0. -1.
        -11    1    3    3    0    0  0.51375705498E+01 -0.15869320960E+02  0.86441957567E+01  0.18787019440E+02  0.51100000000E-03 0.  1.
        -12    1    3    3    0    0  0.11652473554E+02 -0.15748954037E+02  0.51280092436E+01  0.20251078292E+02  0.00000000000E+00 0.  1.
</event>
<event>
 7    1  0.3046295E-009  0.4614232E+02  0.7816164E-02  0.1320468E+00
        -11   -1    0    0    0    0  0.00000000000E+00  0.00000000000E+00  0.45593999997E+02  0.45594000000E+02  0.51100000000E-03 0. -1.
         11   -1    0    0    0    0 -0.00000000000E+00 -0.00000000000E+00 -0.45593999997E+02  0.45594000000E+02  0.51100000000E-03 0.  1.
    9900012    2    1    2    0    0 -0.42988556989E+01 -0.31129951271E+02 -0.32273199045E+02  0.46142318708E+02  0.10000008634E+02 0.  0.
         12    1    1    2    0    0  0.42988556989E+01  0.31129951271E+02  0.32273199045E+02  0.45045681292E+02  0.00000000000E+00 0. -1.
         11    1    3    3    0    0 -0.34413163305E+01 -0.17426575842E+02 -0.14459752492E+02  0.22904424159E+02  0.51100000000E-03 0. -1.
        -11    1    3    3    0    0 -0.26487900520E+01 -0.11279490141E+02 -0.11947069343E+02  0.16642579510E+02  0.51100000000E-03 0.  1.
         12    1    3    3    0    0  0.17912506836E+01 -0.24238852878E+01 -0.58663772094E+01  0.65953150389E+01  0.00000000000E+00 0. -1.
</event>
<event>
 7    1  0.3046295E-009  0.4614232E+02  0.7816164E-02  0.1320468E+00
        -11   -1    0    0    0    0  0.00000000000E+00  0.00000000000E+00  0.45593999997E+02  0.45594000000E+02  0.51100000000E-03 0.  1.
         11   -1    0    0    0    0 -0.00000000000E+00 -0.00000000000E+00 -0.45593999997E+02  0.45594000000E+02  0.51100000000E-03 0. -1.
    9900012    2    1    2    0    0  0.23140594242E+02 -0.14147528527E+02  0.35964895210E+02  0.46142319266E+02  0.10000013724E+02 0.  0.
         12    1    1    2    0    0 -0.23140594242E+02  0.14147528527E+02 -0.35964895210E+02  0.45045680734E+02  0.00000000000E+00 0. -1.
         11    1    3    3    0    0  0.28122195486E+01 -0.35437300902E+00  0.47006371515E+01  0.54890936329E+01  0.51100000000E-03 0. -1.
        -11    1    3    3    0    0  0.59621043210E+01 -0.31372491105E+01  0.15140719110E+02  0.16571976205E+02  0.51100000000E-03 0.  1.
        -12    1    3    3    0    0  0.14366270373E+02 -0.10655906408E+02  0.16123538949E+02  0.24081249428E+02  0.00000000000E+00 0.  1.
</event>
<event>
 7    1  0.3046295E-009  0.4614232E+02  0.7816164E-02  0.1320468E+00
        -11   -1    0    0    0    0  0.00000000000E+00  0.00000000000E+00  0.45593999997E+02  0.45594000000E+02  0.51100000000E-03 0.  1.
         11   -1    0    0    0    0 -0.00000000000E+00 -0.00000000000E+00 -0.45593999997E+02  0.45594000000E+02  0.51100000000E-03 0. -1.
    9900012    2    1    2    0    0 -0.32555725177E+02 -0.15696436646E+02  0.26886057108E+02  0.46142318386E+02  0.10000005702E+02 0.  0.
         12    1    1    2    0    0  0.32555725177E+02  0.15696436646E+02 -0.26886057108E+02  0.45045681614E+02  0.00000000000E+00 0. -1.
         11    1    3    3    0    0 -0.41536645501E+01 -0.46793365950E+01  0.19200230527E+01  0.65448918210E+01  0.51100000000E-03 0. -1.
        -11    1    3    3    0    0 -0.10448256017E+02 -0.61685281472E+01  0.95112706845E+01  0.15416908367E+02  0.51100000000E-03 0.  1.
         12    1    3    3    0    0 -0.17953804610E+02 -0.48485719037E+01  0.15454763371E+02  0.24180518198E+02  0.00000000000E+00 0. -1.
</event>
<event>
 7    1  0.3046295E-009  0.4614232E+02  0.7816164E-02  0.1320468E+00
        -11   -1    0    0    0    0  0.00000000000E+00  0.00000000000E+00  0.45593999997E+02  0.45594000000E+02  0.51100000000E-03 0.  1.
         11   -1    0    0    0    0 -0.00000000000E+00 -0.00000000000E+00 -0.45593999997E+02  0.45594000000E+02  0.51100000000E-03 0. -1.
    9900012    2    1    2    0    0  0.40278072733E+02 -0.18666509703E+01 -0.20082476812E+02  0.46142318700E+02  0.10000008560E+02 0.  0.
         12    1    1    2    0    0 -0.40278072733E+02  0.18666509703E+01  0.20082476812E+02  0.45045681300E+02  0.00000000000E+00 0. -1.
         11    1    3    3    0    0  0.22814157827E+02 -0.39729917184E+01 -0.12016285056E+02  0.26089491512E+02  0.51100000000E-03 0. -1.
        -11    1    3    3    0    0  0.15146189588E+02  0.23182510247E+01 -0.48283778661E+01  0.16065322279E+02  0.51100000000E-03 0.  1.
         12    1    3    3    0    0  0.23177253170E+01 -0.21191027654E+00 -0.32378138894E+01  0.39875049082E+01  0.00000000000E+00 0. -1.
</event>
<event>
 7    1  0.3046295E-009  0.4614232E+02  0.7816164E-02  0.1320468E+00
        -11   -1    0    0    0    0  0.00000000000E+00  0.00000000000E+00  0.45593999997E+02  0.45594000000E+02  0.51100000000E-03 0.  1.
         11   -1    0    0    0    0 -0.00000000000E+00 -0.00000000000E+00 -0.45593999997E+02  0.45594000000E+02  0.51100000000E-03 0. -1.
    9900012    2    1    2    0    0  0.21200634550E+02 -0.17240395614E+02  0.35810823059E+02  0.46142321024E+02  0.10000029755E+02 0.  0.
         12    1    1    2    0    0 -0.21200634550E+02  0.17240395614E+02 -0.35810823059E+02  0.45045678976E+02  0.00000000000E+00 0. -1.
         11    1    3    3    0    0  0.97608459382E+01 -0.57893143419E+01  0.99362364313E+01  0.15083735236E+02  0.51100000000E-03 0. -1.
        -11    1    3    3    0    0  0.12077335250E+02 -0.10473722828E+02  0.23643792523E+02  0.28541019985E+02  0.51100000000E-03 0.  1.
         12    1    3    3    0    0 -0.63754663763E+00 -0.97735844358E+00  0.22307941039E+01  0.25175658038E+01  0.00000000000E+00 0. -1.
</event>
<event>
 7    1  0.3046295E-009  0.4614231E+02  0.7816164E-02  0.1320468E+00
        -11   -1    0    0    0    0  0.00000000000E+00  0.00000000000E+00  0.45593999997E+02  0.45594000000E+02  0.51100000000E-03 0.  1.
         11   -1    0    0    0    0 -0.00000000000E+00 -0.00000000000E+00 -0.45593999997E+02  0.45594000000E+02  0.51100000000E-03 0. -1.
    9900012    2    1    2    0    0  0.41215160515E+02 -0.11782204455E+02 -0.13842107703E+02  0.46142314926E+02  0.99999741496E+01 0.  0.
         12    1    1    2    0    0 -0.41215160515E+02  0.11782204455E+02  0.13842107703E+02  0.45045685074E+02  0.00000000000E+00 0. -1.
         11    1    3    3    0    0  0.33533688579E+02 -0.89099299538E+01 -0.11999253150E+02  0.36713447100E+02  0.51100000000E-03 0. -1.
        -11    1    3    3    0    0  0.70179417385E+01 -0.22798791473E+01  0.39882769755E-02  0.73789817278E+01  0.51100000000E-03 0.  1.
         12    1    3    3    0    0  0.66353019702E+00 -0.59239535379E+00 -0.18468428305E+01  0.20498860989E+01  0.00000000000E+00 0. -1.
</event>
<event>
 7    1  0.3046295E-009  0.4614232E+02  0.7816164E-02  0.1320468E+00
        -11   -1    0    0    0    0  0.00000000000E+00  0.00000000000E+00  0.45593999997E+02  0.45594000000E+02  0.51100000000E-03 0.  1.
         11   -1    0    0    0    0 -0.00000000000E+00 -0.00000000000E+00 -0.45593999997E+02  0.45594000000E+02  0.51100000000E-03 0. -1.
    9900012    2    1    2    0    0  0.14106196856E+02 -0.27629801089E+02  0.32660724934E+02  0.46142315955E+02  0.99999835261E+01 0.  0.
         12    1    1    2    0    0 -0.14106196856E+02  0.27629801089E+02 -0.32660724934E+02  0.45045684045E+02  0.00000000000E+00 0. -1.
         11    1    3    3    0    0 -0.42783011176E+00  0.35397194078E+00  0.76573337793E-01  0.56053409938E+00  0.51100000000E-03 0. -1.
        -11    1    3    3    0    0  0.32874943713E+01 -0.60696137336E+01  0.10085896991E+02  0.12221830816E+02  0.51100000000E-03 0.  1.
        -12    1    3    3    0    0  0.11246532596E+02 -0.21914159296E+02  0.22498254605E+02  0.33359951039E+02  0.00000000000E+00 0.  1.
</event>
<event>
 7    1  0.3046295E-009  0.4614231E+02  0.7816164E-02  0.1320468E+00
        -11   -1    0    0    0    0  0.00000000000E+00  0.00000000000E+00  0.45593999997E+02  0.45594000000E+02  0.51100000000E-03 0. -1.
         11   -1    0    0    0    0 -0.00000000000E+00 -0.00000000000E+00 -0.45593999997E+02  0.45594000000E+02  0.51100000000E-03 0.  1.
    9900012    2    1    2    0    0 -0.16442699567E+02  0.40427100264E+02  0.11153519981E+02  0.46142314160E+02  0.99999671623E+01 0.  0.
         12    1    1    2    0    0  0.16442699567E+02 -0.40427100264E+02 -0.11153519981E+02  0.45045685840E+02  0.00000000000E+00 0. -1.
         11    1    3    3    0    0 -0.10349296187E+02  0.30488368295E+02  0.68029291857E+01  0.32907877151E+02  0.51100000000E-03 0.  1.
        -11    1    3    3    0    0 -0.50846525092E+01  0.75607605981E+01  0.52299575342E+01  0.10505772129E+02  0.51100000000E-03 0. -1.
        -12    1    3    3    0    0 -0.10087508711E+01  0.23779713714E+01 -0.87936673887E+00  0.27286648795E+01  0.00000000000E+00 0.  1.
</event>
<event>
 7    1  0.3046295E-009  0.4614232E+02  0.7816164E-02  0.1320468E+00
        -11   -1    0    0    0    0  0.00000000000E+00  0.00000000000E+00  0.45593999997E+02  0.45594000000E+02  0.51100000000E-03 0.  1.
         11   -1    0    0    0    0 -0.00000000000E+00 -0.00000000000E+00 -0.45593999997E+02  0.45594000000E+02  0.51100000000E-03 0. -1.
    9900012    2    1    2    0    0  0.29170114355E+00 -0.32424349500E+02  0.31268034996E+02  0.46142317160E+02  0.99999945191E+01 0.  0.
         12    1    1    2    0    0 -0.29170114355E+00  0.32424349500E+02 -0.31268034996E+02  0.45045682840E+02  0.00000000000E+00 0. -1.
         11    1    3    3    0    0 -0.11604807589E+00 -0.52999942203E+01  0.12567022940E+01  0.54481838082E+01  0.51100000000E-03 0. -1.
        -11    1    3    3    0    0  0.62088078040E+00 -0.79396787777E+01  0.60680763518E+01  0.10012269618E+02  0.51100000000E-03 0.  1.
         12    1    3    3    0    0 -0.21313156097E+00 -0.19184676502E+02  0.23943256350E+02  0.30681863734E+02  0.00000000000E+00 0. -1.
</event>
<event>
 7    1  0.3046295E-009  0.4614232E+02  0.7816164E-02  0.1320468E+00
        -11   -1    0    0    0    0  0.00000000000E+00  0.00000000000E+00  0.45593999997E+02  0.45594000000E+02  0.51100000000E-03 0.  1.
         11   -1    0    0    0    0 -0.00000000000E+00 -0.00000000000E+00 -0.45593999997E+02  0.45594000000E+02  0.51100000000E-03 0. -1.
    9900012    2    1    2    0    0 -0.43207054903E+00  0.16891592177E+02  0.41756445650E+02  0.46142319579E+02  0.10000016582E+02 0.  0.
         12    1    1    2    0    0  0.43207054903E+00 -0.16891592177E+02 -0.41756445650E+02  0.45045680421E+02  0.00000000000E+00 0. -1.
         11    1    3    3    0    0 -0.29840374734E+01  0.95428891132E+01  0.32329891547E+02  0.33840701824E+02  0.51100000000E-03 0. -1.
        -11    1    3    3    0    0  0.73246168383E+00  0.39233427391E+01  0.42099106956E+01  0.58010746154E+01  0.51100000000E-03 0.  1.
         12    1    3    3    0    0  0.18195052405E+01  0.34253603244E+01  0.52166434079E+01  0.65005431402E+01  0.00000000000E+00 0. -1.
</event>
<event>
 7    1  0.3046295E-009  0.4614232E+02  0.7816164E-02  0.1320468E+00
        -11   -1    0    0    0    0  0.00000000000E+00  0.00000000000E+00  0.45593999997E+02  0.45594000000E+02  0.51100000000E-03 0.  1.
         11   -1    0    0    0    0 -0.00000000000E+00 -0.00000000000E+00 -0.45593999997E+02  0.45594000000E+02  0.51100000000E-03 0. -1.
    9900012    2    1    2    0    0  0.78687340852E+00 -0.25821844796E+01  0.44964727294E+02  0.46142317109E+02  0.99999940545E+01 0.  0.
         12    1    1    2    0    0 -0.78687340852E+00  0.25821844796E+01 -0.44964727294E+02  0.45045682891E+02  0.00000000000E+00 0. -1.
         11    1    3    3    0    0 -0.87903530963E+00 -0.44957259452E+01  0.24624917477E+02  0.25047371436E+02  0.51100000000E-03 0. -1.
        -11    1    3    3    0    0  0.23052080072E+01  0.28671913130E-01  0.17354644287E+02  0.17507098121E+02  0.51100000000E-03 0.  1.
         12    1    3    3    0    0 -0.63929928904E+00  0.18848695525E+01  0.29851655305E+01  0.35878475518E+01  0.00000000000E+00 0. -1.
</event>
<event>
 7    1  0.3046295E-009  0.4614232E+02  0.7816164E-02  0.1320468E+00
        -11   -1    0    0    0    0  0.00000000000E+00  0.00000000000E+00  0.45593999997E+02  0.45594000000E+02  0.51100000000E-03 0. -1.
         11   -1    0    0    0    0 -0.00000000000E+00 -0.00000000000E+00 -0.45593999997E+02  0.45594000000E+02  0.51100000000E-03 0.  1.
    9900012    2    1    2    0    0 -0.23781725875E+02  0.32901083895E+02  0.19520800962E+02  0.46142317885E+02  0.10000001126E+02 0.  0.
         12    1    1    2    0    0  0.23781725875E+02 -0.32901083895E+02 -0.19520800962E+02  0.45045682115E+02  0.00000000000E+00 0. -1.
         11    1    3    3    0    0 -0.18817298811E+00  0.45695365088E+01  0.16567734415E+01  0.48642544626E+01  0.51100000000E-03 0. -1.
        -11    1    3    3    0    0 -0.21083998342E+02  0.22457397483E+02  0.14268494654E+02  0.33947895778E+02  0.51100000000E-03 0.  1.
        -12    1    3    3    0    0 -0.25095545447E+01  0.58741499025E+01  0.35955328666E+01  0.73301676437E+01  0.00000000000E+00 0.  1.
</event>
<event>
 7    1  0.3046295E-009  0.4614232E+02  0.7816164E-02  0.1320468E+00
        -11   -1    0    0    0    0  0.00000000000E+00  0.00000000000E+00  0.45593999997E+02  0.45594000000E+02  0.51100000000E-03 0. -1.
         11   -1    0    0    0    0 -0.00000000000E+00 -0.00000000000E+00 -0.45593999997E+02  0.45594000000E+02  0.51100000000E-03 0.  1.
    9900012    2    1    2    0    0 -0.22548702811E+02 -0.38947768114E+02 -0.19341431703E+01  0.46142317084E+02  0.99999938280E+01 0.  0.
         12    1    1    2    0    0  0.22548702811E+02  0.38947768114E+02  0.19341431703E+01  0.45045682916E+02  0.00000000000E+00 0. -1.
         11    1    3    3    0    0 -0.34946861312E+01 -0.94753829208E+01  0.17841945257E+01  0.10255684425E+02  0.51100000000E-03 0. -1.
        -11    1    3    3    0    0 -0.20476190710E+00 -0.98753554967E+00 -0.12987106279E+01  0.16443246202E+01  0.51100000000E-03 0.  1.
        -12    1    3    3    0    0 -0.18849254773E+02 -0.28484849644E+02 -0.24196270682E+01  0.34242308039E+02  0.00000000000E+00 0.  1.
</event>
<event>
 7    1  0.3431862E-009  0.4614232E+02  0.7816164E-02  0.1320468E+00
        -11   -1    0    0    0    0  0.00000000000E+00  0.00000000000E+00  0.45593999997E+02  0.45594000000E+02  0.51100000000E-03 0. -1.
         11   -1    0    0    0    0 -0.00000000000E+00 -0.00000000000E+00 -0.45593999997E+02  0.45594000000E+02  0.51100000000E-03 0.  1.
    9900012    2    1    2    0    0 -0.43033816163E+02  0.11947774893E+02  0.58698250649E+01  0.46142317579E+02  0.99999983429E+01 0.  0.
         12    1    1    2    0    0  0.43033816163E+02 -0.11947774893E+02 -0.58698250649E+01  0.45045682421E+02  0.00000000000E+00 0. -1.
         11    1    3    3    0    0 -0.34210720745E+01 -0.71491594165E-01  0.24928918679E+01  0.42335983883E+01  0.51100000000E-03 0. -1.
        -11    1    3    3    0    0 -0.28410718284E+02  0.88942269804E+01 -0.99234136480E-01  0.29770556506E+02  0.51100000000E-03 0.  1.
        -12    1    3    3    0    0 -0.11202025805E+02  0.31250395063E+01  0.34761673334E+01  0.12138162685E+02  0.00000000000E+00 0.  1.
</event>
<event>
 7    1  0.3046295E-009  0.4614232E+02  0.7816164E-02  0.1320468E+00
        -11   -1    0    0    0    0  0.00000000000E+00  0.00000000000E+00  0.45593999997E+02  0.45594000000E+02  0.51100000000E-03 0.  1.
         11   -1    0    0    0    0 -0.00000000000E+00 -0.00000000000E+00 -0.45593999997E+02  0.45594000000E+02  0.51100000000E-03 0. -1.
    9900012    2    1    2    0    0 -0.42990012466E+01  0.38372554972E+02  0.23198687754E+02  0.46142317629E+02  0.99999987938E+01 0.  0.
         12    1    1    2    0    0  0.42990012466E+01 -0.38372554972E+02 -0.23198687754E+02  0.45045682371E+02  0.00000000000E+00 0. -1.
         11    1    3    3    0    0  0.14586131522E+00  0.76983748349E+01  0.87527620377E+01  0.11657490904E+02  0.51100000000E-03 0. -1.
        -11    1    3    3    0    0 -0.13295463301E+01  0.21958663183E+02  0.91922233105E+01  0.23842138156E+02  0.51100000000E-03 0.  1.
         12    1    3    3    0    0 -0.31153162318E+01  0.87155169542E+01  0.52537024054E+01  0.10642688569E+02  0.00000000000E+00 0. -1.
</event>
<event>
 7    1  0.3046295E-009  0.4614232E+02  0.7816164E-02  0.1320468E+00
        -11   -1    0    0    0    0  0.00000000000E+00  0.00000000000E+00  0.45593999997E+02  0.45594000000E+02  0.51100000000E-03 0. -1.
         11   -1    0    0    0    0 -0.00000000000E+00 -0.00000000000E+00 -0.45593999997E+02  0.45594000000E+02  0.51100000000E-03 0.  1.
    9900012    2    1    2    0    0 -0.29184412222E+00  0.43160610564E+02 -0.12891472676E+02  0.46142317132E+02  0.99999942629E+01 0.  0.
         12    1    1    2    0    0  0.29184412222E+00 -0.43160610564E+02  0.12891472676E+02  0.45045682868E+02  0.00000000000E+00 0. -1.
         11    1    3    3    0    0 -0.30800080164E+01  0.17120825117E+02 -0.90908759188E+01  0.19627866091E+02  0.51100000000E-03 0. -1.
        -11    1    3    3    0    0  0.12092722288E+01  0.10812061092E+02 -0.75939639850E+00  0.10905947347E+02  0.51100000000E-03 0.  1.
         12    1    3    3    0    0  0.15788916653E+01  0.15227724355E+02 -0.30412003588E+01  0.15608503694E+02  0.00000000000E+00 0. -1.
</event>
<event>
 7    1  0.3046295E-009  0.4614232E+02  0.7816164E-02  0.1320468E+00
        -11   -1    0    0    0    0  0.00000000000E+00  0.00000000000E+00  0.45593999997E+02  0.45594000000E+02  0.51100000000E-03 0. -1.
         11   -1    0    0    0    0 -0.00000000000E+00 -0.00000000000E+00 -0.45593999997E+02  0.45594000000E+02  0.51100000000E-03 0.  1.
    9900012    2    1    2    0    0  0.21833571031E+02 -0.37964835962E+02 -0.10539444135E+02  0.46142317895E+02  0.10000001225E+02 0.  0.
         12    1    1    2    0    0 -0.21833571031E+02  0.37964835962E+02  0.10539444135E+02  0.45045682105E+02  0.00000000000E+00 0. -1.
         11    1    3    3    0    0  0.11758567347E+02 -0.19487933246E+02 -0.80511639366E+01  0.24142590773E+02  0.51100000000E-03 0. -1.
        -11    1    3    3    0    0 -0.15290849162E+00 -0.17966048787E+00 -0.95295402054E+00  0.98172324211E+00  0.51100000000E-03 0.  1.
        -12    1    3    3    0    0  0.10227912176E+02 -0.18297242228E+02 -0.15353261775E+01  0.21018003880E+02  0.00000000000E+00 0.  1.
</event>
<event>
 7    1  0.3046295E-009  0.4614232E+02  0.7816164E-02  0.1320468E+00
        -11   -1    0    0    0    0  0.00000000000E+00  0.00000000000E+00  0.45593999997E+02  0.45594000000E+02  0.51100000000E-03 0. -1.
         11   -1    0    0    0    0 -0.00000000000E+00 -0.00000000000E+00 -0.45593999997E+02  0.45594000000E+02  0.51100000000E-03 0.  1.
    9900012    2    1    2    0    0  0.45035730522E+02 -0.30923805268E+00 -0.89492482678E+00  0.46142317163E+02  0.99999945479E+01 0.  0.
         12    1    1    2    0    0 -0.45035730522E+02  0.30923805268E+00  0.89492482678E+00  0.45045682837E+02  0.00000000000E+00 0. -1.
         11    1    3    3    0    0  0.11339810558E+01 -0.11619843222E-01  0.18210793136E+01  0.21453154041E+01  0.51100000000E-03 0. -1.
        -11    1    3    3    0    0  0.25952145438E+02 -0.64333532366E+00 -0.15768119392E+01  0.26007961653E+02  0.51100000000E-03 0.  1.
         12    1    3    3    0    0  0.17949604028E+02  0.34571711420E+00 -0.11391922012E+01  0.17989040106E+02  0.00000000000E+00 0. -1.
</event>
<event>
 7    1  0.3046295E-009  0.4614231E+02  0.7816164E-02  0.1320468E+00
        -11   -1    0    0    0    0  0.00000000000E+00  0.00000000000E+00  0.45593999997E+02  0.45594000000E+02  0.51100000000E-03 0. -1.
         11   -1    0    0    0    0 -0.00000000000E+00 -0.00000000000E+00 -0.45593999997E+02  0.45594000000E+02  0.51100000000E-03 0.  1.
    9900012    2    1    2    0    0 -0.60071058486E+01  0.50291910070E+01 -0.44359168029E+02  0.46142313513E+02  0.99999612595E+01 0.  0.
         12    1    1    2    0    0  0.60071058486E+01 -0.50291910070E+01  0.44359168029E+02  0.45045686487E+02  0.00000000000E+00 0. -1.
         11    1    3    3    0    0 -0.43957381291E+01  0.13566585708E+01 -0.18202763401E+02  0.18775080077E+02  0.51100000000E-03 0. -1.
        -11    1    3    3    0    0 -0.22823703713E+01  0.35546880664E+01 -0.68433578512E+01  0.80421743765E+01  0.51100000000E-03 0.  1.
         12    1    3    3    0    0  0.67100265187E+00  0.11784436974E+00 -0.19313046777E+02  0.19325059059E+02  0.00000000000E+00 0. -1.
</event>
<event>
 7    1  0.3046295E-009  0.4614232E+02  0.7816164E-02  0.1320468E+00
        -11   -1    0    0    0    0  0.00000000000E+00  0.00000000000E+00  0.45593999997E+02  0.45594000000E+02  0.51100000000E-03 0.  1.
         11   -1    0    0    0    0 -0.00000000000E+00 -0.00000000000E+00 -0.45593999997E+02  0.45594000000E+02  0.51100000000E-03 0. -1.
    9900012    2    1    2    0    0 -0.31385735340E+02  0.30077943066E+01  0.32171452297E+02  0.46142317051E+02  0.99999935286E+01 0.  0.
         12    1    1    2    0    0  0.31385735340E+02 -0.30077943066E+01 -0.32171452297E+02  0.45045682949E+02  0.00000000000E+00 0. -1.
         11    1    3    3    0    0 -0.58654327040E+01 -0.20239650759E+01  0.95077692609E+01  0.11353299609E+02  0.51100000000E-03 0. -1.
        -11    1    3    3    0    0 -0.18568189682E+02  0.18540299444E+01  0.17345167304E+02  0.25476850751E+02  0.51100000000E-03 0.  1.
         12    1    3    3    0    0 -0.69521129539E+01  0.31777294380E+01  0.53185157317E+01  0.93121666916E+01  0.00000000000E+00 0. -1.
</event>
<event>
 7    1  0.3046295E-009  0.4614232E+02  0.7816164E-02  0.1320468E+00
        -11   -1    0    0    0    0  0.00000000000E+00  0.00000000000E+00  0.45593999997E+02  0.45594000000E+02  0.51100000000E-03 0. -1.
         11   -1    0    0    0    0 -0.00000000000E+00 -0.00000000000E+00 -0.45593999997E+02  0.45594000000E+02  0.51100000000E-03 0.  1.
    9900012    2    1    2    0    0 -0.17980294066E+02 -0.42872871122E+01 -0.41078482359E+02  0.46142317427E+02  0.99999969562E+01 0.  0.
         12    1    1    2    0    0  0.17980294066E+02  0.42872871122E+01  0.41078482359E+02  0.45045682573E+02  0.00000000000E+00 0. -1.
         11    1    3    3    0    0 -0.48413555550E+01 -0.39872719251E+01 -0.15691872814E+02  0.16898873740E+02  0.51100000000E-03 0. -1.
        -11    1    3    3    0    0 -0.19154196121E+01  0.63101172866E+00 -0.74442768338E+00  0.21496932174E+01  0.51100000000E-03 0.  1.
        -12    1    3    3    0    0 -0.11223518899E+02 -0.93102691575E+00 -0.24642181862E+02  0.27093750470E+02  0.00000000000E+00 0.  1.
</event>
<event>
 7    1  0.3046295E-009  0.4614232E+02  0.7816164E-02  0.1320468E+00
        -11   -1    0    0    0    0  0.00000000000E+00  0.00000000000E+00  0.45593999997E+02  0.45594000000E+02  0.51100000000E-03 0.  1.
         11   -1    0    0    0    0 -0.00000000000E+00 -0.00000000000E+00 -0.45593999997E+02  0.45594000000E+02  0.51100000000E-03 0. -1.
    9900012    2    1    2    0    0  0.17000280570E+01 -0.11274802569E+02  0.43578692037E+02  0.46142315767E+02  0.99999818173E+01 0.  0.
         12    1    1    2    0    0 -0.17000280570E+01  0.11274802569E+02 -0.43578692037E+02  0.45045684233E+02  0.00000000000E+00 0. -1.
         11    1    3    3    0    0 -0.27536272155E+01 -0.13011295547E+01  0.11251160468E+02  0.11656071941E+02  0.51100000000E-03 0. -1.
        -11    1    3    3    0    0  0.29538957636E+01 -0.29720693893E+01  0.69275971867E+01  0.80963139563E+01  0.51100000000E-03 0.  1.
         12    1    3    3    0    0  0.14997595089E+01 -0.70016036248E+01  0.25399934382E+02  0.26389929870E+02  0.00000000000E+00 0. -1.
</event>
<event>
 7    1  0.3046295E-009  0.4614232E+02  0.7816164E-02  0.1320468E+00
        -11   -1    0    0    0    0  0.00000000000E+00  0.00000000000E+00  0.45593999997E+02  0.45594000000E+02  0.51100000000E-03 0.  1.
         11   -1    0    0    0    0 -0.00000000000E+00 -0.00000000000E+00 -0.45593999997E+02  0.45594000000E+02  0.51100000000E-03 0. -1.
    9900012    2    1    2    0    0  0.19829950917E+02 -0.18637235412E+02  0.35896241285E+02  0.46142316127E+02  0.99999851018E+01 0.  0.
         12    1    1    2    0    0 -0.19829950917E+02  0.18637235412E+02 -0.35896241285E+02  0.45045683873E+02  0.00000000000E+00 0. -1.
         11    1    3    3    0    0  0.10914527525E+02 -0.97695795533E+01  0.22889016633E+02  0.27174964185E+02  0.51100000000E-03 0. -1.
        -11    1    3    3    0    0 -0.41364803931E+00 -0.12218935116E+01  0.31021056864E+01  0.33596411125E+01  0.51100000000E-03 0.  1.
         12    1    3    3    0    0  0.93290714316E+01 -0.76457623469E+01  0.99051189652E+01  0.15607710830E+02  0.00000000000E+00 0. -1.
</event>
<event>
 7    1  0.3046295E-009  0.4614232E+02  0.7816164E-02  0.1320468E+00
        -11   -1    0    0    0    0  0.00000000000E+00  0.00000000000E+00  0.45593999997E+02  0.45594000000E+02  0.51100000000E-03 0.  1.
         11   -1    0    0    0    0 -0.00000000000E+00 -0.00000000000E+00 -0.45593999997E+02  0.45594000000E+02  0.51100000000E-03 0. -1.
    9900012    2    1    2    0    0 -0.25601676967E+02 -0.24191379200E+02  0.28079262624E+02  0.46142315627E+02  0.99999805403E+01 0.  0.
         12    1    1    2    0    0  0.25601676967E+02  0.24191379200E+02 -0.28079262624E+02  0.45045684373E+02  0.00000000000E+00 0. -1.
         11    1    3    3    0    0 -0.13635393437E+02 -0.16777247636E+02  0.13237917727E+02  0.25350393655E+02  0.51100000000E-03 0. -1.
        -11    1    3    3    0    0 -0.14746647784E+01 -0.83249564854E+00  0.39554001296E+01  0.43026591382E+01  0.51100000000E-03 0.  1.
        -12    1    3    3    0    0 -0.10491618751E+02 -0.65816359157E+01  0.10885944767E+02  0.16489262834E+02  0.00000000000E+00 0.  1.
</event>
<event>
 7    1  0.3046295E-009  0.4614232E+02  0.7816164E-02  0.1320468E+00
        -11   -1    0    0    0    0  0.00000000000E+00  0.00000000000E+00  0.45593999997E+02  0.45594000000E+02  0.51100000000E-03 0. -1.
         11   -1    0    0    0    0 -0.00000000000E+00 -0.00000000000E+00 -0.45593999997E+02  0.45594000000E+02  0.51100000000E-03 0.  1.
    9900012    2    1    2    0    0 -0.94158883073E+01  0.35283250599E+02 -0.26373221644E+02  0.46142317128E+02  0.99999942299E+01 0.  0.
         12    1    1    2    0    0  0.94158883073E+01 -0.35283250599E+02  0.26373221644E+02  0.45045682872E+02  0.00000000000E+00 0. -1.
         11    1    3    3    0    0 -0.59449827450E+01  0.25406709884E+02 -0.21023699056E+02  0.33508799579E+02  0.51100000000E-03 0.  1.
        -11    1    3    3    0    0  0.91367199948E-01  0.54655555634E+01 -0.40859345872E+01  0.68246250662E+01  0.51100000000E-03 0. -1.
         12    1    3    3    0    0 -0.35622727623E+01  0.44109851523E+01 -0.12635880010E+01  0.58088924833E+01  0.00000000000E+00 0. -1.
</event>
<event>
 7    1  0.3046295E-009  0.4614232E+02  0.7816164E-02  0.1320468E+00
        -11   -1    0    0    0    0  0.00000000000E+00  0.00000000000E+00  0.45593999997E+02  0.45594000000E+02  0.51100000000E-03 0. -1.
         11   -1    0    0    0    0 -0.00000000000E+00 -0.00000000000E+00 -0.45593999997E+02  0.45594000000E+02  0.51100000000E-03 0.  1.
    9900012    2    1    2    0    0 -0.15892712359E+02 -0.42100572416E+02  0.20191543700E+01  0.46142317762E+02  0.10000000013E+02 0.  0.
         12    1    1    2    0    0  0.15892712359E+02  0.42100572416E+02 -0.20191543700E+01  0.45045682238E+02  0.00000000000E+00 0. -1.
         11    1    3    3    0    0 -0.11635269039E+01 -0.22793607851E+01 -0.19170232630E+01  0.31975395067E+01  0.51100000000E-03 0. -1.
        -11    1    3    3    0    0 -0.70899117000E+01 -0.21473367163E+02  0.45231115120E+01  0.23061458827E+02  0.51100000000E-03 0.  1.
         12    1    3    3    0    0 -0.76392737548E+01 -0.18347844468E+02 -0.58693387906E+00  0.19883319428E+02  0.00000000000E+00 0. -1.
</event>
<event>
 7    1  0.3046295E-009  0.4614232E+02  0.7816164E-02  0.1320468E+00
        -11   -1    0    0    0    0  0.00000000000E+00  0.00000000000E+00  0.45593999997E+02  0.45594000000E+02  0.51100000000E-03 0.  1.
         11   -1    0    0    0    0 -0.00000000000E+00 -0.00000000000E+00 -0.45593999997E+02  0.45594000000E+02  0.51100000000E-03 0. -1.
    9900012    2    1    2    0    0 -0.47701446016E+01 -0.14573324861E+02  0.42355370252E+02  0.46142318007E+02  0.10000002246E+02 0.  0.
         12    1    1    2    0    0  0.47701446016E+01  0.14573324861E+02 -0.42355370252E+02  0.45045681993E+02  0.00000000000E+00 0. -1.
         11    1    3    3    0    0 -0.30869052526E+01 -0.48930404610E+00  0.41711068868E+01  0.52121526657E+01  0.51100000000E-03 0.  1.
        -11    1    3    3    0    0 -0.13341804693E+00 -0.12110969291E+02  0.33395093375E+02  0.35523592714E+02  0.51100000000E-03 0. -1.
        -12    1    3    3    0    0 -0.15498213022E+01 -0.19730515243E+01  0.47891699894E+01  0.54065726273E+01  0.00000000000E+00 0.  1.
</event>
<event>
 7    1  0.3046295E-009  0.4614232E+02  0.7816164E-02  0.1320468E+00
        -11   -1    0    0    0    0  0.00000000000E+00  0.00000000000E+00  0.45593999997E+02  0.45594000000E+02  0.51100000000E-03 0.  1.
         11   -1    0    0    0    0 -0.00000000000E+00 -0.00000000000E+00 -0.45593999997E+02  0.45594000000E+02  0.51100000000E-03 0. -1.
    9900012    2    1    2    0    0  0.97109681290E+01 -0.17792640729E+02  0.40227260906E+02  0.46142317786E+02  0.10000000230E+02 0.  0.
         12    1    1    2    0    0 -0.97109681290E+01  0.17792640729E+02 -0.40227260906E+02  0.45045682214E+02  0.00000000000E+00 0. -1.
         11    1    3    3    0    0  0.18594783174E+01 -0.24661226079E+01  0.14112021172E+02  0.14446056976E+02  0.51100000000E-03 0. -1.
        -11    1    3    3    0    0  0.73499114843E+01 -0.15123009779E+02  0.26216744363E+02  0.31145534333E+02  0.51100000000E-03 0.  1.
        -12    1    3    3    0    0  0.50157832725E+00 -0.20350834157E+00 -0.10150462930E+00  0.55072647768E+00  0.00000000000E+00 0.  1.
</event>
<event>
 7    1  0.3046295E-009  0.4614232E+02  0.7816164E-02  0.1320468E+00
        -11   -1    0    0    0    0  0.00000000000E+00  0.00000000000E+00  0.45593999997E+02  0.45594000000E+02  0.51100000000E-03 0.  1.
         11   -1    0    0    0    0 -0.00000000000E+00 -0.00000000000E+00 -0.45593999997E+02  0.45594000000E+02  0.51100000000E-03 0. -1.
    9900012    2    1    2    0    0  0.15163173319E+02 -0.37313933920E+01  0.42252435950E+02  0.46142318016E+02  0.10000002323E+02 0.  0.
         12    1    1    2    0    0 -0.15163173319E+02  0.37313933920E+01 -0.42252435950E+02  0.45045681984E+02  0.00000000000E+00 0. -1.
         11    1    3    3    0    0  0.50112382436E+01 -0.46468722879E+01  0.10751055559E+02  0.12739353464E+02  0.51100000000E-03 0. -1.
        -11    1    3    3    0    0  0.24034983733E+01  0.24065216747E+00  0.14592049865E+02  0.14790626675E+02  0.51100000000E-03 0.  1.
         12    1    3    3    0    0  0.77484367016E+01  0.67482672844E+00  0.16909330525E+02  0.18612337877E+02  0.00000000000E+00 0. -1.
</event>
<event>
 7    1  0.3046295E-009  0.4614232E+02  0.7816164E-02  0.1320468E+00
        -11   -1    0    0    0    0  0.00000000000E+00  0.00000000000E+00  0.45593999997E+02  0.45594000000E+02  0.51100000000E-03 0. -1.
         11   -1    0    0    0    0 -0.00000000000E+00 -0.00000000000E+00 -0.45593999997E+02  0.45594000000E+02  0.51100000000E-03 0.  1.
    9900012    2    1    2    0    0  0.35576214958E+02 -0.73907474064E+01  0.26623734787E+02  0.46142317943E+02  0.10000001660E+02 0.  0.
         12    1    1    2    0    0 -0.35576214958E+02  0.73907474064E+01 -0.26623734787E+02  0.45045682057E+02  0.00000000000E+00 0. -1.
         11    1    3    3    0    0  0.24474683316E+02 -0.68583277959E+01  0.19246605738E+02  0.31882261781E+02  0.51100000000E-03 0. -1.
        -11    1    3    3    0    0  0.75795919710E+01 -0.26057206885E+01  0.57356435968E+01  0.98558410338E+01  0.51100000000E-03 0.  1.
         12    1    3    3    0    0  0.35219396716E+01  0.20733010780E+01  0.16414854515E+01  0.44042151284E+01  0.00000000000E+00 0. -1.
</event>
<event>
 7    1  0.3046295E-009  0.4614232E+02  0.7816164E-02  0.1320468E+00
        -11   -1    0    0    0    0  0.00000000000E+00  0.00000000000E+00  0.45593999997E+02  0.45594000000E+02  0.51100000000E-03 0.  1.
         11   -1    0    0    0    0 -0.00000000000E+00 -0.00000000000E+00 -0.45593999997E+02  0.45594000000E+02  0.51100000000E-03 0. -1.
    9900012    2    1    2    0    0  0.29361008449E+02 -0.32940580066E+02 -0.90533463792E+01  0.46142315269E+02  0.99999772756E+01 0.  0.
         12    1    1    2    0    0 -0.29361008449E+02  0.32940580066E+02  0.90533463792E+01  0.45045684731E+02  0.00000000000E+00 0. -1.
         11    1    3    3    0    0  0.20912864740E+02 -0.20083100055E+02 -0.85328988143E+01  0.30223983555E+02  0.51100000000E-03 0. -1.
        -11    1    3    3    0    0  0.84128169627E+01 -0.13068567982E+02 -0.21303737427E+00  0.15543755773E+02  0.51100000000E-03 0.  1.
         12    1    3    3    0    0  0.35326745951E-01  0.21108797130E+00 -0.30741019068E+00  0.37457594148E+00  0.00000000000E+00 0. -1.
</event>
<event>
 7    1  0.3046295E-009  0.4614232E+02  0.7816164E-02  0.1320468E+00
        -11   -1    0    0    0    0  0.00000000000E+00  0.00000000000E+00  0.45593999997E+02  0.45594000000E+02  0.51100000000E-03 0.  1.
         11   -1    0    0    0    0 -0.00000000000E+00 -0.00000000000E+00 -0.45593999997E+02  0.45594000000E+02  0.51100000000E-03 0. -1.
    9900012    2    1    2    0    0  0.30232961695E+02  0.97755192800E+01  0.31929933729E+02  0.46142318543E+02  0.10000007128E+02 0.  0.
         12    1    1    2    0    0 -0.30232961695E+02 -0.97755192800E+01 -0.31929933729E+02  0.45045681457E+02  0.00000000000E+00 0. -1.
         11    1    3    3    0    0  0.29157636214E+01  0.10115720991E+01  0.66902336922E+01  0.73677800405E+01  0.51100000000E-03 0. -1.
        -11    1    3    3    0    0  0.22711715798E+02  0.59525766817E+01  0.23196039948E+02  0.33004718953E+02  0.51100000000E-03 0.  1.
         12    1    3    3    0    0  0.46054822757E+01  0.28113704992E+01  0.20436600884E+01  0.57698195494E+01  0.00000000000E+00 0. -1.
</event>
<event>
 7    1  0.3046295E-009  0.4614232E+02  0.7816164E-02  0.1320468E+00
        -11   -1    0    0    0    0  0.00000000000E+00  0.00000000000E+00  0.45593999997E+02  0.45594000000E+02  0.51100000000E-03 0. -1.
         11   -1    0    0    0    0 -0.00000000000E+00 -0.00000000000E+00 -0.45593999997E+02  0.45594000000E+02  0.51100000000E-03 0.  1.
    9900012    2    1    2    0    0  0.28281801790E+02 -0.58508579401E+01 -0.34569070565E+02  0.46142317734E+02  0.99999997512E+01 0.  0.
         12    1    1    2    0    0 -0.28281801790E+02  0.58508579401E+01  0.34569070565E+02  0.45045682266E+02  0.00000000000E+00 0. -1.
         11    1    3    3    0    0  0.23105086149E+02 -0.42933067030E+01 -0.23615153913E+02  0.33315956883E+02  0.51100000000E-03 0. -1.
        -11    1    3    3    0    0  0.33774485073E+01  0.41891635043E+00 -0.33879576418E+01  0.48021772742E+01  0.51100000000E-03 0.  1.
         12    1    3    3    0    0  0.17992671336E+01 -0.19764675875E+01 -0.75659590098E+01  0.80241835772E+01  0.00000000000E+00 0. -1.
</event>
<event>
 7    1  0.3046295E-009  0.4614232E+02  0.7816164E-02  0.1320468E+00
        -11   -1    0    0    0    0  0.00000000000E+00  0.00000000000E+00  0.45593999997E+02  0.45594000000E+02  0.51100000000E-03 0.  1.
         11   -1    0    0    0    0 -0.00000000000E+00 -0.00000000000E+00 -0.45593999997E+02  0.45594000000E+02  0.51100000000E-03 0. -1.
    9900012    2    1    2    0    0  0.49238688671E+01  0.31154540230E+02  0.32159967968E+02  0.46142318728E+02  0.10000008817E+02 0.  0.
         12    1    1    2    0    0 -0.49238688671E+01 -0.31154540230E+02 -0.32159967968E+02  0.45045681272E+02  0.00000000000E+00 0. -1.
         11    1    3    3    0    0  0.14021636868E+01  0.30402959561E+01  0.62891389606E+01  0.71247969538E+01  0.51100000000E-03 0. -1.
        -11    1    3    3    0    0  0.30721969212E+01  0.80562726163E+01  0.45802044150E+01  0.97632061914E+01  0.51100000000E-03 0.  1.
        -12    1    3    3    0    0  0.44950825906E+00  0.20057971657E+02  0.21290624592E+02  0.29254315583E+02  0.00000000000E+00 0.  1.
</event>
<event>
 7    1  0.3046295E-009  0.4614232E+02  0.7816164E-02  0.1320468E+00
        -11   -1    0    0    0    0  0.00000000000E+00  0.00000000000E+00  0.45593999997E+02  0.45594000000E+02  0.51100000000E-03 0. -1.
         11   -1    0    0    0    0 -0.00000000000E+00 -0.00000000000E+00 -0.45593999997E+02  0.45594000000E+02  0.51100000000E-03 0.  1.
    9900012    2    1    2    0    0  0.13451904208E+02  0.34190221042E+02 -0.26061245343E+02  0.46142318181E+02  0.10000003830E+02 0.  0.
         12    1    1    2    0    0 -0.13451904208E+02 -0.34190221042E+02  0.26061245343E+02  0.45045681819E+02  0.00000000000E+00 0. -1.
         11    1    3    3    0    0  0.46075758330E+01  0.10247310851E+02 -0.13770339850E+02  0.17772433558E+02  0.51100000000E-03 0. -1.
        -11    1    3    3    0    0  0.63335818275E+01  0.15244746421E+02 -0.76005729731E+01  0.18173752007E+02  0.51100000000E-03 0.  1.
         12    1    3    3    0    0  0.25107465472E+01  0.86981637692E+01 -0.46903325201E+01  0.10196132616E+02  0.00000000000E+00 0. -1.
</event>
<event>
 7    1  0.3046295E-009  0.4614232E+02  0.7816164E-02  0.1320468E+00
        -11   -1    0    0    0    0  0.00000000000E+00  0.00000000000E+00  0.45593999997E+02  0.45594000000E+02  0.51100000000E-03 0.  1.
         11   -1    0    0    0    0 -0.00000000000E+00 -0.00000000000E+00 -0.45593999997E+02  0.45594000000E+02  0.51100000000E-03 0. -1.
    9900012    2    1    2    0    0 -0.51660036417E+01 -0.37526178379E+02  0.24376463995E+02  0.46142315920E+02  0.99999832102E+01 0.  0.
         12    1    1    2    0    0  0.51660036417E+01  0.37526178379E+02 -0.24376463995E+02  0.45045684080E+02  0.00000000000E+00 0. -1.
         11    1    3    3    0    0  0.97790873087E+00 -0.21833791698E+01  0.24207197082E+01  0.34034297777E+01  0.51100000000E-03 0. -1.
        -11    1    3    3    0    0  0.77837710668E+00 -0.14365618528E+02  0.65501807521E+01  0.15807647983E+02  0.51100000000E-03 0.  1.
        -12    1    3    3    0    0 -0.69222894792E+01 -0.20977180681E+02  0.15405563535E+02  0.26931238159E+02  0.00000000000E+00 0.  1.
</event>
<event>
 7    1  0.3046295E-009  0.4614232E+02  0.7816164E-02  0.1320468E+00
        -11   -1    0    0    0    0  0.00000000000E+00  0.00000000000E+00  0.45593999997E+02  0.45594000000E+02  0.51100000000E-03 0.  1.
         11   -1    0    0    0    0 -0.00000000000E+00 -0.00000000000E+00 -0.45593999997E+02  0.45594000000E+02  0.51100000000E-03 0. -1.
    9900012    2    1    2    0    0 -0.30848116581E+02  0.26257197948E+01  0.32720221065E+02  0.46142316881E+02  0.99999919781E+01 0.  0.
         12    1    1    2    0    0  0.30848116581E+02 -0.26257197948E+01 -0.32720221065E+02  0.45045683119E+02  0.00000000000E+00 0. -1.
         11    1    3    3    0    0 -0.12522608608E+02  0.39082359677E+01  0.12217852695E+02  0.17926682891E+02  0.51100000000E-03 0. -1.
        -11    1    3    3    0    0 -0.43527274247E+01  0.15587834993E+01  0.80578743646E+01  0.92900689754E+01  0.51100000000E-03 0.  1.
         12    1    3    3    0    0 -0.13972780548E+02 -0.28412996722E+01  0.12444494006E+02  0.18925565015E+02  0.00000000000E+00 0. -1.
</event>
<event>
 7    1  0.3046295E-009  0.4614232E+02  0.7816164E-02  0.1320468E+00
        -11   -1    0    0    0    0  0.00000000000E+00  0.00000000000E+00  0.45593999997E+02  0.45594000000E+02  0.51100000000E-03 0. -1.
         11   -1    0    0    0    0 -0.00000000000E+00 -0.00000000000E+00 -0.45593999997E+02  0.45594000000E+02  0.51100000000E-03 0.  1.
    9900012    2    1    2    0    0 -0.73176233235E+00 -0.29143827836E+02 -0.34339704650E+02  0.46142317715E+02  0.99999995817E+01 0.  0.
         12    1    1    2    0    0  0.73176233235E+00  0.29143827836E+02  0.34339704650E+02  0.45045682285E+02  0.00000000000E+00 0. -1.
         11    1    3    3    0    0  0.27000786017E+01 -0.60546599117E+01 -0.12054846086E+02  0.13757494159E+02  0.51100000000E-03 0. -1.
        -11    1    3    3    0    0 -0.34010617402E+01 -0.13940743538E+02 -0.13583383231E+02  0.19759044806E+02  0.51100000000E-03 0.  1.
        -12    1    3    3    0    0 -0.30779193866E-01 -0.91484243857E+01 -0.87014753325E+01  0.12625778751E+02  0.00000000000E+00 0.  1.
</event>
<event>
 7    1  0.3046295E-009  0.4614232E+02  0.7816164E-02  0.1320468E+00
        -11   -1    0    0    0    0  0.00000000000E+00  0.00000000000E+00  0.45593999997E+02  0.45594000000E+02  0.51100000000E-03 0. -1.
         11   -1    0    0    0    0 -0.00000000000E+00 -0.00000000000E+00 -0.45593999997E+02  0.45594000000E+02  0.51100000000E-03 0.  1.
    9900012    2    1    2    0    0 -0.10645515967E+02 -0.21656204805E+02 -0.38036761796E+02  0.46142318024E+02  0.10000002398E+02 0.  0.
         12    1    1    2    0    0  0.10645515967E+02  0.21656204805E+02  0.38036761796E+02  0.45045681976E+02  0.00000000000E+00 0. -1.
         11    1    3    3    0    0 -0.18358761720E+01 -0.13277989876E+01 -0.53374081356E+01  0.57983978250E+01  0.51100000000E-03 0.  1.
        -11    1    3    3    0    0  0.92375446250E+00 -0.68367704761E+01 -0.79926119704E+01  0.10558247924E+02  0.51100000000E-03 0. -1.
        -12    1    3    3    0    0 -0.97333942573E+01 -0.13491635341E+02 -0.24706741690E+02  0.29785672275E+02  0.00000000000E+00 0.  1.
</event>
<event>
 7    1  0.3046295E-009  0.4614232E+02  0.7816164E-02  0.1320468E+00
        -11   -1    0    0    0    0  0.00000000000E+00  0.00000000000E+00  0.45593999997E+02  0.45594000000E+02  0.51100000000E-03 0.  1.
         11   -1    0    0    0    0 -0.00000000000E+00 -0.00000000000E+00 -0.45593999997E+02  0.45594000000E+02  0.51100000000E-03 0. -1.
    9900012    2    1    2    0    0 -0.16282481394E+02  0.37165253160E+02  0.19563697502E+02  0.46142317602E+02  0.99999985449E+01 0.  0.
         12    1    1    2    0    0  0.16282481394E+02 -0.37165253160E+02 -0.19563697502E+02  0.45045682398E+02  0.00000000000E+00 0. -1.
         11    1    3    3    0    0 -0.86806209210E+01  0.10970983969E+02  0.44680159520E+01  0.14686008158E+02  0.51100000000E-03 0. -1.
        -11    1    3    3    0    0 -0.65252694310E+01  0.19864953942E+02  0.13333114602E+02  0.24798537891E+02  0.51100000000E-03 0.  1.
        -12    1    3    3    0    0 -0.10765910417E+01  0.63293152498E+01  0.17625669474E+01  0.66577715526E+01  0.00000000000E+00 0.  1.
</event>
<event>
 7    1  0.3046295E-009  0.4614231E+02  0.7816164E-02  0.1320468E+00
        -11   -1    0    0    0    0  0.00000000000E+00  0.00000000000E+00  0.45593999997E+02  0.45594000000E+02  0.51100000000E-03 0.  1.
         11   -1    0    0    0    0 -0.00000000000E+00 -0.00000000000E+00 -0.45593999997E+02  0.45594000000E+02  0.51100000000E-03 0. -1.
    9900012    2    1    2    0    0 -0.19583635801E+02  0.38539099562E+02  0.12662262744E+02  0.46142313370E+02  0.99999599549E+01 0.  0.
         12    1    1    2    0    0  0.19583635801E+02 -0.38539099562E+02 -0.12662262744E+02  0.45045686630E+02  0.00000000000E+00 0. -1.
         11    1    3    3    0    0 -0.57049798267E+01  0.82177438434E+01 -0.26728768795E+00  0.10007474790E+02  0.51100000000E-03 0. -1.
        -11    1    3    3    0    0 -0.11254305576E+02  0.28170937260E+02  0.11935612665E+02  0.32599385731E+02  0.51100000000E-03 0.  1.
         12    1    3    3    0    0 -0.26243503989E+01  0.21504184582E+01  0.99393776634E+00  0.35354528486E+01  0.00000000000E+00 0. -1.
</event>
<event>
 7    1  0.3046295E-009  0.4614232E+02  0.7816164E-02  0.1320468E+00
        -11   -1    0    0    0    0  0.00000000000E+00  0.00000000000E+00  0.45593999997E+02  0.45594000000E+02  0.51100000000E-03 0.  1.
         11   -1    0    0    0    0 -0.00000000000E+00 -0.00000000000E+00 -0.45593999997E+02  0.45594000000E+02  0.51100000000E-03 0. -1.
    9900012    2    1    2    0    0  0.39485256048E+02  0.11088115488E+02  0.18630127790E+02  0.46142318612E+02  0.10000007760E+02 0.  0.
         12    1    1    2    0    0 -0.39485256048E+02 -0.11088115488E+02 -0.18630127790E+02  0.45045681388E+02  0.00000000000E+00 0. -1.
         11    1    3    3    0    0  0.31131350893E+01 -0.81743431803E+00 -0.64585277106E+00  0.32828242432E+01  0.51100000000E-03 0. -1.
        -11    1    3    3    0    0  0.24784476141E+02  0.77033281393E+01  0.13027158147E+02  0.29039944416E+02  0.51100000000E-03 0.  1.
         12    1    3    3    0    0  0.11587644817E+02  0.42022216672E+01  0.62488224146E+01  0.13819549953E+02  0.00000000000E+00 0. -1.
</event>
<event>
 7    1  0.3046295E-009  0.4614232E+02  0.7816164E-02  0.1320468E+00
        -11   -1    0    0    0    0  0.00000000000E+00  0.00000000000E+00  0.45593999997E+02  0.45594000000E+02  0.51100000000E-03 0.  1.
         11   -1    0    0    0    0 -0.00000000000E+00 -0.00000000000E+00 -0.45593999997E+02  0.45594000000E+02  0.51100000000E-03 0. -1.
    9900012    2    1    2    0    0 -0.34648875584E+02 -0.84753087181E+01 -0.27508874487E+02  0.46142316382E+02  0.99999874224E+01 0.  0.
         12    1    1    2    0    0  0.34648875584E+02  0.84753087181E+01  0.27508874487E+02  0.45045683618E+02  0.00000000000E+00 0. -1.
         11    1    3    3    0    0 -0.15896726447E+02 -0.42926265224E+01 -0.99169512960E+01  0.19221822948E+02  0.51100000000E-03 0. -1.
        -11    1    3    3    0    0 -0.60981994130E+01 -0.31684761925E+01 -0.27806674993E+01  0.74134600199E+01  0.51100000000E-03 0.  1.
         12    1    3    3    0    0 -0.12653949724E+02 -0.10142060032E+01 -0.14811255692E+02  0.19507033413E+02  0.00000000000E+00 0. -1.
</event>
<event>
 7    1  0.3046295E-009  0.4614232E+02  0.7816164E-02  0.1320468E+00
        -11   -1    0    0    0    0  0.00000000000E+00  0.00000000000E+00  0.45593999997E+02  0.45594000000E+02  0.51100000000E-03 0.  1.
         11   -1    0    0    0    0 -0.00000000000E+00 -0.00000000000E+00 -0.45593999997E+02  0.45594000000E+02  0.51100000000E-03 0. -1.
    9900012    2    1    2    0    0  0.25635724827E+02  0.35894644932E+01  0.36865143845E+02  0.46142317927E+02  0.10000001510E+02 0.  0.
         12    1    1    2    0    0 -0.25635724827E+02 -0.35894644932E+01 -0.36865143845E+02  0.45045682073E+02  0.00000000000E+00 0. -1.
         11    1    3    3    0    0  0.16346948050E+01  0.29627432610E+00 -0.25595535834E+00  0.16809280141E+01  0.51100000000E-03 0. -1.
        -11    1    3    3    0    0  0.38844796716E+01 -0.79929055098E-01  0.41006427206E+01  0.56489682205E+01  0.51100000000E-03 0.  1.
         12    1    3    3    0    0  0.20116550350E+02  0.33731192222E+01  0.33020456483E+02  0.38812421692E+02  0.00000000000E+00 0. -1.
</event>
<event>
 7    1  0.3046295E-009  0.4614232E+02  0.7816164E-02  0.1320468E+00
        -11   -1    0    0    0    0  0.00000000000E+00  0.00000000000E+00  0.45593999997E+02  0.45594000000E+02  0.51100000000E-03 0.  1.
         11   -1    0    0    0    0 -0.00000000000E+00 -0.00000000000E+00 -0.45593999997E+02  0.45594000000E+02  0.51100000000E-03 0. -1.
    9900012    2    1    2    0    0  0.40522023358E+01 -0.11435904577E+02  0.43381023289E+02  0.46142318311E+02  0.10000005014E+02 0.  0.
         12    1    1    2    0    0 -0.40522023358E+01  0.11435904577E+02 -0.43381023289E+02  0.45045681689E+02  0.00000000000E+00 0. -1.
         11    1    3    3    0    0  0.68796049518E+00 -0.82987245953E+00  0.49038838986E+01  0.50209616105E+01  0.51100000000E-03 0.  1.
        -11    1    3    3    0    0  0.21450249701E+01  0.12828036368E+01  0.81384277551E+01  0.85135611749E+01  0.51100000000E-03 0. -1.
        -12    1    3    3    0    0  0.12192168706E+01 -0.11888835754E+02  0.30338711635E+02  0.32607795526E+02  0.00000000000E+00 0.  1.
</event>
<event>
 7    1  0.3046295E-009  0.4614232E+02  0.7816164E-02  0.1320468E+00
        -11   -1    0    0    0    0  0.00000000000E+00  0.00000000000E+00  0.45593999997E+02  0.45594000000E+02  0.51100000000E-03 0.  1.
         11   -1    0    0    0    0 -0.00000000000E+00 -0.00000000000E+00 -0.45593999997E+02  0.45594000000E+02  0.51100000000E-03 0. -1.
    9900012    2    1    2    0    0 -0.26038467527E+02  0.29579793943E+02  0.21820803929E+02  0.46142317799E+02  0.10000000348E+02 0.  0.
         12    1    1    2    0    0  0.26038467527E+02 -0.29579793943E+02 -0.21820803929E+02  0.45045682201E+02  0.00000000000E+00 0. -1.
         11    1    3    3    0    0 -0.89232623966E+01  0.71736800983E+01  0.22605308230E+01  0.11670316954E+02  0.51100000000E-03 0. -1.
        -11    1    3    3    0    0 -0.33357654200E+01  0.56766013619E+01  0.59850942801E+01  0.88978923213E+01  0.51100000000E-03 0.  1.
         12    1    3    3    0    0 -0.13779439710E+02  0.16729512483E+02  0.13575178826E+02  0.25574108524E+02  0.00000000000E+00 0. -1.
</event>
<event>
 7    1  0.3046295E-009  0.4614232E+02  0.7816164E-02  0.1320468E+00
        -11   -1    0    0    0    0  0.00000000000E+00  0.00000000000E+00  0.45593999997E+02  0.45594000000E+02  0.51100000000E-03 0. -1.
         11   -1    0    0    0    0 -0.00000000000E+00 -0.00000000000E+00 -0.45593999997E+02  0.45594000000E+02  0.51100000000E-03 0.  1.
    9900012    2    1    2    0    0 -0.12427492108E+02 -0.37540047221E+02 -0.21573496103E+02  0.46142318302E+02  0.10000004936E+02 0.  0.
         12    1    1    2    0    0  0.12427492108E+02  0.37540047221E+02  0.21573496103E+02  0.45045681698E+02  0.00000000000E+00 0. -1.
         11    1    3    3    0    0 -0.40737929483E+01 -0.17440282917E+02 -0.63752108255E+01  0.19010591010E+02  0.51100000000E-03 0. -1.
        -11    1    3    3    0    0 -0.14977656861E+00 -0.64413481139E+01 -0.55600811072E+01  0.85104583146E+01  0.51100000000E-03 0.  1.
         12    1    3    3    0    0 -0.82039225915E+01 -0.13658416190E+02 -0.96382041706E+01  0.18621268978E+02  0.00000000000E+00 0. -1.
</event>
<event>
 7    1  0.3046295E-009  0.4614232E+02  0.7816164E-02  0.1320468E+00
        -11   -1    0    0    0    0  0.00000000000E+00  0.00000000000E+00  0.45593999997E+02  0.45594000000E+02  0.51100000000E-03 0.  1.
         11   -1    0    0    0    0 -0.00000000000E+00 -0.00000000000E+00 -0.45593999997E+02  0.45594000000E+02  0.51100000000E-03 0. -1.
    9900012    2    1    2    0    0 -0.31227167451E+02 -0.23545285805E+02  0.22351666999E+02  0.46142317762E+02  0.10000000005E+02 0.  0.
         12    1    1    2    0    0  0.31227167451E+02  0.23545285805E+02 -0.22351666999E+02  0.45045682238E+02  0.00000000000E+00 0. -1.
         11    1    3    3    0    0 -0.12657535467E+01 -0.29360926925E+01  0.43786640379E+01  0.54217590649E+01  0.51100000000E-03 0. -1.
        -11    1    3    3    0    0 -0.30153015812E+01 -0.35033250997E+01  0.22423605839E+01  0.51374615940E+01  0.51100000000E-03 0.  1.
         12    1    3    3    0    0 -0.26946112323E+02 -0.17105868013E+02  0.15730642377E+02  0.35583097103E+02  0.00000000000E+00 0. -1.
</event>
<event>
 7    1  0.3046295E-009  0.4614232E+02  0.7816164E-02  0.1320468E+00
        -11   -1    0    0    0    0  0.00000000000E+00  0.00000000000E+00  0.45593999997E+02  0.45594000000E+02  0.51100000000E-03 0.  1.
         11   -1    0    0    0    0 -0.00000000000E+00 -0.00000000000E+00 -0.45593999997E+02  0.45594000000E+02  0.51100000000E-03 0. -1.
    9900012    2    1    2    0    0 -0.26194441087E+02  0.31696214882E+02  0.18393333642E+02  0.46142317586E+02  0.99999984019E+01 0.  0.
         12    1    1    2    0    0  0.26194441087E+02 -0.31696214882E+02 -0.18393333642E+02  0.45045682414E+02  0.00000000000E+00 0. -1.
         11    1    3    3    0    0 -0.13523732535E+02  0.12621916244E+02  0.98789255490E+01  0.20971344297E+02  0.51100000000E-03 0. -1.
        -11    1    3    3    0    0 -0.92722973496E+01  0.11284477987E+02  0.80090104339E+01  0.16657106290E+02  0.51100000000E-03 0.  1.
         12    1    3    3    0    0 -0.33984112016E+01  0.77898206513E+01  0.50539765877E+00  0.85138669985E+01  0.00000000000E+00 0. -1.
</event>
<event>
 7    1  0.3046295E-009  0.4614232E+02  0.7816164E-02  0.1320468E+00
        -11   -1    0    0    0    0  0.00000000000E+00  0.00000000000E+00  0.45593999997E+02  0.45594000000E+02  0.51100000000E-03 0.  1.
         11   -1    0    0    0    0 -0.00000000000E+00 -0.00000000000E+00 -0.45593999997E+02  0.45594000000E+02  0.51100000000E-03 0. -1.
    9900012    2    1    2    0    0 -0.49898357504E+01 -0.31489266122E+01  0.44657571005E+02  0.46142324873E+02  0.10000064848E+02 0.  0.
         12    1    1    2    0    0  0.49898357504E+01  0.31489266122E+01 -0.44657571005E+02  0.45045675127E+02  0.00000000000E+00 0. -1.
         11    1    3    3    0    0  0.15901743371E+01 -0.10918984990E+01  0.37828732972E+01  0.42462957267E+01  0.51100000000E-03 0. -1.
        -11    1    3    3    0    0  0.10638010550E+01 -0.29108697584E+00  0.91266489580E+01  0.91930476870E+01  0.51100000000E-03 0.  1.
        -12    1    3    3    0    0 -0.76438111425E+01 -0.17659411374E+01  0.31748048750E+02  0.32702981459E+02  0.00000000000E+00 0.  1.
</event>
<event>
 7    1  0.3046295E-009  0.4614232E+02  0.7816164E-02  0.1320468E+00
        -11   -1    0    0    0    0  0.00000000000E+00  0.00000000000E+00  0.45593999997E+02  0.45594000000E+02  0.51100000000E-03 0.  1.
         11   -1    0    0    0    0 -0.00000000000E+00 -0.00000000000E+00 -0.45593999997E+02  0.45594000000E+02  0.51100000000E-03 0. -1.
    9900012    2    1    2    0    0  0.14603309339E+02 -0.29243535914E+02  0.30994715660E+02  0.46142318350E+02  0.10000005374E+02 0.  0.
         12    1    1    2    0    0 -0.14603309339E+02  0.29243535914E+02 -0.30994715660E+02  0.45045681650E+02  0.00000000000E+00 0. -1.
         11    1    3    3    0    0 -0.10267194817E+01 -0.32779613926E+01  0.36328800304E+01  0.49997001272E+01  0.51100000000E-03 0. -1.
        -11    1    3    3    0    0  0.11531101481E+02 -0.14590847722E+02  0.15584169253E+02  0.24263665637E+02  0.51100000000E-03 0.  1.
        -12    1    3    3    0    0  0.40989273401E+01 -0.11374726800E+02  0.11777666377E+02  0.16878952586E+02  0.00000000000E+00 0.  1.
</event>
<event>
 7    1  0.3046295E-009  0.4614232E+02  0.7816164E-02  0.1320468E+00
        -11   -1    0    0    0    0  0.00000000000E+00  0.00000000000E+00  0.45593999997E+02  0.45594000000E+02  0.51100000000E-03 0.  1.
         11   -1    0    0    0    0 -0.00000000000E+00 -0.00000000000E+00 -0.45593999997E+02  0.45594000000E+02  0.51100000000E-03 0. -1.
    9900012    2    1    2    0    0 -0.32119384693E+02  0.27452379726E+02  0.15614912775E+02  0.46142317336E+02  0.99999961194E+01 0.  0.
         12    1    1    2    0    0  0.32119384693E+02 -0.27452379726E+02 -0.15614912775E+02  0.45045682664E+02  0.00000000000E+00 0. -1.
         11    1    3    3    0    0 -0.19307899602E+00 -0.12886802782E+00  0.48461774964E+00  0.53734634239E+00  0.51100000000E-03 0. -1.
        -11    1    3    3    0    0 -0.10327039656E+02  0.40899999072E+01  0.41269456734E+01  0.11849368260E+02  0.51100000000E-03 0.  1.
        -12    1    3    3    0    0 -0.21599266041E+02  0.23491247847E+02  0.11003349352E+02  0.33755602733E+02  0.00000000000E+00 0.  1.
</event>
<event>
 7    1  0.3046295E-009  0.4614232E+02  0.7816164E-02  0.1320468E+00
        -11   -1    0    0    0    0  0.00000000000E+00  0.00000000000E+00  0.45593999997E+02  0.45594000000E+02  0.51100000000E-03 0.  1.
         11   -1    0    0    0    0 -0.00000000000E+00 -0.00000000000E+00 -0.45593999997E+02  0.45594000000E+02  0.51100000000E-03 0. -1.
    9900012    2    1    2    0    0  0.10712321959E+02  0.14328690596E+02  0.41340632862E+02  0.46142321613E+02  0.10000035121E+02 0.  0.
         12    1    1    2    0    0 -0.10712321959E+02 -0.14328690596E+02 -0.41340632862E+02  0.45045678387E+02  0.00000000000E+00 0. -1.
         11    1    3    3    0    0  0.26098966358E+01  0.14614903530E+01  0.13042732359E+02  0.13381344557E+02  0.51100000000E-03 0. -1.
        -11    1    3    3    0    0  0.17796758969E+01  0.54067069970E+00  0.91441872390E+00  0.20726150070E+01  0.51100000000E-03 0.  1.
        -12    1    3    3    0    0  0.63227494258E+01  0.12326529543E+02  0.27383481779E+02  0.30688362049E+02  0.00000000000E+00 0.  1.
</event>
<event>
 7    1  0.3046295E-009  0.4614232E+02  0.7816164E-02  0.1320468E+00
        -11   -1    0    0    0    0  0.00000000000E+00  0.00000000000E+00  0.45593999997E+02  0.45594000000E+02  0.51100000000E-03 0. -1.
         11   -1    0    0    0    0 -0.00000000000E+00 -0.00000000000E+00 -0.45593999997E+02  0.45594000000E+02  0.51100000000E-03 0.  1.
    9900012    2    1    2    0    0 -0.33146038138E+02  0.28942268505E+02 -0.96332195491E+01  0.46142315752E+02  0.99999816822E+01 0.  0.
         12    1    1    2    0    0  0.33146038138E+02 -0.28942268505E+02  0.96332195491E+01  0.45045684248E+02  0.00000000000E+00 0. -1.
         11    1    3    3    0    0 -0.12401623691E+02  0.12893125403E+02 -0.40121430463E+01  0.18333855157E+02  0.51100000000E-03 0. -1.
        -11    1    3    3    0    0 -0.11893164658E+02  0.45843578987E+01 -0.23842880333E+01  0.12967209900E+02  0.51100000000E-03 0.  1.
        -12    1    3    3    0    0 -0.88512497895E+01  0.11464785204E+02 -0.32367884694E+01  0.14841250695E+02  0.00000000000E+00 0.  1.
</event>
<event>
 7    1  0.3046295E-009  0.4614232E+02  0.7816164E-02  0.1320468E+00
        -11   -1    0    0    0    0  0.00000000000E+00  0.00000000000E+00  0.45593999997E+02  0.45594000000E+02  0.51100000000E-03 0. -1.
         11   -1    0    0    0    0 -0.00000000000E+00 -0.00000000000E+00 -0.45593999997E+02  0.45594000000E+02  0.51100000000E-03 0.  1.
    9900012    2    1    2    0    0  0.32098976113E+02  0.23365520712E+02 -0.21279607585E+02  0.46142317359E+02  0.99999963287E+01 0.  0.
         12    1    1    2    0    0 -0.32098976113E+02 -0.23365520712E+02  0.21279607585E+02  0.45045682641E+02  0.00000000000E+00 0. -1.
         11    1    3    3    0    0  0.82151965961E+01  0.94537281677E+01 -0.68360099314E+01  0.14268618133E+02  0.51100000000E-03 0. -1.
        -11    1    3    3    0    0  0.17922782502E+02  0.13258096105E+02 -0.10132669497E+02  0.24488246902E+02  0.51100000000E-03 0.  1.
        -12    1    3    3    0    0  0.59609970149E+01  0.65369643940E+00 -0.43109281568E+01  0.73854523233E+01  0.00000000000E+00 0.  1.
</event>
<event>
 7    1  0.3046295E-009  0.4614232E+02  0.7816164E-02  0.1320468E+00
        -11   -1    0    0    0    0  0.00000000000E+00  0.00000000000E+00  0.45593999997E+02  0.45594000000E+02  0.51100000000E-03 0.  1.
         11   -1    0    0    0    0 -0.00000000000E+00 -0.00000000000E+00 -0.45593999997E+02  0.45594000000E+02  0.51100000000E-03 0. -1.
    9900012    2    1    2    0    0 -0.33940843805E+02 -0.19768112325E+02  0.22053443226E+02  0.46142317618E+02  0.99999986996E+01 0.  0.
         12    1    1    2    0    0  0.33940843805E+02  0.19768112325E+02 -0.22053443226E+02  0.45045682382E+02  0.00000000000E+00 0. -1.
         11    1    3    3    0    0 -0.30488308381E+01 -0.20425099392E+00  0.39433761909E+01  0.49887176700E+01  0.51100000000E-03 0. -1.
        -11    1    3    3    0    0 -0.13077914301E+02 -0.55575085353E+01  0.56401340735E+01  0.15288193360E+02  0.51100000000E-03 0.  1.
        -12    1    3    3    0    0 -0.17814098666E+02 -0.14006352796E+02  0.12469932961E+02  0.25865406589E+02  0.00000000000E+00 0.  1.
</event>
<event>
 7    1  0.3046295E-009  0.4614232E+02  0.7816164E-02  0.1320468E+00
        -11   -1    0    0    0    0  0.00000000000E+00  0.00000000000E+00  0.45593999997E+02  0.45594000000E+02  0.51100000000E-03 0. -1.
         11   -1    0    0    0    0 -0.00000000000E+00 -0.00000000000E+00 -0.45593999997E+02  0.45594000000E+02  0.51100000000E-03 0.  1.
    9900012    2    1    2    0    0 -0.80563746220E+01 -0.44235654059E+02 -0.27231196768E+01  0.46142316046E+02  0.99999843618E+01 0.  0.
         12    1    1    2    0    0  0.80563746220E+01  0.44235654059E+02  0.27231196768E+01  0.45045683954E+02  0.00000000000E+00 0. -1.
         11    1    3    3    0    0 -0.55582590455E+01 -0.21122251449E+02 -0.85526554728E+00  0.21858070119E+02  0.51100000000E-03 0.  1.
        -11    1    3    3    0    0 -0.22494517694E+01 -0.17676084376E+01 -0.36722113755E+00  0.28843239201E+01  0.51100000000E-03 0. -1.
         12    1    3    3    0    0 -0.24866380718E+00 -0.21345794172E+02 -0.15006329919E+01  0.21399922007E+02  0.00000000000E+00 0. -1.
</event>
<event>
 7    1  0.3046295E-009  0.4614232E+02  0.7816164E-02  0.1320468E+00
        -11   -1    0    0    0    0  0.00000000000E+00  0.00000000000E+00  0.45593999997E+02  0.45594000000E+02  0.51100000000E-03 0.  1.
         11   -1    0    0    0    0 -0.00000000000E+00 -0.00000000000E+00 -0.45593999997E+02  0.45594000000E+02  0.51100000000E-03 0. -1.
    9900012    2    1    2    0    0 -0.19680565480E+02  0.38632082591E+02  0.12220920052E+02  0.46142319299E+02  0.10000014027E+02 0.  0.
         12    1    1    2    0    0  0.19680565480E+02 -0.38632082591E+02 -0.12220920052E+02  0.45045680701E+02  0.00000000000E+00 0. -1.
         11    1    3    3    0    0  0.28080488683E-01  0.11727087570E+01 -0.21878961731E+00  0.11932742771E+01  0.51100000000E-03 0. -1.
        -11    1    3    3    0    0 -0.17331017745E+02  0.34274362108E+02  0.13703365109E+02  0.40778404696E+02  0.51100000000E-03 0.  1.
        -12    1    3    3    0    0 -0.23776282231E+01  0.31850117251E+01 -0.12636554399E+01  0.41706403258E+01  0.00000000000E+00 0.  1.
</event>
<event>
 7    1  0.3046295E-009  0.4614232E+02  0.7816164E-02  0.1320468E+00
        -11   -1    0    0    0    0  0.00000000000E+00  0.00000000000E+00  0.45593999997E+02  0.45594000000E+02  0.51100000000E-03 0. -1.
         11   -1    0    0    0    0 -0.00000000000E+00 -0.00000000000E+00 -0.45593999997E+02  0.45594000000E+02  0.51100000000E-03 0.  1.
    9900012    2    1    2    0    0 -0.65897128932E+01  0.43345964017E+02  0.10335208154E+02  0.46142318296E+02  0.10000004874E+02 0.  0.
         12    1    1    2    0    0  0.65897128932E+01 -0.43345964017E+02 -0.10335208154E+02  0.45045681704E+02  0.00000000000E+00 0. -1.
         11    1    3    3    0    0 -0.80326838543E+00  0.46408059186E+01 -0.12535491774E+01  0.48737773312E+01  0.51100000000E-03 0. -1.
        -11    1    3    3    0    0 -0.34201677601E+01  0.33100569508E+02  0.80729393280E+01  0.34242044316E+02  0.51100000000E-03 0.  1.
        -12    1    3    3    0    0 -0.23662767477E+01  0.56045885907E+01  0.35158180037E+01  0.70264966486E+01  0.00000000000E+00 0.  1.
</event>
<event>
 7    1  0.3046295E-009  0.4614232E+02  0.7816164E-02  0.1320468E+00
        -11   -1    0    0    0    0  0.00000000000E+00  0.00000000000E+00  0.45593999997E+02  0.45594000000E+02  0.51100000000E-03 0. -1.
         11   -1    0    0    0    0 -0.00000000000E+00 -0.00000000000E+00 -0.45593999997E+02  0.45594000000E+02  0.51100000000E-03 0.  1.
    9900012    2    1    2    0    0  0.34542721618E+02 -0.64655010981E+01 -0.28179977291E+02  0.46142318283E+02  0.10000004763E+02 0.  0.
         12    1    1    2    0    0 -0.34542721618E+02  0.64655010981E+01  0.28179977291E+02  0.45045681717E+02  0.00000000000E+00 0. -1.
         11    1    3    3    0    0  0.35684967432E+01 -0.39576418293E+01 -0.37563516665E+01  0.65197604219E+01  0.51100000000E-03 0. -1.
        -11    1    3    3    0    0  0.12032945805E+02 -0.14737250186E+01 -0.11144744308E+02  0.16467209117E+02  0.51100000000E-03 0.  1.
         12    1    3    3    0    0  0.18941279070E+02 -0.10341342502E+01 -0.13278881317E+02  0.23155348744E+02  0.00000000000E+00 0. -1.
</event>
<event>
 7    1  0.3046295E-009  0.4614232E+02  0.7816164E-02  0.1320468E+00
        -11   -1    0    0    0    0  0.00000000000E+00  0.00000000000E+00  0.45593999997E+02  0.45594000000E+02  0.51100000000E-03 0. -1.
         11   -1    0    0    0    0 -0.00000000000E+00 -0.00000000000E+00 -0.45593999997E+02  0.45594000000E+02  0.51100000000E-03 0.  1.
    9900012    2    1    2    0    0  0.44723710685E+02 -0.38326052257E+01  0.37701948248E+01  0.46142317307E+02  0.99999958604E+01 0.  0.
         12    1    1    2    0    0 -0.44723710685E+02  0.38326052257E+01 -0.37701948248E+01  0.45045682693E+02  0.00000000000E+00 0. -1.
         11    1    3    3    0    0  0.71990621447E+01  0.20449514663E+01 -0.47316320502E+00  0.74988136356E+01  0.51100000000E-03 0. -1.
        -11    1    3    3    0    0  0.29209012284E+02 -0.69506600437E+01  0.34066297111E+01  0.30217266586E+02  0.51100000000E-03 0.  1.
        -12    1    3    3    0    0  0.83156362560E+01  0.10731033517E+01  0.83672831876E+00  0.84262370857E+01  0.00000000000E+00 0.  1.
</event>
<event>
 7    1  0.3046295E-009  0.4614231E+02  0.7816164E-02  0.1320468E+00
        -11   -1    0    0    0    0  0.00000000000E+00  0.00000000000E+00  0.45593999997E+02  0.45594000000E+02  0.51100000000E-03 0.  1.
         11   -1    0    0    0    0 -0.00000000000E+00 -0.00000000000E+00 -0.45593999997E+02  0.45594000000E+02  0.51100000000E-03 0. -1.
    9900012    2    1    2    0    0  0.55483147673E+01  0.39574370151E+01  0.44527167653E+02  0.46142314705E+02  0.99999721337E+01 0.  0.
         12    1    1    2    0    0 -0.55483147673E+01 -0.39574370151E+01 -0.44527167653E+02  0.45045685295E+02  0.00000000000E+00 0. -1.
         11    1    3    3    0    0  0.37033634910E+01  0.30370443950E+01  0.11206853547E+02  0.12187374881E+02  0.51100000000E-03 0. -1.
        -11    1    3    3    0    0  0.27518748230E+01 -0.11967125633E+01  0.27962544300E+02  0.28123101180E+02  0.51100000000E-03 0.  1.
         12    1    3    3    0    0 -0.90692354670E+00  0.21171051833E+01  0.53577698058E+01  0.58318386439E+01  0.00000000000E+00 0. -1.
</event>
<event>
 7    1  0.3046295E-009  0.4614232E+02  0.7816164E-02  0.1320468E+00
        -11   -1    0    0    0    0  0.00000000000E+00  0.00000000000E+00  0.45593999997E+02  0.45594000000E+02  0.51100000000E-03 0. -1.
         11   -1    0    0    0    0 -0.00000000000E+00 -0.00000000000E+00 -0.45593999997E+02  0.45594000000E+02  0.51100000000E-03 0.  1.
    9900012    2    1    2    0    0  0.41563974381E+02 -0.13114458875E+02 -0.11382467430E+02  0.46142316936E+02  0.99999924773E+01 0.  0.
         12    1    1    2    0    0 -0.41563974381E+02  0.13114458875E+02  0.11382467430E+02  0.45045683064E+02  0.00000000000E+00 0. -1.
         11    1    3    3    0    0  0.26668449729E+02 -0.76889761565E+01 -0.26068098112E+01  0.27876908418E+02  0.51100000000E-03 0. -1.
        -11    1    3    3    0    0  0.66139550638E+01 -0.26999535059E+01 -0.26922584941E+01  0.76342914917E+01  0.51100000000E-03 0.  1.
         12    1    3    3    0    0  0.82815695879E+01 -0.27255292130E+01 -0.60833991244E+01  0.10631117027E+02  0.00000000000E+00 0. -1.
</event>
<event>
 7    1  0.3349495E-009  0.4614232E+02  0.7816164E-02  0.1320468E+00
        -11   -1    0    0    0    0  0.00000000000E+00  0.00000000000E+00  0.45593999997E+02  0.45594000000E+02  0.51100000000E-03 0.  1.
         11   -1    0    0    0    0 -0.00000000000E+00 -0.00000000000E+00 -0.45593999997E+02  0.45594000000E+02  0.51100000000E-03 0. -1.
    9900012    2    1    2    0    0 -0.73034385814E+01 -0.44238008886E+02  0.43326489262E+01  0.46142317721E+02  0.99999996332E+01 0.  0.
         12    1    1    2    0    0  0.73034385814E+01  0.44238008886E+02 -0.43326489262E+01  0.45045682279E+02  0.00000000000E+00 0. -1.
         11    1    3    3    0    0 -0.45613286617E+01 -0.11235118427E+02  0.66240626685E+00  0.12143820962E+02  0.51100000000E-03 0. -1.
        -11    1    3    3    0    0 -0.35558734697E+00 -0.25823385833E+02  0.59802354626E+00  0.25832756931E+02  0.51100000000E-03 0.  1.
        -12    1    3    3    0    0 -0.23865225726E+01 -0.71795046257E+01  0.30722191131E+01  0.81657398280E+01  0.00000000000E+00 0.  1.
</event>
<event>
 7    1  0.3046295E-009  0.4614232E+02  0.7816164E-02  0.1320468E+00
        -11   -1    0    0    0    0  0.00000000000E+00  0.00000000000E+00  0.45593999997E+02  0.45594000000E+02  0.51100000000E-03 0. -1.
         11   -1    0    0    0    0 -0.00000000000E+00 -0.00000000000E+00 -0.45593999997E+02  0.45594000000E+02  0.51100000000E-03 0.  1.
    9900012    2    1    2    0    0  0.10652088887E+02  0.22207945200E+02 -0.37715430225E+02  0.46142317580E+02  0.99999983488E+01 0.  0.
         12    1    1    2    0    0 -0.10652088887E+02 -0.22207945200E+02  0.37715430225E+02  0.45045682420E+02  0.00000000000E+00 0. -1.
         11    1    3    3    0    0  0.14818322264E+00  0.28183028230E+01 -0.10899525697E+02  0.11258971967E+02  0.51100000000E-03 0. -1.
        -11    1    3    3    0    0  0.68648217807E+01  0.11010487383E+02 -0.17989949944E+02  0.22180958269E+02  0.51100000000E-03 0.  1.
         12    1    3    3    0    0  0.36390838837E+01  0.83791549941E+01 -0.88259545837E+01  0.12702387344E+02  0.00000000000E+00 0. -1.
</event>
<event>
 7    1  0.3046295E-009  0.4614232E+02  0.7816164E-02  0.1320468E+00
        -11   -1    0    0    0    0  0.00000000000E+00  0.00000000000E+00  0.45593999997E+02  0.45594000000E+02  0.51100000000E-03 0.  1.
         11   -1    0    0    0    0 -0.00000000000E+00 -0.00000000000E+00 -0.45593999997E+02  0.45594000000E+02  0.51100000000E-03 0. -1.
    9900012    2    1    2    0    0  0.32554021936E+02 -0.24004005936E+02  0.19828183831E+02  0.46142317419E+02  0.99999968776E+01 0.  0.
         12    1    1    2    0    0 -0.32554021936E+02  0.24004005936E+02 -0.19828183831E+02  0.45045682581E+02  0.00000000000E+00 0. -1.
         11    1    3    3    0    0  0.14577406030E+02 -0.16166533376E+02  0.88661555102E+01  0.23504601289E+02  0.51100000000E-03 0. -1.
        -11    1    3    3    0    0  0.68347449832E+01 -0.17003421992E+01  0.46292838129E+01  0.84282365570E+01  0.51100000000E-03 0.  1.
         12    1    3    3    0    0  0.11141870922E+02 -0.61371303606E+01  0.63327445083E+01  0.14209479573E+02  0.00000000000E+00 0. -1.
</event>
<event>
 7    1  0.3046295E-009  0.4614232E+02  0.7816164E-02  0.1320468E+00
        -11   -1    0    0    0    0  0.00000000000E+00  0.00000000000E+00  0.45593999997E+02  0.45594000000E+02  0.51100000000E-03 0.  1.
         11   -1    0    0    0    0 -0.00000000000E+00 -0.00000000000E+00 -0.45593999997E+02  0.45594000000E+02  0.51100000000E-03 0. -1.
    9900012    2    1    2    0    0  0.31477363563E+01  0.32916640153E+02  0.30589215821E+02  0.46142316880E+02  0.99999919688E+01 0.  0.
         12    1    1    2    0    0 -0.31477363563E+01 -0.32916640153E+02 -0.30589215821E+02  0.45045683120E+02  0.00000000000E+00 0. -1.
         11    1    3    3    0    0 -0.29293629241E+01  0.71630525712E+01  0.65622374284E+01  0.10146597933E+02  0.51100000000E-03 0. -1.
        -11    1    3    3    0    0  0.49846011787E+01  0.21506614224E+02  0.21991927737E+02  0.31161283512E+02  0.51100000000E-03 0.  1.
         12    1    3    3    0    0  0.10924981017E+01  0.42469733585E+01  0.20350506562E+01  0.48344354358E+01  0.00000000000E+00 0. -1.
</event>
<event>
 7    1  0.3046295E-009  0.4614232E+02  0.7816164E-02  0.1320468E+00
        -11   -1    0    0    0    0  0.00000000000E+00  0.00000000000E+00  0.45593999997E+02  0.45594000000E+02  0.51100000000E-03 0. -1.
         11   -1    0    0    0    0 -0.00000000000E+00 -0.00000000000E+00 -0.45593999997E+02  0.45594000000E+02  0.51100000000E-03 0.  1.
    9900012    2    1    2    0    0 -0.28868859989E+02  0.33923240564E+02 -0.67019533270E+01  0.46142317567E+02  0.99999982340E+01 0.  0.
         12    1    1    2    0    0  0.28868859989E+02 -0.33923240564E+02  0.67019533270E+01  0.45045682433E+02  0.00000000000E+00 0. -1.
         11    1    3    3    0    0 -0.13809529629E+02  0.16497937108E+02  0.17915088531E+01  0.21589222812E+02  0.51100000000E-03 0. -1.
        -11    1    3    3    0    0 -0.50307340782E+01  0.56654373617E+01 -0.30420482820E+01  0.81645283928E+01  0.51100000000E-03 0.  1.
         12    1    3    3    0    0 -0.10028596282E+02  0.11759866094E+02 -0.54514138982E+01  0.16388566363E+02  0.00000000000E+00 0. -1.
</event>
<event>
 7    1  0.3046295E-009  0.4614232E+02  0.7816164E-02  0.1320468E+00
        -11   -1    0    0    0    0  0.00000000000E+00  0.00000000000E+00  0.45593999997E+02  0.45594000000E+02  0.51100000000E-03 0.  1.
         11   -1    0    0    0    0 -0.00000000000E+00 -0.00000000000E+00 -0.45593999997E+02  0.45594000000E+02  0.51100000000E-03 0. -1.
    9900012    2    1    2    0    0  0.22530776437E+02 -0.22943296662E+02  0.31544931707E+02  0.46142318021E+02  0.10000002367E+02 0.  0.
         12    1    1    2    0    0 -0.22530776437E+02  0.22943296662E+02 -0.31544931707E+02  0.45045681979E+02  0.00000000000E+00 0. -1.
         11    1    3    3    0    0  0.25963154058E+01 -0.66642663107E+01  0.10802731744E+02  0.12955782977E+02  0.51100000000E-03 0. -1.
        -11    1    3    3    0    0  0.11258170747E+02 -0.90544078920E+01  0.97547985592E+01  0.17432292048E+02  0.51100000000E-03 0.  1.
         12    1    3    3    0    0  0.86762902840E+01 -0.72246224595E+01  0.10987401404E+02  0.15754242996E+02  0.00000000000E+00 0. -1.
</event>
<event>
 7    1  0.3046295E-009  0.4614232E+02  0.7816164E-02  0.1320468E+00
        -11   -1    0    0    0    0  0.00000000000E+00  0.00000000000E+00  0.45593999997E+02  0.45594000000E+02  0.51100000000E-03 0.  1.
         11   -1    0    0    0    0 -0.00000000000E+00 -0.00000000000E+00 -0.45593999997E+02  0.45594000000E+02  0.51100000000E-03 0. -1.
    9900012    2    1    2    0    0 -0.35474133225E+02 -0.28340045605E+01  0.27616440352E+02  0.46142317769E+02  0.10000000075E+02 0.  0.
         12    1    1    2    0    0  0.35474133225E+02  0.28340045605E+01 -0.27616440352E+02  0.45045682231E+02  0.00000000000E+00 0. -1.
         11    1    3    3    0    0 -0.85674904827E+01  0.25858088872E+00  0.11262050223E+02  0.14152827729E+02  0.51100000000E-03 0. -1.
        -11    1    3    3    0    0 -0.26169478877E+02 -0.37730374617E+01  0.16093784556E+02  0.30952985930E+02  0.51100000000E-03 0.  1.
         12    1    3    3    0    0 -0.73716386578E+00  0.68045201243E+00  0.26060557252E+00  0.10365041103E+01  0.00000000000E+00 0. -1.
</event>
<event>
 7    1  0.3046295E-009  0.4614232E+02  0.7816164E-02  0.1320468E+00
        -11   -1    0    0    0    0  0.00000000000E+00  0.00000000000E+00  0.45593999997E+02  0.45594000000E+02  0.51100000000E-03 0.  1.
         11   -1    0    0    0    0 -0.00000000000E+00 -0.00000000000E+00 -0.45593999997E+02  0.45594000000E+02  0.51100000000E-03 0. -1.
    9900012    2    1    2    0    0 -0.27839449012E+01 -0.83005024819E+01  0.44186704316E+02  0.46142317311E+02  0.99999958912E+01 0.  0.
         12    1    1    2    0    0  0.27839449012E+01  0.83005024819E+01 -0.44186704316E+02  0.45045682689E+02  0.00000000000E+00 0. -1.
         11    1    3    3    0    0  0.17773570396E+01 -0.44102741624E+01  0.13038121301E+02  0.13878116715E+02  0.51100000000E-03 0. -1.
        -11    1    3    3    0    0 -0.16586811082E+01  0.14849336321E+01  0.65318818563E+01  0.69008500749E+01  0.51100000000E-03 0.  1.
         12    1    3    3    0    0 -0.29026208326E+01 -0.53751619515E+01  0.24616701159E+02  0.25363350521E+02  0.00000000000E+00 0. -1.
</event>
<event>
 7    1  0.3046295E-009  0.4614232E+02  0.7816164E-02  0.1320468E+00
        -11   -1    0    0    0    0  0.00000000000E+00  0.00000000000E+00  0.45593999997E+02  0.45594000000E+02  0.51100000000E-03 0.  1.
         11   -1    0    0    0    0 -0.00000000000E+00 -0.00000000000E+00 -0.45593999997E+02  0.45594000000E+02  0.51100000000E-03 0. -1.
    9900012    2    1    2    0    0  0.39326358293E+01  0.27870633831E+02  0.35169241533E+02  0.46142318690E+02  0.10000008468E+02 0.  0.
         12    1    1    2    0    0 -0.39326358293E+01 -0.27870633831E+02 -0.35169241533E+02  0.45045681310E+02  0.00000000000E+00 0. -1.
         11    1    3    3    0    0  0.48154516884E+00 -0.40478070599E+00  0.92680188446E+00  0.11201317618E+01  0.51100000000E-03 0. -1.
        -11    1    3    3    0    0  0.20110075947E+01  0.18002229665E+02  0.16675988437E+02  0.24621393443E+02  0.51100000000E-03 0.  1.
        -12    1    3    3    0    0  0.14400830657E+01  0.10273184872E+02  0.17566451212E+02  0.20400793485E+02  0.00000000000E+00 0.  1.
</event>
<event>
 7    1  0.3046295E-009  0.4614232E+02  0.7816164E-02  0.1320468E+00
        -11   -1    0    0    0    0  0.00000000000E+00  0.00000000000E+00  0.45593999997E+02  0.45594000000E+02  0.51100000000E-03 0. -1.
         11   -1    0    0    0    0 -0.00000000000E+00 -0.00000000000E+00 -0.45593999997E+02  0.45594000000E+02  0.51100000000E-03 0.  1.
    9900012    2    1    2    0    0 -0.60263388100E+01 -0.42834398812E+02 -0.12570248502E+02  0.46142316207E+02  0.99999858270E+01 0.  0.
         12    1    1    2    0    0  0.60263388100E+01  0.42834398812E+02  0.12570248502E+02  0.45045683793E+02  0.00000000000E+00 0. -1.
         11    1    3    3    0    0 -0.49533957228E+01 -0.25573279008E+02 -0.66854714066E+01  0.26892829092E+02  0.51100000000E-03 0. -1.
        -11    1    3    3    0    0 -0.23264971946E+01 -0.15047050367E+02 -0.66175572018E+01  0.16601758266E+02  0.51100000000E-03 0.  1.
         12    1    3    3    0    0  0.12535541074E+01 -0.22140694369E+01  0.73278010661E+00  0.26477288487E+01  0.00000000000E+00 0. -1.
</event>
<event>
 7    1  0.3046295E-009  0.4614232E+02  0.7816164E-02  0.1320468E+00
        -11   -1    0    0    0    0  0.00000000000E+00  0.00000000000E+00  0.45593999997E+02  0.45594000000E+02  0.51100000000E-03 0.  1.
         11   -1    0    0    0    0 -0.00000000000E+00 -0.00000000000E+00 -0.45593999997E+02  0.45594000000E+02  0.51100000000E-03 0. -1.
    9900012    2    1    2    0    0 -0.32429357011E+02  0.31264066130E+02 -0.90957999640E-01  0.46142319847E+02  0.10000019020E+02 0.  0.
         12    1    1    2    0    0  0.32429357011E+02 -0.31264066130E+02  0.90957999640E-01  0.45045680153E+02  0.00000000000E+00 0. -1.
         11    1    3    3    0    0 -0.49787301677E+01  0.26434109251E+01 -0.10570683317E+01  0.57352218022E+01  0.51100000000E-03 0. -1.
        -11    1    3    3    0    0 -0.17720396274E+02  0.19337371361E+02 -0.29655855512E+01  0.26395853333E+02  0.51100000000E-03 0.  1.
         12    1    3    3    0    0 -0.97302305687E+01  0.92832838439E+01  0.39316958833E+01  0.14011244711E+02  0.00000000000E+00 0. -1.
</event>
<event>
 7    1  0.3046295E-009  0.4614232E+02  0.7816164E-02  0.1320468E+00
        -11   -1    0    0    0    0  0.00000000000E+00  0.00000000000E+00  0.45593999997E+02  0.45594000000E+02  0.51100000000E-03 0.  1.
         11   -1    0    0    0    0 -0.00000000000E+00 -0.00000000000E+00 -0.45593999997E+02  0.45594000000E+02  0.51100000000E-03 0. -1.
    9900012    2    1    2    0    0  0.22799028291E+02 -0.27196307325E+02  0.27743075665E+02  0.46142322399E+02  0.10000042292E+02 0.  0.
         12    1    1    2    0    0 -0.22799028291E+02  0.27196307325E+02 -0.27743075665E+02  0.45045677601E+02  0.00000000000E+00 0. -1.
         11    1    3    3    0    0  0.43086036140E+01 -0.88636009557E+01  0.39928555266E+01  0.10633455813E+02  0.51100000000E-03 0. -1.
        -11    1    3    3    0    0  0.66996607749E+01 -0.48036963967E+01  0.96101661424E+01  0.12661605235E+02  0.51100000000E-03 0.  1.
        -12    1    3    3    0    0  0.11790763902E+02 -0.13529009973E+02  0.14140053996E+02  0.22847261352E+02  0.00000000000E+00 0.  1.
</event>
<event>
 7    1  0.3046295E-009  0.4614232E+02  0.7816164E-02  0.1320468E+00
        -11   -1    0    0    0    0  0.00000000000E+00  0.00000000000E+00  0.45593999997E+02  0.45594000000E+02  0.51100000000E-03 0. -1.
         11   -1    0    0    0    0 -0.00000000000E+00 -0.00000000000E+00 -0.45593999997E+02  0.45594000000E+02  0.51100000000E-03 0.  1.
    9900012    2    1    2    0    0 -0.20367073426E+02  0.34357559461E+02 -0.20829159677E+02  0.46142318021E+02  0.10000002373E+02 0.  0.
         12    1    1    2    0    0  0.20367073426E+02 -0.34357559461E+02  0.20829159677E+02  0.45045681979E+02  0.00000000000E+00 0. -1.
         11    1    3    3    0    0 -0.13617618261E+02  0.23124207901E+02 -0.14643918322E+02  0.30571438668E+02  0.51100000000E-03 0. -1.
        -11    1    3    3    0    0 -0.49556683778E+01  0.10627734178E+02 -0.68305093827E+01  0.13570675794E+02  0.51100000000E-03 0.  1.
         12    1    3    3    0    0 -0.17937867870E+01  0.60561738218E+00  0.64526802716E+00  0.20002035591E+01  0.00000000000E+00 0. -1.
</event>
<event>
 7    1  0.3046295E-009  0.4614232E+02  0.7816164E-02  0.1320468E+00
        -11   -1    0    0    0    0  0.00000000000E+00  0.00000000000E+00  0.45593999997E+02  0.45594000000E+02  0.51100000000E-03 0. -1.
         11   -1    0    0    0    0 -0.00000000000E+00 -0.00000000000E+00 -0.45593999997E+02  0.45594000000E+02  0.51100000000E-03 0.  1.
    9900012    2    1    2    0    0  0.43147471968E+02  0.53428350324E+01 -0.11784034189E+02  0.46142315577E+02  0.99999800803E+01 0.  0.
         12    1    1    2    0    0 -0.43147471968E+02 -0.53428350324E+01  0.11784034189E+02  0.45045684423E+02  0.00000000000E+00 0. -1.
         11    1    3    3    0    0  0.20553782645E+02 -0.45486051010E+00 -0.38141133716E+01  0.20909623148E+02  0.51100000000E-03 0. -1.
        -11    1    3    3    0    0  0.12582940792E+02  0.14436277939E+01 -0.21013570334E+01  0.12838619934E+02  0.51100000000E-03 0.  1.
         12    1    3    3    0    0  0.10010748531E+02  0.43540677487E+01 -0.58685637844E+01  0.12394072494E+02  0.00000000000E+00 0. -1.
</event>
<event>
 7    1  0.3046295E-009  0.4614232E+02  0.7816164E-02  0.1320468E+00
        -11   -1    0    0    0    0  0.00000000000E+00  0.00000000000E+00  0.45593999997E+02  0.45594000000E+02  0.51100000000E-03 0. -1.
         11   -1    0    0    0    0 -0.00000000000E+00 -0.00000000000E+00 -0.45593999997E+02  0.45594000000E+02  0.51100000000E-03 0.  1.
    9900012    2    1    2    0    0  0.87011293178E+01 -0.43881624668E+02 -0.52732168131E+01  0.46142318182E+02  0.10000003834E+02 0.  0.
         12    1    1    2    0    0 -0.87011293178E+01  0.43881624668E+02  0.52732168131E+01  0.45045681818E+02  0.00000000000E+00 0. -1.
         11    1    3    3    0    0  0.14731635556E+01 -0.15412507057E+02  0.10844696088E+01  0.15520684883E+02  0.51100000000E-03 0. -1.
        -11    1    3    3    0    0  0.76254995879E+00 -0.27751054364E+00 -0.85606573032E+00  0.11795521766E+01  0.51100000000E-03 0.  1.
        -12    1    3    3    0    0  0.64654158034E+01 -0.28191607068E+02 -0.55016206916E+01  0.29442081122E+02  0.00000000000E+00 0.  1.
</event>
<event>
 7    1  0.5149437E-009  0.4614232E+02  0.7816164E-02  0.1320468E+00
        -11   -1    0    0    0    0  0.00000000000E+00  0.00000000000E+00  0.45593999997E+02  0.45594000000E+02  0.51100000000E-03 0. -1.
         11   -1    0    0    0    0 -0.00000000000E+00 -0.00000000000E+00 -0.45593999997E+02  0.45594000000E+02  0.51100000000E-03 0.  1.
    9900012    2    1    2    0    0  0.40538875485E+01  0.11679179880E+02 -0.43316004814E+02  0.46142317410E+02  0.99999968010E+01 0.  0.
         12    1    1    2    0    0 -0.40538875485E+01 -0.11679179880E+02  0.43316004814E+02  0.45045682590E+02  0.00000000000E+00 0. -1.
         11    1    3    3    0    0  0.77875533369E+00  0.54166192227E+00  0.10121445726E+00  0.95399273334E+00  0.51100000000E-03 0. -1.
        -11    1    3    3    0    0  0.24709046651E+01  0.10523365351E+02 -0.33071963474E+02  0.34793697080E+02  0.51100000000E-03 0.  1.
        -12    1    3    3    0    0  0.80422754970E+00  0.61415260621E+00 -0.10345255797E+02  0.10394627597E+02  0.00000000000E+00 0.  1.
</event>
<event>
 7    1  0.3046295E-009  0.4614232E+02  0.7816164E-02  0.1320468E+00
        -11   -1    0    0    0    0  0.00000000000E+00  0.00000000000E+00  0.45593999997E+02  0.45594000000E+02  0.51100000000E-03 0. -1.
         11   -1    0    0    0    0 -0.00000000000E+00 -0.00000000000E+00 -0.45593999997E+02  0.45594000000E+02  0.51100000000E-03 0.  1.
    9900012    2    1    2    0    0  0.10436403996E+02 -0.43812342044E+02 -0.82074989336E+00  0.46142317919E+02  0.10000001442E+02 0.  0.
         12    1    1    2    0    0 -0.10436403996E+02  0.43812342044E+02  0.82074989336E+00  0.45045682081E+02  0.00000000000E+00 0. -1.
         11    1    3    3    0    0 -0.94536124082E-01 -0.22279048121E+01  0.10186820804E+01  0.24515730404E+01  0.51100000000E-03 0. -1.
        -11    1    3    3    0    0  0.22425554008E+01 -0.72481992949E+01 -0.34431719373E+01  0.83319194064E+01  0.51100000000E-03 0.  1.
         12    1    3    3    0    0  0.82883847192E+01 -0.34336237937E+02  0.16037399636E+01  0.35358825472E+02  0.00000000000E+00 0. -1.
</event>
<event>
 7    1  0.3046295E-009  0.4614232E+02  0.7816164E-02  0.1320468E+00
        -11   -1    0    0    0    0  0.00000000000E+00  0.00000000000E+00  0.45593999997E+02  0.45594000000E+02  0.51100000000E-03 0.  1.
         11   -1    0    0    0    0 -0.00000000000E+00 -0.00000000000E+00 -0.45593999997E+02  0.45594000000E+02  0.51100000000E-03 0. -1.
    9900012    2    1    2    0    0 -0.20293514598E+02 -0.38596184011E+02  0.11296965401E+02  0.46142316719E+02  0.99999904955E+01 0.  0.
         12    1    1    2    0    0  0.20293514598E+02  0.38596184011E+02 -0.11296965401E+02  0.45045683281E+02  0.00000000000E+00 0. -1.
         11    1    3    3    0    0 -0.20073300556E+00 -0.32113300192E+01  0.20101638866E+01  0.37939021263E+01  0.51100000000E-03 0. -1.
        -11    1    3    3    0    0 -0.52790713016E+01 -0.47623929446E+01  0.31744101036E+01  0.77862609854E+01  0.51100000000E-03 0.  1.
         12    1    3    3    0    0 -0.14813710291E+02 -0.30622461047E+02  0.61123914111E+01  0.34562153607E+02  0.00000000000E+00 0. -1.
</event>
<event>
 7    1  0.3046295E-009  0.4614232E+02  0.7816164E-02  0.1320468E+00
        -11   -1    0    0    0    0  0.00000000000E+00  0.00000000000E+00  0.45593999997E+02  0.45594000000E+02  0.51100000000E-03 0. -1.
         11   -1    0    0    0    0 -0.00000000000E+00 -0.00000000000E+00 -0.45593999997E+02  0.45594000000E+02  0.51100000000E-03 0.  1.
    9900012    2    1    2    0    0  0.10646611049E+02 -0.29419064730E+02  0.32408052587E+02  0.46142316867E+02  0.99999918501E+01 0.  0.
         12    1    1    2    0    0 -0.10646611049E+02  0.29419064730E+02 -0.32408052587E+02  0.45045683133E+02  0.00000000000E+00 0. -1.
         11    1    3    3    0    0  0.13900522215E+01 -0.20170689054E+01  0.51592592193E+01  0.57112842777E+01  0.51100000000E-03 0. -1.
        -11    1    3    3    0    0  0.69207284149E+01 -0.26454190979E+02  0.24762778195E+02  0.36890593467E+02  0.51100000000E-03 0.  1.
        -12    1    3    3    0    0  0.23358304127E+01 -0.94780484503E+00  0.24860151730E+01  0.35404391227E+01  0.00000000000E+00 0.  1.
</event>
<event>
 7    1  0.3046295E-009  0.4614232E+02  0.7816164E-02  0.1320468E+00
        -11   -1    0    0    0    0  0.00000000000E+00  0.00000000000E+00  0.45593999997E+02  0.45594000000E+02  0.51100000000E-03 0.  1.
         11   -1    0    0    0    0 -0.00000000000E+00 -0.00000000000E+00 -0.45593999997E+02  0.45594000000E+02  0.51100000000E-03 0. -1.
    9900012    2    1    2    0    0 -0.22464351836E+02 -0.99484818090E+01  0.37755715626E+02  0.46142318119E+02  0.10000003261E+02 0.  0.
         12    1    1    2    0    0  0.22464351836E+02  0.99484818090E+01 -0.37755715626E+02  0.45045681881E+02  0.00000000000E+00 0. -1.
         11    1    3    3    0    0 -0.13088372902E+02 -0.66340932942E+01  0.26773058858E+02  0.30530531930E+02  0.51100000000E-03 0. -1.
        -11    1    3    3    0    0 -0.96272696423E+01 -0.23388105732E+01  0.10662217213E+02  0.14554629223E+02  0.51100000000E-03 0.  1.
         12    1    3    3    0    0  0.25129070884E+00 -0.97557794164E+00  0.32043955462E+00  0.10571569650E+01  0.00000000000E+00 0. -1.
</event>
<event>
 7    1  0.3046295E-009  0.4614232E+02  0.7816164E-02  0.1320468E+00
        -11   -1    0    0    0    0  0.00000000000E+00  0.00000000000E+00  0.45593999997E+02  0.45594000000E+02  0.51100000000E-03 0.  1.
         11   -1    0    0    0    0 -0.00000000000E+00 -0.00000000000E+00 -0.45593999997E+02  0.45594000000E+02  0.51100000000E-03 0. -1.
    9900012    2    1    2    0    0  0.22101404832E+02  0.19565954410E+02  0.34026679099E+02  0.46142316988E+02  0.99999929464E+01 0.  0.
         12    1    1    2    0    0 -0.22101404832E+02 -0.19565954410E+02 -0.34026679099E+02  0.45045683012E+02  0.00000000000E+00 0. -1.
         11    1    3    3    0    0  0.17903613702E+02  0.13274702856E+02  0.21217702960E+02  0.30772520836E+02  0.51100000000E-03 0. -1.
        -11    1    3    3    0    0  0.45246626837E+01  0.42345302708E+01  0.10931538667E+02  0.12565920456E+02  0.51100000000E-03 0.  1.
         12    1    3    3    0    0 -0.32687155317E+00  0.20567212836E+01  0.18774374726E+01  0.28038756952E+01  0.00000000000E+00 0. -1.
</event>
<event>
 7    1  0.3046295E-009  0.4614232E+02  0.7816164E-02  0.1320468E+00
        -11   -1    0    0    0    0  0.00000000000E+00  0.00000000000E+00  0.45593999997E+02  0.45594000000E+02  0.51100000000E-03 0.  1.
         11   -1    0    0    0    0 -0.00000000000E+00 -0.00000000000E+00 -0.45593999997E+02  0.45594000000E+02  0.51100000000E-03 0. -1.
    9900012    2    1    2    0    0 -0.26348489475E+02  0.34977517303E+02  0.10556699107E+02  0.46142317518E+02  0.99999977792E+01 0.  0.
         12    1    1    2    0    0  0.26348489475E+02 -0.34977517303E+02 -0.10556699107E+02  0.45045682482E+02  0.00000000000E+00 0. -1.
         11    1    3    3    0    0 -0.16308595195E+02  0.18476660391E+02  0.74065692619E+01  0.25733529197E+02  0.51100000000E-03 0.  1.
        -11    1    3    3    0    0 -0.32451152025E+01  0.10786730098E+02  0.12898130242E+01  0.11337898253E+02  0.51100000000E-03 0. -1.
         12    1    3    3    0    0 -0.67947790773E+01  0.57141268139E+01  0.18603168206E+01  0.90708900681E+01  0.00000000000E+00 0. -1.
</event>
<event>
 7    1  0.3046295E-009  0.4614233E+02  0.7816164E-02  0.1320468E+00
        -11   -1    0    0    0    0  0.00000000000E+00  0.00000000000E+00  0.45593999997E+02  0.45594000000E+02  0.51100000000E-03 0.  1.
         11   -1    0    0    0    0 -0.00000000000E+00 -0.00000000000E+00 -0.45593999997E+02  0.45594000000E+02  0.51100000000E-03 0. -1.
    9900012    2    1    2    0    0  0.40105902702E+02  0.14082544105E+02  0.14910100141E+02  0.46142327996E+02  0.10000093333E+02 0.  0.
         12    1    1    2    0    0 -0.40105902702E+02 -0.14082544105E+02 -0.14910100141E+02  0.45045672004E+02  0.00000000000E+00 0. -1.
         11    1    3    3    0    0  0.85222624704E+01  0.54336060386E+01  0.71758166575E+01  0.12395377250E+02  0.51100000000E-03 0. -1.
        -11    1    3    3    0    0  0.12769945096E+02  0.27707504527E+01  0.41727300236E+01  0.13717151014E+02  0.51100000000E-03 0.  1.
         12    1    3    3    0    0  0.18813695136E+02  0.58781876139E+01  0.35615534601E+01  0.20029799733E+02  0.00000000000E+00 0. -1.
</event>
<event>
 7    1  0.3046295E-009  0.4614232E+02  0.7816164E-02  0.1320468E+00
        -11   -1    0    0    0    0  0.00000000000E+00  0.00000000000E+00  0.45593999997E+02  0.45594000000E+02  0.51100000000E-03 0. -1.
         11   -1    0    0    0    0 -0.00000000000E+00 -0.00000000000E+00 -0.45593999997E+02  0.45594000000E+02  0.51100000000E-03 0.  1.
    9900012    2    1    2    0    0 -0.31159089781E+02  0.50634294072E+01 -0.32133881488E+02  0.46142317268E+02  0.99999955028E+01 0.  0.
         12    1    1    2    0    0  0.31159089781E+02 -0.50634294072E+01  0.32133881488E+02  0.45045682732E+02  0.00000000000E+00 0. -1.
         11    1    3    3    0    0 -0.25824828690E+02  0.29205955019E+01 -0.21542901314E+02  0.33757195563E+02  0.51100000000E-03 0. -1.
        -11    1    3    3    0    0 -0.91712260243E+00 -0.37566292734E+00 -0.36425764018E+01  0.37749966367E+01  0.51100000000E-03 0.  1.
         12    1    3    3    0    0 -0.44171384881E+01  0.25184968326E+01 -0.69484037719E+01  0.86101250686E+01  0.00000000000E+00 0. -1.
</event>
<event>
 7    1  0.3046295E-009  0.4614232E+02  0.7816164E-02  0.1320468E+00
        -11   -1    0    0    0    0  0.00000000000E+00  0.00000000000E+00  0.45593999997E+02  0.45594000000E+02  0.51100000000E-03 0. -1.
         11   -1    0    0    0    0 -0.00000000000E+00 -0.00000000000E+00 -0.45593999997E+02  0.45594000000E+02  0.51100000000E-03 0.  1.
    9900012    2    1    2    0    0  0.28674056356E+02 -0.10309995448E+02 -0.33175529614E+02  0.46142320083E+02  0.10000021172E+02 0.  0.
         12    1    1    2    0    0 -0.28674056356E+02  0.10309995448E+02  0.33175529614E+02  0.45045679917E+02  0.00000000000E+00 0. -1.
         11    1    3    3    0    0  0.10720434950E+02 -0.37827302223E+01 -0.17529358668E+02  0.20892945915E+02  0.51100000000E-03 0. -1.
        -11    1    3    3    0    0  0.15894728028E+01 -0.12238572949E+01 -0.14859382657E-01  0.20061085543E+01  0.51100000000E-03 0.  1.
        -12    1    3    3    0    0  0.16364148603E+02 -0.53034079312E+01 -0.15631311563E+02  0.23243265613E+02  0.00000000000E+00 0.  1.
</event>
<event>
 7    1  0.3046295E-009  0.4614232E+02  0.7816164E-02  0.1320468E+00
        -11   -1    0    0    0    0  0.00000000000E+00  0.00000000000E+00  0.45593999997E+02  0.45594000000E+02  0.51100000000E-03 0. -1.
         11   -1    0    0    0    0 -0.00000000000E+00 -0.00000000000E+00 -0.45593999997E+02  0.45594000000E+02  0.51100000000E-03 0.  1.
    9900012    2    1    2    0    0  0.21932540445E+02 -0.35002688546E+02  0.17969109472E+02  0.46142318397E+02  0.10000005801E+02 0.  0.
         12    1    1    2    0    0 -0.21932540445E+02  0.35002688546E+02 -0.17969109472E+02  0.45045681603E+02  0.00000000000E+00 0. -1.
         11    1    3    3    0    0  0.91418658807E+01 -0.21170191912E+02  0.61159649182E+01  0.23856985655E+02  0.51100000000E-03 0. -1.
        -11    1    3    3    0    0  0.28794238514E+01 -0.24720837854E+01  0.24427316862E+01  0.45132270395E+01  0.51100000000E-03 0.  1.
         12    1    3    3    0    0  0.99112507133E+01 -0.11360412848E+02  0.94104128677E+01  0.17772105703E+02  0.00000000000E+00 0. -1.
</event>
<event>
 7    1  0.3046295E-009  0.4614232E+02  0.7816164E-02  0.1320468E+00
        -11   -1    0    0    0    0  0.00000000000E+00  0.00000000000E+00  0.45593999997E+02  0.45594000000E+02  0.51100000000E-03 0.  1.
         11   -1    0    0    0    0 -0.00000000000E+00 -0.00000000000E+00 -0.45593999997E+02  0.45594000000E+02  0.51100000000E-03 0. -1.
    9900012    2    1    2    0    0  0.53868017196E+01  0.38164042356E+02  0.23315267174E+02  0.46142318241E+02  0.10000004374E+02 0.  0.
         12    1    1    2    0    0 -0.53868017196E+01 -0.38164042356E+02 -0.23315267174E+02  0.45045681759E+02  0.00000000000E+00 0. -1.
         11    1    3    3    0    0 -0.87213869311E+00  0.20492154993E+02  0.12603237286E+02  0.24073442473E+02  0.51100000000E-03 0. -1.
        -11    1    3    3    0    0 -0.52656253968E+00  0.19456384027E+01  0.33615046333E+00  0.20434711394E+01  0.51100000000E-03 0.  1.
         12    1    3    3    0    0  0.67855029524E+01  0.15726248961E+02  0.10375879425E+02  0.20025404629E+02  0.00000000000E+00 0. -1.
</event>
<event>
 7    1  0.3046295E-009  0.4614232E+02  0.7816164E-02  0.1320468E+00
        -11   -1    0    0    0    0  0.00000000000E+00  0.00000000000E+00  0.45593999997E+02  0.45594000000E+02  0.51100000000E-03 0.  1.
         11   -1    0    0    0    0 -0.00000000000E+00 -0.00000000000E+00 -0.45593999997E+02  0.45594000000E+02  0.51100000000E-03 0. -1.
    9900012    2    1    2    0    0 -0.29064677981E+02 -0.26678288476E+02  0.21739984504E+02  0.46142317539E+02  0.99999979756E+01 0.  0.
         12    1    1    2    0    0  0.29064677981E+02  0.26678288476E+02 -0.21739984504E+02  0.45045682461E+02  0.00000000000E+00 0. -1.
         11    1    3    3    0    0 -0.71900744604E+01 -0.44681032240E+01  0.24094246613E+01  0.88015024073E+01  0.51100000000E-03 0. -1.
        -11    1    3    3    0    0 -0.16957298306E+02 -0.19671234517E+02  0.13382422247E+02  0.29216376550E+02  0.51100000000E-03 0.  1.
        -12    1    3    3    0    0 -0.49173052142E+01 -0.25389507348E+01  0.59481375962E+01  0.81244385816E+01  0.00000000000E+00 0.  1.
</event>
<event>
 7    1  0.3046295E-009  0.4614232E+02  0.7816164E-02  0.1320468E+00
        -11   -1    0    0    0    0  0.00000000000E+00  0.00000000000E+00  0.45593999997E+02  0.45594000000E+02  0.51100000000E-03 0. -1.
         11   -1    0    0    0    0 -0.00000000000E+00 -0.00000000000E+00 -0.45593999997E+02  0.45594000000E+02  0.51100000000E-03 0.  1.
    9900012    2    1    2    0    0 -0.39361462443E+02  0.20679817407E+02  0.72203820461E+01  0.46142317737E+02  0.99999997828E+01 0.  0.
         12    1    1    2    0    0  0.39361462443E+02 -0.20679817407E+02 -0.72203820461E+01  0.45045682263E+02  0.00000000000E+00 0. -1.
         11    1    3    3    0    0 -0.11457099479E+02  0.55191308168E+01  0.59232421522E+01  0.14028924809E+02  0.51100000000E-03 0. -1.
        -11    1    3    3    0    0 -0.13860828444E+02  0.60506535909E+01  0.25063633436E+01  0.15330193460E+02  0.51100000000E-03 0.  1.
         12    1    3    3    0    0 -0.14043534520E+02  0.91100329994E+01 -0.12092234497E+01  0.16783199469E+02  0.00000000000E+00 0. -1.
</event>
<event>
 7    1  0.3046295E-009  0.4614232E+02  0.7816164E-02  0.1320468E+00
        -11   -1    0    0    0    0  0.00000000000E+00  0.00000000000E+00  0.45593999997E+02  0.45594000000E+02  0.51100000000E-03 0.  1.
         11   -1    0    0    0    0 -0.00000000000E+00 -0.00000000000E+00 -0.45593999997E+02  0.45594000000E+02  0.51100000000E-03 0. -1.
    9900012    2    1    2    0    0 -0.86027420957E+01 -0.34923522813E+02  0.27119254041E+02  0.46142317000E+02  0.99999930554E+01 0.  0.
         12    1    1    2    0    0  0.86027420957E+01  0.34923522813E+02 -0.27119254041E+02  0.45045683000E+02  0.00000000000E+00 0. -1.
         11    1    3    3    0    0  0.19480501275E+00 -0.99434932584E+01  0.44187273207E+01  0.10882837799E+02  0.51100000000E-03 0. -1.
        -11    1    3    3    0    0 -0.81253062573E+01 -0.15833489963E+02  0.14477114138E+02  0.22941378341E+02  0.51100000000E-03 0.  1.
        -12    1    3    3    0    0 -0.67224085112E+00 -0.91465395923E+01  0.82234125823E+01  0.12318100859E+02  0.00000000000E+00 0.  1.
</event>
<event>
 7    1  0.3046295E-009  0.4614232E+02  0.7816164E-02  0.1320468E+00
        -11   -1    0    0    0    0  0.00000000000E+00  0.00000000000E+00  0.45593999997E+02  0.45594000000E+02  0.51100000000E-03 0. -1.
         11   -1    0    0    0    0 -0.00000000000E+00 -0.00000000000E+00 -0.45593999997E+02  0.45594000000E+02  0.51100000000E-03 0.  1.
    9900012    2    1    2    0    0  0.22455383820E+02 -0.22969655428E+02 -0.31579489468E+02  0.46142317765E+02  0.10000000035E+02 0.  0.
         12    1    1    2    0    0 -0.22455383820E+02  0.22969655428E+02  0.31579489468E+02  0.45045682235E+02  0.00000000000E+00 0. -1.
         11    1    3    3    0    0  0.69010028224E+01 -0.59034691345E+01 -0.12762584914E+02  0.15663919105E+02  0.51100000000E-03 0. -1.
        -11    1    3    3    0    0  0.73035544115E+01 -0.35033532163E+01 -0.64502149875E+01  0.10354741158E+02  0.51100000000E-03 0.  1.
         12    1    3    3    0    0  0.82508265857E+01 -0.13562833078E+02 -0.12366689566E+02  0.20123657502E+02  0.00000000000E+00 0. -1.
</event>
<event>
 7    1  0.3046295E-009  0.4614232E+02  0.7816164E-02  0.1320468E+00
        -11   -1    0    0    0    0  0.00000000000E+00  0.00000000000E+00  0.45593999997E+02  0.45594000000E+02  0.51100000000E-03 0.  1.
         11   -1    0    0    0    0 -0.00000000000E+00 -0.00000000000E+00 -0.45593999997E+02  0.45594000000E+02  0.51100000000E-03 0. -1.
    9900012    2    1    2    0    0 -0.64912680316E+01  0.27697551030E+02  0.34925959297E+02  0.46142317337E+02  0.99999961349E+01 0.  0.
         12    1    1    2    0    0  0.64912680316E+01 -0.27697551030E+02 -0.34925959297E+02  0.45045682663E+02  0.00000000000E+00 0. -1.
         11    1    3    3    0    0  0.13630494468E+01  0.97969622857E+00  0.13347100928E+01  0.21445651745E+01  0.51100000000E-03 0. -1.
        -11    1    3    3    0    0 -0.40275128996E+01  0.21324267705E+02  0.27250811518E+02  0.34836072999E+02  0.51100000000E-03 0.  1.
        -12    1    3    3    0    0 -0.38268045788E+01  0.53935870966E+01  0.63404376863E+01  0.91616791642E+01  0.00000000000E+00 0.  1.
</event>
<event>
 7    1  0.3046295E-009  0.4614232E+02  0.7816164E-02  0.1320468E+00
        -11   -1    0    0    0    0  0.00000000000E+00  0.00000000000E+00  0.45593999997E+02  0.45594000000E+02  0.51100000000E-03 0.  1.
         11   -1    0    0    0    0 -0.00000000000E+00 -0.00000000000E+00 -0.45593999997E+02  0.45594000000E+02  0.51100000000E-03 0. -1.
    9900012    2    1    2    0    0  0.15592276111E+02  0.36148763498E+02  0.21892040914E+02  0.46142316165E+02  0.99999854453E+01 0.  0.
         12    1    1    2    0    0 -0.15592276111E+02 -0.36148763498E+02 -0.21892040914E+02  0.45045683835E+02  0.00000000000E+00 0. -1.
         11    1    3    3    0    0  0.86036964541E+01  0.24536492034E+02  0.98053331237E+01  0.27788623427E+02  0.51100000000E-03 0. -1.
        -11    1    3    3    0    0  0.12665236870E+01  0.44034329563E+01  0.34923763359E+01  0.57611627978E+01  0.51100000000E-03 0.  1.
         12    1    3    3    0    0  0.57220559700E+01  0.72088385078E+01  0.85943314544E+01  0.12592529941E+02  0.00000000000E+00 0. -1.
</event>
<event>
 7    1  0.3046295E-009  0.4614232E+02  0.7816164E-02  0.1320468E+00
        -11   -1    0    0    0    0  0.00000000000E+00  0.00000000000E+00  0.45593999997E+02  0.45594000000E+02  0.51100000000E-03 0. -1.
         11   -1    0    0    0    0 -0.00000000000E+00 -0.00000000000E+00 -0.45593999997E+02  0.45594000000E+02  0.51100000000E-03 0.  1.
    9900012    2    1    2    0    0  0.20436426343E+02 -0.67443255371E+00 -0.40137402313E+02  0.46142318238E+02  0.10000004351E+02 0.  0.
         12    1    1    2    0    0 -0.20436426343E+02  0.67443255371E+00  0.40137402313E+02  0.45045681762E+02  0.00000000000E+00 0. -1.
         11    1    3    3    0    0  0.72676690805E+01  0.18735358578E+01 -0.78175433559E+01  0.10837118383E+02  0.51100000000E-03 0. -1.
        -11    1    3    3    0    0  0.54664303679E+01 -0.32336209808E+01 -0.16923714852E+02  0.18076235512E+02  0.51100000000E-03 0.  1.
         12    1    3    3    0    0  0.77023268943E+01  0.68565256924E+00 -0.15396144105E+02  0.17228964343E+02  0.00000000000E+00 0. -1.
</event>
<event>
 7    1  0.3046295E-009  0.4614232E+02  0.7816164E-02  0.1320468E+00
        -11   -1    0    0    0    0  0.00000000000E+00  0.00000000000E+00  0.45593999997E+02  0.45594000000E+02  0.51100000000E-03 0.  1.
         11   -1    0    0    0    0 -0.00000000000E+00 -0.00000000000E+00 -0.45593999997E+02  0.45594000000E+02  0.51100000000E-03 0. -1.
    9900012    2    1    2    0    0  0.15343140156E+02 -0.38747592918E+02  0.17097529885E+02  0.46142318354E+02  0.10000005403E+02 0.  0.
         12    1    1    2    0    0 -0.15343140156E+02  0.38747592918E+02 -0.17097529885E+02  0.45045681646E+02  0.00000000000E+00 0. -1.
         11    1    3    3    0    0  0.77797658959E+01 -0.12482103855E+02  0.10123797103E+02  0.17855501732E+02  0.51100000000E-03 0. -1.
        -11    1    3    3    0    0  0.10744459323E+01 -0.70608329800E+01  0.17586287226E+01  0.73554450360E+01  0.51100000000E-03 0.  1.
         12    1    3    3    0    0  0.64889283278E+01 -0.19204656083E+02  0.52151040598E+01  0.20931371586E+02  0.00000000000E+00 0. -1.
</event>
<event>
 7    1  0.3046295E-009  0.4614232E+02  0.7816164E-02  0.1320468E+00
        -11   -1    0    0    0    0  0.00000000000E+00  0.00000000000E+00  0.45593999997E+02  0.45594000000E+02  0.51100000000E-03 0.  1.
         11   -1    0    0    0    0 -0.00000000000E+00 -0.00000000000E+00 -0.45593999997E+02  0.45594000000E+02  0.51100000000E-03 0. -1.
    9900012    2    1    2    0    0  0.53559186193E+01  0.86157028576E+01  0.43888464200E+02  0.46142317745E+02  0.99999998499E+01 0.  0.
         12    1    1    2    0    0 -0.53559186193E+01 -0.86157028576E+01 -0.43888464200E+02  0.45045682255E+02  0.00000000000E+00 0. -1.
         11    1    3    3    0    0  0.49268194534E+01  0.71799968079E+01  0.16288806795E+02  0.18470276965E+02  0.51100000000E-03 0. -1.
        -11    1    3    3    0    0  0.69005367084E+00  0.14605304650E+01  0.19049257368E+02  0.19117623541E+02  0.51100000000E-03 0.  1.
         12    1    3    3    0    0 -0.26095450493E+00 -0.24824415243E-01  0.85504000374E+01  0.85544172393E+01  0.00000000000E+00 0. -1.
</event>
<event>
 7    1  0.3046295E-009  0.4614232E+02  0.7816164E-02  0.1320468E+00
        -11   -1    0    0    0    0  0.00000000000E+00  0.00000000000E+00  0.45593999997E+02  0.45594000000E+02  0.51100000000E-03 0.  1.
         11   -1    0    0    0    0 -0.00000000000E+00 -0.00000000000E+00 -0.45593999997E+02  0.45594000000E+02  0.51100000000E-03 0. -1.
    9900012    2    1    2    0    0 -0.65964529405E+01  0.36534664552E+02  0.25511148387E+02  0.46142316552E+02  0.99999889723E+01 0.  0.
         12    1    1    2    0    0  0.65964529405E+01 -0.36534664552E+02 -0.25511148387E+02  0.45045683448E+02  0.00000000000E+00 0. -1.
         11    1    3    3    0    0 -0.47835418759E+01  0.17414287868E+02  0.10032778193E+02  0.20659049673E+02  0.51100000000E-03 0. -1.
        -11    1    3    3    0    0 -0.35691430410E+01  0.17475063119E+02  0.13534302805E+02  0.22389595033E+02  0.51100000000E-03 0.  1.
         12    1    3    3    0    0  0.17562319764E+01  0.16453135637E+01  0.19440673882E+01  0.30936718455E+01  0.00000000000E+00 0. -1.
</event>
<event>
 7    1  0.3046295E-009  0.4614232E+02  0.7816164E-02  0.1320468E+00
        -11   -1    0    0    0    0  0.00000000000E+00  0.00000000000E+00  0.45593999997E+02  0.45594000000E+02  0.51100000000E-03 0.  1.
         11   -1    0    0    0    0 -0.00000000000E+00 -0.00000000000E+00 -0.45593999997E+02  0.45594000000E+02  0.51100000000E-03 0. -1.
    9900012    2    1    2    0    0 -0.34934073490E+02  0.27230327834E+01  0.28307400115E+02  0.46142319858E+02  0.10000019121E+02 0.  0.
         12    1    1    2    0    0  0.34934073490E+02 -0.27230327834E+01 -0.28307400115E+02  0.45045680142E+02  0.00000000000E+00 0. -1.
         11    1    3    3    0    0 -0.18476481845E+02 -0.14671145126E+00  0.20764851192E+02  0.27795340453E+02  0.51100000000E-03 0. -1.
        -11    1    3    3    0    0 -0.57097346582E+01  0.68727825651E+00  0.28426872718E+01  0.64151611402E+01  0.51100000000E-03 0.  1.
         12    1    3    3    0    0 -0.10747856987E+02  0.21824659782E+01  0.46998616518E+01  0.11931818265E+02  0.00000000000E+00 0. -1.
</event>
<event>
 7    1  0.3046295E-009  0.4614231E+02  0.7816164E-02  0.1320468E+00
        -11   -1    0    0    0    0  0.00000000000E+00  0.00000000000E+00  0.45593999997E+02  0.45594000000E+02  0.51100000000E-03 0. -1.
         11   -1    0    0    0    0 -0.00000000000E+00 -0.00000000000E+00 -0.45593999997E+02  0.45594000000E+02  0.51100000000E-03 0.  1.
    9900012    2    1    2    0    0  0.57209346491E+00  0.38279380415E+02 -0.23737642929E+02  0.46142312662E+02  0.99999535034E+01 0.  0.
         12    1    1    2    0    0 -0.57209346491E+00 -0.38279380415E+02  0.23737642929E+02  0.45045687338E+02  0.00000000000E+00 0. -1.
         11    1    3    3    0    0 -0.46262197695E+00  0.14477555338E+01 -0.25498296940E+01  0.29684418318E+01  0.51100000000E-03 0. -1.
        -11    1    3    3    0    0  0.10707078469E+01  0.98311405082E+01 -0.96306930485E+01  0.13803912048E+02  0.51100000000E-03 0.  1.
         12    1    3    3    0    0 -0.35992405067E-01  0.27000484373E+02 -0.11557120187E+02  0.29369958782E+02  0.00000000000E+00 0. -1.
</event>
<event>
 7    1  0.3046295E-009  0.4614232E+02  0.7816164E-02  0.1320468E+00
        -11   -1    0    0    0    0  0.00000000000E+00  0.00000000000E+00  0.45593999997E+02  0.45594000000E+02  0.51100000000E-03 0.  1.
         11   -1    0    0    0    0 -0.00000000000E+00 -0.00000000000E+00 -0.45593999997E+02  0.45594000000E+02  0.51100000000E-03 0. -1.
    9900012    2    1    2    0    0  0.43669691410E+02 -0.87016650295E+01  0.68082553526E+01  0.46142320262E+02  0.10000022801E+02 0.  0.
         12    1    1    2    0    0 -0.43669691410E+02  0.87016650295E+01 -0.68082553526E+01  0.45045679738E+02  0.00000000000E+00 0. -1.
         11    1    3    3    0    0  0.16166052057E+02 -0.58560222726E+01  0.62279983414E+01  0.18287214101E+02  0.51100000000E-03 0. -1.
        -11    1    3    3    0    0  0.23130767824E+02 -0.35998100744E+01  0.35322758246E+00  0.23411873540E+02  0.51100000000E-03 0.  1.
         12    1    3    3    0    0  0.43728715295E+01  0.75416731756E+00  0.22702942880E+00  0.44432326202E+01  0.00000000000E+00 0. -1.
</event>
<event>
 7    1  0.3046295E-009  0.4614232E+02  0.7816164E-02  0.1320468E+00
        -11   -1    0    0    0    0  0.00000000000E+00  0.00000000000E+00  0.45593999997E+02  0.45594000000E+02  0.51100000000E-03 0.  1.
         11   -1    0    0    0    0 -0.00000000000E+00 -0.00000000000E+00 -0.45593999997E+02  0.45594000000E+02  0.51100000000E-03 0. -1.
    9900012    2    1    2    0    0  0.36610492493E+02 -0.17248437443E+01 -0.26187978411E+02  0.46142318078E+02  0.10000002891E+02 0.  0.
         12    1    1    2    0    0 -0.36610492493E+02  0.17248437443E+01  0.26187978411E+02  0.45045681922E+02  0.00000000000E+00 0. -1.
         11    1    3    3    0    0  0.12530539931E+02 -0.30856292073E+01 -0.11826956303E+02  0.17504640363E+02  0.51100000000E-03 0. -1.
        -11    1    3    3    0    0  0.78941145428E+01  0.47600034178E+00 -0.17497574224E+01  0.80997081453E+01  0.51100000000E-03 0.  1.
         12    1    3    3    0    0  0.16185838019E+02  0.88478512121E+00 -0.12611264686E+02  0.20537969570E+02  0.00000000000E+00 0. -1.
</event>
<event>
 7    1  0.3046295E-009  0.4614232E+02  0.7816164E-02  0.1320468E+00
        -11   -1    0    0    0    0  0.00000000000E+00  0.00000000000E+00  0.45593999997E+02  0.45594000000E+02  0.51100000000E-03 0.  1.
         11   -1    0    0    0    0 -0.00000000000E+00 -0.00000000000E+00 -0.45593999997E+02  0.45594000000E+02  0.51100000000E-03 0. -1.
    9900012    2    1    2    0    0 -0.18385528832E+02 -0.33929393040E+02  0.23235363918E+02  0.46142317422E+02  0.99999969109E+01 0.  0.
         12    1    1    2    0    0  0.18385528832E+02  0.33929393040E+02 -0.23235363918E+02  0.45045682578E+02  0.00000000000E+00 0. -1.
         11    1    3    3    0    0 -0.10052382017E+02 -0.20889231017E+02  0.15715889792E+02  0.28007133893E+02  0.51100000000E-03 0. -1.
        -11    1    3    3    0    0 -0.84797574118E+01 -0.12582558275E+02  0.56275842823E+01  0.16183224760E+02  0.51100000000E-03 0.  1.
         12    1    3    3    0    0  0.14661059665E+00 -0.45760374785E+00  0.18918898437E+01  0.19519587695E+01  0.00000000000E+00 0. -1.
</event>
<event>
 7    1  0.3046295E-009  0.4614232E+02  0.7816164E-02  0.1320468E+00
        -11   -1    0    0    0    0  0.00000000000E+00  0.00000000000E+00  0.45593999997E+02  0.45594000000E+02  0.51100000000E-03 0.  1.
         11   -1    0    0    0    0 -0.00000000000E+00 -0.00000000000E+00 -0.45593999997E+02  0.45594000000E+02  0.51100000000E-03 0. -1.
    9900012    2    1    2    0    0  0.11139300189E+02 -0.41347374318E+02  0.13979418111E+02  0.46142317605E+02  0.99999985740E+01 0.  0.
         12    1    1    2    0    0 -0.11139300189E+02  0.41347374318E+02 -0.13979418111E+02  0.45045682395E+02  0.00000000000E+00 0. -1.
         11    1    3    3    0    0  0.10783382937E+01 -0.19479723803E+01  0.30178459946E+00  0.22468831914E+01  0.51100000000E-03 0. -1.
        -11    1    3    3    0    0 -0.13994411946E+01 -0.27177330563E+01  0.22707602866E+01  0.38079996275E+01  0.51100000000E-03 0.  1.
        -12    1    3    3    0    0  0.11460403090E+02 -0.36681668882E+02  0.11406873225E+02  0.40087434786E+02  0.00000000000E+00 0.  1.
</event>
<event>
 7    1  0.3046295E-009  0.4614232E+02  0.7816164E-02  0.1320468E+00
        -11   -1    0    0    0    0  0.00000000000E+00  0.00000000000E+00  0.45593999997E+02  0.45594000000E+02  0.51100000000E-03 0.  1.
         11   -1    0    0    0    0 -0.00000000000E+00 -0.00000000000E+00 -0.45593999997E+02  0.45594000000E+02  0.51100000000E-03 0. -1.
    9900012    2    1    2    0    0 -0.28372890595E+02  0.27571781769E+02  0.21538093135E+02  0.46142317338E+02  0.99999961410E+01 0.  0.
         12    1    1    2    0    0  0.28372890595E+02 -0.27571781769E+02 -0.21538093135E+02  0.45045682662E+02  0.00000000000E+00 0. -1.
         11    1    3    3    0    0 -0.96260880873E+01  0.10766998059E+02  0.48968616185E+01  0.15250215508E+02  0.51100000000E-03 0. -1.
        -11    1    3    3    0    0 -0.17921557277E+02  0.16158258518E+02  0.13652319203E+02  0.27724670484E+02  0.51100000000E-03 0.  1.
         12    1    3    3    0    0 -0.82524523040E+00  0.64652519182E+00  0.29889123134E+01  0.31674313459E+01  0.00000000000E+00 0. -1.
</event>
<event>
 7    1  0.3046295E-009  0.4614232E+02  0.7816164E-02  0.1320468E+00
        -11   -1    0    0    0    0  0.00000000000E+00  0.00000000000E+00  0.45593999997E+02  0.45594000000E+02  0.51100000000E-03 0. -1.
         11   -1    0    0    0    0 -0.00000000000E+00 -0.00000000000E+00 -0.45593999997E+02  0.45594000000E+02  0.51100000000E-03 0.  1.
    9900012    2    1    2    0    0 -0.22052675648E+02  0.10081748744E+02 -0.37962497201E+02  0.46142319245E+02  0.10000013532E+02 0.  0.
         12    1    1    2    0    0  0.22052675648E+02 -0.10081748744E+02  0.37962497201E+02  0.45045680755E+02  0.00000000000E+00 0. -1.
         11    1    3    3    0    0 -0.66355805754E+00  0.31750305264E+00 -0.75469091109E+01  0.75826746517E+01  0.51100000000E-03 0. -1.
        -11    1    3    3    0    0 -0.11601195001E+02  0.41186388993E+01 -0.14167621125E+02  0.18768921131E+02  0.51100000000E-03 0.  1.
         12    1    3    3    0    0 -0.97879225894E+01  0.56456067921E+01 -0.16247966965E+02  0.19790723462E+02  0.00000000000E+00 0. -1.
</event>
<event>
 7    1  0.3046295E-009  0.4614232E+02  0.7816164E-02  0.1320468E+00
        -11   -1    0    0    0    0  0.00000000000E+00  0.00000000000E+00  0.45593999997E+02  0.45594000000E+02  0.51100000000E-03 0.  1.
         11   -1    0    0    0    0 -0.00000000000E+00 -0.00000000000E+00 -0.45593999997E+02  0.45594000000E+02  0.51100000000E-03 0. -1.
    9900012    2    1    2    0    0 -0.16275896763E+02 -0.38729364105E+02  0.16255616810E+02  0.46142317218E+02  0.99999950447E+01 0.  0.
         12    1    1    2    0    0  0.16275896763E+02  0.38729364105E+02 -0.16255616810E+02  0.45045682782E+02  0.00000000000E+00 0. -1.
         11    1    3    3    0    0 -0.43545661811E+01 -0.43804613494E+01  0.83588699089E+00  0.62329283312E+01  0.51100000000E-03 0. -1.
        -11    1    3    3    0    0 -0.15330151272E+01 -0.57297077194E+01  0.49112037109E+01  0.77006238761E+01  0.51100000000E-03 0.  1.
        -12    1    3    3    0    0 -0.10388315455E+02 -0.28619195037E+02  0.10508526108E+02  0.32208765010E+02  0.00000000000E+00 0.  1.
</event>
<event>
 7    1  0.3046295E-009  0.4614232E+02  0.7816164E-02  0.1320468E+00
        -11   -1    0    0    0    0  0.00000000000E+00  0.00000000000E+00  0.45593999997E+02  0.45594000000E+02  0.51100000000E-03 0. -1.
         11   -1    0    0    0    0 -0.00000000000E+00 -0.00000000000E+00 -0.45593999997E+02  0.45594000000E+02  0.51100000000E-03 0.  1.
    9900012    2    1    2    0    0  0.14846441117E+02 -0.73589794267E+01 -0.41887254811E+02  0.46142317547E+02  0.99999980475E+01 0.  0.
         12    1    1    2    0    0 -0.14846441117E+02  0.73589794267E+01  0.41887254811E+02  0.45045682453E+02  0.00000000000E+00 0. -1.
         11    1    3    3    0    0  0.10601574679E+01 -0.84795674002E+00 -0.91351263880E+00  0.16362976783E+01  0.51100000000E-03 0. -1.
        -11    1    3    3    0    0  0.42635257325E+00 -0.36961696151E+01 -0.84716320392E+01  0.92526750731E+01  0.51100000000E-03 0.  1.
        -12    1    3    3    0    0  0.13359931075E+02 -0.28148530716E+01 -0.32502110133E+02  0.35253344796E+02  0.00000000000E+00 0.  1.
</event>
<event>
 7    1  0.3046295E-009  0.4614232E+02  0.7816164E-02  0.1320468E+00
        -11   -1    0    0    0    0  0.00000000000E+00  0.00000000000E+00  0.45593999997E+02  0.45594000000E+02  0.51100000000E-03 0. -1.
         11   -1    0    0    0    0 -0.00000000000E+00 -0.00000000000E+00 -0.45593999997E+02  0.45594000000E+02  0.51100000000E-03 0.  1.
    9900012    2    1    2    0    0  0.10228955510E+02 -0.41865970034E+02 -0.13104287196E+02  0.46142319623E+02  0.10000016981E+02 0.  0.
         12    1    1    2    0    0 -0.10228955510E+02  0.41865970034E+02  0.13104287196E+02  0.45045680377E+02  0.00000000000E+00 0. -1.
         11    1    3    3    0    0  0.18898783148E+01 -0.12834064567E+02  0.53970826395E+00  0.12983687404E+02  0.51100000000E-03 0. -1.
        -11    1    3    3    0    0  0.70072107254E+01 -0.25141685230E+02 -0.11496465050E+02  0.28519713310E+02  0.51100000000E-03 0.  1.
         12    1    3    3    0    0  0.13318664695E+01 -0.38902202367E+01 -0.21475304097E+01  0.46389189089E+01  0.00000000000E+00 0. -1.
</event>
<event>
 7    1  0.3046295E-009  0.4614232E+02  0.7816164E-02  0.1320468E+00
        -11   -1    0    0    0    0  0.00000000000E+00  0.00000000000E+00  0.45593999997E+02  0.45594000000E+02  0.51100000000E-03 0.  1.
         11   -1    0    0    0    0 -0.00000000000E+00 -0.00000000000E+00 -0.45593999997E+02  0.45594000000E+02  0.51100000000E-03 0. -1.
    9900012    2    1    2    0    0 -0.19029064112E+02  0.27576044323E+02  0.30109297363E+02  0.46142319972E+02  0.10000020163E+02 0.  0.
         12    1    1    2    0    0  0.19029064112E+02 -0.27576044323E+02 -0.30109297363E+02  0.45045680028E+02  0.00000000000E+00 0. -1.
         11    1    3    3    0    0 -0.49431272912E+01  0.48367231269E+01  0.46402884711E+01  0.83283056728E+01  0.51100000000E-03 0. -1.
        -11    1    3    3    0    0 -0.14606740371E+02  0.20232144615E+02  0.20787510020E+02  0.32477948104E+02  0.51100000000E-03 0.  1.
        -12    1    3    3    0    0  0.52080355055E+00  0.25071765812E+01  0.46814988724E+01  0.53360661953E+01  0.00000000000E+00 0.  1.
</event>
<event>
 7    1  0.3046295E-009  0.4614232E+02  0.7816164E-02  0.1320468E+00
        -11   -1    0    0    0    0  0.00000000000E+00  0.00000000000E+00  0.45593999997E+02  0.45594000000E+02  0.51100000000E-03 0.  1.
         11   -1    0    0    0    0 -0.00000000000E+00 -0.00000000000E+00 -0.45593999997E+02  0.45594000000E+02  0.51100000000E-03 0. -1.
    9900012    2    1    2    0    0 -0.29600673908E+02  0.33763493646E+02 -0.35972487540E+01  0.46142316549E+02  0.99999889447E+01 0.  0.
         12    1    1    2    0    0  0.29600673908E+02 -0.33763493646E+02  0.35972487540E+01  0.45045683451E+02  0.00000000000E+00 0. -1.
         11    1    3    3    0    0 -0.12010007339E+02  0.14810298794E+02 -0.55297499305E+01  0.19853547824E+02  0.51100000000E-03 0. -1.
        -11    1    3    3    0    0 -0.81108837948E+01  0.81565109841E+01 -0.12565910403E+01  0.11571263054E+02  0.51100000000E-03 0.  1.
         12    1    3    3    0    0 -0.94797827746E+01  0.10796683868E+02  0.31890922169E+01  0.14717505670E+02  0.00000000000E+00 0. -1.
</event>
<event>
 7    1  0.3046295E-009  0.4614232E+02  0.7816164E-02  0.1320468E+00
        -11   -1    0    0    0    0  0.00000000000E+00  0.00000000000E+00  0.45593999997E+02  0.45594000000E+02  0.51100000000E-03 0.  1.
         11   -1    0    0    0    0 -0.00000000000E+00 -0.00000000000E+00 -0.45593999997E+02  0.45594000000E+02  0.51100000000E-03 0. -1.
    9900012    2    1    2    0    0  0.33342309387E+02  0.13898925943E+02  0.26911405575E+02  0.46142317770E+02  0.10000000078E+02 0.  0.
         12    1    1    2    0    0 -0.33342309387E+02 -0.13898925943E+02 -0.26911405575E+02  0.45045682230E+02  0.00000000000E+00 0. -1.
         11    1    3    3    0    0  0.89021859325E+01  0.81435151134E+01  0.83678893172E+01  0.14682892245E+02  0.51100000000E-03 0. -1.
        -11    1    3    3    0    0  0.21164129451E+02  0.59421791282E+01  0.17207941920E+02  0.27916717816E+02  0.51100000000E-03 0.  1.
        -12    1    3    3    0    0  0.32759940025E+01 -0.18676829857E+00  0.13355743372E+01  0.35427077091E+01  0.00000000000E+00 0.  1.
</event>
<event>
 7    1  0.3046295E-009  0.4614232E+02  0.7816164E-02  0.1320468E+00
        -11   -1    0    0    0    0  0.00000000000E+00  0.00000000000E+00  0.45593999997E+02  0.45594000000E+02  0.51100000000E-03 0.  1.
         11   -1    0    0    0    0 -0.00000000000E+00 -0.00000000000E+00 -0.45593999997E+02  0.45594000000E+02  0.51100000000E-03 0. -1.
    9900012    2    1    2    0    0 -0.18299137360E+02  0.18042584166E+02  0.36996219046E+02  0.46142317685E+02  0.99999993078E+01 0.  0.
         12    1    1    2    0    0  0.18299137360E+02 -0.18042584166E+02 -0.36996219046E+02  0.45045682315E+02  0.00000000000E+00 0. -1.
         11    1    3    3    0    0 -0.88652645639E+01  0.11198983794E+02  0.22631209201E+02  0.26761572898E+02  0.51100000000E-03 0. -1.
        -11    1    3    3    0    0 -0.99341996474E+01  0.59166903347E+01  0.11413671880E+02  0.16247075220E+02  0.51100000000E-03 0.  1.
         12    1    3    3    0    0  0.50032685113E+00  0.92691003687E+00  0.29513379649E+01  0.31336695674E+01  0.00000000000E+00 0. -1.
</event>
<event>
 7    1  0.3046295E-009  0.4614232E+02  0.7816164E-02  0.1320468E+00
        -11   -1    0    0    0    0  0.00000000000E+00  0.00000000000E+00  0.45593999997E+02  0.45594000000E+02  0.51100000000E-03 0. -1.
         11   -1    0    0    0    0 -0.00000000000E+00 -0.00000000000E+00 -0.45593999997E+02  0.45594000000E+02  0.51100000000E-03 0.  1.
    9900012    2    1    2    0    0  0.35960220283E+02  0.23563529334E+02 -0.13443812980E+02  0.46142318022E+02  0.10000002375E+02 0.  0.
         12    1    1    2    0    0 -0.35960220283E+02 -0.23563529334E+02  0.13443812980E+02  0.45045681978E+02  0.00000000000E+00 0. -1.
         11    1    3    3    0    0  0.47583452191E+01  0.37648089329E+01  0.11190950548E+01  0.61699278382E+01  0.51100000000E-03 0. -1.
        -11    1    3    3    0    0  0.29548817561E+02  0.19800083971E+02 -0.13814031009E+02  0.38157612576E+02  0.51100000000E-03 0.  1.
        -12    1    3    3    0    0  0.16530575023E+01 -0.13635694871E-02 -0.74887702487E+00  0.18147776072E+01  0.00000000000E+00 0.  1.
</event>
<event>
 7    1  0.3046295E-009  0.4614232E+02  0.7816164E-02  0.1320468E+00
        -11   -1    0    0    0    0  0.00000000000E+00  0.00000000000E+00  0.45593999997E+02  0.45594000000E+02  0.51100000000E-03 0.  1.
         11   -1    0    0    0    0 -0.00000000000E+00 -0.00000000000E+00 -0.45593999997E+02  0.45594000000E+02  0.51100000000E-03 0. -1.
    9900012    2    1    2    0    0  0.15201382436E+02  0.23530349518E+02  0.35275404377E+02  0.46142317295E+02  0.99999957510E+01 0.  0.
         12    1    1    2    0    0 -0.15201382436E+02 -0.23530349518E+02 -0.35275404377E+02  0.45045682705E+02  0.00000000000E+00 0. -1.
         11    1    3    3    0    0  0.56845769490E+01  0.52238430853E+01  0.96845586501E+01  0.12385218132E+02  0.51100000000E-03 0. -1.
        -11    1    3    3    0    0  0.99943667092E+01  0.14088558701E+02  0.23069957260E+02  0.28820093346E+02  0.51100000000E-03 0.  1.
         12    1    3    3    0    0 -0.47756122172E+00  0.42179477310E+01  0.25208884663E+01  0.49370058174E+01  0.00000000000E+00 0. -1.
</event>
<event>
 7    1  0.3046295E-009  0.4614232E+02  0.7816164E-02  0.1320468E+00
        -11   -1    0    0    0    0  0.00000000000E+00  0.00000000000E+00  0.45593999997E+02  0.45594000000E+02  0.51100000000E-03 0. -1.
         11   -1    0    0    0    0 -0.00000000000E+00 -0.00000000000E+00 -0.45593999997E+02  0.45594000000E+02  0.51100000000E-03 0.  1.
    9900012    2    1    2    0    0  0.12414949695E+02 -0.92474086937E+01 -0.42302102299E+02  0.46142318715E+02  0.10000008700E+02 0.  0.
         12    1    1    2    0    0 -0.12414949695E+02  0.92474086937E+01  0.42302102299E+02  0.45045681285E+02  0.00000000000E+00 0. -1.
         11    1    3    3    0    0 -0.16095687855E+00 -0.33900117345E+01 -0.13609477237E+02  0.14026259573E+02  0.51100000000E-03 0. -1.
        -11    1    3    3    0    0  0.93153294130E+01 -0.56270145839E+01 -0.19114209422E+02  0.21995264429E+02  0.51100000000E-03 0.  1.
         12    1    3    3    0    0  0.32605771605E+01 -0.23038237533E+00 -0.95784156405E+01  0.10120794714E+02  0.00000000000E+00 0. -1.
</event>
<event>
 7    1  0.3046295E-009  0.4614232E+02  0.7816164E-02  0.1320468E+00
        -11   -1    0    0    0    0  0.00000000000E+00  0.00000000000E+00  0.45593999997E+02  0.45594000000E+02  0.51100000000E-03 0.  1.
         11   -1    0    0    0    0 -0.00000000000E+00 -0.00000000000E+00 -0.45593999997E+02  0.45594000000E+02  0.51100000000E-03 0. -1.
    9900012    2    1    2    0    0 -0.78316287705E+01 -0.18049191877E+02  0.40521668653E+02  0.46142319108E+02  0.10000012282E+02 0.  0.
         12    1    1    2    0    0  0.78316287705E+01  0.18049191877E+02 -0.40521668653E+02  0.45045680892E+02  0.00000000000E+00 0. -1.
         11    1    3    3    0    0  0.86288303939E-01 -0.43542235970E-01 -0.22192707307E+00  0.24206091091E+00  0.51100000000E-03 0. -1.
        -11    1    3    3    0    0 -0.29344489751E+00 -0.80689167433E+00  0.86994564076E+01  0.87417232929E+01  0.51100000000E-03 0.  1.
        -12    1    3    3    0    0 -0.76244721769E+01 -0.17198757967E+02  0.32044139318E+02  0.37158534904E+02  0.00000000000E+00 0.  1.
</event>
<event>
 7    1  0.3046295E-009  0.4614232E+02  0.7816164E-02  0.1320468E+00
        -11   -1    0    0    0    0  0.00000000000E+00  0.00000000000E+00  0.45593999997E+02  0.45594000000E+02  0.51100000000E-03 0.  1.
         11   -1    0    0    0    0 -0.00000000000E+00 -0.00000000000E+00 -0.45593999997E+02  0.45594000000E+02  0.51100000000E-03 0. -1.
    9900012    2    1    2    0    0 -0.42563980830E+02  0.12854171255E+02 -0.72243472742E+01  0.46142319005E+02  0.10000011341E+02 0.  0.
         12    1    1    2    0    0  0.42563980830E+02 -0.12854171255E+02  0.72243472742E+01  0.45045680995E+02  0.00000000000E+00 0. -1.
         11    1    3    3    0    0 -0.14316537975E+01  0.54497626141E+00 -0.31993390685E+00  0.15649248184E+01  0.51100000000E-03 0. -1.
        -11    1    3    3    0    0 -0.36210171118E+02  0.14002436516E+02 -0.57658608739E+01  0.39249074800E+02  0.51100000000E-03 0.  1.
         12    1    3    3    0    0 -0.49221559148E+01 -0.16932415223E+01 -0.11385524934E+01  0.53283193863E+01  0.00000000000E+00 0. -1.
</event>
<event>
 7    1  0.3046295E-009  0.4614232E+02  0.7816164E-02  0.1320468E+00
        -11   -1    0    0    0    0  0.00000000000E+00  0.00000000000E+00  0.45593999997E+02  0.45594000000E+02  0.51100000000E-03 0. -1.
         11   -1    0    0    0    0 -0.00000000000E+00 -0.00000000000E+00 -0.45593999997E+02  0.45594000000E+02  0.51100000000E-03 0.  1.
    9900012    2    1    2    0    0  0.29096813145E+02  0.27376901320E+02 -0.20808512988E+02  0.46142317923E+02  0.10000001474E+02 0.  0.
         12    1    1    2    0    0 -0.29096813145E+02 -0.27376901320E+02  0.20808512988E+02  0.45045682077E+02  0.00000000000E+00 0. -1.
         11    1    3    3    0    0  0.16475227094E+01  0.40699692492E+01 -0.31114217803E+01  0.53814427919E+01  0.51100000000E-03 0. -1.
        -11    1    3    3    0    0  0.16910154839E+02  0.18600437003E+02 -0.11258332107E+02  0.27544139766E+02  0.51100000000E-03 0.  1.
        -12    1    3    3    0    0  0.10539135596E+02  0.47064950676E+01 -0.64387591003E+01  0.13216735364E+02  0.00000000000E+00 0.  1.
</event>
<event>
 7    1  0.3046295E-009  0.4614232E+02  0.7816164E-02  0.1320468E+00
        -11   -1    0    0    0    0  0.00000000000E+00  0.00000000000E+00  0.45593999997E+02  0.45594000000E+02  0.51100000000E-03 0. -1.
         11   -1    0    0    0    0 -0.00000000000E+00 -0.00000000000E+00 -0.45593999997E+02  0.45594000000E+02  0.51100000000E-03 0.  1.
    9900012    2    1    2    0    0  0.40792698945E+02  0.86262858865E+01  0.17048648557E+02  0.46142317488E+02  0.99999975080E+01 0.  0.
         12    1    1    2    0    0 -0.40792698945E+02 -0.86262858865E+01 -0.17048648557E+02  0.45045682512E+02  0.00000000000E+00 0. -1.
         11    1    3    3    0    0  0.35620885714E+01  0.66607406057E+00  0.92262575343E+00  0.37394342067E+01  0.51100000000E-03 0. -1.
        -11    1    3    3    0    0  0.36499379739E+02  0.60084363402E+01  0.14392508354E+02  0.39691942829E+02  0.51100000000E-03 0.  1.
         12    1    3    3    0    0  0.73123063409E+00  0.19517754857E+01  0.17335144492E+01  0.27109404516E+01  0.00000000000E+00 0. -1.
</event>
<event>
 7    1  0.3046295E-009  0.4614232E+02  0.7816164E-02  0.1320468E+00
        -11   -1    0    0    0    0  0.00000000000E+00  0.00000000000E+00  0.45593999997E+02  0.45594000000E+02  0.51100000000E-03 0.  1.
         11   -1    0    0    0    0 -0.00000000000E+00 -0.00000000000E+00 -0.45593999997E+02  0.45594000000E+02  0.51100000000E-03 0. -1.
    9900012    2    1    2    0    0 -0.20120433437E+02 -0.39827829063E+02  0.61664817906E+01  0.46142319772E+02  0.10000018338E+02 0.  0.
         12    1    1    2    0    0  0.20120433437E+02  0.39827829063E+02 -0.61664817906E+01  0.45045680228E+02  0.00000000000E+00 0. -1.
         11    1    3    3    0    0 -0.12442389909E+01 -0.10037079549E+02  0.20334505156E+01  0.10316298649E+02  0.51100000000E-03 0. -1.
        -11    1    3    3    0    0 -0.85940970386E+01 -0.10070205126E+02  0.28937612927E+01  0.13551434974E+02  0.51100000000E-03 0.  1.
        -12    1    3    3    0    0 -0.10282097407E+02 -0.19720544387E+02  0.12392699824E+01  0.22274586149E+02  0.00000000000E+00 0.  1.
</event>
<event>
 7    1  0.3046295E-009  0.4614232E+02  0.7816164E-02  0.1320468E+00
        -11   -1    0    0    0    0  0.00000000000E+00  0.00000000000E+00  0.45593999997E+02  0.45594000000E+02  0.51100000000E-03 0.  1.
         11   -1    0    0    0    0 -0.00000000000E+00 -0.00000000000E+00 -0.45593999997E+02  0.45594000000E+02  0.51100000000E-03 0. -1.
    9900012    2    1    2    0    0  0.34110886390E+02 -0.11983183001E+02  0.26869393060E+02  0.46142317315E+02  0.99999959344E+01 0.  0.
         12    1    1    2    0    0 -0.34110886390E+02  0.11983183001E+02 -0.26869393060E+02  0.45045682685E+02  0.00000000000E+00 0. -1.
         11    1    3    3    0    0  0.48446582407E+00  0.20009110777E+00  0.13269947472E+00  0.54069677067E+00  0.51100000000E-03 0. -1.
        -11    1    3    3    0    0  0.14298353637E+02 -0.69098982685E+01  0.66036705155E+01  0.17198781217E+02  0.51100000000E-03 0.  1.
        -12    1    3    3    0    0  0.19328066929E+02 -0.52733758405E+01  0.20133023070E+02  0.28402839328E+02  0.00000000000E+00 0.  1.
</event>
<event>
 7    1  0.3046295E-009  0.4614232E+02  0.7816164E-02  0.1320468E+00
        -11   -1    0    0    0    0  0.00000000000E+00  0.00000000000E+00  0.45593999997E+02  0.45594000000E+02  0.51100000000E-03 0.  1.
         11   -1    0    0    0    0 -0.00000000000E+00 -0.00000000000E+00 -0.45593999997E+02  0.45594000000E+02  0.51100000000E-03 0. -1.
    9900012    2    1    2    0    0  0.43654902650E+02 -0.10045626011E+02 -0.47379767850E+01  0.46142317062E+02  0.99999936282E+01 0.  0.
         12    1    1    2    0    0 -0.43654902650E+02  0.10045626011E+02  0.47379767850E+01  0.45045682938E+02  0.00000000000E+00 0. -1.
         11    1    3    3    0    0  0.97451791841E+01 -0.49158551819E+01 -0.36931338055E+01  0.11522733489E+02  0.51100000000E-03 0. -1.
        -11    1    3    3    0    0  0.84840997591E+01  0.64331850903E+00 -0.79585199062E+00  0.85455946592E+01  0.51100000000E-03 0.  1.
        -12    1    3    3    0    0  0.25425623706E+02 -0.57730893379E+01 -0.24899098888E+00  0.26073988914E+02  0.00000000000E+00 0.  1.
</event>
<event>
 7    1  0.3046295E-009  0.4614233E+02  0.7816164E-02  0.1320468E+00
        -11   -1    0    0    0    0  0.00000000000E+00  0.00000000000E+00  0.45593999997E+02  0.45594000000E+02  0.51100000000E-03 0.  1.
         11   -1    0    0    0    0 -0.00000000000E+00 -0.00000000000E+00 -0.45593999997E+02  0.45594000000E+02  0.51100000000E-03 0. -1.
    9900012    2    1    2    0    0  0.16112568945E+02  0.98946617180E+01  0.40885126612E+02  0.46142325550E+02  0.10000071028E+02 0.  0.
         12    1    1    2    0    0 -0.16112568945E+02 -0.98946617180E+01 -0.40885126612E+02  0.45045674450E+02  0.00000000000E+00 0. -1.
         11    1    3    3    0    0  0.11001961915E+01 -0.11504535800E+01  0.35874696092E+01  0.39247819758E+01  0.51100000000E-03 0. -1.
        -11    1    3    3    0    0  0.13919218668E+02  0.88664807898E+01  0.35623211196E+02  0.39260314646E+02  0.51100000000E-03 0.  1.
        -12    1    3    3    0    0  0.10931540850E+01  0.21786345082E+01  0.16744458069E+01  0.29572289283E+01  0.00000000000E+00 0.  1.
</event>
<event>
 7    1  0.3046295E-009  0.4614232E+02  0.7816164E-02  0.1320468E+00
        -11   -1    0    0    0    0  0.00000000000E+00  0.00000000000E+00  0.45593999997E+02  0.45594000000E+02  0.51100000000E-03 0. -1.
         11   -1    0    0    0    0 -0.00000000000E+00 -0.00000000000E+00 -0.45593999997E+02  0.45594000000E+02  0.51100000000E-03 0.  1.
    9900012    2    1    2    0    0  0.49510785467E+01 -0.12608293803E+02 -0.42960811025E+02  0.46142317240E+02  0.99999952501E+01 0.  0.
         12    1    1    2    0    0 -0.49510785467E+01  0.12608293803E+02  0.42960811025E+02  0.45045682760E+02  0.00000000000E+00 0. -1.
         11    1    3    3    0    0  0.56082909998E+01 -0.56951179198E+01 -0.25869328493E+02  0.27075994036E+02  0.51100000000E-03 0. -1.
        -11    1    3    3    0    0 -0.37850738168E+00  0.20436293190E+00 -0.51052455174E+01  0.51233352516E+01  0.51100000000E-03 0.  1.
         12    1    3    3    0    0 -0.27870507151E+00 -0.71175388155E+01 -0.11986237014E+02  0.13942987953E+02  0.00000000000E+00 0. -1.
</event>
<event>
 7    1  0.3046295E-009  0.4614232E+02  0.7816164E-02  0.1320468E+00
        -11   -1    0    0    0    0  0.00000000000E+00  0.00000000000E+00  0.45593999997E+02  0.45594000000E+02  0.51100000000E-03 0.  1.
         11   -1    0    0    0    0 -0.00000000000E+00 -0.00000000000E+00 -0.45593999997E+02  0.45594000000E+02  0.51100000000E-03 0. -1.
    9900012    2    1    2    0    0 -0.36202846291E+02 -0.26310346162E+02  0.51218019431E+01  0.46142320409E+02  0.10000024145E+02 0.  0.
         12    1    1    2    0    0  0.36202846291E+02  0.26310346162E+02 -0.51218019431E+01  0.45045679591E+02  0.00000000000E+00 0. -1.
         11    1    3    3    0    0 -0.17169317139E+02 -0.73674117188E+01  0.17114426042E+01  0.18761482951E+02  0.51100000000E-03 0. -1.
        -11    1    3    3    0    0 -0.31291776985E+01 -0.26900938234E+01 -0.93092083683E+00  0.42302448763E+01  0.51100000000E-03 0.  1.
         12    1    3    3    0    0 -0.15904351453E+02 -0.16252840619E+02  0.43412801757E+01  0.23150592582E+02  0.00000000000E+00 0. -1.
</event>
<event>
 7    1  0.3046295E-009  0.4614232E+02  0.7816164E-02  0.1320468E+00
        -11   -1    0    0    0    0  0.00000000000E+00  0.00000000000E+00  0.45593999997E+02  0.45594000000E+02  0.51100000000E-03 0.  1.
         11   -1    0    0    0    0 -0.00000000000E+00 -0.00000000000E+00 -0.45593999997E+02  0.45594000000E+02  0.51100000000E-03 0. -1.
    9900012    2    1    2    0    0  0.27023796903E+02  0.12737753386E+02  0.33713165357E+02  0.46142317868E+02  0.10000000974E+02 0.  0.
         12    1    1    2    0    0 -0.27023796903E+02 -0.12737753386E+02 -0.33713165357E+02  0.45045682132E+02  0.00000000000E+00 0. -1.
         11    1    3    3    0    0  0.80991247000E+01  0.81162679182E+00  0.51244681784E+01  0.96184579496E+01  0.51100000000E-03 0. -1.
        -11    1    3    3    0    0  0.11580602360E+02  0.50502197925E+01  0.16933589089E+02  0.21127269362E+02  0.51100000000E-03 0.  1.
         12    1    3    3    0    0  0.73440698422E+01  0.68759068012E+01  0.11655108089E+02  0.15396590556E+02  0.00000000000E+00 0. -1.
</event>
<event>
 7    1  0.3046295E-009  0.4614232E+02  0.7816164E-02  0.1320468E+00
        -11   -1    0    0    0    0  0.00000000000E+00  0.00000000000E+00  0.45593999997E+02  0.45594000000E+02  0.51100000000E-03 0. -1.
         11   -1    0    0    0    0 -0.00000000000E+00 -0.00000000000E+00 -0.45593999997E+02  0.45594000000E+02  0.51100000000E-03 0.  1.
    9900012    2    1    2    0    0  0.31712301343E+02 -0.17783275650E+02 -0.26593205870E+02  0.46142317102E+02  0.99999939930E+01 0.  0.
         12    1    1    2    0    0 -0.31712301343E+02  0.17783275650E+02  0.26593205870E+02  0.45045682898E+02  0.00000000000E+00 0. -1.
         11    1    3    3    0    0  0.15253858026E+01 -0.18331961714E+00 -0.18685766649E+01  0.24190880394E+01  0.51100000000E-03 0. -1.
        -11    1    3    3    0    0  0.18648225596E+02 -0.86721756207E+01 -0.19161842086E+02  0.28109413730E+02  0.51100000000E-03 0.  1.
        -12    1    3    3    0    0  0.11538689944E+02 -0.89277804118E+01 -0.55627871188E+01  0.15613815333E+02  0.00000000000E+00 0.  1.
</event>
<event>
 7    1  0.3046295E-009  0.4614232E+02  0.7816164E-02  0.1320468E+00
        -11   -1    0    0    0    0  0.00000000000E+00  0.00000000000E+00  0.45593999997E+02  0.45594000000E+02  0.51100000000E-03 0.  1.
         11   -1    0    0    0    0 -0.00000000000E+00 -0.00000000000E+00 -0.45593999997E+02  0.45594000000E+02  0.51100000000E-03 0. -1.
    9900012    2    1    2    0    0  0.28368078840E+02 -0.34435756376E+02  0.62083992538E+01  0.46142318347E+02  0.10000005346E+02 0.  0.
         12    1    1    2    0    0 -0.28368078840E+02  0.34435756376E+02 -0.62083992538E+01  0.45045681653E+02  0.00000000000E+00 0. -1.
         11    1    3    3    0    0  0.23604040640E+01 -0.24520624867E+01 -0.10177717266E+01  0.35524607433E+01  0.51100000000E-03 0. -1.
        -11    1    3    3    0    0  0.13545701891E+02 -0.10703881250E+02  0.39756772721E+01  0.17716238979E+02  0.51100000000E-03 0.  1.
        -12    1    3    3    0    0  0.12461972885E+02 -0.21279812639E+02  0.32504937083E+01  0.24873618625E+02  0.00000000000E+00 0.  1.
</event>
<event>
 7    1  0.3046295E-009  0.4614232E+02  0.7816164E-02  0.1320468E+00
        -11   -1    0    0    0    0  0.00000000000E+00  0.00000000000E+00  0.45593999997E+02  0.45594000000E+02  0.51100000000E-03 0.  1.
         11   -1    0    0    0    0 -0.00000000000E+00 -0.00000000000E+00 -0.45593999997E+02  0.45594000000E+02  0.51100000000E-03 0. -1.
    9900012    2    1    2    0    0 -0.38911381844E+02  0.15324724323E+01  0.22642202669E+02  0.46142318182E+02  0.10000003836E+02 0.  0.
         12    1    1    2    0    0  0.38911381844E+02 -0.15324724323E+01 -0.22642202669E+02  0.45045681818E+02  0.00000000000E+00 0. -1.
         11    1    3    3    0    0 -0.73224039337E+01 -0.78495551657E-01  0.27188156730E+01  0.78112559710E+01  0.51100000000E-03 0. -1.
        -11    1    3    3    0    0 -0.12921721977E+02 -0.76423725562E+00  0.36404325583E+01  0.13446475631E+02  0.51100000000E-03 0.  1.
        -12    1    3    3    0    0 -0.18667255933E+02  0.23752052396E+01  0.16282954437E+02  0.24884586579E+02  0.00000000000E+00 0.  1.
</event>
<event>
 7    1  0.3046295E-009  0.4614232E+02  0.7816164E-02  0.1320468E+00
        -11   -1    0    0    0    0  0.00000000000E+00  0.00000000000E+00  0.45593999997E+02  0.45594000000E+02  0.51100000000E-03 0.  1.
         11   -1    0    0    0    0 -0.00000000000E+00 -0.00000000000E+00 -0.45593999997E+02  0.45594000000E+02  0.51100000000E-03 0. -1.
    9900012    2    1    2    0    0 -0.41264805897E+02  0.16989652060E+02  0.61384816453E+01  0.46142318301E+02  0.10000004924E+02 0.  0.
         12    1    1    2    0    0  0.41264805897E+02 -0.16989652060E+02 -0.61384816453E+01  0.45045681699E+02  0.00000000000E+00 0. -1.
         11    1    3    3    0    0 -0.20349934365E+02  0.11298348435E+02 -0.32275194239E+00  0.23278244673E+02  0.51100000000E-03 0.  1.
        -11    1    3    3    0    0 -0.74380185930E+01  0.54453379987E+00  0.29233501417E+01  0.80104066040E+01  0.51100000000E-03 0. -1.
         12    1    3    3    0    0 -0.13476852939E+02  0.51467698260E+01  0.35378834460E+01  0.14853667024E+02  0.00000000000E+00 0. -1.
</event>
<event>
 7    1  0.3046295E-009  0.4614232E+02  0.7816164E-02  0.1320468E+00
        -11   -1    0    0    0    0  0.00000000000E+00  0.00000000000E+00  0.45593999997E+02  0.45594000000E+02  0.51100000000E-03 0.  1.
         11   -1    0    0    0    0 -0.00000000000E+00 -0.00000000000E+00 -0.45593999997E+02  0.45594000000E+02  0.51100000000E-03 0. -1.
    9900012    2    1    2    0    0  0.35717463857E+02  0.14716253009E+02  0.23169121286E+02  0.46142317542E+02  0.99999979995E+01 0.  0.
         12    1    1    2    0    0 -0.35717463857E+02 -0.14716253009E+02 -0.23169121286E+02  0.45045682458E+02  0.00000000000E+00 0. -1.
         11    1    3    3    0    0  0.23232278506E+02  0.99643988431E+01  0.98549093601E+01  0.27132033607E+02  0.51100000000E-03 0. -1.
        -11    1    3    3    0    0  0.82367471367E+01  0.37457509812E+01  0.75845622422E+01  0.11806787814E+02  0.51100000000E-03 0.  1.
        -12    1    3    3    0    0  0.42484382142E+01  0.10061031847E+01  0.57296496835E+01  0.72034961216E+01  0.00000000000E+00 0.  1.
</event>
<event>
 7    1  0.3046295E-009  0.4614232E+02  0.7816164E-02  0.1320468E+00
        -11   -1    0    0    0    0  0.00000000000E+00  0.00000000000E+00  0.45593999997E+02  0.45594000000E+02  0.51100000000E-03 0.  1.
         11   -1    0    0    0    0 -0.00000000000E+00 -0.00000000000E+00 -0.45593999997E+02  0.45594000000E+02  0.51100000000E-03 0. -1.
    9900012    2    1    2    0    0 -0.39166493724E+02 -0.20927441193E+02  0.75591948457E+01  0.46142318163E+02  0.10000003662E+02 0.  0.
         12    1    1    2    0    0  0.39166493724E+02  0.20927441193E+02 -0.75591948457E+01  0.45045681837E+02  0.00000000000E+00 0. -1.
         11    1    3    3    0    0  0.21060695020E+00 -0.74061933236E-01  0.95010249770E+00  0.97597923885E+00  0.51100000000E-03 0. -1.
        -11    1    3    3    0    0 -0.32349339266E+02 -0.18447218748E+02  0.51120824643E+01  0.37588735252E+02  0.51100000000E-03 0.  1.
         12    1    3    3    0    0 -0.70277614081E+01 -0.24061605118E+01  0.14970098837E+01  0.75776036720E+01  0.00000000000E+00 0. -1.
</event>
<event>
 7    1  0.3046295E-009  0.4614232E+02  0.7816164E-02  0.1320468E+00
        -11   -1    0    0    0    0  0.00000000000E+00  0.00000000000E+00  0.45593999997E+02  0.45594000000E+02  0.51100000000E-03 0.  1.
         11   -1    0    0    0    0 -0.00000000000E+00 -0.00000000000E+00 -0.45593999997E+02  0.45594000000E+02  0.51100000000E-03 0. -1.
    9900012    2    1    2    0    0  0.33637042634E+02  0.29390009884E+02  0.58215274177E+01  0.46142317636E+02  0.99999988568E+01 0.  0.
         12    1    1    2    0    0 -0.33637042634E+02 -0.29390009884E+02 -0.58215274177E+01  0.45045682364E+02  0.00000000000E+00 0. -1.
         11    1    3    3    0    0  0.10876387679E+02  0.72169787380E+01  0.44942190361E+01  0.13805020683E+02  0.51100000000E-03 0. -1.
        -11    1    3    3    0    0  0.67246243806E+01  0.10332822184E+02  0.13657313280E+01  0.12403749822E+02  0.51100000000E-03 0.  1.
        -12    1    3    3    0    0  0.16036030575E+02  0.11840208963E+02 -0.38422946382E-01  0.19933547131E+02  0.00000000000E+00 0.  1.
</event>
<event>
 7    1  0.3046295E-009  0.4614232E+02  0.7816164E-02  0.1320468E+00
        -11   -1    0    0    0    0  0.00000000000E+00  0.00000000000E+00  0.45593999997E+02  0.45594000000E+02  0.51100000000E-03 0.  1.
         11   -1    0    0    0    0 -0.00000000000E+00 -0.00000000000E+00 -0.45593999997E+02  0.45594000000E+02  0.51100000000E-03 0. -1.
    9900012    2    1    2    0    0  0.25357902782E+02 -0.21050241205E+02  0.30707940356E+02  0.46142317752E+02  0.99999999140E+01 0.  0.
         12    1    1    2    0    0 -0.25357902782E+02  0.21050241205E+02 -0.30707940356E+02  0.45045682248E+02  0.00000000000E+00 0. -1.
         11    1    3    3    0    0 -0.11428356042E+00 -0.17825592161E+01  0.19703168367E+01  0.26594598679E+01  0.51100000000E-03 0. -1.
        -11    1    3    3    0    0  0.67030911437E+01 -0.45033747788E+01  0.11409543147E+02  0.13978179079E+02  0.51100000000E-03 0.  1.
        -12    1    3    3    0    0  0.18769095198E+02 -0.14764307211E+02  0.17328080373E+02  0.29504678805E+02  0.00000000000E+00 0.  1.
</event>
<event>
 7    1  0.3046295E-009  0.4614232E+02  0.7816164E-02  0.1320468E+00
        -11   -1    0    0    0    0  0.00000000000E+00  0.00000000000E+00  0.45593999997E+02  0.45594000000E+02  0.51100000000E-03 0.  1.
         11   -1    0    0    0    0 -0.00000000000E+00 -0.00000000000E+00 -0.45593999997E+02  0.45594000000E+02  0.51100000000E-03 0. -1.
    9900012    2    1    2    0    0  0.42661274611E+02  0.13486689773E+02  0.52190380727E+01  0.46142317512E+02  0.99999977245E+01 0.  0.
         12    1    1    2    0    0 -0.42661274611E+02 -0.13486689773E+02 -0.52190380727E+01  0.45045682488E+02  0.00000000000E+00 0. -1.
         11    1    3    3    0    0  0.97013442281E+01  0.45532606960E+01  0.93421044726E+00  0.10757370135E+02  0.51100000000E-03 0. -1.
        -11    1    3    3    0    0  0.12706370997E+02  0.59716399806E+01 -0.14858620181E+01  0.14118078275E+02  0.51100000000E-03 0.  1.
        -12    1    3    3    0    0  0.20253559385E+02  0.29617890959E+01  0.57706896435E+01  0.21266869102E+02  0.00000000000E+00 0.  1.
</event>
<event>
 7    1  0.3046295E-009  0.4614232E+02  0.7816164E-02  0.1320468E+00
        -11   -1    0    0    0    0  0.00000000000E+00  0.00000000000E+00  0.45593999997E+02  0.45594000000E+02  0.51100000000E-03 0. -1.
         11   -1    0    0    0    0 -0.00000000000E+00 -0.00000000000E+00 -0.45593999997E+02  0.45594000000E+02  0.51100000000E-03 0.  1.
    9900012    2    1    2    0    0 -0.33497923987E+02  0.10572435622E+02  0.28199754445E+02  0.46142318107E+02  0.10000003156E+02 0.  0.
         12    1    1    2    0    0  0.33497923987E+02 -0.10572435622E+02 -0.28199754445E+02  0.45045681893E+02  0.00000000000E+00 0. -1.
         11    1    3    3    0    0 -0.36674869636E+01  0.16529545896E+01  0.10931251722E+01  0.41686499501E+01  0.51100000000E-03 0. -1.
        -11    1    3    3    0    0 -0.70672877920E+01  0.28991559686E+01  0.28086196854E+01  0.81387964014E+01  0.51100000000E-03 0.  1.
        -12    1    3    3    0    0 -0.22763149231E+02  0.60203250643E+01  0.24298009588E+02  0.33834871756E+02  0.00000000000E+00 0.  1.
</event>
<event>
 7    1  0.3046295E-009  0.4614232E+02  0.7816164E-02  0.1320468E+00
        -11   -1    0    0    0    0  0.00000000000E+00  0.00000000000E+00  0.45593999997E+02  0.45594000000E+02  0.51100000000E-03 0.  1.
         11   -1    0    0    0    0 -0.00000000000E+00 -0.00000000000E+00 -0.45593999997E+02  0.45594000000E+02  0.51100000000E-03 0. -1.
    9900012    2    1    2    0    0  0.13593360843E+02 -0.15667825168E+02  0.39985663381E+02  0.46142317848E+02  0.10000000791E+02 0.  0.
         12    1    1    2    0    0 -0.13593360843E+02  0.15667825168E+02 -0.39985663381E+02  0.45045682152E+02  0.00000000000E+00 0. -1.
         11    1    3    3    0    0  0.38346095163E-01 -0.15824181574E+01  0.90207140766E+00  0.18218810976E+01  0.51100000000E-03 0. -1.
        -11    1    3    3    0    0  0.14400316913E+02 -0.12378426129E+02  0.35233854453E+02  0.40025230299E+02  0.51100000000E-03 0.  1.
        -12    1    3    3    0    0 -0.84530216492E+00 -0.17069808817E+01  0.38497375209E+01  0.42952064514E+01  0.00000000000E+00 0.  1.
</event>
<event>
 7    1  0.3046295E-009  0.4614232E+02  0.7816164E-02  0.1320468E+00
        -11   -1    0    0    0    0  0.00000000000E+00  0.00000000000E+00  0.45593999997E+02  0.45594000000E+02  0.51100000000E-03 0.  1.
         11   -1    0    0    0    0 -0.00000000000E+00 -0.00000000000E+00 -0.45593999997E+02  0.45594000000E+02  0.51100000000E-03 0. -1.
    9900012    2    1    2    0    0  0.32759505295E+02 -0.75479568554E+01  0.29982605149E+02  0.46142318171E+02  0.10000003740E+02 0.  0.
         12    1    1    2    0    0 -0.32759505295E+02  0.75479568554E+01 -0.29982605149E+02  0.45045681829E+02  0.00000000000E+00 0. -1.
         11    1    3    3    0    0  0.13155247103E+01 -0.99777915334E+00  0.43808456223E+01  0.46816639275E+01  0.51100000000E-03 0.  1.
        -11    1    3    3    0    0  0.26576219780E+02 -0.62419326353E+01  0.19034129614E+02  0.33279952994E+02  0.51100000000E-03 0. -1.
         12    1    3    3    0    0  0.48677608049E+01 -0.30824506676E+00  0.65676299123E+01  0.81807012499E+01  0.00000000000E+00 0. -1.
</event>
<event>
 7    1  0.3046295E-009  0.4614232E+02  0.7816164E-02  0.1320468E+00
        -11   -1    0    0    0    0  0.00000000000E+00  0.00000000000E+00  0.45593999997E+02  0.45594000000E+02  0.51100000000E-03 0.  1.
         11   -1    0    0    0    0 -0.00000000000E+00 -0.00000000000E+00 -0.45593999997E+02  0.45594000000E+02  0.51100000000E-03 0. -1.
    9900012    2    1    2    0    0  0.45367459257E+01 -0.29337630724E+02  0.33879711675E+02  0.46142317596E+02  0.99999984915E+01 0.  0.
         12    1    1    2    0    0 -0.45367459257E+01  0.29337630724E+02 -0.33879711675E+02  0.45045682404E+02  0.00000000000E+00 0. -1.
         11    1    3    3    0    0  0.36822687689E+01 -0.96790245272E+01  0.11233647604E+02  0.15278660211E+02  0.51100000000E-03 0. -1.
        -11    1    3    3    0    0  0.40559919455E+01 -0.10658288494E+02  0.12859099342E+02  0.17187397140E+02  0.51100000000E-03 0.  1.
        -12    1    3    3    0    0 -0.32015147887E+01 -0.90003177028E+01  0.97869647290E+01  0.13676260245E+02  0.00000000000E+00 0.  1.
</event>
<event>
 7    1  0.3046295E-009  0.4614232E+02  0.7816164E-02  0.1320468E+00
        -11   -1    0    0    0    0  0.00000000000E+00  0.00000000000E+00  0.45593999997E+02  0.45594000000E+02  0.51100000000E-03 0. -1.
         11   -1    0    0    0    0 -0.00000000000E+00 -0.00000000000E+00 -0.45593999997E+02  0.45594000000E+02  0.51100000000E-03 0.  1.
    9900012    2    1    2    0    0 -0.20419548056E+02  0.37296690892E+02 -0.14869852330E+02  0.46142316493E+02  0.99999884384E+01 0.  0.
         12    1    1    2    0    0  0.20419548056E+02 -0.37296690892E+02  0.14869852330E+02  0.45045683507E+02  0.00000000000E+00 0. -1.
         11    1    3    3    0    0 -0.22186333385E+01  0.63148887780E+01 -0.44298380845E+01  0.80264325752E+01  0.51100000000E-03 0. -1.
        -11    1    3    3    0    0 -0.12673144526E+02  0.20397918068E+02 -0.10414758548E+02  0.26175386331E+02  0.51100000000E-03 0.  1.
        -12    1    3    3    0    0 -0.55277701917E+01  0.10583884045E+02 -0.25255697451E-01  0.11940497587E+02  0.00000000000E+00 0.  1.
</event>
<event>
 7    1  0.3046295E-009  0.4614232E+02  0.7816164E-02  0.1320468E+00
        -11   -1    0    0    0    0  0.00000000000E+00  0.00000000000E+00  0.45593999997E+02  0.45594000000E+02  0.51100000000E-03 0.  1.
         11   -1    0    0    0    0 -0.00000000000E+00 -0.00000000000E+00 -0.45593999997E+02  0.45594000000E+02  0.51100000000E-03 0. -1.
    9900012    2    1    2    0    0 -0.40459947348E+01  0.35329457673E+02  0.27650909198E+02  0.46142318383E+02  0.10000005670E+02 0.  0.
         12    1    1    2    0    0  0.40459947348E+01 -0.35329457673E+02 -0.27650909198E+02  0.45045681617E+02  0.00000000000E+00 0. -1.
         11    1    3    3    0    0 -0.22524204663E+01  0.15648926832E+02  0.67189742322E+01  0.17178676432E+02  0.51100000000E-03 0. -1.
        -11    1    3    3    0    0  0.51880915118E+00  0.10892070632E+02  0.12158571131E+02  0.16332091654E+02  0.51100000000E-03 0.  1.
         12    1    3    3    0    0 -0.23123834197E+01  0.87884602089E+01  0.87733638353E+01  0.12631550297E+02  0.00000000000E+00 0. -1.
</event>
<event>
 7    1  0.3046295E-009  0.4614232E+02  0.7816164E-02  0.1320468E+00
        -11   -1    0    0    0    0  0.00000000000E+00  0.00000000000E+00  0.45593999997E+02  0.45594000000E+02  0.51100000000E-03 0.  1.
         11   -1    0    0    0    0 -0.00000000000E+00 -0.00000000000E+00 -0.45593999997E+02  0.45594000000E+02  0.51100000000E-03 0. -1.
    9900012    2    1    2    0    0 -0.42387523279E+02  0.77193682252E+01  0.13146212916E+02  0.46142315528E+02  0.99999796390E+01 0.  0.
         12    1    1    2    0    0  0.42387523279E+02 -0.77193682252E+01 -0.13146212916E+02  0.45045684472E+02  0.00000000000E+00 0. -1.
         11    1    3    3    0    0 -0.17262043217E+02  0.37319804372E+01  0.78986094705E+01  0.19346675317E+02  0.51100000000E-03 0. -1.
        -11    1    3    3    0    0 -0.12979287948E+02  0.49963620000E+01  0.43607949926E+01  0.14575393034E+02  0.51100000000E-03 0.  1.
         12    1    3    3    0    0 -0.12146192114E+02 -0.10089742120E+01  0.88680845243E+00  0.12220247177E+02  0.00000000000E+00 0. -1.
</event>
<event>
 7    1  0.3046295E-009  0.4614231E+02  0.7816164E-02  0.1320468E+00
        -11   -1    0    0    0    0  0.00000000000E+00  0.00000000000E+00  0.45593999997E+02  0.45594000000E+02  0.51100000000E-03 0. -1.
         11   -1    0    0    0    0 -0.00000000000E+00 -0.00000000000E+00 -0.45593999997E+02  0.45594000000E+02  0.51100000000E-03 0.  1.
    9900012    2    1    2    0    0 -0.34430793537E+02  0.12940452505E+02 -0.26003439843E+02  0.46142314987E+02  0.99999747017E+01 0.  0.
         12    1    1    2    0    0  0.34430793537E+02 -0.12940452505E+02  0.26003439843E+02  0.45045685013E+02  0.00000000000E+00 0. -1.
         11    1    3    3    0    0 -0.43910512371E+01 -0.11588181912E+01 -0.31885429910E+01  0.55489636180E+01  0.51100000000E-03 0. -1.
        -11    1    3    3    0    0 -0.13045985816E+02  0.82490051299E+01 -0.12569172603E+02  0.19905474919E+02  0.51100000000E-03 0.  1.
         12    1    3    3    0    0 -0.16993756484E+02  0.58502655660E+01 -0.10245724249E+02  0.20687876450E+02  0.00000000000E+00 0. -1.
</event>
<event>
 7    1  0.3046295E-009  0.4614232E+02  0.7816164E-02  0.1320468E+00
        -11   -1    0    0    0    0  0.00000000000E+00  0.00000000000E+00  0.45593999997E+02  0.45594000000E+02  0.51100000000E-03 0.  1.
         11   -1    0    0    0    0 -0.00000000000E+00 -0.00000000000E+00 -0.45593999997E+02  0.45594000000E+02  0.51100000000E-03 0. -1.
    9900012    2    1    2    0    0  0.33251654562E+02  0.15283869371E+02  0.26264887514E+02  0.46142317519E+02  0.99999977885E+01 0.  0.
         12    1    1    2    0    0 -0.33251654562E+02 -0.15283869371E+02 -0.26264887514E+02  0.45045682481E+02  0.00000000000E+00 0. -1.
         11    1    3    3    0    0  0.24571990895E+02  0.13008396100E+02  0.14974487165E+02  0.31579049570E+02  0.51100000000E-03 0. -1.
        -11    1    3    3    0    0  0.74654813257E+01  0.24358368952E+01  0.88425682590E+01  0.11826145884E+02  0.51100000000E-03 0.  1.
         12    1    3    3    0    0  0.12141823416E+01 -0.16036362430E+00  0.24478320901E+01  0.27371220638E+01  0.00000000000E+00 0. -1.
</event>
<event>
 7    1  0.3046295E-009  0.4614232E+02  0.7816164E-02  0.1320468E+00
        -11   -1    0    0    0    0  0.00000000000E+00  0.00000000000E+00  0.45593999997E+02  0.45594000000E+02  0.51100000000E-03 0.  1.
         11   -1    0    0    0    0 -0.00000000000E+00 -0.00000000000E+00 -0.45593999997E+02  0.45594000000E+02  0.51100000000E-03 0. -1.
    9900012    2    1    2    0    0  0.31914352322E+02  0.49502754900E+01  0.31401948374E+02  0.46142317929E+02  0.10000001534E+02 0.  0.
         12    1    1    2    0    0 -0.31914352322E+02 -0.49502754900E+01 -0.31401948374E+02  0.45045682071E+02  0.00000000000E+00 0. -1.
         11    1    3    3    0    0  0.67230320634E+01 -0.19663721224E+01  0.42090701297E+01  0.81720285772E+01  0.51100000000E-03 0. -1.
        -11    1    3    3    0    0  0.21389074429E+02  0.68747204402E+01  0.21310879301E+02  0.30966237467E+02  0.51100000000E-03 0.  1.
         12    1    3    3    0    0  0.38022458297E+01  0.41927172268E-01  0.58819989435E+01  0.70040518850E+01  0.00000000000E+00 0. -1.
</event>
<event>
 7    1  0.3046295E-009  0.4614232E+02  0.7816164E-02  0.1320468E+00
        -11   -1    0    0    0    0  0.00000000000E+00  0.00000000000E+00  0.45593999997E+02  0.45594000000E+02  0.51100000000E-03 0.  1.
         11   -1    0    0    0    0 -0.00000000000E+00 -0.00000000000E+00 -0.45593999997E+02  0.45594000000E+02  0.51100000000E-03 0. -1.
    9900012    2    1    2    0    0 -0.30362651365E+02  0.24235576480E+02 -0.22800430985E+02  0.46142318538E+02  0.10000007086E+02 0.  0.
         12    1    1    2    0    0  0.30362651365E+02 -0.24235576480E+02  0.22800430985E+02  0.45045681462E+02  0.00000000000E+00 0. -1.
         11    1    3    3    0    0 -0.24101931781E+01  0.54490750734E+01 -0.46621420044E+01  0.75655150943E+01  0.51100000000E-03 0. -1.
        -11    1    3    3    0    0 -0.78629380934E+01  0.71288479892E+01 -0.37607700836E+01  0.11260091518E+02  0.51100000000E-03 0.  1.
        -12    1    3    3    0    0 -0.20089520094E+02  0.11657653417E+02 -0.14377518897E+02  0.27316711926E+02  0.00000000000E+00 0.  1.
</event>
<event>
 7    1  0.3046295E-009  0.4614232E+02  0.7816164E-02  0.1320468E+00
        -11   -1    0    0    0    0  0.00000000000E+00  0.00000000000E+00  0.45593999997E+02  0.45594000000E+02  0.51100000000E-03 0.  1.
         11   -1    0    0    0    0 -0.00000000000E+00 -0.00000000000E+00 -0.45593999997E+02  0.45594000000E+02  0.51100000000E-03 0. -1.
    9900012    2    1    2    0    0  0.11071497307E+02  0.43663776445E+02 -0.10064281872E+00  0.46142317021E+02  0.99999932495E+01 0.  0.
         12    1    1    2    0    0 -0.11071497307E+02 -0.43663776445E+02  0.10064281872E+00  0.45045682979E+02  0.00000000000E+00 0. -1.
         11    1    3    3    0    0  0.14191659980E+01  0.70714435280E+01 -0.23764777019E+01  0.75938786024E+01  0.51100000000E-03 0. -1.
        -11    1    3    3    0    0  0.19419281510E+01  0.19378273147E+02 -0.50904126839E+00  0.19481983430E+02  0.51100000000E-03 0.  1.
        -12    1    3    3    0    0  0.77104031582E+01  0.17214059770E+02  0.27848761515E+01  0.19066454988E+02  0.00000000000E+00 0.  1.
</event>
<event>
 7    1  0.3046295E-009  0.4614232E+02  0.7816164E-02  0.1320468E+00
        -11   -1    0    0    0    0  0.00000000000E+00  0.00000000000E+00  0.45593999997E+02  0.45594000000E+02  0.51100000000E-03 0.  1.
         11   -1    0    0    0    0 -0.00000000000E+00 -0.00000000000E+00 -0.45593999997E+02  0.45594000000E+02  0.51100000000E-03 0. -1.
    9900012    2    1    2    0    0  0.25554329886E+02  0.28199776693E+02  0.24101084366E+02  0.46142318198E+02  0.10000003980E+02 0.  0.
         12    1    1    2    0    0 -0.25554329886E+02 -0.28199776693E+02 -0.24101084366E+02  0.45045681802E+02  0.00000000000E+00 0. -1.
         11    1    3    3    0    0  0.94555577869E+00  0.61486910962E+00 -0.32816106398E+00  0.11746615247E+01  0.51100000000E-03 0. -1.
        -11    1    3    3    0    0  0.14852653701E+01  0.50674996195E+01  0.51283150931E+01  0.73610584544E+01  0.51100000000E-03 0.  1.
        -12    1    3    3    0    0  0.23123508737E+02  0.22517407963E+02  0.19300930337E+02  0.37606598219E+02  0.00000000000E+00 0.  1.
</event>
<event>
 7    1  0.3046295E-009  0.4614231E+02  0.7816164E-02  0.1320468E+00
        -11   -1    0    0    0    0  0.00000000000E+00  0.00000000000E+00  0.45593999997E+02  0.45594000000E+02  0.51100000000E-03 0. -1.
         11   -1    0    0    0    0 -0.00000000000E+00 -0.00000000000E+00 -0.45593999997E+02  0.45594000000E+02  0.51100000000E-03 0.  1.
    9900012    2    1    2    0    0  0.39145405887E+02 -0.80784568718E+01 -0.20772337676E+02  0.46142308974E+02  0.99999198683E+01 0.  0.
         12    1    1    2    0    0 -0.39145405887E+02  0.80784568718E+01  0.20772337676E+02  0.45045691026E+02  0.00000000000E+00 0. -1.
         11    1    3    3    0    0  0.10191626140E+02 -0.35153197391E+01 -0.37174292084E+01  0.11403771149E+02  0.51100000000E-03 0. -1.
        -11    1    3    3    0    0  0.15327921774E+02  0.13937923343E+01 -0.84991072007E+01  0.17581884610E+02  0.51100000000E-03 0.  1.
        -12    1    3    3    0    0  0.13625857974E+02 -0.59569294670E+01 -0.85558012671E+01  0.17156653214E+02  0.00000000000E+00 0.  1.
</event>
<event>
 7    1  0.3046295E-009  0.4614232E+02  0.7816164E-02  0.1320468E+00
        -11   -1    0    0    0    0  0.00000000000E+00  0.00000000000E+00  0.45593999997E+02  0.45594000000E+02  0.51100000000E-03 0.  1.
         11   -1    0    0    0    0 -0.00000000000E+00 -0.00000000000E+00 -0.45593999997E+02  0.45594000000E+02  0.51100000000E-03 0. -1.
    9900012    2    1    2    0    0 -0.81098302400E+01 -0.18646800090E+02  0.40195035146E+02  0.46142319292E+02  0.10000013956E+02 0.  0.
         12    1    1    2    0    0  0.81098302400E+01  0.18646800090E+02 -0.40195035146E+02  0.45045680708E+02  0.00000000000E+00 0. -1.
         11    1    3    3    0    0 -0.60263994661E+01 -0.82236049573E+01  0.24820214630E+02  0.26832596288E+02  0.51100000000E-03 0. -1.
        -11    1    3    3    0    0 -0.15753803219E+01 -0.76275638852E+01  0.14277613479E+02  0.16263818767E+02  0.51100000000E-03 0.  1.
         12    1    3    3    0    0 -0.50805045203E+00 -0.27956312478E+01  0.10972070369E+01  0.30459042364E+01  0.00000000000E+00 0. -1.
</event>
<event>
 7    1  0.3046295E-009  0.4614232E+02  0.7816164E-02  0.1320468E+00
        -11   -1    0    0    0    0  0.00000000000E+00  0.00000000000E+00  0.45593999997E+02  0.45594000000E+02  0.51100000000E-03 0.  1.
         11   -1    0    0    0    0 -0.00000000000E+00 -0.00000000000E+00 -0.45593999997E+02  0.45594000000E+02  0.51100000000E-03 0. -1.
    9900012    2    1    2    0    0  0.14025304754E+01  0.33865369774E+02  0.29669565482E+02  0.46142317881E+02  0.10000001093E+02 0.  0.
         12    1    1    2    0    0 -0.14025304754E+01 -0.33865369774E+02 -0.29669565482E+02  0.45045682119E+02  0.00000000000E+00 0. -1.
         11    1    3    3    0    0  0.78374716238E+00  0.23513755644E+02  0.15979148478E+02  0.28440185486E+02  0.51100000000E-03 0. -1.
        -11    1    3    3    0    0 -0.12187343942E-01  0.29225454622E+01  0.12076891544E+01  0.31622672032E+01  0.51100000000E-03 0.  1.
         12    1    3    3    0    0  0.63097065698E+00  0.74290686678E+01  0.12482727849E+02  0.14539865192E+02  0.00000000000E+00 0. -1.
</event>
<event>
 7    1  0.3046295E-009  0.4614232E+02  0.7816164E-02  0.1320468E+00
        -11   -1    0    0    0    0  0.00000000000E+00  0.00000000000E+00  0.45593999997E+02  0.45594000000E+02  0.51100000000E-03 0.  1.
         11   -1    0    0    0    0 -0.00000000000E+00 -0.00000000000E+00 -0.45593999997E+02  0.45594000000E+02  0.51100000000E-03 0. -1.
    9900012    2    1    2    0    0 -0.24701440725E+02 -0.26274559243E+02  0.26992587904E+02  0.46142318308E+02  0.10000004991E+02 0.  0.
         12    1    1    2    0    0  0.24701440725E+02  0.26274559243E+02 -0.26992587904E+02  0.45045681692E+02  0.00000000000E+00 0. -1.
         11    1    3    3    0    0 -0.71418110458E+01 -0.55834852116E+01  0.11759875657E+02  0.14848415668E+02  0.51100000000E-03 0. -1.
        -11    1    3    3    0    0 -0.14072896992E+02 -0.14437597655E+02  0.11690375835E+02  0.23305697655E+02  0.51100000000E-03 0.  1.
        -12    1    3    3    0    0 -0.34867326876E+01 -0.62534763761E+01  0.35423364121E+01  0.79882049847E+01  0.00000000000E+00 0.  1.
</event>
<event>
 7    1  0.3046295E-009  0.4614232E+02  0.7816164E-02  0.1320468E+00
        -11   -1    0    0    0    0  0.00000000000E+00  0.00000000000E+00  0.45593999997E+02  0.45594000000E+02  0.51100000000E-03 0.  1.
         11   -1    0    0    0    0 -0.00000000000E+00 -0.00000000000E+00 -0.45593999997E+02  0.45594000000E+02  0.51100000000E-03 0. -1.
    9900012    2    1    2    0    0 -0.82169023324E+01 -0.55155644151E+01  0.43945131269E+02  0.46142317666E+02  0.99999991298E+01 0.  0.
         12    1    1    2    0    0  0.82169023324E+01  0.55155644151E+01 -0.43945131269E+02  0.45045682334E+02  0.00000000000E+00 0. -1.
         11    1    3    3    0    0 -0.40496138540E+01 -0.98807270562E+00  0.11622666869E+02  0.12347552205E+02  0.51100000000E-03 0. -1.
        -11    1    3    3    0    0 -0.34160187556E+01 -0.28462030212E+01  0.31439792142E+02  0.31752646913E+02  0.51100000000E-03 0.  1.
        -12    1    3    3    0    0 -0.75126972281E+00 -0.16812886883E+01  0.88267225706E+00  0.20421185478E+01  0.00000000000E+00 0.  1.
</event>
<event>
 7    1  0.3046295E-009  0.4614232E+02  0.7816164E-02  0.1320468E+00
        -11   -1    0    0    0    0  0.00000000000E+00  0.00000000000E+00  0.45593999997E+02  0.45594000000E+02  0.51100000000E-03 0.  1.
         11   -1    0    0    0    0 -0.00000000000E+00 -0.00000000000E+00 -0.45593999997E+02  0.45594000000E+02  0.51100000000E-03 0. -1.
    9900012    2    1    2    0    0  0.33787473101E+02  0.12253197932E+02  0.27154728342E+02  0.46142317971E+02  0.10000001915E+02 0.  0.
         12    1    1    2    0    0 -0.33787473101E+02 -0.12253197932E+02 -0.27154728342E+02  0.45045682029E+02  0.00000000000E+00 0. -1.
         11    1    3    3    0    0  0.81030899456E+01  0.27919011294E+01  0.11212811441E+02  0.14113182464E+02  0.51100000000E-03 0. -1.
        -11    1    3    3    0    0  0.15051003964E+02  0.78423246736E+01  0.10708909060E+02  0.20067772924E+02  0.51100000000E-03 0.  1.
        -12    1    3    3    0    0  0.10633379192E+02  0.16189721293E+01  0.52330078405E+01  0.11961362583E+02  0.00000000000E+00 0.  1.
</event>
<event>
 7    1  0.3046295E-009  0.4614232E+02  0.7816164E-02  0.1320468E+00
        -11   -1    0    0    0    0  0.00000000000E+00  0.00000000000E+00  0.45593999997E+02  0.45594000000E+02  0.51100000000E-03 0.  1.
         11   -1    0    0    0    0 -0.00000000000E+00 -0.00000000000E+00 -0.45593999997E+02  0.45594000000E+02  0.51100000000E-03 0. -1.
    9900012    2    1    2    0    0 -0.33130119331E+01  0.42957724410E+02  0.13144245808E+02  0.46142319492E+02  0.10000015784E+02 0.  0.
         12    1    1    2    0    0  0.33130119331E+01 -0.42957724410E+02 -0.13144245808E+02  0.45045680508E+02  0.00000000000E+00 0. -1.
         11    1    3    3    0    0 -0.15363488699E+01  0.92937628986E+01 -0.84536636785E-01  0.94202729987E+01  0.51100000000E-03 0. -1.
        -11    1    3    3    0    0 -0.10051918971E+01  0.27877929923E+02  0.83627110327E+01  0.29122574124E+02  0.51100000000E-03 0.  1.
         12    1    3    3    0    0 -0.77147116617E+00  0.57860315884E+01  0.48660714120E+01  0.75994723691E+01  0.00000000000E+00 0. -1.
</event>
<event>
 7    1  0.3046295E-009  0.4614232E+02  0.7816164E-02  0.1320468E+00
        -11   -1    0    0    0    0  0.00000000000E+00  0.00000000000E+00  0.45593999997E+02  0.45594000000E+02  0.51100000000E-03 0.  1.
         11   -1    0    0    0    0 -0.00000000000E+00 -0.00000000000E+00 -0.45593999997E+02  0.45594000000E+02  0.51100000000E-03 0. -1.
    9900012    2    1    2    0    0  0.30916921936E+02 -0.60756197631E+01  0.32192301451E+02  0.46142317740E+02  0.99999998119E+01 0.  0.
         12    1    1    2    0    0 -0.30916921936E+02  0.60756197631E+01 -0.32192301451E+02  0.45045682260E+02  0.00000000000E+00 0. -1.
         11    1    3    3    0    0  0.62472091896E+01  0.13529088223E+01  0.90447543063E+01  0.11075448779E+02  0.51100000000E-03 0. -1.
        -11    1    3    3    0    0  0.93456761357E+01 -0.56229497216E+00  0.10333250237E+02  0.13943955637E+02  0.51100000000E-03 0.  1.
         12    1    3    3    0    0  0.15324036611E+02 -0.68662336133E+01  0.12814296907E+02  0.21122913325E+02  0.00000000000E+00 0. -1.
</event>
<event>
 7    1  0.3046295E-009  0.4614232E+02  0.7816164E-02  0.1320468E+00
        -11   -1    0    0    0    0  0.00000000000E+00  0.00000000000E+00  0.45593999997E+02  0.45594000000E+02  0.51100000000E-03 0. -1.
         11   -1    0    0    0    0 -0.00000000000E+00 -0.00000000000E+00 -0.45593999997E+02  0.45594000000E+02  0.51100000000E-03 0.  1.
    9900012    2    1    2    0    0 -0.32177083905E+02 -0.50713161174E+01 -0.31113190833E+02  0.46142316305E+02  0.99999867178E+01 0.  0.
         12    1    1    2    0    0  0.32177083905E+02  0.50713161174E+01  0.31113190833E+02  0.45045683695E+02  0.00000000000E+00 0. -1.
         11    1    3    3    0    0 -0.15949074646E+01 -0.18261428010E+00  0.35455200593E+00  0.16440149580E+01  0.51100000000E-03 0. -1.
        -11    1    3    3    0    0 -0.17873436909E+02 -0.19487349350E+01 -0.14510963458E+02  0.23104661338E+02  0.51100000000E-03 0.  1.
         12    1    3    3    0    0 -0.12708739531E+02 -0.29399669022E+01 -0.16956779380E+02  0.21393640008E+02  0.00000000000E+00 0. -1.
</event>
<event>
 7    1  0.5100883E-009  0.4614232E+02  0.7816164E-02  0.1320468E+00
        -11   -1    0    0    0    0  0.00000000000E+00  0.00000000000E+00  0.45593999997E+02  0.45594000000E+02  0.51100000000E-03 0. -1.
         11   -1    0    0    0    0 -0.00000000000E+00 -0.00000000000E+00 -0.45593999997E+02  0.45594000000E+02  0.51100000000E-03 0.  1.
    9900012    2    1    2    0    0  0.34920895864E+02 -0.58331030183E+01 -0.27849944949E+02  0.46142317716E+02  0.99999995898E+01 0.  0.
         12    1    1    2    0    0 -0.34920895864E+02  0.58331030183E+01  0.27849944949E+02  0.45045682284E+02  0.00000000000E+00 0. -1.
         11    1    3    3    0    0  0.73065069505E+00  0.52869912039E-01 -0.30216686109E+01  0.31092003989E+01  0.51100000000E-03 0. -1.
        -11    1    3    3    0    0  0.23656365582E+02 -0.58652163097E+01 -0.14952119712E+02  0.28593535617E+02  0.51100000000E-03 0.  1.
        -12    1    3    3    0    0  0.10533879586E+02 -0.20756620623E-01 -0.98761566260E+01  0.14439581700E+02  0.00000000000E+00 0.  1.
</event>
<event>
 7    1  0.3046295E-009  0.4614232E+02  0.7816164E-02  0.1320468E+00
        -11   -1    0    0    0    0  0.00000000000E+00  0.00000000000E+00  0.45593999997E+02  0.45594000000E+02  0.51100000000E-03 0.  1.
         11   -1    0    0    0    0 -0.00000000000E+00 -0.00000000000E+00 -0.45593999997E+02  0.45594000000E+02  0.51100000000E-03 0. -1.
    9900012    2    1    2    0    0  0.31609487422E+02 -0.16862363233E+02  0.27305942962E+02  0.46142317522E+02  0.99999978205E+01 0.  0.
         12    1    1    2    0    0 -0.31609487422E+02  0.16862363233E+02 -0.27305942962E+02  0.45045682478E+02  0.00000000000E+00 0. -1.
         11    1    3    3    0    0  0.16040292359E+02 -0.12637211839E+02  0.15924138061E+02  0.25895333079E+02  0.51100000000E-03 0. -1.
        -11    1    3    3    0    0  0.12910805491E+02 -0.43309157700E+01  0.11105701068E+02  0.17572203229E+02  0.51100000000E-03 0.  1.
         12    1    3    3    0    0  0.26583895715E+01  0.10576437636E+00  0.27610383283E+00  0.26747812142E+01  0.00000000000E+00 0. -1.
</event>
<event>
 7    1  0.3046295E-009  0.4614232E+02  0.7816164E-02  0.1320468E+00
        -11   -1    0    0    0    0  0.00000000000E+00  0.00000000000E+00  0.45593999997E+02  0.45594000000E+02  0.51100000000E-03 0.  1.
         11   -1    0    0    0    0 -0.00000000000E+00 -0.00000000000E+00 -0.45593999997E+02  0.45594000000E+02  0.51100000000E-03 0. -1.
    9900012    2    1    2    0    0  0.30782887508E+02  0.21777844680E+02  0.24642500233E+02  0.46142317632E+02  0.99999988272E+01 0.  0.
         12    1    1    2    0    0 -0.30782887508E+02 -0.21777844680E+02 -0.24642500233E+02  0.45045682368E+02  0.00000000000E+00 0. -1.
         11    1    3    3    0    0  0.15812351920E+02  0.87110599384E+01  0.97107227038E+01  0.20499053007E+02  0.51100000000E-03 0. -1.
        -11    1    3    3    0    0  0.13279371131E+01  0.38773848811E+01  0.13601245251E+01  0.43182715845E+01  0.51100000000E-03 0.  1.
        -12    1    3    3    0    0  0.13642598474E+02  0.91893998609E+01  0.13571653004E+02  0.21324993041E+02  0.00000000000E+00 0.  1.
</event>
<event>
 7    1  0.3046295E-009  0.4614232E+02  0.7816164E-02  0.1320468E+00
        -11   -1    0    0    0    0  0.00000000000E+00  0.00000000000E+00  0.45593999997E+02  0.45594000000E+02  0.51100000000E-03 0. -1.
         11   -1    0    0    0    0 -0.00000000000E+00 -0.00000000000E+00 -0.45593999997E+02  0.45594000000E+02  0.51100000000E-03 0.  1.
    9900012    2    1    2    0    0  0.13948774763E+02 -0.32646711121E+02 -0.27726116599E+02  0.46142316454E+02  0.99999880835E+01 0.  0.
         12    1    1    2    0    0 -0.13948774763E+02  0.32646711121E+02  0.27726116599E+02  0.45045683546E+02  0.00000000000E+00 0. -1.
         11    1    3    3    0    0  0.66059138811E+01 -0.10588785318E+02 -0.57543855505E+01  0.13743122863E+02  0.51100000000E-03 0. -1.
        -11    1    3    3    0    0  0.56010839152E+00 -0.65669620272E+01 -0.86309216551E+01  0.10859628012E+02  0.51100000000E-03 0.  1.
        -12    1    3    3    0    0  0.67827524909E+01 -0.15490963776E+02 -0.13340809394E+02  0.21539565579E+02  0.00000000000E+00 0.  1.
</event>
<event>
 7    1  0.3046295E-009  0.4614232E+02  0.7816164E-02  0.1320468E+00
        -11   -1    0    0    0    0  0.00000000000E+00  0.00000000000E+00  0.45593999997E+02  0.45594000000E+02  0.51100000000E-03 0. -1.
         11   -1    0    0    0    0 -0.00000000000E+00 -0.00000000000E+00 -0.45593999997E+02  0.45594000000E+02  0.51100000000E-03 0.  1.
    9900012    2    1    2    0    0  0.39024961243E+02 -0.20990599786E+02 -0.80969293831E+01  0.46142321574E+02  0.10000034773E+02 0.  0.
         12    1    1    2    0    0 -0.39024961243E+02  0.20990599786E+02  0.80969293831E+01  0.45045678426E+02  0.00000000000E+00 0. -1.
         11    1    3    3    0    0  0.13637401881E+01  0.38404675511E+00 -0.48105291609E+00  0.14962257116E+01  0.51100000000E-03 0. -1.
        -11    1    3    3    0    0  0.19025014100E+02 -0.95106136750E+01  0.25368043376E-01  0.21269780859E+02  0.51100000000E-03 0.  1.
        -12    1    3    3    0    0  0.18636206955E+02 -0.11864032866E+02 -0.76412445104E+01  0.23376315004E+02  0.00000000000E+00 0.  1.
</event>
<event>
 7    1  0.3046295E-009  0.4614232E+02  0.7816164E-02  0.1320468E+00
        -11   -1    0    0    0    0  0.00000000000E+00  0.00000000000E+00  0.45593999997E+02  0.45594000000E+02  0.51100000000E-03 0. -1.
         11   -1    0    0    0    0 -0.00000000000E+00 -0.00000000000E+00 -0.45593999997E+02  0.45594000000E+02  0.51100000000E-03 0.  1.
    9900012    2    1    2    0    0 -0.32277529856E+01 -0.23194811604E+02 -0.38479810366E+02  0.46142317849E+02  0.10000000799E+02 0.  0.
         12    1    1    2    0    0  0.32277529856E+01  0.23194811604E+02  0.38479810366E+02  0.45045682151E+02  0.00000000000E+00 0. -1.
         11    1    3    3    0    0  0.12558883746E+01 -0.23211603206E+01 -0.38314395523E+01  0.46524155175E+01  0.51100000000E-03 0. -1.
        -11    1    3    3    0    0 -0.45138581027E+01 -0.18547693872E+02 -0.24394713813E+02  0.30975698947E+02  0.51100000000E-03 0.  1.
        -12    1    3    3    0    0  0.30216742506E-01 -0.23259574112E+01 -0.10253657000E+02  0.10514203385E+02  0.00000000000E+00 0.  1.
</event>
<event>
 7    1  0.3046295E-009  0.4614232E+02  0.7816164E-02  0.1320468E+00
        -11   -1    0    0    0    0  0.00000000000E+00  0.00000000000E+00  0.45593999997E+02  0.45594000000E+02  0.51100000000E-03 0.  1.
         11   -1    0    0    0    0 -0.00000000000E+00 -0.00000000000E+00 -0.45593999997E+02  0.45594000000E+02  0.51100000000E-03 0. -1.
    9900012    2    1    2    0    0  0.44267433957E+01  0.76267975718E+01  0.44174080965E+02  0.46142317327E+02  0.99999960457E+01 0.  0.
         12    1    1    2    0    0 -0.44267433957E+01 -0.76267975718E+01 -0.44174080965E+02  0.45045682673E+02  0.00000000000E+00 0. -1.
         11    1    3    3    0    0  0.30045648529E+00  0.20195614537E+01  0.13986062831E+01  0.24748742112E+01  0.51100000000E-03 0. -1.
        -11    1    3    3    0    0  0.50796658243E+01  0.27799515974E+01  0.27417416783E+02  0.28022239009E+02  0.51100000000E-03 0.  1.
        -12    1    3    3    0    0 -0.95337891391E+00  0.28272845206E+01  0.15358057900E+02  0.15645204107E+02  0.00000000000E+00 0.  1.
</event>
<event>
 7    1  0.3046295E-009  0.4614232E+02  0.7816164E-02  0.1320468E+00
        -11   -1    0    0    0    0  0.00000000000E+00  0.00000000000E+00  0.45593999997E+02  0.45594000000E+02  0.51100000000E-03 0. -1.
         11   -1    0    0    0    0 -0.00000000000E+00 -0.00000000000E+00 -0.45593999997E+02  0.45594000000E+02  0.51100000000E-03 0.  1.
    9900012    2    1    2    0    0  0.36818776835E+01  0.40790309938E+02 -0.18753874637E+02  0.46142318498E+02  0.10000006718E+02 0.  0.
         12    1    1    2    0    0 -0.36818776835E+01 -0.40790309938E+02  0.18753874637E+02  0.45045681502E+02  0.00000000000E+00 0. -1.
         11    1    3    3    0    0 -0.33124000752E+00  0.17675762949E+02 -0.10671071559E+02  0.20649796228E+02  0.51100000000E-03 0. -1.
        -11    1    3    3    0    0  0.15070846882E+01  0.20122238126E+02 -0.59142313144E+01  0.21027455951E+02  0.51100000000E-03 0.  1.
         12    1    3    3    0    0  0.25060330028E+01  0.29923088624E+01 -0.21685717636E+01  0.44650663190E+01  0.00000000000E+00 0. -1.
</event>
<event>
 7    1  0.3046295E-009  0.4614232E+02  0.7816164E-02  0.1320468E+00
        -11   -1    0    0    0    0  0.00000000000E+00  0.00000000000E+00  0.45593999997E+02  0.45594000000E+02  0.51100000000E-03 0. -1.
         11   -1    0    0    0    0 -0.00000000000E+00 -0.00000000000E+00 -0.45593999997E+02  0.45594000000E+02  0.51100000000E-03 0.  1.
    9900012    2    1    2    0    0  0.41401351603E+02 -0.81570716518E+01 -0.15764001144E+02  0.46142318026E+02  0.10000002411E+02 0.  0.
         12    1    1    2    0    0 -0.41401351603E+02  0.81570716518E+01  0.15764001144E+02  0.45045681974E+02  0.00000000000E+00 0. -1.
         11    1    3    3    0    0  0.65505559772E+00  0.14158063558E+00  0.70590487401E+00  0.97336779520E+00  0.51100000000E-03 0. -1.
        -11    1    3    3    0    0  0.31795117542E+02 -0.90603245397E+01 -0.13439292666E+02  0.35688003137E+02  0.51100000000E-03 0.  1.
        -12    1    3    3    0    0  0.89511784630E+01  0.76167225229E+00 -0.30306133523E+01  0.94809470934E+01  0.00000000000E+00 0.  1.
</event>
<event>
 7    1  0.3046295E-009  0.4614232E+02  0.7816164E-02  0.1320468E+00
        -11   -1    0    0    0    0  0.00000000000E+00  0.00000000000E+00  0.45593999997E+02  0.45594000000E+02  0.51100000000E-03 0.  1.
         11   -1    0    0    0    0 -0.00000000000E+00 -0.00000000000E+00 -0.45593999997E+02  0.45594000000E+02  0.51100000000E-03 0. -1.
    9900012    2    1    2    0    0  0.43902417041E+02  0.48334794760E+01  0.88503547756E+01  0.46142317348E+02  0.99999962365E+01 0.  0.
         12    1    1    2    0    0 -0.43902417041E+02 -0.48334794760E+01 -0.88503547756E+01  0.45045682652E+02  0.00000000000E+00 0. -1.
         11    1    3    3    0    0  0.35788622590E+01  0.11011038257E+01 -0.68187471533E+00  0.38060002749E+01  0.51100000000E-03 0. -1.
        -11    1    3    3    0    0  0.19027382757E+02 -0.17533677407E+01  0.62326340405E+01  0.20098789027E+02  0.51100000000E-03 0.  1.
        -12    1    3    3    0    0  0.21296172025E+02  0.54857433910E+01  0.32995954505E+01  0.22237528046E+02  0.00000000000E+00 0.  1.
</event>
<event>
 7    1  0.3046295E-009  0.4614232E+02  0.7816164E-02  0.1320468E+00
        -11   -1    0    0    0    0  0.00000000000E+00  0.00000000000E+00  0.45593999997E+02  0.45594000000E+02  0.51100000000E-03 0.  1.
         11   -1    0    0    0    0 -0.00000000000E+00 -0.00000000000E+00 -0.45593999997E+02  0.45594000000E+02  0.51100000000E-03 0. -1.
    9900012    2    1    2    0    0 -0.25375047688E+02  0.21893520624E+02  0.30098078066E+02  0.46142316592E+02  0.99999893365E+01 0.  0.
         12    1    1    2    0    0  0.25375047688E+02 -0.21893520624E+02 -0.30098078066E+02  0.45045683408E+02  0.00000000000E+00 0. -1.
         11    1    3    3    0    0 -0.96022693927E+01  0.78180967747E+01  0.71451605569E+01  0.14296137042E+02  0.51100000000E-03 0. -1.
        -11    1    3    3    0    0 -0.11795679511E+02  0.12194079630E+02  0.14504053765E+02  0.22320421345E+02  0.51100000000E-03 0.  1.
         12    1    3    3    0    0 -0.39770987837E+01  0.18813442190E+01  0.84488637446E+01  0.95257582050E+01  0.00000000000E+00 0. -1.
</event>
<event>
 7    1  0.3046295E-009  0.4614232E+02  0.7816164E-02  0.1320468E+00
        -11   -1    0    0    0    0  0.00000000000E+00  0.00000000000E+00  0.45593999997E+02  0.45594000000E+02  0.51100000000E-03 0.  1.
         11   -1    0    0    0    0 -0.00000000000E+00 -0.00000000000E+00 -0.45593999997E+02  0.45594000000E+02  0.51100000000E-03 0. -1.
    9900012    2    1    2    0    0  0.16492845749E+02  0.41407575338E+02  0.65201439147E+01  0.46142317266E+02  0.99999954894E+01 0.  0.
         12    1    1    2    0    0 -0.16492845749E+02 -0.41407575338E+02 -0.65201439147E+01  0.45045682734E+02  0.00000000000E+00 0. -1.
         11    1    3    3    0    0  0.57355163504E+01  0.16653167274E+02  0.48870384304E+01  0.18278601504E+02  0.51100000000E-03 0. -1.
        -11    1    3    3    0    0  0.70429033509E+01  0.22081666557E+02  0.20532019500E+01  0.23268393242E+02  0.51100000000E-03 0.  1.
         12    1    3    3    0    0  0.37144260479E+01  0.26727415066E+01 -0.42009646573E+00  0.45953225205E+01  0.00000000000E+00 0. -1.
</event>
<event>
 7    1  0.3046295E-009  0.4614232E+02  0.7816164E-02  0.1320468E+00
        -11   -1    0    0    0    0  0.00000000000E+00  0.00000000000E+00  0.45593999997E+02  0.45594000000E+02  0.51100000000E-03 0. -1.
         11   -1    0    0    0    0 -0.00000000000E+00 -0.00000000000E+00 -0.45593999997E+02  0.45594000000E+02  0.51100000000E-03 0.  1.
    9900012    2    1    2    0    0  0.32072937854E+02 -0.29484503053E+02  0.11450070618E+02  0.46142318964E+02  0.10000010968E+02 0.  0.
         12    1    1    2    0    0 -0.32072937854E+02  0.29484503053E+02 -0.11450070618E+02  0.45045681036E+02  0.00000000000E+00 0. -1.
         11    1    3    3    0    0  0.14410256514E+02 -0.18662585829E+02  0.44366037267E+01  0.23992312425E+02  0.51100000000E-03 0. -1.
        -11    1    3    3    0    0  0.11298903176E+02 -0.60511867432E+01  0.26867224901E+01  0.13095821929E+02  0.51100000000E-03 0.  1.
        -12    1    3    3    0    0  0.63637781643E+01 -0.47707304804E+01  0.43267444012E+01  0.90541846101E+01  0.00000000000E+00 0.  1.
</event>
<event>
 7    1  0.3046295E-009  0.4614232E+02  0.7816164E-02  0.1320468E+00
        -11   -1    0    0    0    0  0.00000000000E+00  0.00000000000E+00  0.45593999997E+02  0.45594000000E+02  0.51100000000E-03 0.  1.
         11   -1    0    0    0    0 -0.00000000000E+00 -0.00000000000E+00 -0.45593999997E+02  0.45594000000E+02  0.51100000000E-03 0. -1.
    9900012    2    1    2    0    0  0.37723178529E+02  0.90111434438E+01  0.22910128913E+02  0.46142324166E+02  0.10000058408E+02 0.  0.
         12    1    1    2    0    0 -0.37723178529E+02 -0.90111434438E+01 -0.22910128913E+02  0.45045675834E+02  0.00000000000E+00 0. -1.
         11    1    3    3    0    0  0.13766112850E+02 -0.17461828552E+00  0.96570888929E+01  0.16816531173E+02  0.51100000000E-03 0. -1.
        -11    1    3    3    0    0  0.63183040539E+01  0.26927230570E+01  0.11327948074E+01  0.69609588360E+01  0.51100000000E-03 0.  1.
        -12    1    3    3    0    0  0.17638761625E+02  0.64930386723E+01  0.12120245213E+02  0.22364834157E+02  0.00000000000E+00 0.  1.
</event>
<event>
 7    1  0.3046295E-009  0.4614232E+02  0.7816164E-02  0.1320468E+00
        -11   -1    0    0    0    0  0.00000000000E+00  0.00000000000E+00  0.45593999997E+02  0.45594000000E+02  0.51100000000E-03 0. -1.
         11   -1    0    0    0    0 -0.00000000000E+00 -0.00000000000E+00 -0.45593999997E+02  0.45594000000E+02  0.51100000000E-03 0.  1.
    9900012    2    1    2    0    0  0.33124823774E+02  0.28095485297E+02  0.11937462806E+02  0.46142320269E+02  0.10000022871E+02 0.  0.
         12    1    1    2    0    0 -0.33124823774E+02 -0.28095485297E+02 -0.11937462806E+02  0.45045679731E+02  0.00000000000E+00 0. -1.
         11    1    3    3    0    0  0.43843254237E+00  0.12446481984E+01  0.14977028860E+01  0.19961178392E+01  0.51100000000E-03 0. -1.
        -11    1    3    3    0    0  0.19758938026E+00 -0.19245066638E-01  0.89743774158E+00  0.91913366651E+00  0.51100000000E-03 0.  1.
        -12    1    3    3    0    0  0.32488801851E+02  0.26870082166E+02  0.95423221785E+01  0.43227068764E+02  0.00000000000E+00 0.  1.
</event>
<event>
 7    1  0.3046295E-009  0.4614232E+02  0.7816164E-02  0.1320468E+00
        -11   -1    0    0    0    0  0.00000000000E+00  0.00000000000E+00  0.45593999997E+02  0.45594000000E+02  0.51100000000E-03 0.  1.
         11   -1    0    0    0    0 -0.00000000000E+00 -0.00000000000E+00 -0.45593999997E+02  0.45594000000E+02  0.51100000000E-03 0. -1.
    9900012    2    1    2    0    0 -0.28936415564E+00  0.88914043685E+01  0.44158495596E+02  0.46142317226E+02  0.99999951205E+01 0.  0.
         12    1    1    2    0    0  0.28936415564E+00 -0.88914043685E+01 -0.44158495596E+02  0.45045682774E+02  0.00000000000E+00 0. -1.
         11    1    3    3    0    0 -0.12730144136E+01  0.43627178125E+00  0.17102654598E+02  0.17155514953E+02  0.51100000000E-03 0. -1.
        -11    1    3    3    0    0  0.11490710247E+01  0.54285348695E+01  0.82765921630E+01  0.99645036576E+01  0.51100000000E-03 0.  1.
        -12    1    3    3    0    0 -0.16542076669E+00  0.30265977177E+01  0.18779248836E+02  0.19022298615E+02  0.00000000000E+00 0.  1.
</event>
<event>
 7    1  0.3046295E-009  0.4614232E+02  0.7816164E-02  0.1320468E+00
        -11   -1    0    0    0    0  0.00000000000E+00  0.00000000000E+00  0.45593999997E+02  0.45594000000E+02  0.51100000000E-03 0.  1.
         11   -1    0    0    0    0 -0.00000000000E+00 -0.00000000000E+00 -0.45593999997E+02  0.45594000000E+02  0.51100000000E-03 0. -1.
    9900012    2    1    2    0    0  0.29917092787E+02 -0.30517449166E+02  0.14239588682E+02  0.46142322846E+02  0.10000046371E+02 0.  0.
         12    1    1    2    0    0 -0.29917092787E+02  0.30517449166E+02 -0.14239588682E+02  0.45045677154E+02  0.00000000000E+00 0. -1.
         11    1    3    3    0    0  0.36270169501E+01 -0.66558229770E+01  0.18726822254E+01  0.78078275106E+01  0.51100000000E-03 0. -1.
        -11    1    3    3    0    0  0.20325456937E+02 -0.17879330612E+02  0.59255202151E+01  0.27711125075E+02  0.51100000000E-03 0.  1.
        -12    1    3    3    0    0  0.59646188996E+01 -0.59822955767E+01  0.64413862417E+01  0.10623370261E+02  0.00000000000E+00 0.  1.
</event>
<event>
 7    1  0.3046295E-009  0.4614232E+02  0.7816164E-02  0.1320468E+00
        -11   -1    0    0    0    0  0.00000000000E+00  0.00000000000E+00  0.45593999997E+02  0.45594000000E+02  0.51100000000E-03 0.  1.
         11   -1    0    0    0    0 -0.00000000000E+00 -0.00000000000E+00 -0.45593999997E+02  0.45594000000E+02  0.51100000000E-03 0. -1.
    9900012    2    1    2    0    0  0.39320636955E+02 -0.15899783840E+02  0.15172272136E+02  0.46142318093E+02  0.10000003024E+02 0.  0.
         12    1    1    2    0    0 -0.39320636955E+02  0.15899783840E+02 -0.15172272136E+02  0.45045681907E+02  0.00000000000E+00 0. -1.
         11    1    3    3    0    0  0.44750482269E+01 -0.35594571122E+01  0.50673265414E+01  0.76402611280E+01  0.51100000000E-03 0. -1.
        -11    1    3    3    0    0  0.11393209156E+02 -0.41539685522E+01  0.51371040455E+01  0.13170061042E+02  0.51100000000E-03 0.  1.
         12    1    3    3    0    0  0.23452379572E+02 -0.81863581756E+01  0.49678415489E+01  0.25331995923E+02  0.00000000000E+00 0. -1.
</event>
<event>
 7    1  0.3046295E-009  0.4614232E+02  0.7816164E-02  0.1320468E+00
        -11   -1    0    0    0    0  0.00000000000E+00  0.00000000000E+00  0.45593999997E+02  0.45594000000E+02  0.51100000000E-03 0.  1.
         11   -1    0    0    0    0 -0.00000000000E+00 -0.00000000000E+00 -0.45593999997E+02  0.45594000000E+02  0.51100000000E-03 0. -1.
    9900012    2    1    2    0    0  0.21924814557E+02 -0.37339060861E+02  0.12418153738E+02  0.46142317614E+02  0.99999986619E+01 0.  0.
         12    1    1    2    0    0 -0.21924814557E+02  0.37339060861E+02 -0.12418153738E+02  0.45045682386E+02  0.00000000000E+00 0. -1.
         11    1    3    3    0    0  0.74741410203E+01 -0.12807937161E+02  0.15546414785E+01  0.14910497936E+02  0.51100000000E-03 0. -1.
        -11    1    3    3    0    0  0.74311779369E+01 -0.18808398313E+02  0.76592779322E+01  0.21625050089E+02  0.51100000000E-03 0.  1.
        -12    1    3    3    0    0  0.70194955995E+01 -0.57227253868E+01  0.32042343270E+01  0.96067695895E+01  0.00000000000E+00 0.  1.
</event>
<event>
 7    1  0.3046295E-009  0.4614232E+02  0.7816164E-02  0.1320468E+00
        -11   -1    0    0    0    0  0.00000000000E+00  0.00000000000E+00  0.45593999997E+02  0.45594000000E+02  0.51100000000E-03 0.  1.
         11   -1    0    0    0    0 -0.00000000000E+00 -0.00000000000E+00 -0.45593999997E+02  0.45594000000E+02  0.51100000000E-03 0. -1.
    9900012    2    1    2    0    0  0.37404009398E+02 -0.11312006988E+02  0.22407401122E+02  0.46142322669E+02  0.10000044756E+02 0.  0.
         12    1    1    2    0    0 -0.37404009398E+02  0.11312006988E+02 -0.22407401122E+02  0.45045677331E+02  0.00000000000E+00 0. -1.
         11    1    3    3    0    0  0.21561464111E+00  0.61729120773E+00 -0.25571333103E+00  0.70208808378E+00  0.51100000000E-03 0. -1.
        -11    1    3    3    0    0  0.99806590892E+01 -0.36363302863E+01  0.36711776600E+01  0.11238950106E+02  0.51100000000E-03 0.  1.
         12    1    3    3    0    0  0.27207735668E+02 -0.82929679091E+01  0.18991936793E+02  0.34201284480E+02  0.00000000000E+00 0. -1.
</event>
<event>
 7    1  0.3046295E-009  0.4614232E+02  0.7816164E-02  0.1320468E+00
        -11   -1    0    0    0    0  0.00000000000E+00  0.00000000000E+00  0.45593999997E+02  0.45594000000E+02  0.51100000000E-03 0.  1.
         11   -1    0    0    0    0 -0.00000000000E+00 -0.00000000000E+00 -0.45593999997E+02  0.45594000000E+02  0.51100000000E-03 0. -1.
    9900012    2    1    2    0    0  0.36459839252E+01  0.95690187622E+01  0.43866316609E+02  0.46142322608E+02  0.10000044198E+02 0.  0.
         12    1    1    2    0    0 -0.36459839252E+01 -0.95690187622E+01 -0.43866316609E+02  0.45045677392E+02  0.00000000000E+00 0. -1.
         11    1    3    3    0    0 -0.12723703735E+00  0.36192975336E+01  0.21863565482E+02  0.22161475577E+02  0.51100000000E-03 0. -1.
        -11    1    3    3    0    0  0.11702693446E+01  0.40287866317E+01  0.19343234312E+02  0.19792962536E+02  0.51100000000E-03 0.  1.
        -12    1    3    3    0    0  0.26029516179E+01  0.19209345970E+01  0.26595168154E+01  0.41878844949E+01  0.00000000000E+00 0.  1.
</event>
<event>
 7    1  0.3046295E-009  0.4614232E+02  0.7816164E-02  0.1320468E+00
        -11   -1    0    0    0    0  0.00000000000E+00  0.00000000000E+00  0.45593999997E+02  0.45594000000E+02  0.51100000000E-03 0. -1.
         11   -1    0    0    0    0 -0.00000000000E+00 -0.00000000000E+00 -0.45593999997E+02  0.45594000000E+02  0.51100000000E-03 0.  1.
    9900012    2    1    2    0    0 -0.36519896788E+02  0.14376932360E+02 -0.22106888319E+02  0.46142317003E+02  0.99999930894E+01 0.  0.
         12    1    1    2    0    0  0.36519896788E+02 -0.14376932360E+02  0.22106888319E+02  0.45045682997E+02  0.00000000000E+00 0. -1.
         11    1    3    3    0    0 -0.12539288323E+02  0.83861317778E+01 -0.91570590495E+01  0.17646888920E+02  0.51100000000E-03 0. -1.
        -11    1    3    3    0    0 -0.14536463052E+02  0.59059894350E+01 -0.61271364505E+01  0.16844324582E+02  0.51100000000E-03 0.  1.
        -12    1    3    3    0    0 -0.94441454125E+01  0.84811147120E-01 -0.68226928187E+01  0.11651103501E+02  0.00000000000E+00 0.  1.
</event>
<event>
 7    1  0.3046295E-009  0.4614232E+02  0.7816164E-02  0.1320468E+00
        -11   -1    0    0    0    0  0.00000000000E+00  0.00000000000E+00  0.45593999997E+02  0.45594000000E+02  0.51100000000E-03 0.  1.
         11   -1    0    0    0    0 -0.00000000000E+00 -0.00000000000E+00 -0.45593999997E+02  0.45594000000E+02  0.51100000000E-03 0. -1.
    9900012    2    1    2    0    0 -0.11995909876E+02 -0.22036589625E+02  0.37411233710E+02  0.46142317146E+02  0.99999943920E+01 0.  0.
         12    1    1    2    0    0  0.11995909876E+02  0.22036589625E+02 -0.37411233710E+02  0.45045682854E+02  0.00000000000E+00 0. -1.
         11    1    3    3    0    0 -0.85502461920E+00 -0.53410108558E+01  0.13438131471E+02  0.14485884224E+02  0.51100000000E-03 0. -1.
        -11    1    3    3    0    0 -0.52256745915E+01 -0.83948266820E+01  0.15578443181E+02  0.18451793468E+02  0.51100000000E-03 0.  1.
         12    1    3    3    0    0 -0.59152106648E+01 -0.83007520870E+01  0.83946590583E+01  0.13204639455E+02  0.00000000000E+00 0. -1.
</event>
<event>
 7    1  0.3046295E-009  0.4614232E+02  0.7816164E-02  0.1320468E+00
        -11   -1    0    0    0    0  0.00000000000E+00  0.00000000000E+00  0.45593999997E+02  0.45594000000E+02  0.51100000000E-03 0. -1.
         11   -1    0    0    0    0 -0.00000000000E+00 -0.00000000000E+00 -0.45593999997E+02  0.45594000000E+02  0.51100000000E-03 0.  1.
    9900012    2    1    2    0    0  0.19748675370E+02  0.36746190517E+02 -0.16994726752E+02  0.46142318367E+02  0.10000005527E+02 0.  0.
         12    1    1    2    0    0 -0.19748675370E+02 -0.36746190517E+02  0.16994726752E+02  0.45045681633E+02  0.00000000000E+00 0. -1.
         11    1    3    3    0    0  0.16784081350E+01  0.47802288092E+01 -0.45920093948E+01  0.68377036993E+01  0.51100000000E-03 0. -1.
        -11    1    3    3    0    0  0.11698441012E+02  0.22431191149E+02 -0.54020292274E+01  0.25868779997E+02  0.51100000000E-03 0.  1.
        -12    1    3    3    0    0  0.63718262224E+01  0.95347705590E+01 -0.70006881295E+01  0.13435834671E+02  0.00000000000E+00 0.  1.
</event>
<event>
 7    1  0.3046295E-009  0.4614232E+02  0.7816164E-02  0.1320468E+00
        -11   -1    0    0    0    0  0.00000000000E+00  0.00000000000E+00  0.45593999997E+02  0.45594000000E+02  0.51100000000E-03 0.  1.
         11   -1    0    0    0    0 -0.00000000000E+00 -0.00000000000E+00 -0.45593999997E+02  0.45594000000E+02  0.51100000000E-03 0. -1.
    9900012    2    1    2    0    0  0.26335581521E+01 -0.42887029540E+02  0.13523312599E+02  0.46142324126E+02  0.10000058037E+02 0.  0.
         12    1    1    2    0    0 -0.26335581521E+01  0.42887029540E+02 -0.13523312599E+02  0.45045675874E+02  0.00000000000E+00 0. -1.
         11    1    3    3    0    0  0.11256085048E+01 -0.31734558689E+02  0.52778272822E+01  0.32190133128E+02  0.51100000000E-03 0. -1.
        -11    1    3    3    0    0  0.24286914363E+00 -0.18572714681E+01  0.14438132512E+01  0.23649608226E+01  0.51100000000E-03 0.  1.
         12    1    3    3    0    0  0.12650805037E+01 -0.92951993830E+01  0.68016720654E+01  0.11587230175E+02  0.00000000000E+00 0. -1.
</event>
<event>
 7    1  0.3046295E-009  0.4614232E+02  0.7816164E-02  0.1320468E+00
        -11   -1    0    0    0    0  0.00000000000E+00  0.00000000000E+00  0.45593999997E+02  0.45594000000E+02  0.51100000000E-03 0. -1.
         11   -1    0    0    0    0 -0.00000000000E+00 -0.00000000000E+00 -0.45593999997E+02  0.45594000000E+02  0.51100000000E-03 0.  1.
    9900012    2    1    2    0    0 -0.26029505557E+01  0.19325111610E+02 -0.40606382059E+02  0.46142317030E+02  0.99999933311E+01 0.  0.
         12    1    1    2    0    0  0.26029505557E+01 -0.19325111610E+02  0.40606382059E+02  0.45045682970E+02  0.00000000000E+00 0. -1.
         11    1    3    3    0    0 -0.10183817165E+01  0.91359950398E+01 -0.13764039867E+02  0.16551504476E+02  0.51100000000E-03 0. -1.
        -11    1    3    3    0    0  0.57158490362E+00 -0.41852158607E+00 -0.65829898283E+01  0.66209987888E+01  0.51100000000E-03 0.  1.
        -12    1    3    3    0    0 -0.21561537428E+01  0.10607638156E+02 -0.20259352364E+02  0.22969813765E+02  0.00000000000E+00 0.  1.
</event>
<event>
 7    1  0.3046295E-009  0.4614232E+02  0.7816164E-02  0.1320468E+00
        -11   -1    0    0    0    0  0.00000000000E+00  0.00000000000E+00  0.45593999997E+02  0.45594000000E+02  0.51100000000E-03 0.  1.
         11   -1    0    0    0    0 -0.00000000000E+00 -0.00000000000E+00 -0.45593999997E+02  0.45594000000E+02  0.51100000000E-03 0. -1.
    9900012    2    1    2    0    0 -0.33248463869E+01  0.39057990738E+02 -0.22193070018E+02  0.46142316513E+02  0.99999886196E+01 0.  0.
         12    1    1    2    0    0  0.33248463869E+01 -0.39057990738E+02  0.22193070018E+02  0.45045683487E+02  0.00000000000E+00 0. -1.
         11    1    3    3    0    0  0.14426478195E+01  0.82559323149E+01 -0.19569407541E+01  0.86064666673E+01  0.51100000000E-03 0. -1.
        -11    1    3    3    0    0  0.34906784688E+00  0.12463469644E+02 -0.65161679235E+01  0.14068417417E+02  0.51100000000E-03 0.  1.
         12    1    3    3    0    0 -0.51165620533E+01  0.18338588778E+02 -0.13719961341E+02  0.23467432429E+02  0.00000000000E+00 0. -1.
</event>
<event>
 7    1  0.3046295E-009  0.4614232E+02  0.7816164E-02  0.1320468E+00
        -11   -1    0    0    0    0  0.00000000000E+00  0.00000000000E+00  0.45593999997E+02  0.45594000000E+02  0.51100000000E-03 0.  1.
         11   -1    0    0    0    0 -0.00000000000E+00 -0.00000000000E+00 -0.45593999997E+02  0.45594000000E+02  0.51100000000E-03 0. -1.
    9900012    2    1    2    0    0 -0.62135642755E+01 -0.41002332945E+02  0.17587318546E+02  0.46142318059E+02  0.10000002714E+02 0.  0.
         12    1    1    2    0    0  0.62135642755E+01  0.41002332945E+02 -0.17587318546E+02  0.45045681941E+02  0.00000000000E+00 0. -1.
         11    1    3    3    0    0  0.36540061698E+00 -0.25434554118E+02  0.98089701424E+01  0.27262904400E+02  0.51100000000E-03 0. -1.
        -11    1    3    3    0    0 -0.21857492248E+01 -0.66044962646E+01  0.48368391885E+01  0.84730091573E+01  0.51100000000E-03 0.  1.
         12    1    3    3    0    0 -0.43932156677E+01 -0.89632825615E+01  0.29415092155E+01  0.10406404501E+02  0.00000000000E+00 0. -1.
</event>
<event>
 7    1  0.3046295E-009  0.4614231E+02  0.7816164E-02  0.1320468E+00
        -11   -1    0    0    0    0  0.00000000000E+00  0.00000000000E+00  0.45593999997E+02  0.45594000000E+02  0.51100000000E-03 0.  1.
         11   -1    0    0    0    0 -0.00000000000E+00 -0.00000000000E+00 -0.45593999997E+02  0.45594000000E+02  0.51100000000E-03 0. -1.
    9900012    2    1    2    0    0 -0.19090599240E+02 -0.36863700858E+02  0.17485145944E+02  0.46142314868E+02  0.99999736227E+01 0.  0.
         12    1    1    2    0    0  0.19090599240E+02  0.36863700858E+02 -0.17485145944E+02  0.45045685132E+02  0.00000000000E+00 0. -1.
         11    1    3    3    0    0 -0.72144889459E+01 -0.18493181636E+02  0.69026833204E+01  0.21016509107E+02  0.51100000000E-03 0. -1.
        -11    1    3    3    0    0  0.40388180296E+00 -0.40125565509E+00 -0.44919226464E+00  0.72519001871E+00  0.51100000000E-03 0.  1.
        -12    1    3    3    0    0 -0.12279992097E+02 -0.17969263567E+02  0.11031654889E+02  0.24400615743E+02  0.00000000000E+00 0.  1.
</event>
<event>
 7    1  0.3046295E-009  0.4614232E+02  0.7816164E-02  0.1320468E+00
        -11   -1    0    0    0    0  0.00000000000E+00  0.00000000000E+00  0.45593999997E+02  0.45594000000E+02  0.51100000000E-03 0.  1.
         11   -1    0    0    0    0 -0.00000000000E+00 -0.00000000000E+00 -0.45593999997E+02  0.45594000000E+02  0.51100000000E-03 0. -1.
    9900012    2    1    2    0    0 -0.43981521050E+02 -0.80780191782E+01  0.54299970405E+01  0.46142318125E+02  0.10000003316E+02 0.  0.
         12    1    1    2    0    0  0.43981521050E+02  0.80780191782E+01 -0.54299970405E+01  0.45045681875E+02  0.00000000000E+00 0. -1.
         11    1    3    3    0    0 -0.88845318609E+01 -0.11654742027E+01  0.31142862590E+01  0.94864121600E+01  0.51100000000E-03 0. -1.
        -11    1    3    3    0    0 -0.13075547885E+02 -0.61397932587E+00 -0.23012945612E+01  0.13290706528E+02  0.51100000000E-03 0.  1.
        -12    1    3    3    0    0 -0.22021441305E+02 -0.62985656496E+01  0.46170053427E+01  0.23365199437E+02  0.00000000000E+00 0.  1.
</event>
<event>
 7    1  0.3046295E-009  0.4614232E+02  0.7816164E-02  0.1320468E+00
        -11   -1    0    0    0    0  0.00000000000E+00  0.00000000000E+00  0.45593999997E+02  0.45594000000E+02  0.51100000000E-03 0. -1.
         11   -1    0    0    0    0 -0.00000000000E+00 -0.00000000000E+00 -0.45593999997E+02  0.45594000000E+02  0.51100000000E-03 0.  1.
    9900012    2    1    2    0    0  0.34932618837E+02 -0.17293892177E+02 -0.22577575500E+02  0.46142317844E+02  0.10000000759E+02 0.  0.
         12    1    1    2    0    0 -0.34932618837E+02  0.17293892177E+02  0.22577575500E+02  0.45045682156E+02  0.00000000000E+00 0. -1.
         11    1    3    3    0    0  0.56349730780E+01 -0.29880505988E+01 -0.10025842232E+01  0.64565117019E+01  0.51100000000E-03 0. -1.
        -11    1    3    3    0    0  0.17320497837E+02 -0.55229124569E+01 -0.93159017621E+01  0.20427634059E+02  0.51100000000E-03 0.  1.
        -12    1    3    3    0    0  0.11977147921E+02 -0.87829291211E+01 -0.12259089515E+02  0.19258172084E+02  0.00000000000E+00 0.  1.
</event>
<event>
 7    1  0.3046295E-009  0.4614232E+02  0.7816164E-02  0.1320468E+00
        -11   -1    0    0    0    0  0.00000000000E+00  0.00000000000E+00  0.45593999997E+02  0.45594000000E+02  0.51100000000E-03 0.  1.
         11   -1    0    0    0    0 -0.00000000000E+00 -0.00000000000E+00 -0.45593999997E+02  0.45594000000E+02  0.51100000000E-03 0. -1.
    9900012    2    1    2    0    0 -0.11480769316E+02 -0.40197848919E+02  0.16776131374E+02  0.46142315349E+02  0.99999780043E+01 0.  0.
         12    1    1    2    0    0  0.11480769316E+02  0.40197848919E+02 -0.16776131374E+02  0.45045684651E+02  0.00000000000E+00 0. -1.
         11    1    3    3    0    0 -0.16865992407E+01 -0.12032997337E+01  0.12360688679E+01  0.24125533684E+01  0.51100000000E-03 0. -1.
        -11    1    3    3    0    0 -0.55907513118E+01 -0.19416257082E+02  0.39324912511E+01  0.20584266492E+02  0.51100000000E-03 0.  1.
         12    1    3    3    0    0 -0.42034187640E+01 -0.19578292103E+02  0.11607571255E+02  0.23145495489E+02  0.00000000000E+00 0. -1.
</event>
<event>
 7    1  0.3046295E-009  0.4614232E+02  0.7816164E-02  0.1320468E+00
        -11   -1    0    0    0    0  0.00000000000E+00  0.00000000000E+00  0.45593999997E+02  0.45594000000E+02  0.51100000000E-03 0. -1.
         11   -1    0    0    0    0 -0.00000000000E+00 -0.00000000000E+00 -0.45593999997E+02  0.45594000000E+02  0.51100000000E-03 0.  1.
    9900012    2    1    2    0    0  0.28078258067E+02 -0.11925663267E+02 -0.33143678359E+02  0.46142318347E+02  0.10000005339E+02 0.  0.
         12    1    1    2    0    0 -0.28078258067E+02  0.11925663267E+02  0.33143678359E+02  0.45045681653E+02  0.00000000000E+00 0. -1.
         11    1    3    3    0    0  0.87028170277E+01 -0.16675701744E+01 -0.77295629623E+01  0.11758654615E+02  0.51100000000E-03 0. -1.
        -11    1    3    3    0    0  0.19585867509E+02 -0.10743294926E+02 -0.23608076263E+02  0.32501782367E+02  0.51100000000E-03 0.  1.
         12    1    3    3    0    0 -0.21042646871E+00  0.48520183377E+00 -0.18060391339E+01  0.18818813649E+01  0.00000000000E+00 0. -1.
</event>
<event>
 7    1  0.3763197E-009  0.4614232E+02  0.7816164E-02  0.1320468E+00
        -11   -1    0    0    0    0  0.00000000000E+00  0.00000000000E+00  0.45593999997E+02  0.45594000000E+02  0.51100000000E-03 0. -1.
         11   -1    0    0    0    0 -0.00000000000E+00 -0.00000000000E+00 -0.45593999997E+02  0.45594000000E+02  0.51100000000E-03 0.  1.
    9900012    2    1    2    0    0 -0.28970825782E+02 -0.32985764631E+02  0.10086834390E+02  0.46142316047E+02  0.99999843717E+01 0.  0.
         12    1    1    2    0    0  0.28970825782E+02  0.32985764631E+02 -0.10086834390E+02  0.45045683953E+02  0.00000000000E+00 0. -1.
         11    1    3    3    0    0 -0.11479575595E+01  0.10059652492E+00  0.13949107202E+00  0.11607688140E+01  0.51100000000E-03 0. -1.
        -11    1    3    3    0    0 -0.16263585918E+02 -0.18673166036E+02  0.19195071499E+01  0.24836985821E+02  0.51100000000E-03 0.  1.
        -12    1    3    3    0    0 -0.11559282305E+02 -0.14413195120E+02  0.80278361676E+01  0.20144561413E+02  0.00000000000E+00 0.  1.
</event>
<event>
 7    1  0.3994864E-009  0.4614232E+02  0.7816164E-02  0.1320468E+00
        -11   -1    0    0    0    0  0.00000000000E+00  0.00000000000E+00  0.45593999997E+02  0.45594000000E+02  0.51100000000E-03 0.  1.
         11   -1    0    0    0    0 -0.00000000000E+00 -0.00000000000E+00 -0.45593999997E+02  0.45594000000E+02  0.51100000000E-03 0. -1.
    9900012    2    1    2    0    0 -0.21467950440E+02 -0.31585477939E+02  0.23887196026E+02  0.46142318223E+02  0.10000004216E+02 0.  0.
         12    1    1    2    0    0  0.21467950440E+02  0.31585477939E+02 -0.23887196026E+02  0.45045681777E+02  0.00000000000E+00 0. -1.
         11    1    3    3    0    0 -0.64438563100E+00  0.13111684282E+00  0.82042259334E+00  0.10514361420E+01  0.51100000000E-03 0. -1.
        -11    1    3    3    0    0 -0.97417142099E+01 -0.84344830226E+01  0.63918314651E+01  0.14383914952E+02  0.51100000000E-03 0.  1.
        -12    1    3    3    0    0 -0.11081850599E+02 -0.23282111759E+02  0.16674941968E+02  0.30706967130E+02  0.00000000000E+00 0.  1.
</event>
<event>
 7    1  0.3046295E-009  0.4614232E+02  0.7816164E-02  0.1320468E+00
        -11   -1    0    0    0    0  0.00000000000E+00  0.00000000000E+00  0.45593999997E+02  0.45594000000E+02  0.51100000000E-03 0.  1.
         11   -1    0    0    0    0 -0.00000000000E+00 -0.00000000000E+00 -0.45593999997E+02  0.45594000000E+02  0.51100000000E-03 0. -1.
    9900012    2    1    2    0    0  0.39384704113E+02 -0.55948371043E+01 -0.21134245564E+02  0.46142318122E+02  0.10000003294E+02 0.  0.
         12    1    1    2    0    0 -0.39384704113E+02  0.55948371043E+01  0.21134245564E+02  0.45045681878E+02  0.00000000000E+00 0. -1.
         11    1    3    3    0    0  0.21392434522E+01 -0.10209960864E+01 -0.36428229221E+01  0.43461425033E+01  0.51100000000E-03 0. -1.
        -11    1    3    3    0    0  0.30393788186E+02 -0.40133380043E+01 -0.16602206670E+02  0.34864344377E+02  0.51100000000E-03 0.  1.
         12    1    3    3    0    0  0.68516724746E+01 -0.56050301353E+00 -0.88921597104E+00  0.69318312422E+01  0.00000000000E+00 0. -1.
</event>
<event>
 7    1  0.3046295E-009  0.4614232E+02  0.7816164E-02  0.1320468E+00
        -11   -1    0    0    0    0  0.00000000000E+00  0.00000000000E+00  0.45593999997E+02  0.45594000000E+02  0.51100000000E-03 0.  1.
         11   -1    0    0    0    0 -0.00000000000E+00 -0.00000000000E+00 -0.45593999997E+02  0.45594000000E+02  0.51100000000E-03 0. -1.
    9900012    2    1    2    0    0 -0.21312809385E+02  0.25748753666E+01  0.39601109654E+02  0.46142315269E+02  0.99999772729E+01 0.  0.
         12    1    1    2    0    0  0.21312809385E+02 -0.25748753666E+01 -0.39601109654E+02  0.45045684731E+02  0.00000000000E+00 0. -1.
         11    1    3    3    0    0 -0.52292629928E+01 -0.33549162357E+01  0.95391888159E+01  0.11384058060E+02  0.51100000000E-03 0. -1.
        -11    1    3    3    0    0 -0.79534914053E+01  0.26833419794E+01  0.17930644828E+02  0.19798140668E+02  0.51100000000E-03 0.  1.
         12    1    3    3    0    0 -0.81300549872E+01  0.32464496230E+01  0.12131276010E+02  0.14960116540E+02  0.00000000000E+00 0. -1.
</event>
<event>
 7    1  0.3046295E-009  0.4614232E+02  0.7816164E-02  0.1320468E+00
        -11   -1    0    0    0    0  0.00000000000E+00  0.00000000000E+00  0.45593999997E+02  0.45594000000E+02  0.51100000000E-03 0.  1.
         11   -1    0    0    0    0 -0.00000000000E+00 -0.00000000000E+00 -0.45593999997E+02  0.45594000000E+02  0.51100000000E-03 0. -1.
    9900012    2    1    2    0    0 -0.38052519017E+02 -0.95944133543E+01  0.22114847706E+02  0.46142318074E+02  0.10000002850E+02 0.  0.
         12    1    1    2    0    0  0.38052519017E+02  0.95944133543E+01 -0.22114847706E+02  0.45045681926E+02  0.00000000000E+00 0. -1.
         11    1    3    3    0    0 -0.86979215439E+01 -0.11912418111E+01  0.87046465714E+01  0.12362999977E+02  0.51100000000E-03 0. -1.
        -11    1    3    3    0    0 -0.12085016663E+02 -0.90164411994E+00  0.42633863841E+01  0.12846674806E+02  0.51100000000E-03 0.  1.
        -12    1    3    3    0    0 -0.17269580811E+02 -0.75015274232E+01  0.91468147502E+01  0.20932643291E+02  0.00000000000E+00 0.  1.
</event>
<event>
 7    1  0.3046295E-009  0.4614232E+02  0.7816164E-02  0.1320468E+00
        -11   -1    0    0    0    0  0.00000000000E+00  0.00000000000E+00  0.45593999997E+02  0.45594000000E+02  0.51100000000E-03 0. -1.
         11   -1    0    0    0    0 -0.00000000000E+00 -0.00000000000E+00 -0.45593999997E+02  0.45594000000E+02  0.51100000000E-03 0.  1.
    9900012    2    1    2    0    0 -0.20838869567E+02 -0.22775557328E+02 -0.32804404795E+02  0.46142317961E+02  0.10000001820E+02 0.  0.
         12    1    1    2    0    0  0.20838869567E+02  0.22775557328E+02  0.32804404795E+02  0.45045682039E+02  0.00000000000E+00 0. -1.
         11    1    3    3    0    0 -0.21521700987E+01 -0.41173014401E+01 -0.10456405527E+02  0.11442046325E+02  0.51100000000E-03 0. -1.
        -11    1    3    3    0    0 -0.11763034012E+02 -0.98599586754E+01 -0.12772856561E+02  0.19968315383E+02  0.51100000000E-03 0.  1.
        -12    1    3    3    0    0 -0.69236654569E+01 -0.87982972120E+01 -0.95751427073E+01  0.14731956253E+02  0.00000000000E+00 0.  1.
</event>
<event>
 7    1  0.3046295E-009  0.4614232E+02  0.7816164E-02  0.1320468E+00
        -11   -1    0    0    0    0  0.00000000000E+00  0.00000000000E+00  0.45593999997E+02  0.45594000000E+02  0.51100000000E-03 0. -1.
         11   -1    0    0    0    0 -0.00000000000E+00 -0.00000000000E+00 -0.45593999997E+02  0.45594000000E+02  0.51100000000E-03 0.  1.
    9900012    2    1    2    0    0  0.64357490646E+01  0.28695218023E+01 -0.44491127591E+02  0.46142318124E+02  0.10000003306E+02 0.  0.
         12    1    1    2    0    0 -0.64357490646E+01 -0.28695218023E+01  0.44491127591E+02  0.45045681876E+02  0.00000000000E+00 0. -1.
         11    1    3    3    0    0  0.64831454074E+00  0.30565563670E+01 -0.10581701014E+02  0.11033369620E+02  0.51100000000E-03 0. -1.
        -11    1    3    3    0    0 -0.15153097396E+01 -0.87673686338E+00 -0.58243447190E+01  0.60817614883E+01  0.51100000000E-03 0.  1.
         12    1    3    3    0    0  0.73027442634E+01  0.68970229870E+00 -0.28085081858E+02  0.29027187015E+02  0.00000000000E+00 0. -1.
</event>
<event>
 7    1  0.3046295E-009  0.4614232E+02  0.7816164E-02  0.1320468E+00
        -11   -1    0    0    0    0  0.00000000000E+00  0.00000000000E+00  0.45593999997E+02  0.45594000000E+02  0.51100000000E-03 0.  1.
         11   -1    0    0    0    0 -0.00000000000E+00 -0.00000000000E+00 -0.45593999997E+02  0.45594000000E+02  0.51100000000E-03 0. -1.
    9900012    2    1    2    0    0  0.37889006002E+02 -0.12675063946E+02  0.20805754096E+02  0.46142318461E+02  0.10000006382E+02 0.  0.
         12    1    1    2    0    0 -0.37889006002E+02  0.12675063946E+02 -0.20805754096E+02  0.45045681539E+02  0.00000000000E+00 0. -1.
         11    1    3    3    0    0  0.10865285755E+02 -0.39174971770E+01  0.15042466029E+01  0.11647488002E+02  0.51100000000E-03 0. -1.
        -11    1    3    3    0    0  0.33679332092E+01 -0.65849152602E+00  0.12357542444E+01  0.36474201849E+01  0.51100000000E-03 0.  1.
         12    1    3    3    0    0  0.23655787038E+02 -0.80990752425E+01  0.18065753248E+02  0.30847410274E+02  0.00000000000E+00 0. -1.
</event>
<event>
 7    1  0.3046295E-009  0.4614232E+02  0.7816164E-02  0.1320468E+00
        -11   -1    0    0    0    0  0.00000000000E+00  0.00000000000E+00  0.45593999997E+02  0.45594000000E+02  0.51100000000E-03 0.  1.
         11   -1    0    0    0    0 -0.00000000000E+00 -0.00000000000E+00 -0.45593999997E+02  0.45594000000E+02  0.51100000000E-03 0. -1.
    9900012    2    1    2    0    0 -0.10775563890E+02 -0.31143592611E+02  0.30709564619E+02  0.46142317666E+02  0.99999991291E+01 0.  0.
         12    1    1    2    0    0  0.10775563890E+02  0.31143592611E+02 -0.30709564619E+02  0.45045682334E+02  0.00000000000E+00 0. -1.
         11    1    3    3    0    0 -0.39001954730E+01 -0.60122364163E+01  0.21961364362E+01  0.74954337407E+01  0.51100000000E-03 0. -1.
        -11    1    3    3    0    0 -0.20165203573E+01 -0.71170717503E+01  0.89785380678E+01  0.11633280309E+02  0.51100000000E-03 0.  1.
         12    1    3    3    0    0 -0.48588480602E+01 -0.18014284445E+02  0.19534890115E+02  0.27013603616E+02  0.00000000000E+00 0. -1.
</event>
<event>
 7    1  0.3046295E-009  0.4614232E+02  0.7816164E-02  0.1320468E+00
        -11   -1    0    0    0    0  0.00000000000E+00  0.00000000000E+00  0.45593999997E+02  0.45594000000E+02  0.51100000000E-03 0. -1.
         11   -1    0    0    0    0 -0.00000000000E+00 -0.00000000000E+00 -0.45593999997E+02  0.45594000000E+02  0.51100000000E-03 0.  1.
    9900012    2    1    2    0    0 -0.11246578134E+02 -0.37490617291E+02 -0.22295324682E+02  0.46142318661E+02  0.10000008207E+02 0.  0.
         12    1    1    2    0    0  0.11246578134E+02  0.37490617291E+02  0.22295324682E+02  0.45045681339E+02  0.00000000000E+00 0. -1.
         11    1    3    3    0    0  0.12088936533E+01 -0.24745155400E+01 -0.13673296163E+00  0.27574167597E+01  0.51100000000E-03 0. -1.
        -11    1    3    3    0    0 -0.32349015600E+01 -0.13588355223E+02 -0.79951564547E+01  0.16094424897E+02  0.51100000000E-03 0.  1.
         12    1    3    3    0    0 -0.92205702272E+01 -0.21427746528E+02 -0.14163435266E+02  0.27290477004E+02  0.00000000000E+00 0. -1.
</event>
<event>
 7    1  0.3046295E-009  0.4614232E+02  0.7816164E-02  0.1320468E+00
        -11   -1    0    0    0    0  0.00000000000E+00  0.00000000000E+00  0.45593999997E+02  0.45594000000E+02  0.51100000000E-03 0.  1.
         11   -1    0    0    0    0 -0.00000000000E+00 -0.00000000000E+00 -0.45593999997E+02  0.45594000000E+02  0.51100000000E-03 0. -1.
    9900012    2    1    2    0    0 -0.33447433642E+01 -0.44590531238E+02  0.54415766010E+01  0.46142317187E+02  0.99999947608E+01 0.  0.
         12    1    1    2    0    0  0.33447433642E+01  0.44590531238E+02 -0.54415766010E+01  0.45045682813E+02  0.00000000000E+00 0. -1.
         11    1    3    3    0    0 -0.22013941067E+01 -0.16639235259E+02  0.61569268340E+01  0.17877864367E+02  0.51100000000E-03 0. -1.
        -11    1    3    3    0    0  0.93665681522E+00 -0.20288750209E+02 -0.27046802625E+00  0.20312160501E+02  0.51100000000E-03 0.  1.
         12    1    3    3    0    0 -0.20800060727E+01 -0.76625457697E+01 -0.44488220678E+00  0.79522923181E+01  0.00000000000E+00 0. -1.
</event>
<event>
 7    1  0.3046295E-009  0.4614232E+02  0.7816164E-02  0.1320468E+00
        -11   -1    0    0    0    0  0.00000000000E+00  0.00000000000E+00  0.45593999997E+02  0.45594000000E+02  0.51100000000E-03 0.  1.
         11   -1    0    0    0    0 -0.00000000000E+00 -0.00000000000E+00 -0.45593999997E+02  0.45594000000E+02  0.51100000000E-03 0. -1.
    9900012    2    1    2    0    0  0.22573906215E+02 -0.23953724684E+02  0.30753069731E+02  0.46142318010E+02  0.10000002271E+02 0.  0.
         12    1    1    2    0    0 -0.22573906215E+02  0.23953724684E+02 -0.30753069731E+02  0.45045681990E+02  0.00000000000E+00 0. -1.
         11    1    3    3    0    0  0.19101780947E+01 -0.31537675994E+01  0.93395087541E-01  0.36883266298E+01  0.51100000000E-03 0. -1.
        -11    1    3    3    0    0  0.12469892121E+02 -0.12997598779E+02  0.19884805027E+02  0.26829857524E+02  0.51100000000E-03 0.  1.
         12    1    3    3    0    0  0.81938360000E+01 -0.78023583055E+01  0.10774869616E+02  0.15624133857E+02  0.00000000000E+00 0. -1.
</event>
<event>
 7    1  0.3046295E-009  0.4614232E+02  0.7816164E-02  0.1320468E+00
        -11   -1    0    0    0    0  0.00000000000E+00  0.00000000000E+00  0.45593999997E+02  0.45594000000E+02  0.51100000000E-03 0.  1.
         11   -1    0    0    0    0 -0.00000000000E+00 -0.00000000000E+00 -0.45593999997E+02  0.45594000000E+02  0.51100000000E-03 0. -1.
    9900012    2    1    2    0    0  0.16832521735E+02 -0.34687316665E+02  0.23293126574E+02  0.46142317954E+02  0.10000001760E+02 0.  0.
         12    1    1    2    0    0 -0.16832521735E+02  0.34687316665E+02 -0.23293126574E+02  0.45045682046E+02  0.00000000000E+00 0. -1.
         11    1    3    3    0    0  0.43942919724E+01 -0.59621734515E+01  0.13890013636E+01  0.75356910270E+01  0.51100000000E-03 0. -1.
        -11    1    3    3    0    0  0.11676371423E+01 -0.52313936162E+01  0.61459996921E+01  0.81550087762E+01  0.51100000000E-03 0.  1.
         12    1    3    3    0    0  0.11270592620E+02 -0.23493749597E+02  0.15758125518E+02  0.30451618151E+02  0.00000000000E+00 0. -1.
</event>
<event>
 7    1  0.3046295E-009  0.4614233E+02  0.7816164E-02  0.1320468E+00
        -11   -1    0    0    0    0  0.00000000000E+00  0.00000000000E+00  0.45593999997E+02  0.45594000000E+02  0.51100000000E-03 0.  1.
         11   -1    0    0    0    0 -0.00000000000E+00 -0.00000000000E+00 -0.45593999997E+02  0.45594000000E+02  0.51100000000E-03 0. -1.
    9900012    2    1    2    0    0  0.24892653668E+02 -0.12576471011E+02  0.35373733128E+02  0.46142325123E+02  0.10000067129E+02 0.  0.
         12    1    1    2    0    0 -0.24892653668E+02  0.12576471011E+02 -0.35373733128E+02  0.45045674877E+02  0.00000000000E+00 0. -1.
         11    1    3    3    0    0  0.70486688089E+01 -0.10844675830E+00  0.71398102645E+01  0.10033562854E+02  0.51100000000E-03 0. -1.
        -11    1    3    3    0    0  0.88050179631E+01 -0.60502272696E+01  0.18465853178E+02  0.21333572725E+02  0.51100000000E-03 0.  1.
        -12    1    3    3    0    0  0.90389668965E+01 -0.64177969835E+01  0.97680696847E+01  0.14775189543E+02  0.00000000000E+00 0.  1.
</event>
<event>
 7    1  0.3473556E-009  0.4614232E+02  0.7816164E-02  0.1320468E+00
        -11   -1    0    0    0    0  0.00000000000E+00  0.00000000000E+00  0.45593999997E+02  0.45594000000E+02  0.51100000000E-03 0. -1.
         11   -1    0    0    0    0 -0.00000000000E+00 -0.00000000000E+00 -0.45593999997E+02  0.45594000000E+02  0.51100000000E-03 0.  1.
    9900012    2    1    2    0    0  0.23050127958E+02 -0.25008639878E+02 -0.29535965010E+02  0.46142315451E+02  0.99999789370E+01 0.  0.
         12    1    1    2    0    0 -0.23050127958E+02  0.25008639878E+02  0.29535965010E+02  0.45045684549E+02  0.00000000000E+00 0. -1.
         11    1    3    3    0    0  0.39149270054E+01 -0.51636466748E+01 -0.25916353766E+01  0.69790024091E+01  0.51100000000E-03 0. -1.
        -11    1    3    3    0    0  0.19282691133E+02 -0.18416312712E+02 -0.26646665469E+02  0.37696518833E+02  0.51100000000E-03 0.  1.
        -12    1    3    3    0    0 -0.14749018022E+00 -0.14286804908E+01 -0.29766416402E+00  0.14667942093E+01  0.00000000000E+00 0.  1.
</event>
<event>
 7    1  0.3046295E-009  0.4614232E+02  0.7816164E-02  0.1320468E+00
        -11   -1    0    0    0    0  0.00000000000E+00  0.00000000000E+00  0.45593999997E+02  0.45594000000E+02  0.51100000000E-03 0. -1.
         11   -1    0    0    0    0 -0.00000000000E+00 -0.00000000000E+00 -0.45593999997E+02  0.45594000000E+02  0.51100000000E-03 0.  1.
    9900012    2    1    2    0    0  0.35296846605E+02 -0.25102064864E+02  0.12374667004E+02  0.46142318474E+02  0.10000006502E+02 0.  0.
         12    1    1    2    0    0 -0.35296846605E+02  0.25102064864E+02 -0.12374667004E+02  0.45045681526E+02  0.00000000000E+00 0. -1.
         11    1    3    3    0    0  0.56004556915E+00  0.32172777702E+00 -0.77613092482E+00  0.10097223755E+01  0.51100000000E-03 0. -1.
        -11    1    3    3    0    0  0.10802559460E+02 -0.63845915990E+01  0.47419946139E+01  0.13414351045E+02  0.51100000000E-03 0.  1.
         12    1    3    3    0    0  0.23934241575E+02 -0.19039201042E+02  0.84088033148E+01  0.31718245054E+02  0.00000000000E+00 0. -1.
</event>
<event>
 7    1  0.3046295E-009  0.4614232E+02  0.7816164E-02  0.1320468E+00
        -11   -1    0    0    0    0  0.00000000000E+00  0.00000000000E+00  0.45593999997E+02  0.45594000000E+02  0.51100000000E-03 0.  1.
         11   -1    0    0    0    0 -0.00000000000E+00 -0.00000000000E+00 -0.45593999997E+02  0.45594000000E+02  0.51100000000E-03 0. -1.
    9900012    2    1    2    0    0 -0.59004536613E+01  0.15331166524E+02  0.41943455966E+02  0.46142317423E+02  0.99999969203E+01 0.  0.
         12    1    1    2    0    0  0.59004536613E+01 -0.15331166524E+02 -0.41943455966E+02  0.45045682577E+02  0.00000000000E+00 0. -1.
         11    1    3    3    0    0  0.18736105455E+01  0.68147628271E+01  0.12285857676E+02  0.14173697752E+02  0.51100000000E-03 0. -1.
        -11    1    3    3    0    0 -0.46689365723E+01  0.70774336658E+01  0.20020417167E+02  0.21741806268E+02  0.51100000000E-03 0.  1.
         12    1    3    3    0    0 -0.31051276345E+01  0.14389700309E+01  0.96371811236E+01  0.10226813403E+02  0.00000000000E+00 0. -1.
</event>
<event>
 7    1  0.3046295E-009  0.4614232E+02  0.7816164E-02  0.1320468E+00
        -11   -1    0    0    0    0  0.00000000000E+00  0.00000000000E+00  0.45593999997E+02  0.45594000000E+02  0.51100000000E-03 0.  1.
         11   -1    0    0    0    0 -0.00000000000E+00 -0.00000000000E+00 -0.45593999997E+02  0.45594000000E+02  0.51100000000E-03 0. -1.
    9900012    2    1    2    0    0 -0.12110615946E+02 -0.23990382010E+02  0.36151184743E+02  0.46142316456E+02  0.99999881023E+01 0.  0.
         12    1    1    2    0    0  0.12110615946E+02  0.23990382010E+02 -0.36151184743E+02  0.45045683544E+02  0.00000000000E+00 0. -1.
         11    1    3    3    0    0  0.13448604058E+00 -0.61855183266E+00  0.35938513608E+01  0.36491726088E+01  0.51100000000E-03 0. -1.
        -11    1    3    3    0    0 -0.57225596575E+01 -0.49824947625E+01  0.68710578953E+01  0.10236424178E+02  0.51100000000E-03 0.  1.
        -12    1    3    3    0    0 -0.65225423296E+01 -0.18389335415E+02  0.25686275487E+02  0.32256719669E+02  0.00000000000E+00 0.  1.
</event>
<event>
 7    1  0.3046295E-009  0.4614232E+02  0.7816164E-02  0.1320468E+00
        -11   -1    0    0    0    0  0.00000000000E+00  0.00000000000E+00  0.45593999997E+02  0.45594000000E+02  0.51100000000E-03 0. -1.
         11   -1    0    0    0    0 -0.00000000000E+00 -0.00000000000E+00 -0.45593999997E+02  0.45594000000E+02  0.51100000000E-03 0.  1.
    9900012    2    1    2    0    0 -0.15008914384E+02 -0.38767865944E+02 -0.17346430765E+02  0.46142316510E+02  0.99999885910E+01 0.  0.
         12    1    1    2    0    0  0.15008914384E+02  0.38767865944E+02  0.17346430765E+02  0.45045683490E+02  0.00000000000E+00 0. -1.
         11    1    3    3    0    0 -0.12053192024E+01  0.32864664764E-01 -0.21895944759E+00  0.12254868284E+01  0.51100000000E-03 0. -1.
        -11    1    3    3    0    0 -0.64675633196E+01 -0.12179824371E+02 -0.73262140250E+01  0.15615726343E+02  0.51100000000E-03 0.  1.
         12    1    3    3    0    0 -0.73360318618E+01 -0.26620906237E+02 -0.98012572920E+01  0.29301103339E+02  0.00000000000E+00 0. -1.
</event>
<event>
 7    1  0.3046295E-009  0.4614232E+02  0.7816164E-02  0.1320468E+00
        -11   -1    0    0    0    0  0.00000000000E+00  0.00000000000E+00  0.45593999997E+02  0.45594000000E+02  0.51100000000E-03 0. -1.
         11   -1    0    0    0    0 -0.00000000000E+00 -0.00000000000E+00 -0.45593999997E+02  0.45594000000E+02  0.51100000000E-03 0.  1.
    9900012    2    1    2    0    0 -0.38848451502E+02 -0.21615647672E+02 -0.72577507669E+01  0.46142319246E+02  0.10000013541E+02 0.  0.
         12    1    1    2    0    0  0.38848451502E+02  0.21615647672E+02  0.72577507669E+01  0.45045680754E+02  0.00000000000E+00 0. -1.
         11    1    3    3    0    0 -0.12406108485E+02 -0.10887915452E+02 -0.57802456273E+00  0.16516426469E+02  0.51100000000E-03 0. -1.
        -11    1    3    3    0    0 -0.23214426735E+02 -0.80697138796E+01 -0.65827565359E+01  0.25443320825E+02  0.51100000000E-03 0.  1.
        -12    1    3    3    0    0 -0.32279162820E+01 -0.26580183406E+01 -0.96969668185E-01  0.41825719527E+01  0.00000000000E+00 0.  1.
</event>
<event>
 7    1  0.3046295E-009  0.4614232E+02  0.7816164E-02  0.1320468E+00
        -11   -1    0    0    0    0  0.00000000000E+00  0.00000000000E+00  0.45593999997E+02  0.45594000000E+02  0.51100000000E-03 0.  1.
         11   -1    0    0    0    0 -0.00000000000E+00 -0.00000000000E+00 -0.45593999997E+02  0.45594000000E+02  0.51100000000E-03 0. -1.
    9900012    2    1    2    0    0 -0.16011728036E+02 -0.12428472024E+02  0.40227737515E+02  0.46142320772E+02  0.10000027452E+02 0.  0.
         12    1    1    2    0    0  0.16011728036E+02  0.12428472024E+02 -0.40227737515E+02  0.45045679228E+02  0.00000000000E+00 0. -1.
         11    1    3    3    0    0 -0.81796874557E+01 -0.98559538111E+01  0.30325672771E+02  0.32919500933E+02  0.51100000000E-03 0.  1.
        -11    1    3    3    0    0 -0.70904235287E+01 -0.31885143413E+01  0.84759577253E+01  0.11501416832E+02  0.51100000000E-03 0. -1.
         12    1    3    3    0    0 -0.74161705184E+00  0.61599612861E+00  0.14261070185E+01  0.17214030064E+01  0.00000000000E+00 0. -1.
</event>
<event>
 7    1  0.3046295E-009  0.4614232E+02  0.7816164E-02  0.1320468E+00
        -11   -1    0    0    0    0  0.00000000000E+00  0.00000000000E+00  0.45593999997E+02  0.45594000000E+02  0.51100000000E-03 0.  1.
         11   -1    0    0    0    0 -0.00000000000E+00 -0.00000000000E+00 -0.45593999997E+02  0.45594000000E+02  0.51100000000E-03 0. -1.
    9900012    2    1    2    0    0 -0.42116898575E+02  0.62842531916E+01  0.14689741798E+02  0.46142317656E+02  0.99999990446E+01 0.  0.
         12    1    1    2    0    0  0.42116898575E+02 -0.62842531916E+01 -0.14689741798E+02  0.45045682344E+02  0.00000000000E+00 0. -1.
         11    1    3    3    0    0 -0.20511134561E+02  0.13621025651E+01  0.60849554055E+01  0.21438018727E+02  0.51100000000E-03 0.  1.
        -11    1    3    3    0    0 -0.88509192394E+01  0.12479341981E+01  0.69613263447E+01  0.11329438463E+02  0.51100000000E-03 0. -1.
         12    1    3    3    0    0 -0.12754844774E+02  0.36742164284E+01  0.16434600474E+01  0.13374860466E+02  0.00000000000E+00 0. -1.
</event>
<event>
 7    1  0.3046295E-009  0.4614231E+02  0.7816164E-02  0.1320468E+00
        -11   -1    0    0    0    0  0.00000000000E+00  0.00000000000E+00  0.45593999997E+02  0.45594000000E+02  0.51100000000E-03 0.  1.
         11   -1    0    0    0    0 -0.00000000000E+00 -0.00000000000E+00 -0.45593999997E+02  0.45594000000E+02  0.51100000000E-03 0. -1.
    9900012    2    1    2    0    0  0.40901886730E+02  0.17976982902E+02 -0.57426096463E+01  0.46142314103E+02  0.99999666444E+01 0.  0.
         12    1    1    2    0    0 -0.40901886730E+02 -0.17976982902E+02  0.57426096463E+01  0.45045685897E+02  0.00000000000E+00 0. -1.
         11    1    3    3    0    0  0.11707526074E+02  0.72074690681E+01 -0.64282482848E+00  0.13763248205E+02  0.51100000000E-03 0. -1.
        -11    1    3    3    0    0  0.95618685129E+01  0.54466611071E+00  0.34549570749E+00  0.95835983939E+01  0.51100000000E-03 0.  1.
        -12    1    3    3    0    0  0.19632492143E+02  0.10224847723E+02 -0.54452805253E+01  0.22795467504E+02  0.00000000000E+00 0.  1.
</event>
<event>
 7    1  0.3046295E-009  0.4614232E+02  0.7816164E-02  0.1320468E+00
        -11   -1    0    0    0    0  0.00000000000E+00  0.00000000000E+00  0.45593999997E+02  0.45594000000E+02  0.51100000000E-03 0.  1.
         11   -1    0    0    0    0 -0.00000000000E+00 -0.00000000000E+00 -0.45593999997E+02  0.45594000000E+02  0.51100000000E-03 0. -1.
    9900012    2    1    2    0    0  0.77734999320E+01  0.43162688959E+02  0.10279513903E+02  0.46142318460E+02  0.10000006371E+02 0.  0.
         12    1    1    2    0    0 -0.77734999320E+01 -0.43162688959E+02 -0.10279513903E+02  0.45045681540E+02  0.00000000000E+00 0. -1.
         11    1    3    3    0    0 -0.53703090283E+00  0.11873234046E+02  0.30898351269E+01  0.12280438521E+02  0.51100000000E-03 0. -1.
        -11    1    3    3    0    0  0.49359074738E+00  0.26897073015E+00  0.11869619266E+01  0.13133377158E+01  0.51100000000E-03 0.  1.
        -12    1    3    3    0    0  0.78169400875E+01  0.31020484183E+02  0.60027168496E+01  0.32548542223E+02  0.00000000000E+00 0.  1.
</event>
<event>
 7    1  0.3046295E-009  0.4614231E+02  0.7816164E-02  0.1320468E+00
        -11   -1    0    0    0    0  0.00000000000E+00  0.00000000000E+00  0.45593999997E+02  0.45594000000E+02  0.51100000000E-03 0.  1.
         11   -1    0    0    0    0 -0.00000000000E+00 -0.00000000000E+00 -0.45593999997E+02  0.45594000000E+02  0.51100000000E-03 0. -1.
    9900012    2    1    2    0    0 -0.35466038379E+02 -0.24018712473E+02  0.13941873363E+02  0.46142309196E+02  0.99999218955E+01 0.  0.
         12    1    1    2    0    0  0.35466038379E+02  0.24018712473E+02 -0.13941873363E+02  0.45045690804E+02  0.00000000000E+00 0. -1.
         11    1    3    3    0    0 -0.61104082083E+00 -0.24336770667E+01 -0.38279209139E+00  0.25382444713E+01  0.51100000000E-03 0. -1.
        -11    1    3    3    0    0 -0.11353177921E+02 -0.53111858459E+01  0.32594282870E+01  0.12950954290E+02  0.51100000000E-03 0.  1.
         12    1    3    3    0    0 -0.23501819637E+02 -0.16273849560E+02  0.11065237168E+02  0.30653110435E+02  0.00000000000E+00 0. -1.
</event>
<event>
 7    1  0.3193196E-009  0.4614232E+02  0.7816164E-02  0.1320468E+00
        -11   -1    0    0    0    0  0.00000000000E+00  0.00000000000E+00  0.45593999997E+02  0.45594000000E+02  0.51100000000E-03 0.  1.
         11   -1    0    0    0    0 -0.00000000000E+00 -0.00000000000E+00 -0.45593999997E+02  0.45594000000E+02  0.51100000000E-03 0. -1.
    9900012    2    1    2    0    0 -0.36950671581E+02 -0.48368009413E+01  0.25305467562E+02  0.46142318052E+02  0.10000002653E+02 0.  0.
         12    1    1    2    0    0  0.36950671581E+02  0.48368009413E+01 -0.25305467562E+02  0.45045681948E+02  0.00000000000E+00 0. -1.
         11    1    3    3    0    0 -0.13572860961E+00  0.55386857867E+00  0.26900892292E+00  0.63052257663E+00  0.51100000000E-03 0. -1.
        -11    1    3    3    0    0 -0.99097956971E+01 -0.22683272080E+01  0.30153804984E+01  0.10603861509E+02  0.51100000000E-03 0.  1.
        -12    1    3    3    0    0 -0.26905147274E+02 -0.31223423120E+01  0.22021078141E+02  0.34907933967E+02  0.00000000000E+00 0.  1.
</event>
<event>
 7    1  0.3046295E-009  0.4614232E+02  0.7816164E-02  0.1320468E+00
        -11   -1    0    0    0    0  0.00000000000E+00  0.00000000000E+00  0.45593999997E+02  0.45594000000E+02  0.51100000000E-03 0.  1.
         11   -1    0    0    0    0 -0.00000000000E+00 -0.00000000000E+00 -0.45593999997E+02  0.45594000000E+02  0.51100000000E-03 0. -1.
    9900012    2    1    2    0    0 -0.21042091970E+02  0.39548011705E+02  0.47221408894E+01  0.46142317866E+02  0.10000000961E+02 0.  0.
         12    1    1    2    0    0  0.21042091970E+02 -0.39548011705E+02 -0.47221408894E+01  0.45045682134E+02  0.00000000000E+00 0. -1.
         11    1    3    3    0    0 -0.22376828477E+01  0.35402885990E+01 -0.10387571936E+01  0.43150764373E+01  0.51100000000E-03 0. -1.
        -11    1    3    3    0    0 -0.33098804771E+01  0.90610690640E+01  0.46866712086E+01  0.10724885483E+02  0.51100000000E-03 0.  1.
        -12    1    3    3    0    0 -0.15494528646E+02  0.26946654042E+02  0.10742268744E+01  0.31102355946E+02  0.00000000000E+00 0.  1.
</event>
<event>
 7    1  0.3046295E-009  0.4614232E+02  0.7816164E-02  0.1320468E+00
        -11   -1    0    0    0    0  0.00000000000E+00  0.00000000000E+00  0.45593999997E+02  0.45594000000E+02  0.51100000000E-03 0.  1.
         11   -1    0    0    0    0 -0.00000000000E+00 -0.00000000000E+00 -0.45593999997E+02  0.45594000000E+02  0.51100000000E-03 0. -1.
    9900012    2    1    2    0    0 -0.24896653329E+02 -0.33893058382E+02  0.16140963953E+02  0.46142317956E+02  0.10000001777E+02 0.  0.
         12    1    1    2    0    0  0.24896653329E+02  0.33893058382E+02 -0.16140963953E+02  0.45045682044E+02  0.00000000000E+00 0. -1.
         11    1    3    3    0    0 -0.13496725778E+02 -0.12808975533E+02  0.99252891790E+01  0.21088926632E+02  0.51100000000E-03 0. -1.
        -11    1    3    3    0    0 -0.63530396543E+01 -0.87574782613E+01  0.40829806438E+01  0.11563964266E+02  0.51100000000E-03 0.  1.
         12    1    3    3    0    0 -0.50468878965E+01 -0.12326604587E+02  0.21326941300E+01  0.13489427058E+02  0.00000000000E+00 0. -1.
</event>
<event>
 7    1  0.3046295E-009  0.4614232E+02  0.7816164E-02  0.1320468E+00
        -11   -1    0    0    0    0  0.00000000000E+00  0.00000000000E+00  0.45593999997E+02  0.45594000000E+02  0.51100000000E-03 0.  1.
         11   -1    0    0    0    0 -0.00000000000E+00 -0.00000000000E+00 -0.45593999997E+02  0.45594000000E+02  0.51100000000E-03 0. -1.
    9900012    2    1    2    0    0  0.27271629014E+02  0.22773388237E+02  0.27690153342E+02  0.46142317044E+02  0.99999934593E+01 0.  0.
         12    1    1    2    0    0 -0.27271629014E+02 -0.22773388237E+02 -0.27690153342E+02  0.45045682956E+02  0.00000000000E+00 0. -1.
         11    1    3    3    0    0  0.10405923100E+01  0.52831603894E-01  0.27018427995E+01  0.28957863023E+01  0.51100000000E-03 0.  1.
        -11    1    3    3    0    0  0.15166009643E+02  0.96483217625E+01  0.10523114834E+02  0.20828679924E+02  0.51100000000E-03 0. -1.
        -12    1    3    3    0    0  0.11065027061E+02  0.13072234871E+02  0.14465195708E+02  0.22417850817E+02  0.00000000000E+00 0.  1.
</event>
<event>
 7    1  0.3046295E-009  0.4614232E+02  0.7816164E-02  0.1320468E+00
        -11   -1    0    0    0    0  0.00000000000E+00  0.00000000000E+00  0.45593999997E+02  0.45594000000E+02  0.51100000000E-03 0. -1.
         11   -1    0    0    0    0 -0.00000000000E+00 -0.00000000000E+00 -0.45593999997E+02  0.45594000000E+02  0.51100000000E-03 0.  1.
    9900012    2    1    2    0    0  0.23083351964E+02  0.32914003140E+02 -0.20320944505E+02  0.46142317341E+02  0.99999961723E+01 0.  0.
         12    1    1    2    0    0 -0.23083351964E+02 -0.32914003140E+02  0.20320944505E+02  0.45045682659E+02  0.00000000000E+00 0. -1.
         11    1    3    3    0    0  0.82500227517E+01  0.81187501214E+01 -0.28480191537E+01  0.11920075180E+02  0.51100000000E-03 0. -1.
        -11    1    3    3    0    0  0.82030059387E+01  0.14277017581E+02 -0.67214938253E+01  0.17784853582E+02  0.51100000000E-03 0.  1.
         12    1    3    3    0    0  0.66303232733E+01  0.10518235438E+02 -0.10751431526E+02  0.16437388579E+02  0.00000000000E+00 0. -1.
</event>
<event>
 7    1  0.3046295E-009  0.4614232E+02  0.7816164E-02  0.1320468E+00
        -11   -1    0    0    0    0  0.00000000000E+00  0.00000000000E+00  0.45593999997E+02  0.45594000000E+02  0.51100000000E-03 0.  1.
         11   -1    0    0    0    0 -0.00000000000E+00 -0.00000000000E+00 -0.45593999997E+02  0.45594000000E+02  0.51100000000E-03 0. -1.
    9900012    2    1    2    0    0 -0.26632270297E+02 -0.11718397388E+02  0.34387712659E+02  0.46142318293E+02  0.10000004851E+02 0.  0.
         12    1    1    2    0    0  0.26632270297E+02  0.11718397388E+02 -0.34387712659E+02  0.45045681707E+02  0.00000000000E+00 0. -1.
         11    1    3    3    0    0 -0.38144002422E+01 -0.43233785471E+01  0.11360992168E+02  0.12740227414E+02  0.51100000000E-03 0. -1.
        -11    1    3    3    0    0 -0.16312779896E+02 -0.44495960357E+01  0.17814064634E+02  0.24561078800E+02  0.51100000000E-03 0.  1.
         12    1    3    3    0    0 -0.65050901589E+01 -0.29454228055E+01  0.52126558577E+01  0.88410120783E+01  0.00000000000E+00 0. -1.
</event>
<event>
 7    1  0.3046295E-009  0.4614232E+02  0.7816164E-02  0.1320468E+00
        -11   -1    0    0    0    0  0.00000000000E+00  0.00000000000E+00  0.45593999997E+02  0.45594000000E+02  0.51100000000E-03 0.  1.
         11   -1    0    0    0    0 -0.00000000000E+00 -0.00000000000E+00 -0.45593999997E+02  0.45594000000E+02  0.51100000000E-03 0. -1.
    9900012    2    1    2    0    0  0.10649435694E+02  0.26702304035E+02  0.34679820824E+02  0.46142317701E+02  0.99999994528E+01 0.  0.
         12    1    1    2    0    0 -0.10649435694E+02 -0.26702304035E+02 -0.34679820824E+02  0.45045682299E+02  0.00000000000E+00 0. -1.
         11    1    3    3    0    0  0.16641520552E+01  0.16588252835E+02  0.16751992356E+02  0.23634059794E+02  0.51100000000E-03 0. -1.
        -11    1    3    3    0    0  0.52936711151E+01  0.48516424736E+01  0.93544186502E+01  0.11792647587E+02  0.51100000000E-03 0.  1.
         12    1    3    3    0    0  0.36916125234E+01  0.52624087260E+01  0.85734098180E+01  0.10715610320E+02  0.00000000000E+00 0. -1.
</event>
<event>
 7    1  0.3046295E-009  0.4614232E+02  0.7816164E-02  0.1320468E+00
        -11   -1    0    0    0    0  0.00000000000E+00  0.00000000000E+00  0.45593999997E+02  0.45594000000E+02  0.51100000000E-03 0. -1.
         11   -1    0    0    0    0 -0.00000000000E+00 -0.00000000000E+00 -0.45593999997E+02  0.45594000000E+02  0.51100000000E-03 0.  1.
    9900012    2    1    2    0    0  0.10695488701E+02 -0.45365948044E+01 -0.43521711864E+02  0.46142316804E+02  0.99999912767E+01 0.  0.
         12    1    1    2    0    0 -0.10695488701E+02  0.45365948044E+01  0.43521711864E+02  0.45045683196E+02  0.00000000000E+00 0. -1.
         11    1    3    3    0    0 -0.91847995168E+00 -0.14960931490E+01 -0.22394712188E+01  0.28455459464E+01  0.51100000000E-03 0. -1.
        -11    1    3    3    0    0  0.11138971225E+02 -0.38575779838E+01 -0.40019468912E+02  0.41719485616E+02  0.51100000000E-03 0.  1.
        -12    1    3    3    0    0  0.47499742748E+00  0.81707632849E+00 -0.12627717335E+01  0.15772852417E+01  0.00000000000E+00 0.  1.
</event>
<event>
 7    1  0.3046295E-009  0.4614232E+02  0.7816164E-02  0.1320468E+00
        -11   -1    0    0    0    0  0.00000000000E+00  0.00000000000E+00  0.45593999997E+02  0.45594000000E+02  0.51100000000E-03 0.  1.
         11   -1    0    0    0    0 -0.00000000000E+00 -0.00000000000E+00 -0.45593999997E+02  0.45594000000E+02  0.51100000000E-03 0. -1.
    9900012    2    1    2    0    0 -0.59872096882E+01  0.26611853526E+02  0.35847957544E+02  0.46142317765E+02  0.10000000037E+02 0.  0.
         12    1    1    2    0    0  0.59872096882E+01 -0.26611853526E+02 -0.35847957544E+02  0.45045682235E+02  0.00000000000E+00 0. -1.
         11    1    3    3    0    0 -0.39087916438E-01  0.88829994907E+01  0.62585975349E+01  0.10866427710E+02  0.51100000000E-03 0. -1.
        -11    1    3    3    0    0 -0.21728562106E+01  0.74169491803E+01  0.84297137029E+01  0.11436455422E+02  0.51100000000E-03 0.  1.
         12    1    3    3    0    0 -0.37752655611E+01  0.10311904855E+02  0.21159646306E+02  0.23839434632E+02  0.00000000000E+00 0. -1.
</event>
<event>
 7    1  0.3046295E-009  0.4614232E+02  0.7816164E-02  0.1320468E+00
        -11   -1    0    0    0    0  0.00000000000E+00  0.00000000000E+00  0.45593999997E+02  0.45594000000E+02  0.51100000000E-03 0.  1.
         11   -1    0    0    0    0 -0.00000000000E+00 -0.00000000000E+00 -0.45593999997E+02  0.45594000000E+02  0.51100000000E-03 0. -1.
    9900012    2    1    2    0    0  0.37178564770E+02 -0.25429974045E+02 -0.42921178362E+00  0.46142317842E+02  0.10000000737E+02 0.  0.
         12    1    1    2    0    0 -0.37178564770E+02  0.25429974045E+02  0.42921178362E+00  0.45045682158E+02  0.00000000000E+00 0. -1.
         11    1    3    3    0    0  0.15172008714E+02 -0.65954543781E+01 -0.14929739506E+01  0.16610804868E+02  0.51100000000E-03 0. -1.
        -11    1    3    3    0    0  0.21721798005E+02 -0.19219874873E+02  0.12134877020E+01  0.29029513454E+02  0.51100000000E-03 0.  1.
        -12    1    3    3    0    0  0.28475805062E+00  0.38535520591E+00 -0.14972553503E+00  0.50199951988E+00  0.00000000000E+00 0.  1.
</event>
<event>
 7    1  0.3046295E-009  0.4614232E+02  0.7816164E-02  0.1320468E+00
        -11   -1    0    0    0    0  0.00000000000E+00  0.00000000000E+00  0.45593999997E+02  0.45594000000E+02  0.51100000000E-03 0.  1.
         11   -1    0    0    0    0 -0.00000000000E+00 -0.00000000000E+00 -0.45593999997E+02  0.45594000000E+02  0.51100000000E-03 0. -1.
    9900012    2    1    2    0    0 -0.13312794750E+02  0.65872528075E+01  0.42526357609E+02  0.46142317687E+02  0.99999993219E+01 0.  0.
         12    1    1    2    0    0  0.13312794750E+02 -0.65872528075E+01 -0.42526357609E+02  0.45045682313E+02  0.00000000000E+00 0. -1.
         11    1    3    3    0    0  0.43664598154E-01  0.10020997394E+01  0.24324242417E+00  0.10321228720E+01  0.51100000000E-03 0. -1.
        -11    1    3    3    0    0 -0.11698773644E+02  0.68931258884E+01  0.35611887035E+02  0.38112766729E+02  0.51100000000E-03 0.  1.
        -12    1    3    3    0    0 -0.16576857041E+01 -0.13079728203E+01  0.66712281490E+01  0.69974280853E+01  0.00000000000E+00 0.  1.
</event>
<event>
 7    1  0.3046295E-009  0.4614232E+02  0.7816164E-02  0.1320468E+00
        -11   -1    0    0    0    0  0.00000000000E+00  0.00000000000E+00  0.45593999997E+02  0.45594000000E+02  0.51100000000E-03 0.  1.
         11   -1    0    0    0    0 -0.00000000000E+00 -0.00000000000E+00 -0.45593999997E+02  0.45594000000E+02  0.51100000000E-03 0. -1.
    9900012    2    1    2    0    0  0.28033439227E+02  0.23894321338E+02  0.25928771216E+02  0.46142317810E+02  0.10000000450E+02 0.  0.
         12    1    1    2    0    0 -0.28033439227E+02 -0.23894321338E+02 -0.25928771216E+02  0.45045682190E+02  0.00000000000E+00 0. -1.
         11    1    3    3    0    0  0.12549366998E+02  0.71723087290E+01  0.74317779650E+01  0.16252998140E+02  0.51100000000E-03 0. -1.
        -11    1    3    3    0    0  0.68190729611E+01  0.11034608199E+02  0.11899957797E+02  0.17603162499E+02  0.51100000000E-03 0.  1.
        -12    1    3    3    0    0  0.86649992688E+01  0.56874044103E+01  0.65970354547E+01  0.12286157172E+02  0.00000000000E+00 0.  1.
</event>
<event>
 7    1  0.3046295E-009  0.4614232E+02  0.7816164E-02  0.1320468E+00
        -11   -1    0    0    0    0  0.00000000000E+00  0.00000000000E+00  0.45593999997E+02  0.45594000000E+02  0.51100000000E-03 0. -1.
         11   -1    0    0    0    0 -0.00000000000E+00 -0.00000000000E+00 -0.45593999997E+02  0.45594000000E+02  0.51100000000E-03 0.  1.
    9900012    2    1    2    0    0 -0.26132282028E+02 -0.12822492742E+02 -0.34377330411E+02  0.46142319515E+02  0.10000015997E+02 0.  0.
         12    1    1    2    0    0  0.26132282028E+02  0.12822492742E+02  0.34377330411E+02  0.45045680485E+02  0.00000000000E+00 0. -1.
         11    1    3    3    0    0 -0.37041959294E+01  0.77247139061E+00 -0.43419406103E+01  0.57593600388E+01  0.51100000000E-03 0. -1.
        -11    1    3    3    0    0 -0.87080913074E+01 -0.89686425599E+01 -0.13269290323E+02  0.18230235038E+02  0.51100000000E-03 0.  1.
        -12    1    3    3    0    0 -0.13719994791E+02 -0.46263215731E+01 -0.16766099477E+02  0.22152724439E+02  0.00000000000E+00 0.  1.
</event>
<event>
 7    1  0.3046295E-009  0.4614232E+02  0.7816164E-02  0.1320468E+00
        -11   -1    0    0    0    0  0.00000000000E+00  0.00000000000E+00  0.45593999997E+02  0.45594000000E+02  0.51100000000E-03 0.  1.
         11   -1    0    0    0    0 -0.00000000000E+00 -0.00000000000E+00 -0.45593999997E+02  0.45594000000E+02  0.51100000000E-03 0. -1.
    9900012    2    1    2    0    0  0.38916464864E+02  0.20767451081E+02  0.91288029635E+01  0.46142319792E+02  0.10000018515E+02 0.  0.
         12    1    1    2    0    0 -0.38916464864E+02 -0.20767451081E+02 -0.91288029635E+01  0.45045680208E+02  0.00000000000E+00 0. -1.
         11    1    3    3    0    0  0.11240525743E+02  0.61548236327E+01 -0.22583483188E+00  0.12817264706E+02  0.51100000000E-03 0. -1.
        -11    1    3    3    0    0  0.63569862984E+01  0.42564384415E+00  0.16077812347E+01  0.65709518519E+01  0.51100000000E-03 0.  1.
        -12    1    3    3    0    0  0.21318952823E+02  0.14186983604E+02  0.77468565608E+01  0.26754103233E+02  0.00000000000E+00 0.  1.
</event>
<event>
 7    1  0.3046295E-009  0.4614232E+02  0.7816164E-02  0.1320468E+00
        -11   -1    0    0    0    0  0.00000000000E+00  0.00000000000E+00  0.45593999997E+02  0.45594000000E+02  0.51100000000E-03 0.  1.
         11   -1    0    0    0    0 -0.00000000000E+00 -0.00000000000E+00 -0.45593999997E+02  0.45594000000E+02  0.51100000000E-03 0. -1.
    9900012    2    1    2    0    0 -0.18488896033E+02  0.25819782889E+02  0.31947035218E+02  0.46142317364E+02  0.99999963771E+01 0.  0.
         12    1    1    2    0    0  0.18488896033E+02 -0.25819782889E+02 -0.31947035218E+02  0.45045682636E+02  0.00000000000E+00 0. -1.
         11    1    3    3    0    0  0.89708515284E+00  0.95795177888E+00  0.38635504055E+00  0.13681022844E+01  0.51100000000E-03 0. -1.
        -11    1    3    3    0    0 -0.16625600359E+02  0.20678903333E+02  0.24493288128E+02  0.36110231153E+02  0.51100000000E-03 0.  1.
         12    1    3    3    0    0 -0.27603808273E+01  0.41829277768E+01  0.70673920488E+01  0.86639839260E+01  0.00000000000E+00 0. -1.
</event>
<event>
 7    1  0.3046295E-009  0.4614232E+02  0.7816164E-02  0.1320468E+00
        -11   -1    0    0    0    0  0.00000000000E+00  0.00000000000E+00  0.45593999997E+02  0.45594000000E+02  0.51100000000E-03 0.  1.
         11   -1    0    0    0    0 -0.00000000000E+00 -0.00000000000E+00 -0.45593999997E+02  0.45594000000E+02  0.51100000000E-03 0. -1.
    9900012    2    1    2    0    0  0.32224597170E+01  0.31099813617E+02  0.32427318237E+02  0.46142316281E+02  0.99999865027E+01 0.  0.
         12    1    1    2    0    0 -0.32224597170E+01 -0.31099813617E+02 -0.32427318237E+02  0.45045683719E+02  0.00000000000E+00 0. -1.
         11    1    3    3    0    0  0.55593823033E+01  0.27392641549E+02  0.28919196527E+02  0.40219192815E+02  0.51100000000E-03 0. -1.
        -11    1    3    3    0    0 -0.10386420986E+01  0.32239836135E+01  0.24802630842E+01  0.41981606659E+01  0.51100000000E-03 0.  1.
         12    1    3    3    0    0 -0.12982804876E+01  0.48318845438E+00  0.10278586263E+01  0.17249628004E+01  0.00000000000E+00 0. -1.
</event>
<event>
 7    1  0.3046295E-009  0.4614232E+02  0.7816164E-02  0.1320468E+00
        -11   -1    0    0    0    0  0.00000000000E+00  0.00000000000E+00  0.45593999997E+02  0.45594000000E+02  0.51100000000E-03 0.  1.
         11   -1    0    0    0    0 -0.00000000000E+00 -0.00000000000E+00 -0.45593999997E+02  0.45594000000E+02  0.51100000000E-03 0. -1.
    9900012    2    1    2    0    0  0.30979579698E+02  0.14865081049E+02  0.29127451626E+02  0.46142318397E+02  0.10000005796E+02 0.  0.
         12    1    1    2    0    0 -0.30979579698E+02 -0.14865081049E+02 -0.29127451626E+02  0.45045681603E+02  0.00000000000E+00 0. -1.
         11    1    3    3    0    0  0.30538923840E+01  0.45136751205E+01  0.47023317552E+01  0.71980168090E+01  0.51100000000E-03 0. -1.
        -11    1    3    3    0    0  0.75441429727E+01  0.25098803669E+01  0.34575632152E+01  0.86699674911E+01  0.51100000000E-03 0.  1.
        -12    1    3    3    0    0  0.20381544342E+02  0.78415255617E+01  0.20967556656E+02  0.30274334097E+02  0.00000000000E+00 0.  1.
</event>
<event>
 7    1  0.3046295E-009  0.4614232E+02  0.7816164E-02  0.1320468E+00
        -11   -1    0    0    0    0  0.00000000000E+00  0.00000000000E+00  0.45593999997E+02  0.45594000000E+02  0.51100000000E-03 0. -1.
         11   -1    0    0    0    0 -0.00000000000E+00 -0.00000000000E+00 -0.45593999997E+02  0.45594000000E+02  0.51100000000E-03 0.  1.
    9900012    2    1    2    0    0 -0.19681396346E+02 -0.37542826891E+02 -0.15241131008E+02  0.46142319991E+02  0.10000020330E+02 0.  0.
         12    1    1    2    0    0  0.19681396346E+02  0.37542826891E+02  0.15241131008E+02  0.45045680009E+02  0.00000000000E+00 0. -1.
         11    1    3    3    0    0 -0.24227459176E+01 -0.84728238674E+01 -0.55010248909E+01  0.10388441518E+02  0.51100000000E-03 0. -1.
        -11    1    3    3    0    0 -0.14613442716E+02 -0.22154200294E+02 -0.99573949780E+01  0.28346269837E+02  0.51100000000E-03 0.  1.
         12    1    3    3    0    0 -0.26452077121E+01 -0.69158027301E+01  0.21728886071E+00  0.74076086351E+01  0.00000000000E+00 0. -1.
</event>
<event>
 7    1  0.3952079E-009  0.4614232E+02  0.7816164E-02  0.1320468E+00
        -11   -1    0    0    0    0  0.00000000000E+00  0.00000000000E+00  0.45593999997E+02  0.45594000000E+02  0.51100000000E-03 0.  1.
         11   -1    0    0    0    0 -0.00000000000E+00 -0.00000000000E+00 -0.45593999997E+02  0.45594000000E+02  0.51100000000E-03 0. -1.
    9900012    2    1    2    0    0  0.29881706685E+02 -0.33073782219E+02  0.65055384730E+01  0.46142317682E+02  0.99999992766E+01 0.  0.
         12    1    1    2    0    0 -0.29881706685E+02  0.33073782219E+02 -0.65055384730E+01  0.45045682318E+02  0.00000000000E+00 0. -1.
         11    1    3    3    0    0  0.13376348532E+01 -0.21035434863E+01  0.18945697949E+01  0.31310632648E+01  0.51100000000E-03 0. -1.
        -11    1    3    3    0    0  0.28589460096E+02 -0.29024391259E+02  0.38515103808E+01  0.40921958030E+02  0.51100000000E-03 0.  1.
        -12    1    3    3    0    0 -0.45388264621E-01 -0.19458474739E+01  0.75945829736E+00  0.20892963867E+01  0.00000000000E+00 0.  1.
</event>
<event>
 7    1  0.3046295E-009  0.4614232E+02  0.7816164E-02  0.1320468E+00
        -11   -1    0    0    0    0  0.00000000000E+00  0.00000000000E+00  0.45593999997E+02  0.45594000000E+02  0.51100000000E-03 0.  1.
         11   -1    0    0    0    0 -0.00000000000E+00 -0.00000000000E+00 -0.45593999997E+02  0.45594000000E+02  0.51100000000E-03 0. -1.
    9900012    2    1    2    0    0 -0.40156279505E+02 -0.86802566127E+01 -0.18472679623E+02  0.46142317288E+02  0.99999956881E+01 0.  0.
         12    1    1    2    0    0  0.40156279505E+02  0.86802566127E+01  0.18472679623E+02  0.45045682712E+02  0.00000000000E+00 0. -1.
         11    1    3    3    0    0 -0.12901637865E+02 -0.13584018531E+01 -0.80443742516E+01  0.15264647803E+02  0.51100000000E-03 0. -1.
        -11    1    3    3    0    0 -0.11051397970E+02 -0.62877013750E+01 -0.32390205076E+01  0.13120969468E+02  0.51100000000E-03 0.  1.
        -12    1    3    3    0    0 -0.16203243670E+02 -0.10341533845E+01 -0.71892848638E+01  0.17756700017E+02  0.00000000000E+00 0.  1.
</event>
<event>
 7    1  0.3540113E-009  0.4614232E+02  0.7816164E-02  0.1320468E+00
        -11   -1    0    0    0    0  0.00000000000E+00  0.00000000000E+00  0.45593999997E+02  0.45594000000E+02  0.51100000000E-03 0. -1.
         11   -1    0    0    0    0 -0.00000000000E+00 -0.00000000000E+00 -0.45593999997E+02  0.45594000000E+02  0.51100000000E-03 0.  1.
    9900012    2    1    2    0    0 -0.37423785096E+02 -0.15038409027E+02 -0.20060409977E+02  0.46142317794E+02  0.10000000300E+02 0.  0.
         12    1    1    2    0    0  0.37423785096E+02  0.15038409027E+02  0.20060409977E+02  0.45045682206E+02  0.00000000000E+00 0. -1.
         11    1    3    3    0    0 -0.14761240222E+01 -0.17567766180E+01  0.13383218143E+00  0.22985033235E+01  0.51100000000E-03 0. -1.
        -11    1    3    3    0    0 -0.18122796077E+02 -0.49844033796E+01 -0.13231706281E+02  0.22986040679E+02  0.51100000000E-03 0.  1.
        -12    1    3    3    0    0 -0.17824864997E+02 -0.82972290293E+01 -0.69625358767E+01  0.20857773792E+02  0.00000000000E+00 0.  1.
</event>
<event>
 7    1  0.3046295E-009  0.4614232E+02  0.7816164E-02  0.1320468E+00
        -11   -1    0    0    0    0  0.00000000000E+00  0.00000000000E+00  0.45593999997E+02  0.45594000000E+02  0.51100000000E-03 0.  1.
         11   -1    0    0    0    0 -0.00000000000E+00 -0.00000000000E+00 -0.45593999997E+02  0.45594000000E+02  0.51100000000E-03 0. -1.
    9900012    2    1    2    0    0  0.35580170140E+02  0.16719599799E+02  0.21991360227E+02  0.46142318195E+02  0.10000003956E+02 0.  0.
         12    1    1    2    0    0 -0.35580170140E+02 -0.16719599799E+02 -0.21991360227E+02  0.45045681805E+02  0.00000000000E+00 0. -1.
         11    1    3    3    0    0  0.18084976243E+02  0.75198127077E+01  0.84053621133E+01  0.21313471360E+02  0.51100000000E-03 0. -1.
        -11    1    3    3    0    0  0.12044252205E+02  0.34241256831E+01  0.10379792686E+02  0.16264339653E+02  0.51100000000E-03 0.  1.
         12    1    3    3    0    0  0.54509416915E+01  0.57756614086E+01  0.32062054275E+01  0.85645071822E+01  0.00000000000E+00 0. -1.
</event>
<event>
 7    1  0.3046295E-009  0.4614232E+02  0.7816164E-02  0.1320468E+00
        -11   -1    0    0    0    0  0.00000000000E+00  0.00000000000E+00  0.45593999997E+02  0.45594000000E+02  0.51100000000E-03 0.  1.
         11   -1    0    0    0    0 -0.00000000000E+00 -0.00000000000E+00 -0.45593999997E+02  0.45594000000E+02  0.51100000000E-03 0. -1.
    9900012    2    1    2    0    0  0.34369152511E+02 -0.43522081282E+01  0.28791196734E+02  0.46142319083E+02  0.10000012053E+02 0.  0.
         12    1    1    2    0    0 -0.34369152511E+02  0.43522081282E+01 -0.28791196734E+02  0.45045680917E+02  0.00000000000E+00 0. -1.
         11    1    3    3    0    0  0.48397605147E-01  0.20347938548E+00 -0.15981990326E+00  0.26322775518E+00  0.51100000000E-03 0. -1.
        -11    1    3    3    0    0  0.61117327636E+01 -0.40071190447E+01  0.71407568064E+01  0.10217665508E+02  0.51100000000E-03 0.  1.
        -12    1    3    3    0    0  0.28209022142E+02 -0.54856846900E+00  0.21810259831E+02  0.35661425819E+02  0.00000000000E+00 0.  1.
</event>
<event>
 7    1  0.3046295E-009  0.4614232E+02  0.7816164E-02  0.1320468E+00
        -11   -1    0    0    0    0  0.00000000000E+00  0.00000000000E+00  0.45593999997E+02  0.45594000000E+02  0.51100000000E-03 0.  1.
         11   -1    0    0    0    0 -0.00000000000E+00 -0.00000000000E+00 -0.45593999997E+02  0.45594000000E+02  0.51100000000E-03 0. -1.
    9900012    2    1    2    0    0 -0.30894077234E+02 -0.30978823727E+02  0.10722965167E+02  0.46142317525E+02  0.99999978503E+01 0.  0.
         12    1    1    2    0    0  0.30894077234E+02  0.30978823727E+02 -0.10722965167E+02  0.45045682475E+02  0.00000000000E+00 0. -1.
         11    1    3    3    0    0 -0.84097342539E+01 -0.70731403083E+01  0.42638583943E+01  0.11787002702E+02  0.51100000000E-03 0. -1.
        -11    1    3    3    0    0 -0.73888675281E+01 -0.12479163574E+02  0.51035676017E+01  0.15374371187E+02  0.51100000000E-03 0.  1.
        -12    1    3    3    0    0 -0.15095475452E+02 -0.11426519844E+02  0.13555391710E+01  0.18980943636E+02  0.00000000000E+00 0.  1.
</event>
<event>
 7    1  0.3046295E-009  0.4614232E+02  0.7816164E-02  0.1320468E+00
        -11   -1    0    0    0    0  0.00000000000E+00  0.00000000000E+00  0.45593999997E+02  0.45594000000E+02  0.51100000000E-03 0. -1.
         11   -1    0    0    0    0 -0.00000000000E+00 -0.00000000000E+00 -0.45593999997E+02  0.45594000000E+02  0.51100000000E-03 0.  1.
    9900012    2    1    2    0    0 -0.13011571537E+02  0.25978486222E+02 -0.34422822711E+02  0.46142318035E+02  0.10000002501E+02 0.  0.
         12    1    1    2    0    0  0.13011571537E+02 -0.25978486222E+02  0.34422822711E+02  0.45045681965E+02  0.00000000000E+00 0. -1.
         11    1    3    3    0    0 -0.32155836631E+01  0.11312716133E+02 -0.11020339951E+02  0.16117239760E+02  0.51100000000E-03 0. -1.
        -11    1    3    3    0    0 -0.81218588079E+01  0.13976640421E+02 -0.23092677559E+02  0.28188345554E+02  0.51100000000E-03 0.  1.
        -12    1    3    3    0    0 -0.16741290655E+01  0.68912966814E+00 -0.30980520179E+00  0.18367327215E+01  0.00000000000E+00 0.  1.
</event>
<event>
 7    1  0.3046295E-009  0.4614232E+02  0.7816164E-02  0.1320468E+00
        -11   -1    0    0    0    0  0.00000000000E+00  0.00000000000E+00  0.45593999997E+02  0.45594000000E+02  0.51100000000E-03 0.  1.
         11   -1    0    0    0    0 -0.00000000000E+00 -0.00000000000E+00 -0.45593999997E+02  0.45594000000E+02  0.51100000000E-03 0. -1.
    9900012    2    1    2    0    0 -0.33228435038E+01  0.14421522869E+02  0.42545174477E+02  0.46142317831E+02  0.10000000633E+02 0.  0.
         12    1    1    2    0    0  0.33228435038E+01 -0.14421522869E+02 -0.42545174477E+02  0.45045682169E+02  0.00000000000E+00 0. -1.
         11    1    3    3    0    0 -0.17005305184E+01  0.99252388680E+01  0.15828272716E+02  0.18759967699E+02  0.51100000000E-03 0. -1.
        -11    1    3    3    0    0 -0.23131891579E+01  0.12452978196E+01  0.13560961226E+02  0.13813083666E+02  0.51100000000E-03 0.  1.
         12    1    3    3    0    0  0.69087617258E+00  0.32509861811E+01  0.13155940536E+02  0.13569266466E+02  0.00000000000E+00 0. -1.
</event>
<event>
 7    1  0.3046295E-009  0.4614232E+02  0.7816164E-02  0.1320468E+00
        -11   -1    0    0    0    0  0.00000000000E+00  0.00000000000E+00  0.45593999997E+02  0.45594000000E+02  0.51100000000E-03 0.  1.
         11   -1    0    0    0    0 -0.00000000000E+00 -0.00000000000E+00 -0.45593999997E+02  0.45594000000E+02  0.51100000000E-03 0. -1.
    9900012    2    1    2    0    0  0.41434347067E+01 -0.80337077362E+01  0.44129411924E+02  0.46142317544E+02  0.99999980183E+01 0.  0.
         12    1    1    2    0    0 -0.41434347067E+01  0.80337077362E+01 -0.44129411924E+02  0.45045682456E+02  0.00000000000E+00 0. -1.
         11    1    3    3    0    0 -0.96412477411E+00  0.12341171871E+01  0.32872279236E+01  0.36412153870E+01  0.51100000000E-03 0. -1.
        -11    1    3    3    0    0  0.53477018265E+01 -0.69974877148E+01  0.36983266372E+02  0.38017426806E+02  0.51100000000E-03 0.  1.
        -12    1    3    3    0    0 -0.24014234574E+00 -0.22703372085E+01  0.38589176290E+01  0.44836753511E+01  0.00000000000E+00 0.  1.
</event>
<event>
 7    1  0.3046295E-009  0.4614232E+02  0.7816164E-02  0.1320468E+00
        -11   -1    0    0    0    0  0.00000000000E+00  0.00000000000E+00  0.45593999997E+02  0.45594000000E+02  0.51100000000E-03 0. -1.
         11   -1    0    0    0    0 -0.00000000000E+00 -0.00000000000E+00 -0.45593999997E+02  0.45594000000E+02  0.51100000000E-03 0.  1.
    9900012    2    1    2    0    0 -0.22743371642E+02  0.90472719818E+01 -0.37815333756E+02  0.46142317066E+02  0.99999936576E+01 0.  0.
         12    1    1    2    0    0  0.22743371642E+02 -0.90472719818E+01  0.37815333756E+02  0.45045682934E+02  0.00000000000E+00 0. -1.
         11    1    3    3    0    0 -0.67955911969E+00 -0.15045468750E+01 -0.18892236145E+01  0.25089097279E+01  0.51100000000E-03 0. -1.
        -11    1    3    3    0    0 -0.10791662174E+02  0.58172490231E+01 -0.21240328069E+02  0.24524516211E+02  0.51100000000E-03 0.  1.
         12    1    3    3    0    0 -0.11272150349E+02  0.47345698338E+01 -0.14685782072E+02  0.19108891126E+02  0.00000000000E+00 0. -1.
</event>
<event>
 7    1  0.3046295E-009  0.4614232E+02  0.7816164E-02  0.1320468E+00
        -11   -1    0    0    0    0  0.00000000000E+00  0.00000000000E+00  0.45593999997E+02  0.45594000000E+02  0.51100000000E-03 0.  1.
         11   -1    0    0    0    0 -0.00000000000E+00 -0.00000000000E+00 -0.45593999997E+02  0.45594000000E+02  0.51100000000E-03 0. -1.
    9900012    2    1    2    0    0  0.33997320348E+01 -0.42795786549E+02  0.13640946431E+02  0.46142323806E+02  0.10000055118E+02 0.  0.
         12    1    1    2    0    0 -0.33997320348E+01  0.42795786549E+02 -0.13640946431E+02  0.45045676194E+02  0.00000000000E+00 0. -1.
         11    1    3    3    0    0  0.40671686141E+01 -0.80638101658E+01  0.10311490267E+01  0.90901135033E+01  0.51100000000E-03 0. -1.
        -11    1    3    3    0    0  0.78141715650E+00 -0.57102878637E+01  0.25484198397E+01  0.63017810339E+01  0.51100000000E-03 0.  1.
         12    1    3    3    0    0 -0.14488537358E+01 -0.29021688520E+02  0.10061377564E+02  0.30750429268E+02  0.00000000000E+00 0. -1.
</event>
<event>
 7    1  0.3046295E-009  0.4614232E+02  0.7816164E-02  0.1320468E+00
        -11   -1    0    0    0    0  0.00000000000E+00  0.00000000000E+00  0.45593999997E+02  0.45594000000E+02  0.51100000000E-03 0.  1.
         11   -1    0    0    0    0 -0.00000000000E+00 -0.00000000000E+00 -0.45593999997E+02  0.45594000000E+02  0.51100000000E-03 0. -1.
    9900012    2    1    2    0    0  0.31671616946E+02 -0.13904930330E+02  0.28856111197E+02  0.46142316957E+02  0.99999926660E+01 0.  0.
         12    1    1    2    0    0 -0.31671616946E+02  0.13904930330E+02 -0.28856111197E+02  0.45045683043E+02  0.00000000000E+00 0. -1.
         11    1    3    3    0    0  0.33988039135E+00 -0.46809992170E+00 -0.72213961700E+00  0.92526866621E+00  0.51100000000E-03 0. -1.
        -11    1    3    3    0    0  0.19455578882E+02 -0.70440917784E+01  0.17108306878E+02  0.26848332222E+02  0.51100000000E-03 0.  1.
        -12    1    3    3    0    0  0.11876157672E+02 -0.63927386294E+01  0.12469943936E+02  0.18368716069E+02  0.00000000000E+00 0.  1.
</event>
<event>
 7    1  0.3046295E-009  0.4614232E+02  0.7816164E-02  0.1320468E+00
        -11   -1    0    0    0    0  0.00000000000E+00  0.00000000000E+00  0.45593999997E+02  0.45594000000E+02  0.51100000000E-03 0.  1.
         11   -1    0    0    0    0 -0.00000000000E+00 -0.00000000000E+00 -0.45593999997E+02  0.45594000000E+02  0.51100000000E-03 0. -1.
    9900012    2    1    2    0    0  0.15334851812E+02 -0.27488998788E+02  0.32222829728E+02  0.46142317741E+02  0.99999998146E+01 0.  0.
         12    1    1    2    0    0 -0.15334851812E+02  0.27488998788E+02 -0.32222829728E+02  0.45045682259E+02  0.00000000000E+00 0. -1.
         11    1    3    3    0    0  0.46859092679E+01 -0.35341726648E+01  0.33641161876E+01  0.67650129398E+01  0.51100000000E-03 0. -1.
        -11    1    3    3    0    0 -0.53901583363E+00 -0.32897110761E+00  0.47698543525E+00  0.79137565360E+00  0.51100000000E-03 0.  1.
        -12    1    3    3    0    0  0.11187958378E+02 -0.23625855016E+02  0.28381728106E+02  0.38585929147E+02  0.00000000000E+00 0.  1.
</event>
<event>
 7    1  0.3046295E-009  0.4614232E+02  0.7816164E-02  0.1320468E+00
        -11   -1    0    0    0    0  0.00000000000E+00  0.00000000000E+00  0.45593999997E+02  0.45594000000E+02  0.51100000000E-03 0. -1.
         11   -1    0    0    0    0 -0.00000000000E+00 -0.00000000000E+00 -0.45593999997E+02  0.45594000000E+02  0.51100000000E-03 0.  1.
    9900012    2    1    2    0    0  0.29078684887E+02  0.33649903538E+02  0.71573441457E+01  0.46142317653E+02  0.99999990107E+01 0.  0.
         12    1    1    2    0    0 -0.29078684887E+02 -0.33649903538E+02 -0.71573441457E+01  0.45045682347E+02  0.00000000000E+00 0. -1.
         11    1    3    3    0    0  0.14430729677E+02  0.99821514563E+01  0.29881882930E+01  0.17799398199E+02  0.51100000000E-03 0. -1.
        -11    1    3    3    0    0  0.13408945216E+02  0.20213622455E+02  0.27650747252E+01  0.24413848182E+02  0.51100000000E-03 0.  1.
        -12    1    3    3    0    0  0.12390099946E+01  0.34541296275E+01  0.14040811275E+01  0.39290712723E+01  0.00000000000E+00 0.  1.
</event>
<event>
 7    1  0.3046295E-009  0.4614232E+02  0.7816164E-02  0.1320468E+00
        -11   -1    0    0    0    0  0.00000000000E+00  0.00000000000E+00  0.45593999997E+02  0.45594000000E+02  0.51100000000E-03 0.  1.
         11   -1    0    0    0    0 -0.00000000000E+00 -0.00000000000E+00 -0.45593999997E+02  0.45594000000E+02  0.51100000000E-03 0. -1.
    9900012    2    1    2    0    0 -0.20588697324E+02  0.37860455899E+02  0.13107438658E+02  0.46142317337E+02  0.99999961332E+01 0.  0.
         12    1    1    2    0    0  0.20588697324E+02 -0.37860455899E+02 -0.13107438658E+02  0.45045682663E+02  0.00000000000E+00 0. -1.
         11    1    3    3    0    0 -0.10777731041E+02  0.23011243428E+02  0.28670613753E+01  0.25571406916E+02  0.51100000000E-03 0. -1.
        -11    1    3    3    0    0 -0.17707738965E+01  0.35297170117E+01  0.25180394351E+01  0.46834885751E+01  0.51100000000E-03 0.  1.
         12    1    3    3    0    0 -0.80401923868E+01  0.11319495460E+02  0.77223378472E+01  0.15887421846E+02  0.00000000000E+00 0. -1.
</event>
<event>
 7    1  0.3046295E-009  0.4614232E+02  0.7816164E-02  0.1320468E+00
        -11   -1    0    0    0    0  0.00000000000E+00  0.00000000000E+00  0.45593999997E+02  0.45594000000E+02  0.51100000000E-03 0. -1.
         11   -1    0    0    0    0 -0.00000000000E+00 -0.00000000000E+00 -0.45593999997E+02  0.45594000000E+02  0.51100000000E-03 0.  1.
    9900012    2    1    2    0    0  0.13642555780E+02 -0.86246622911E+01 -0.42054837567E+02  0.46142317736E+02  0.99999997721E+01 0.  0.
         12    1    1    2    0    0 -0.13642555780E+02  0.86246622911E+01  0.42054837567E+02  0.45045682264E+02  0.00000000000E+00 0. -1.
         11    1    3    3    0    0  0.35909727249E+01 -0.53308452700E-01 -0.14209397128E+02  0.14656223726E+02  0.51100000000E-03 0.  1.
        -11    1    3    3    0    0 -0.82784731107E+00 -0.44924574391E+00 -0.33479845168E+01  0.34779524859E+01  0.51100000000E-03 0. -1.
         12    1    3    3    0    0  0.10879430366E+02 -0.81221080945E+01 -0.24497455922E+02  0.28008141524E+02  0.00000000000E+00 0. -1.
</event>
<event>
 7    1  0.3046295E-009  0.4614232E+02  0.7816164E-02  0.1320468E+00
        -11   -1    0    0    0    0  0.00000000000E+00  0.00000000000E+00  0.45593999997E+02  0.45594000000E+02  0.51100000000E-03 0. -1.
         11   -1    0    0    0    0 -0.00000000000E+00 -0.00000000000E+00 -0.45593999997E+02  0.45594000000E+02  0.51100000000E-03 0.  1.
    9900012    2    1    2    0    0  0.25983512543E+02  0.33417786396E+02 -0.15402015754E+02  0.46142318065E+02  0.10000002769E+02 0.  0.
         12    1    1    2    0    0 -0.25983512543E+02 -0.33417786396E+02  0.15402015754E+02  0.45045681935E+02  0.00000000000E+00 0. -1.
         11    1    3    3    0    0  0.57344294272E+01  0.70657145702E+01 -0.77088051760E+01  0.11926176284E+02  0.51100000000E-03 0. -1.
        -11    1    3    3    0    0  0.63031689588E+01  0.10246346486E+02 -0.24739363950E+01  0.12281608884E+02  0.51100000000E-03 0.  1.
         12    1    3    3    0    0  0.13945914157E+02  0.16105725340E+02 -0.52192741828E+01  0.21934532897E+02  0.00000000000E+00 0. -1.
</event>
<event>
 7    1  0.3046295E-009  0.4614233E+02  0.7816164E-02  0.1320468E+00
        -11   -1    0    0    0    0  0.00000000000E+00  0.00000000000E+00  0.45593999997E+02  0.45594000000E+02  0.51100000000E-03 0.  1.
         11   -1    0    0    0    0 -0.00000000000E+00 -0.00000000000E+00 -0.45593999997E+02  0.45594000000E+02  0.51100000000E-03 0. -1.
    9900012    2    1    2    0    0  0.27683975420E+02  0.20199864420E+02  0.29234839056E+02  0.46142325044E+02  0.10000066411E+02 0.  0.
         12    1    1    2    0    0 -0.27683975420E+02 -0.20199864420E+02 -0.29234839056E+02  0.45045674956E+02  0.00000000000E+00 0. -1.
         11    1    3    3    0    0  0.10361887879E+01  0.66205653421E-01 -0.16456914117E+00  0.10512628863E+01  0.51100000000E-03 0. -1.
        -11    1    3    3    0    0  0.20770792005E+02  0.17352986878E+02  0.19961845039E+02  0.33630748010E+02  0.51100000000E-03 0.  1.
        -12    1    3    3    0    0  0.58769946274E+01  0.27806718879E+01  0.94375631578E+01  0.11460314147E+02  0.00000000000E+00 0.  1.
</event>
<event>
 7    1  0.3046295E-009  0.4614231E+02  0.7816164E-02  0.1320468E+00
        -11   -1    0    0    0    0  0.00000000000E+00  0.00000000000E+00  0.45593999997E+02  0.45594000000E+02  0.51100000000E-03 0.  1.
         11   -1    0    0    0    0 -0.00000000000E+00 -0.00000000000E+00 -0.45593999997E+02  0.45594000000E+02  0.51100000000E-03 0. -1.
    9900012    2    1    2    0    0  0.40196131966E+01  0.44713781432E+02 -0.36925364290E+01  0.46142308025E+02  0.99999112189E+01 0.  0.
         12    1    1    2    0    0 -0.40196131966E+01 -0.44713781432E+02  0.36925364290E+01  0.45045691975E+02  0.00000000000E+00 0. -1.
         11    1    3    3    0    0  0.22151559611E+01  0.21508624638E+01 -0.19837226232E-01  0.30876397210E+01  0.51100000000E-03 0. -1.
        -11    1    3    3    0    0  0.24346421783E+01  0.12524570677E+02 -0.23999671645E+01  0.12982765339E+02  0.51100000000E-03 0.  1.
        -12    1    3    3    0    0 -0.63018494283E+00  0.30038348291E+02 -0.12727320382E+01  0.30071902965E+02  0.00000000000E+00 0.  1.
</event>
<event>
 7    1  0.3046295E-009  0.4614231E+02  0.7816164E-02  0.1320468E+00
        -11   -1    0    0    0    0  0.00000000000E+00  0.00000000000E+00  0.45593999997E+02  0.45594000000E+02  0.51100000000E-03 0.  1.
         11   -1    0    0    0    0 -0.00000000000E+00 -0.00000000000E+00 -0.45593999997E+02  0.45594000000E+02  0.51100000000E-03 0. -1.
    9900012    2    1    2    0    0  0.28474983552E+02 -0.25370417063E+00  0.34903078950E+02  0.46142312368E+02  0.99999508211E+01 0.  0.
         12    1    1    2    0    0 -0.28474983552E+02  0.25370417063E+00 -0.34903078950E+02  0.45045687632E+02  0.00000000000E+00 0. -1.
         11    1    3    3    0    0  0.79919908207E+01  0.27367006179E+01  0.97190011543E+01  0.12877128222E+02  0.51100000000E-03 0. -1.
        -11    1    3    3    0    0  0.12512622050E+02 -0.31502306873E+00  0.10468773087E+02  0.16317480207E+02  0.51100000000E-03 0.  1.
        -12    1    3    3    0    0  0.79703706809E+01 -0.26753817198E+01  0.14715304708E+02  0.16947703939E+02  0.00000000000E+00 0.  1.
</event>
<event>
 7    1  0.3046295E-009  0.4614232E+02  0.7816164E-02  0.1320468E+00
        -11   -1    0    0    0    0  0.00000000000E+00  0.00000000000E+00  0.45593999997E+02  0.45594000000E+02  0.51100000000E-03 0.  1.
         11   -1    0    0    0    0 -0.00000000000E+00 -0.00000000000E+00 -0.45593999997E+02  0.45594000000E+02  0.51100000000E-03 0. -1.
    9900012    2    1    2    0    0  0.13045860949E+02  0.85688434117E+01  0.42255105920E+02  0.46142317170E+02  0.99999946075E+01 0.  0.
         12    1    1    2    0    0 -0.13045860949E+02 -0.85688434117E+01 -0.42255105920E+02  0.45045682830E+02  0.00000000000E+00 0. -1.
         11    1    3    3    0    0 -0.32790766908E+00  0.40826546921E+00 -0.10581341703E+00  0.53422923276E+00  0.51100000000E-03 0. -1.
        -11    1    3    3    0    0  0.79701729718E+01  0.57221445946E+01  0.17627580892E+02  0.20174196498E+02  0.51100000000E-03 0.  1.
         12    1    3    3    0    0  0.54035956465E+01  0.24384333479E+01  0.24733338445E+02  0.25433891439E+02  0.00000000000E+00 0. -1.
</event>
<event>
 7    1  0.3046295E-009  0.4614232E+02  0.7816164E-02  0.1320468E+00
        -11   -1    0    0    0    0  0.00000000000E+00  0.00000000000E+00  0.45593999997E+02  0.45594000000E+02  0.51100000000E-03 0.  1.
         11   -1    0    0    0    0 -0.00000000000E+00 -0.00000000000E+00 -0.45593999997E+02  0.45594000000E+02  0.51100000000E-03 0. -1.
    9900012    2    1    2    0    0 -0.22846357848E+01  0.23382905436E+02  0.38433496024E+02  0.46142318254E+02  0.10000004496E+02 0.  0.
         12    1    1    2    0    0  0.22846357848E+01 -0.23382905436E+02 -0.38433496024E+02  0.45045681746E+02  0.00000000000E+00 0. -1.
         11    1    3    3    0    0  0.11254961271E+01  0.23956436217E-01  0.25498980190E+01  0.27873456211E+01  0.51100000000E-03 0. -1.
        -11    1    3    3    0    0  0.65139083744E+00  0.12316337177E+02  0.21342515551E+02  0.24649937967E+02  0.51100000000E-03 0.  1.
         12    1    3    3    0    0 -0.40615227493E+01  0.11042611822E+02  0.14541082455E+02  0.18705034666E+02  0.00000000000E+00 0. -1.
</event>
<event>
 7    1  0.3046295E-009  0.4614232E+02  0.7816164E-02  0.1320468E+00
        -11   -1    0    0    0    0  0.00000000000E+00  0.00000000000E+00  0.45593999997E+02  0.45594000000E+02  0.51100000000E-03 0.  1.
         11   -1    0    0    0    0 -0.00000000000E+00 -0.00000000000E+00 -0.45593999997E+02  0.45594000000E+02  0.51100000000E-03 0. -1.
    9900012    2    1    2    0    0 -0.84143934226E+01 -0.32316103431E+02  0.30232116946E+02  0.46142318157E+02  0.10000003610E+02 0.  0.
         12    1    1    2    0    0  0.84143934226E+01  0.32316103431E+02 -0.30232116946E+02  0.45045681843E+02  0.00000000000E+00 0. -1.
         11    1    3    3    0    0  0.15749841715E+01 -0.40408968797E+01  0.54592267155E+01  0.69722721781E+01  0.51100000000E-03 0. -1.
        -11    1    3    3    0    0 -0.64089700747E+00 -0.27204463966E+01  0.42530495008E+01  0.50892050350E+01  0.51100000000E-03 0.  1.
         12    1    3    3    0    0 -0.93484805866E+01 -0.25554760155E+02  0.20519840730E+02  0.34080840944E+02  0.00000000000E+00 0. -1.
</event>
<event>
 7    1  0.3046295E-009  0.4614232E+02  0.7816164E-02  0.1320468E+00
        -11   -1    0    0    0    0  0.00000000000E+00  0.00000000000E+00  0.45593999997E+02  0.45594000000E+02  0.51100000000E-03 0.  1.
         11   -1    0    0    0    0 -0.00000000000E+00 -0.00000000000E+00 -0.45593999997E+02  0.45594000000E+02  0.51100000000E-03 0. -1.
    9900012    2    1    2    0    0  0.26260890413E+02  0.30716852346E+02 -0.19898595010E+02  0.46142318002E+02  0.10000002198E+02 0.  0.
         12    1    1    2    0    0 -0.26260890413E+02 -0.30716852346E+02  0.19898595010E+02  0.45045681998E+02  0.00000000000E+00 0. -1.
         11    1    3    3    0    0  0.57667641978E+01  0.11612607559E+02 -0.57631319971E+01  0.14188795379E+02  0.51100000000E-03 0. -1.
        -11    1    3    3    0    0  0.91162375065E+01  0.98040395435E+01 -0.99304177495E+01  0.16668478472E+02  0.51100000000E-03 0.  1.
        -12    1    3    3    0    0  0.11377888708E+02  0.93002052437E+01 -0.42050452631E+01  0.15285044151E+02  0.00000000000E+00 0.  1.
</event>
<event>
 7    1  0.3046295E-009  0.4614232E+02  0.7816164E-02  0.1320468E+00
        -11   -1    0    0    0    0  0.00000000000E+00  0.00000000000E+00  0.45593999997E+02  0.45594000000E+02  0.51100000000E-03 0.  1.
         11   -1    0    0    0    0 -0.00000000000E+00 -0.00000000000E+00 -0.45593999997E+02  0.45594000000E+02  0.51100000000E-03 0. -1.
    9900012    2    1    2    0    0 -0.23648264602E+01 -0.33521452487E+01  0.44858490913E+02  0.46142317755E+02  0.99999999453E+01 0.  0.
         12    1    1    2    0    0  0.23648264602E+01  0.33521452487E+01 -0.44858490913E+02  0.45045682245E+02  0.00000000000E+00 0. -1.
         11    1    3    3    0    0  0.24540624474E+01  0.92564608655E+00  0.10261710085E+02  0.10591597486E+02  0.51100000000E-03 0. -1.
        -11    1    3    3    0    0 -0.34896954763E+01  0.11002949509E+00  0.17817151072E+02  0.18156017008E+02  0.51100000000E-03 0.  1.
        -12    1    3    3    0    0 -0.13291934313E+01 -0.43878208304E+01  0.16779629756E+02  0.17394703262E+02  0.00000000000E+00 0.  1.
</event>
<event>
 7    1  0.3046295E-009  0.4614232E+02  0.7816164E-02  0.1320468E+00
        -11   -1    0    0    0    0  0.00000000000E+00  0.00000000000E+00  0.45593999997E+02  0.45594000000E+02  0.51100000000E-03 0. -1.
         11   -1    0    0    0    0 -0.00000000000E+00 -0.00000000000E+00 -0.45593999997E+02  0.45594000000E+02  0.51100000000E-03 0.  1.
    9900012    2    1    2    0    0  0.19773609464E+02  0.35638782708E+02 -0.19183194341E+02  0.46142318639E+02  0.10000008008E+02 0.  0.
         12    1    1    2    0    0 -0.19773609464E+02 -0.35638782708E+02  0.19183194341E+02  0.45045681361E+02  0.00000000000E+00 0. -1.
         11    1    3    3    0    0  0.11183391149E+02  0.17834999121E+02 -0.56782178564E+01  0.21803614139E+02  0.51100000000E-03 0. -1.
        -11    1    3    3    0    0  0.25796382675E+01  0.34987131316E+01 -0.50676860993E+01  0.66765986723E+01  0.51100000000E-03 0.  1.
        -12    1    3    3    0    0  0.60105800483E+01  0.14305070455E+02 -0.84372903851E+01  0.17662105828E+02  0.00000000000E+00 0.  1.
</event>
<event>
 7    1  0.3046295E-009  0.4614232E+02  0.7816164E-02  0.1320468E+00
        -11   -1    0    0    0    0  0.00000000000E+00  0.00000000000E+00  0.45593999997E+02  0.45594000000E+02  0.51100000000E-03 0. -1.
         11   -1    0    0    0    0 -0.00000000000E+00 -0.00000000000E+00 -0.45593999997E+02  0.45594000000E+02  0.51100000000E-03 0.  1.
    9900012    2    1    2    0    0 -0.24056368414E+02 -0.38083069067E+02  0.29055044688E+00  0.46142318404E+02  0.10000005867E+02 0.  0.
         12    1    1    2    0    0  0.24056368414E+02  0.38083069067E+02 -0.29055044688E+00  0.45045681596E+02  0.00000000000E+00 0. -1.
         11    1    3    3    0    0 -0.55703316949E+01 -0.57654179092E+01  0.24709960508E+01  0.83889487185E+01  0.51100000000E-03 0. -1.
        -11    1    3    3    0    0 -0.22061895436E+01 -0.85469439709E+01 -0.13546364012E+01  0.89304290818E+01  0.51100000000E-03 0.  1.
        -12    1    3    3    0    0 -0.16279847176E+02 -0.23770707187E+02 -0.82580920271E+00  0.28822940604E+02  0.00000000000E+00 0.  1.
</event>
<event>
 7    1  0.3046295E-009  0.4614232E+02  0.7816164E-02  0.1320468E+00
        -11   -1    0    0    0    0  0.00000000000E+00  0.00000000000E+00  0.45593999997E+02  0.45594000000E+02  0.51100000000E-03 0.  1.
         11   -1    0    0    0    0 -0.00000000000E+00 -0.00000000000E+00 -0.45593999997E+02  0.45594000000E+02  0.51100000000E-03 0. -1.
    9900012    2    1    2    0    0 -0.75969879554E+01  0.18182258933E+02  0.40506847491E+02  0.46142318081E+02  0.10000002920E+02 0.  0.
         12    1    1    2    0    0  0.75969879554E+01 -0.18182258933E+02 -0.40506847491E+02  0.45045681919E+02  0.00000000000E+00 0. -1.
         11    1    3    3    0    0 -0.63191690433E-01 -0.43582311324E+00  0.28820368562E+01  0.29154882399E+01  0.51100000000E-03 0. -1.
        -11    1    3    3    0    0 -0.17499937629E+01  0.12592109819E+02  0.25637897921E+02  0.28616874706E+02  0.51100000000E-03 0.  1.
        -12    1    3    3    0    0 -0.57838025021E+01  0.60259722265E+01  0.11986912713E+02  0.14609955135E+02  0.00000000000E+00 0.  1.
</event>
<event>
 7    1  0.3046295E-009  0.4614232E+02  0.7816164E-02  0.1320468E+00
        -11   -1    0    0    0    0  0.00000000000E+00  0.00000000000E+00  0.45593999997E+02  0.45594000000E+02  0.51100000000E-03 0.  1.
         11   -1    0    0    0    0 -0.00000000000E+00 -0.00000000000E+00 -0.45593999997E+02  0.45594000000E+02  0.51100000000E-03 0. -1.
    9900012    2    1    2    0    0  0.25897424778E+02  0.13961147675E+02  0.34110455870E+02  0.46142318141E+02  0.10000003460E+02 0.  0.
         12    1    1    2    0    0 -0.25897424778E+02 -0.13961147675E+02 -0.34110455870E+02  0.45045681859E+02  0.00000000000E+00 0. -1.
         11    1    3    3    0    0  0.12676177941E+01  0.33809847551E+01  0.24564793965E+01  0.43671734649E+01  0.51100000000E-03 0. -1.
        -11    1    3    3    0    0  0.19314197626E+02  0.10398246273E+02  0.25086577573E+02  0.33324137349E+02  0.51100000000E-03 0.  1.
         12    1    3    3    0    0  0.53156093582E+01  0.18191664640E+00  0.65673989005E+01  0.84510073265E+01  0.00000000000E+00 0. -1.
</event>
<event>
 7    1  0.3046295E-009  0.4614232E+02  0.7816164E-02  0.1320468E+00
        -11   -1    0    0    0    0  0.00000000000E+00  0.00000000000E+00  0.45593999997E+02  0.45594000000E+02  0.51100000000E-03 0. -1.
         11   -1    0    0    0    0 -0.00000000000E+00 -0.00000000000E+00 -0.45593999997E+02  0.45594000000E+02  0.51100000000E-03 0.  1.
    9900012    2    1    2    0    0  0.27756528366E+02 -0.31625626898E+02 -0.16078193353E+02  0.46142318241E+02  0.10000004377E+02 0.  0.
         12    1    1    2    0    0 -0.27756528366E+02  0.31625626898E+02  0.16078193353E+02  0.45045681759E+02  0.00000000000E+00 0. -1.
         11    1    3    3    0    0  0.14622285920E+02 -0.17569421797E+02 -0.50197865866E+01  0.23402864898E+02  0.51100000000E-03 0. -1.
        -11    1    3    3    0    0  0.64924318551E+01 -0.10328167645E+02 -0.59890694440E+01  0.13590131396E+02  0.51100000000E-03 0.  1.
         12    1    3    3    0    0  0.66418105907E+01 -0.37280374558E+01 -0.50693373225E+01  0.91493219467E+01  0.00000000000E+00 0. -1.
</event>
<event>
 7    1  0.3046295E-009  0.4614232E+02  0.7816164E-02  0.1320468E+00
        -11   -1    0    0    0    0  0.00000000000E+00  0.00000000000E+00  0.45593999997E+02  0.45594000000E+02  0.51100000000E-03 0. -1.
         11   -1    0    0    0    0 -0.00000000000E+00 -0.00000000000E+00 -0.45593999997E+02  0.45594000000E+02  0.51100000000E-03 0.  1.
    9900012    2    1    2    0    0  0.16876502515E+02  0.33133799429E+02 -0.25425355000E+02  0.46142315650E+02  0.99999807466E+01 0.  0.
         12    1    1    2    0    0 -0.16876502515E+02 -0.33133799429E+02  0.25425355000E+02  0.45045684350E+02  0.00000000000E+00 0. -1.
         11    1    3    3    0    0  0.42573247041E+01  0.28137084759E+01 -0.19381548324E+01  0.54587739868E+01  0.51100000000E-03 0. -1.
        -11    1    3    3    0    0  0.85795502807E+01  0.24930723413E+02 -0.17276541274E+02  0.31521873859E+02  0.51100000000E-03 0.  1.
         12    1    3    3    0    0  0.40396275304E+01  0.53893675394E+01 -0.62106588936E+01  0.91616678040E+01  0.00000000000E+00 0. -1.
</event>
<event>
 7    1  0.3046295E-009  0.4614232E+02  0.7816164E-02  0.1320468E+00
        -11   -1    0    0    0    0  0.00000000000E+00  0.00000000000E+00  0.45593999997E+02  0.45594000000E+02  0.51100000000E-03 0.  1.
         11   -1    0    0    0    0 -0.00000000000E+00 -0.00000000000E+00 -0.45593999997E+02  0.45594000000E+02  0.51100000000E-03 0. -1.
    9900012    2    1    2    0    0  0.15655035557E+02  0.41760861815E+02 -0.63295977135E+01  0.46142317354E+02  0.99999962894E+01 0.  0.
         12    1    1    2    0    0 -0.15655035557E+02 -0.41760861815E+02  0.63295977135E+01  0.45045682646E+02  0.00000000000E+00 0. -1.
         11    1    3    3    0    0 -0.55756089106E+00  0.28295979936E+00 -0.70228699843E+00  0.94029127646E+00  0.51100000000E-03 0. -1.
        -11    1    3    3    0    0  0.23866645955E+01  0.12299585987E+02 -0.79524989667E+00  0.12554218654E+02  0.51100000000E-03 0.  1.
         12    1    3    3    0    0  0.13825931852E+02  0.29178316028E+02 -0.48320608183E+01  0.32647807424E+02  0.00000000000E+00 0. -1.
</event>
<event>
 7    1  0.3046295E-009  0.4614232E+02  0.7816164E-02  0.1320468E+00
        -11   -1    0    0    0    0  0.00000000000E+00  0.00000000000E+00  0.45593999997E+02  0.45594000000E+02  0.51100000000E-03 0. -1.
         11   -1    0    0    0    0 -0.00000000000E+00 -0.00000000000E+00 -0.45593999997E+02  0.45594000000E+02  0.51100000000E-03 0.  1.
    9900012    2    1    2    0    0 -0.29676933477E+02 -0.11009613927E+02 -0.32049673651E+02  0.46142316960E+02  0.99999926940E+01 0.  0.
         12    1    1    2    0    0  0.29676933477E+02  0.11009613927E+02  0.32049673651E+02  0.45045683040E+02  0.00000000000E+00 0. -1.
         11    1    3    3    0    0 -0.13464684003E+02 -0.36851442599E+01 -0.19727954594E+02  0.24167544274E+02  0.51100000000E-03 0.  1.
        -11    1    3    3    0    0 -0.72855116101E+00 -0.84743065311E+00 -0.19421519514E+01  0.22407320164E+01  0.51100000000E-03 0. -1.
         12    1    3    3    0    0 -0.15483698313E+02 -0.64770390140E+01 -0.10379567105E+02  0.19734040669E+02  0.00000000000E+00 0. -1.
</event>
<event>
 7    1  0.3046295E-009  0.4614232E+02  0.7816164E-02  0.1320468E+00
        -11   -1    0    0    0    0  0.00000000000E+00  0.00000000000E+00  0.45593999997E+02  0.45594000000E+02  0.51100000000E-03 0.  1.
         11   -1    0    0    0    0 -0.00000000000E+00 -0.00000000000E+00 -0.45593999997E+02  0.45594000000E+02  0.51100000000E-03 0. -1.
    9900012    2    1    2    0    0 -0.20893697628E+02  0.31535535610E+02  0.24455610288E+02  0.46142317839E+02  0.10000000714E+02 0.  0.
         12    1    1    2    0    0  0.20893697628E+02 -0.31535535610E+02 -0.24455610288E+02  0.45045682161E+02  0.00000000000E+00 0. -1.
         11    1    3    3    0    0 -0.26398392152E+01  0.54770265519E+01  0.48904428916E+01  0.78027561073E+01  0.51100000000E-03 0. -1.
        -11    1    3    3    0    0 -0.17567419242E+02  0.25024333647E+02  0.15884080443E+02  0.34454832826E+02  0.51100000000E-03 0.  1.
        -12    1    3    3    0    0 -0.68643917119E+00  0.10341754107E+01  0.36810869532E+01  0.38847289060E+01  0.00000000000E+00 0.  1.
</event>
<event>
 7    1  0.3046295E-009  0.4614232E+02  0.7816164E-02  0.1320468E+00
        -11   -1    0    0    0    0  0.00000000000E+00  0.00000000000E+00  0.45593999997E+02  0.45594000000E+02  0.51100000000E-03 0.  1.
         11   -1    0    0    0    0 -0.00000000000E+00 -0.00000000000E+00 -0.45593999997E+02  0.45594000000E+02  0.51100000000E-03 0. -1.
    9900012    2    1    2    0    0 -0.54129991097E+01 -0.11113448987E+02  0.43316326770E+02  0.46142317937E+02  0.10000001599E+02 0.  0.
         12    1    1    2    0    0  0.54129991097E+01  0.11113448987E+02 -0.43316326770E+02  0.45045682063E+02  0.00000000000E+00 0. -1.
         11    1    3    3    0    0 -0.12026753343E+01 -0.80421054017E+01  0.35387629804E+02  0.36309864096E+02  0.51100000000E-03 0. -1.
        -11    1    3    3    0    0 -0.29117133605E+01 -0.24807203849E+01  0.73638428111E+01  0.82980858955E+01  0.51100000000E-03 0.  1.
         12    1    3    3    0    0 -0.12986104149E+01 -0.59062320081E+00  0.56485415435E+00  0.15343679451E+01  0.00000000000E+00 0. -1.
</event>
<event>
 7    1  0.3046295E-009  0.4614232E+02  0.7816164E-02  0.1320468E+00
        -11   -1    0    0    0    0  0.00000000000E+00  0.00000000000E+00  0.45593999997E+02  0.45594000000E+02  0.51100000000E-03 0.  1.
         11   -1    0    0    0    0 -0.00000000000E+00 -0.00000000000E+00 -0.45593999997E+02  0.45594000000E+02  0.51100000000E-03 0. -1.
    9900012    2    1    2    0    0 -0.83446180779E+01 -0.30592846873E+02  0.31993096993E+02  0.46142321118E+02  0.10000030614E+02 0.  0.
         12    1    1    2    0    0  0.83446180779E+01  0.30592846873E+02 -0.31993096993E+02  0.45045678882E+02  0.00000000000E+00 0. -1.
         11    1    3    3    0    0 -0.35612263922E+01 -0.20225539528E+02  0.19031419826E+02  0.27999102190E+02  0.51100000000E-03 0. -1.
        -11    1    3    3    0    0 -0.28599747509E+01 -0.10373689943E+02  0.11261577943E+02  0.15576136769E+02  0.51100000000E-03 0.  1.
         12    1    3    3    0    0 -0.19234169349E+01  0.63825968303E-02  0.17000992236E+01  0.25670821593E+01  0.00000000000E+00 0. -1.
</event>
<event>
 7    1  0.3046295E-009  0.4614232E+02  0.7816164E-02  0.1320468E+00
        -11   -1    0    0    0    0  0.00000000000E+00  0.00000000000E+00  0.45593999997E+02  0.45594000000E+02  0.51100000000E-03 0.  1.
         11   -1    0    0    0    0 -0.00000000000E+00 -0.00000000000E+00 -0.45593999997E+02  0.45594000000E+02  0.51100000000E-03 0. -1.
    9900012    2    1    2    0    0  0.41276638410E+02 -0.13995549093E+02  0.11378803908E+02  0.46142318174E+02  0.10000003762E+02 0.  0.
         12    1    1    2    0    0 -0.41276638410E+02  0.13995549093E+02 -0.11378803908E+02  0.45045681826E+02  0.00000000000E+00 0. -1.
         11    1    3    3    0    0  0.78762630967E+01 -0.23735981232E+00 -0.11864428599E-01  0.78798477824E+01  0.51100000000E-03 0. -1.
        -11    1    3    3    0    0  0.30356180380E+02 -0.10726436296E+02  0.94949657865E+01  0.33566478791E+02  0.51100000000E-03 0.  1.
        -12    1    3    3    0    0  0.30441949328E+01 -0.30317529844E+01  0.18957025504E+01  0.46959915999E+01  0.00000000000E+00 0.  1.
</event>
<event>
 7    1  0.3498410E-009  0.4614232E+02  0.7816164E-02  0.1320468E+00
        -11   -1    0    0    0    0  0.00000000000E+00  0.00000000000E+00  0.45593999997E+02  0.45594000000E+02  0.51100000000E-03 0. -1.
         11   -1    0    0    0    0 -0.00000000000E+00 -0.00000000000E+00 -0.45593999997E+02  0.45594000000E+02  0.51100000000E-03 0.  1.
    9900012    2    1    2    0    0  0.25603522569E+02 -0.12543688264E+02 -0.34874474316E+02  0.46142318275E+02  0.10000004687E+02 0.  0.
         12    1    1    2    0    0 -0.25603522569E+02  0.12543688264E+02  0.34874474316E+02  0.45045681725E+02  0.00000000000E+00 0. -1.
         11    1    3    3    0    0  0.25790683505E+01  0.74126168838E+00 -0.23352915176E+01  0.35573373723E+01  0.51100000000E-03 0. -1.
        -11    1    3    3    0    0  0.65318598175E+01 -0.72723458316E+01 -0.13759809261E+02  0.16878523565E+02  0.51100000000E-03 0.  1.
        -12    1    3    3    0    0  0.16492594401E+02 -0.60126041207E+01 -0.18779373538E+02  0.25706457338E+02  0.00000000000E+00 0.  1.
</event>
<event>
 7    1  0.3046295E-009  0.4614232E+02  0.7816164E-02  0.1320468E+00
        -11   -1    0    0    0    0  0.00000000000E+00  0.00000000000E+00  0.45593999997E+02  0.45594000000E+02  0.51100000000E-03 0.  1.
         11   -1    0    0    0    0 -0.00000000000E+00 -0.00000000000E+00 -0.45593999997E+02  0.45594000000E+02  0.51100000000E-03 0. -1.
    9900012    2    1    2    0    0 -0.13547531800E+01  0.44681960269E+02 -0.55498243788E+01  0.46142317850E+02  0.10000000815E+02 0.  0.
         12    1    1    2    0    0  0.13547531800E+01 -0.44681960269E+02  0.55498243788E+01  0.45045682150E+02  0.00000000000E+00 0. -1.
         11    1    3    3    0    0 -0.62055783775E-01 -0.49908255846E-01  0.15174125619E+00  0.17136926286E+00  0.51100000000E-03 0. -1.
        -11    1    3    3    0    0 -0.11296246905E+01  0.37411054645E+01  0.17942357288E+01  0.43001400151E+01  0.51100000000E-03 0.  1.
        -12    1    3    3    0    0 -0.16307270580E+00  0.40990763061E+02 -0.74958013638E+01  0.41670808572E+02  0.00000000000E+00 0.  1.
</event>
<event>
 7    1  0.3046295E-009  0.4614232E+02  0.7816164E-02  0.1320468E+00
        -11   -1    0    0    0    0  0.00000000000E+00  0.00000000000E+00  0.45593999997E+02  0.45594000000E+02  0.51100000000E-03 0. -1.
         11   -1    0    0    0    0 -0.00000000000E+00 -0.00000000000E+00 -0.45593999997E+02  0.45594000000E+02  0.51100000000E-03 0.  1.
    9900012    2    1    2    0    0 -0.29211600149E+01  0.29008116164E+02 -0.34338166566E+02  0.46142315830E+02  0.99999823916E+01 0.  0.
         12    1    1    2    0    0  0.29211600149E+01 -0.29008116164E+02  0.34338166566E+02  0.45045684170E+02  0.00000000000E+00 0. -1.
         11    1    3    3    0    0  0.24646495484E+01  0.13604534042E+02 -0.14656482998E+02  0.20148705617E+02  0.51100000000E-03 0. -1.
        -11    1    3    3    0    0 -0.38167485235E+01  0.14807965426E+02 -0.17981383144E+02  0.23604523918E+02  0.51100000000E-03 0.  1.
        -12    1    3    3    0    0 -0.15690610399E+01  0.59561669553E+00 -0.17003004240E+01  0.23890862954E+01  0.00000000000E+00 0.  1.
</event>
<event>
 7    1  0.3046295E-009  0.4614232E+02  0.7816164E-02  0.1320468E+00
        -11   -1    0    0    0    0  0.00000000000E+00  0.00000000000E+00  0.45593999997E+02  0.45594000000E+02  0.51100000000E-03 0.  1.
         11   -1    0    0    0    0 -0.00000000000E+00 -0.00000000000E+00 -0.45593999997E+02  0.45594000000E+02  0.51100000000E-03 0. -1.
    9900012    2    1    2    0    0  0.70388034306E+01 -0.19429647417E+02  0.40025712098E+02  0.46142316728E+02  0.99999905819E+01 0.  0.
         12    1    1    2    0    0 -0.70388034306E+01  0.19429647417E+02 -0.40025712098E+02  0.45045683272E+02  0.00000000000E+00 0. -1.
         11    1    3    3    0    0  0.10704958668E+01 -0.31236869314E+01  0.45558071629E+01  0.56266118236E+01  0.51100000000E-03 0. -1.
        -11    1    3    3    0    0  0.46745258468E+01 -0.43367273752E+01  0.19501946673E+02  0.20517902440E+02  0.51100000000E-03 0.  1.
        -12    1    3    3    0    0  0.12937817170E+01 -0.11969233111E+02  0.15967958261E+02  0.19997802465E+02  0.00000000000E+00 0.  1.
</event>
<event>
 7    1  0.3046295E-009  0.4614232E+02  0.7816164E-02  0.1320468E+00
        -11   -1    0    0    0    0  0.00000000000E+00  0.00000000000E+00  0.45593999997E+02  0.45594000000E+02  0.51100000000E-03 0. -1.
         11   -1    0    0    0    0 -0.00000000000E+00 -0.00000000000E+00 -0.45593999997E+02  0.45594000000E+02  0.51100000000E-03 0.  1.
    9900012    2    1    2    0    0 -0.18704483630E+02  0.18167297391E+02 -0.36731526923E+02  0.46142317938E+02  0.10000001614E+02 0.  0.
         12    1    1    2    0    0  0.18704483630E+02 -0.18167297391E+02  0.36731526923E+02  0.45045682062E+02  0.00000000000E+00 0. -1.
         11    1    3    3    0    0 -0.35473568711E+01  0.93983415646E+01 -0.10087198337E+02  0.14236015436E+02  0.51100000000E-03 0.  1.
        -11    1    3    3    0    0 -0.96866818109E+01  0.61062158036E+01 -0.18075283188E+02  0.21397045089E+02  0.51100000000E-03 0. -1.
        -12    1    3    3    0    0 -0.54704449483E+01  0.26627400225E+01 -0.85690453968E+01  0.10509257413E+02  0.00000000000E+00 0.  1.
</event>
<event>
 7    1  0.3046295E-009  0.4614232E+02  0.7816164E-02  0.1320468E+00
        -11   -1    0    0    0    0  0.00000000000E+00  0.00000000000E+00  0.45593999997E+02  0.45594000000E+02  0.51100000000E-03 0.  1.
         11   -1    0    0    0    0 -0.00000000000E+00 -0.00000000000E+00 -0.45593999997E+02  0.45594000000E+02  0.51100000000E-03 0. -1.
    9900012    2    1    2    0    0  0.21809280278E+02 -0.21824997812E+02  0.32819782911E+02  0.46142318897E+02  0.10000010357E+02 0.  0.
         12    1    1    2    0    0 -0.21809280278E+02  0.21824997812E+02 -0.32819782911E+02  0.45045681103E+02  0.00000000000E+00 0. -1.
         11    1    3    3    0    0  0.86724863904E+01 -0.54965423590E+01  0.72960311248E+01  0.12595875060E+02  0.51100000000E-03 0. -1.
        -11    1    3    3    0    0  0.20275935408E+01 -0.66789260178E+01  0.69469305688E+01  0.98477933014E+01  0.51100000000E-03 0.  1.
        -12    1    3    3    0    0  0.11109200346E+02 -0.96495294350E+01  0.18576821217E+02  0.23698650535E+02  0.00000000000E+00 0.  1.
</event>
<event>
 7    1  0.3046295E-009  0.4614232E+02  0.7816164E-02  0.1320468E+00
        -11   -1    0    0    0    0  0.00000000000E+00  0.00000000000E+00  0.45593999997E+02  0.45594000000E+02  0.51100000000E-03 0.  1.
         11   -1    0    0    0    0 -0.00000000000E+00 -0.00000000000E+00 -0.45593999997E+02  0.45594000000E+02  0.51100000000E-03 0. -1.
    9900012    2    1    2    0    0 -0.14576893767E+02 -0.14997440213E+02  0.39896170693E+02  0.46142317845E+02  0.10000000762E+02 0.  0.
         12    1    1    2    0    0  0.14576893767E+02  0.14997440213E+02 -0.39896170693E+02  0.45045682155E+02  0.00000000000E+00 0. -1.
         11    1    3    3    0    0 -0.73406287966E+01 -0.87495611682E+01  0.26891160673E+02  0.29215991757E+02  0.51100000000E-03 0. -1.
        -11    1    3    3    0    0 -0.24806645770E+01 -0.24873411331E+01  0.89969654421E+01  0.96584652033E+01  0.51100000000E-03 0.  1.
         12    1    3    3    0    0 -0.47556003932E+01 -0.37605379121E+01  0.40080445784E+01  0.72678608841E+01  0.00000000000E+00 0. -1.
</event>
<event>
 7    1  0.3046295E-009  0.4614232E+02  0.7816164E-02  0.1320468E+00
        -11   -1    0    0    0    0  0.00000000000E+00  0.00000000000E+00  0.45593999997E+02  0.45594000000E+02  0.51100000000E-03 0.  1.
         11   -1    0    0    0    0 -0.00000000000E+00 -0.00000000000E+00 -0.45593999997E+02  0.45594000000E+02  0.51100000000E-03 0. -1.
    9900012    2    1    2    0    0 -0.32098251005E+01  0.18213774581E+02  0.41073943920E+02  0.46142318400E+02  0.10000005823E+02 0.  0.
         12    1    1    2    0    0  0.32098251005E+01 -0.18213774581E+02 -0.41073943920E+02  0.45045681600E+02  0.00000000000E+00 0. -1.
         11    1    3    3    0    0 -0.33872894373E+01  0.78751734840E+01  0.21142223525E+02  0.22814155759E+02  0.51100000000E-03 0. -1.
        -11    1    3    3    0    0  0.16196943768E+01  0.10266896838E+02  0.15460409017E+02  0.18629461286E+02  0.51100000000E-03 0.  1.
        -12    1    3    3    0    0 -0.14422300400E+01  0.71704259542E-01  0.44713113775E+01  0.46987013550E+01  0.00000000000E+00 0.  1.
</event>
<event>
 7    1  0.3046295E-009  0.4614232E+02  0.7816164E-02  0.1320468E+00
        -11   -1    0    0    0    0  0.00000000000E+00  0.00000000000E+00  0.45593999997E+02  0.45594000000E+02  0.51100000000E-03 0.  1.
         11   -1    0    0    0    0 -0.00000000000E+00 -0.00000000000E+00 -0.45593999997E+02  0.45594000000E+02  0.51100000000E-03 0. -1.
    9900012    2    1    2    0    0  0.26263300684E+02  0.24811515902E+02  0.26902440422E+02  0.46142316691E+02  0.99999902425E+01 0.  0.
         12    1    1    2    0    0 -0.26263300684E+02 -0.24811515902E+02 -0.26902440422E+02  0.45045683309E+02  0.00000000000E+00 0. -1.
         11    1    3    3    0    0  0.15173575382E+02  0.96059929021E+01  0.11240567662E+02  0.21186383626E+02  0.51100000000E-03 0. -1.
        -11    1    3    3    0    0  0.41341898809E+01  0.94528786376E+01  0.95183552758E+01  0.14037361858E+02  0.51100000000E-03 0.  1.
        -12    1    3    3    0    0  0.69555354205E+01  0.57526443619E+01  0.61435174834E+01  0.10918571207E+02  0.00000000000E+00 0.  1.
</event>
<event>
 7    1  0.3046295E-009  0.4614232E+02  0.7816164E-02  0.1320468E+00
        -11   -1    0    0    0    0  0.00000000000E+00  0.00000000000E+00  0.45593999997E+02  0.45594000000E+02  0.51100000000E-03 0. -1.
         11   -1    0    0    0    0 -0.00000000000E+00 -0.00000000000E+00 -0.45593999997E+02  0.45594000000E+02  0.51100000000E-03 0.  1.
    9900012    2    1    2    0    0  0.22467793109E+02  0.20137172698E+02 -0.33448559741E+02  0.46142316520E+02  0.99999886801E+01 0.  0.
         12    1    1    2    0    0 -0.22467793109E+02 -0.20137172698E+02  0.33448559741E+02  0.45045683480E+02  0.00000000000E+00 0. -1.
         11    1    3    3    0    0  0.10533009238E+02  0.12773744467E+02 -0.15585785378E+02  0.22738283519E+02  0.51100000000E-03 0. -1.
        -11    1    3    3    0    0  0.11943204613E+02  0.80613446507E+01 -0.17239046418E+02  0.22467980231E+02  0.51100000000E-03 0.  1.
         12    1    3    3    0    0 -0.84207424828E-02 -0.69791641904E+00 -0.62372794586E+00  0.93605276951E+00  0.00000000000E+00 0. -1.
</event>
<event>
 7    1  0.3046295E-009  0.4614232E+02  0.7816164E-02  0.1320468E+00
        -11   -1    0    0    0    0  0.00000000000E+00  0.00000000000E+00  0.45593999997E+02  0.45594000000E+02  0.51100000000E-03 0.  1.
         11   -1    0    0    0    0 -0.00000000000E+00 -0.00000000000E+00 -0.45593999997E+02  0.45594000000E+02  0.51100000000E-03 0. -1.
    9900012    2    1    2    0    0 -0.30599732816E+02  0.17579728075E+01  0.33010292158E+02  0.46142317574E+02  0.99999982953E+01 0.  0.
         12    1    1    2    0    0  0.30599732816E+02 -0.17579728075E+01 -0.33010292158E+02  0.45045682426E+02  0.00000000000E+00 0. -1.
         11    1    3    3    0    0 -0.96423830072E+01 -0.26663472588E+01  0.10747964866E+02  0.14683450098E+02  0.51100000000E-03 0. -1.
        -11    1    3    3    0    0 -0.12775562676E+02  0.33119672002E+00  0.15461378880E+02  0.20059385087E+02  0.51100000000E-03 0.  1.
         12    1    3    3    0    0 -0.81817871335E+01  0.40931233462E+01  0.68009484130E+01  0.11399482389E+02  0.00000000000E+00 0. -1.
</event>
<event>
 7    1  0.3046295E-009  0.4614232E+02  0.7816164E-02  0.1320468E+00
        -11   -1    0    0    0    0  0.00000000000E+00  0.00000000000E+00  0.45593999997E+02  0.45594000000E+02  0.51100000000E-03 0. -1.
         11   -1    0    0    0    0 -0.00000000000E+00 -0.00000000000E+00 -0.45593999997E+02  0.45594000000E+02  0.51100000000E-03 0.  1.
    9900012    2    1    2    0    0 -0.39146337081E+02  0.13583711921E+02 -0.17668063592E+02  0.46142318659E+02  0.10000008187E+02 0.  0.
         12    1    1    2    0    0  0.39146337081E+02 -0.13583711921E+02  0.17668063592E+02  0.45045681341E+02  0.00000000000E+00 0. -1.
         11    1    3    3    0    0 -0.15853232127E+02  0.11453668713E+01 -0.72030034565E+01  0.17450504096E+02  0.51100000000E-03 0. -1.
        -11    1    3    3    0    0 -0.10206604898E+02  0.76363723985E+01 -0.56597628124E+01  0.13947110178E+02  0.51100000000E-03 0.  1.
        -12    1    3    3    0    0 -0.13086500055E+02  0.48019726508E+01 -0.48052973233E+01  0.14744704385E+02  0.00000000000E+00 0.  1.
</event>
<event>
 7    1  0.3046295E-009  0.4614232E+02  0.7816164E-02  0.1320468E+00
        -11   -1    0    0    0    0  0.00000000000E+00  0.00000000000E+00  0.45593999997E+02  0.45594000000E+02  0.51100000000E-03 0.  1.
         11   -1    0    0    0    0 -0.00000000000E+00 -0.00000000000E+00 -0.45593999997E+02  0.45594000000E+02  0.51100000000E-03 0. -1.
    9900012    2    1    2    0    0  0.41820680123E+02  0.15093240299E+02  0.72345258963E+01  0.46142317037E+02  0.99999933971E+01 0.  0.
         12    1    1    2    0    0 -0.41820680123E+02 -0.15093240299E+02 -0.72345258963E+01  0.45045682963E+02  0.00000000000E+00 0. -1.
         11    1    3    3    0    0  0.52048949343E+01  0.17684884999E+01 -0.17312967146E+01  0.57633212150E+01  0.51100000000E-03 0. -1.
        -11    1    3    3    0    0  0.15857765349E+02  0.84726140767E+01  0.53379259642E+01  0.18754929086E+02  0.51100000000E-03 0.  1.
         12    1    3    3    0    0  0.20758019839E+02  0.48521377226E+01  0.36278966467E+01  0.21624066736E+02  0.00000000000E+00 0. -1.
</event>
<event>
 7    1  0.3046295E-009  0.4614232E+02  0.7816164E-02  0.1320468E+00
        -11   -1    0    0    0    0  0.00000000000E+00  0.00000000000E+00  0.45593999997E+02  0.45594000000E+02  0.51100000000E-03 0. -1.
         11   -1    0    0    0    0 -0.00000000000E+00 -0.00000000000E+00 -0.45593999997E+02  0.45594000000E+02  0.51100000000E-03 0.  1.
    9900012    2    1    2    0    0  0.30050814359E+02 -0.33179338292E+02 -0.50193138010E+01  0.46142318252E+02  0.10000004476E+02 0.  0.
         12    1    1    2    0    0 -0.30050814359E+02  0.33179338292E+02  0.50193138010E+01  0.45045681748E+02  0.00000000000E+00 0. -1.
         11    1    3    3    0    0  0.61115301109E+01 -0.45019664660E+01 -0.14772365135E+01  0.77330931932E+01  0.51100000000E-03 0. -1.
        -11    1    3    3    0    0  0.22996865622E+02 -0.29195712285E+02 -0.35435871315E+01  0.37333663821E+02  0.51100000000E-03 0.  1.
        -12    1    3    3    0    0  0.94241862548E+00  0.51834045889E+00  0.15098439426E-02  0.10755612380E+01  0.00000000000E+00 0.  1.
</event>
<event>
 7    1  0.3046295E-009  0.4614232E+02  0.7816164E-02  0.1320468E+00
        -11   -1    0    0    0    0  0.00000000000E+00  0.00000000000E+00  0.45593999997E+02  0.45594000000E+02  0.51100000000E-03 0.  1.
         11   -1    0    0    0    0 -0.00000000000E+00 -0.00000000000E+00 -0.45593999997E+02  0.45594000000E+02  0.51100000000E-03 0. -1.
    9900012    2    1    2    0    0  0.16197340536E+02 -0.19614893809E+02  0.37175469634E+02  0.46142318275E+02  0.10000004686E+02 0.  0.
         12    1    1    2    0    0 -0.16197340536E+02  0.19614893809E+02 -0.37175469634E+02  0.45045681725E+02  0.00000000000E+00 0. -1.
         11    1    3    3    0    0  0.14884101621E+00  0.52666927264E+00 -0.29639807424E+00  0.62240360730E+00  0.51100000000E-03 0. -1.
        -11    1    3    3    0    0  0.38325574085E+01 -0.34576385368E+01  0.71551138431E+01  0.88226648417E+01  0.51100000000E-03 0.  1.
         12    1    3    3    0    0  0.12215942111E+02 -0.16683924544E+02  0.30316753865E+02  0.36697249826E+02  0.00000000000E+00 0. -1.
</event>
<event>
 7    1  0.3046295E-009  0.4614232E+02  0.7816164E-02  0.1320468E+00
        -11   -1    0    0    0    0  0.00000000000E+00  0.00000000000E+00  0.45593999997E+02  0.45594000000E+02  0.51100000000E-03 0.  1.
         11   -1    0    0    0    0 -0.00000000000E+00 -0.00000000000E+00 -0.45593999997E+02  0.45594000000E+02  0.51100000000E-03 0. -1.
    9900012    2    1    2    0    0 -0.13093374430E+02  0.42429289910E+02 -0.75784170437E+01  0.46142317619E+02  0.99999987062E+01 0.  0.
         12    1    1    2    0    0  0.13093374430E+02 -0.42429289910E+02  0.75784170437E+01  0.45045682381E+02  0.00000000000E+00 0. -1.
         11    1    3    3    0    0  0.14543488573E+00  0.56299950221E+01  0.15855149839E+01  0.58507993710E+01  0.51100000000E-03 0. -1.
        -11    1    3    3    0    0 -0.99441542037E+01  0.24500989894E+02 -0.51242270844E+01  0.26934038169E+02  0.51100000000E-03 0.  1.
        -12    1    3    3    0    0 -0.32946551116E+01  0.12298304994E+02 -0.40397049432E+01  0.13357480079E+02  0.00000000000E+00 0.  1.
</event>
<event>
 7    1  0.3046295E-009  0.4614232E+02  0.7816164E-02  0.1320468E+00
        -11   -1    0    0    0    0  0.00000000000E+00  0.00000000000E+00  0.45593999997E+02  0.45594000000E+02  0.51100000000E-03 0.  1.
         11   -1    0    0    0    0 -0.00000000000E+00 -0.00000000000E+00 -0.45593999997E+02  0.45594000000E+02  0.51100000000E-03 0. -1.
    9900012    2    1    2    0    0  0.24409220926E+02 -0.22010773971E+02  0.30803072036E+02  0.46142317811E+02  0.10000000454E+02 0.  0.
         12    1    1    2    0    0 -0.24409220926E+02  0.22010773971E+02 -0.30803072036E+02  0.45045682189E+02  0.00000000000E+00 0. -1.
         11    1    3    3    0    0  0.45965719020E+01 -0.57141403848E+01  0.63791723841E+01  0.97197589556E+01  0.51100000000E-03 0. -1.
        -11    1    3    3    0    0  0.68030564677E+01 -0.92356763259E+01  0.14967627149E+02  0.18857602107E+02  0.51100000000E-03 0.  1.
        -12    1    3    3    0    0  0.13009592556E+02 -0.70609572608E+01  0.94562725031E+01  0.17564956748E+02  0.00000000000E+00 0.  1.
</event>
<event>
 7    1  0.3046295E-009  0.4614232E+02  0.7816164E-02  0.1320468E+00
        -11   -1    0    0    0    0  0.00000000000E+00  0.00000000000E+00  0.45593999997E+02  0.45594000000E+02  0.51100000000E-03 0.  1.
         11   -1    0    0    0    0 -0.00000000000E+00 -0.00000000000E+00 -0.45593999997E+02  0.45594000000E+02  0.51100000000E-03 0. -1.
    9900012    2    1    2    0    0 -0.18406351771E+02 -0.21488485417E+02  0.35050887580E+02  0.46142317508E+02  0.99999976926E+01 0.  0.
         12    1    1    2    0    0  0.18406351771E+02  0.21488485417E+02 -0.35050887580E+02  0.45045682492E+02  0.00000000000E+00 0. -1.
         11    1    3    3    0    0 -0.80375320530E+01 -0.62956487182E+01  0.92134686091E+01  0.13752276843E+02  0.51100000000E-03 0. -1.
        -11    1    3    3    0    0 -0.55313569222E+01 -0.99404473807E+01  0.20608072354E+02  0.23539351094E+02  0.51100000000E-03 0.  1.
        -12    1    3    3    0    0 -0.48374627960E+01 -0.52523893179E+01  0.52293466171E+01  0.88506895716E+01  0.00000000000E+00 0.  1.
</event>
<event>
 7    1  0.3046295E-009  0.4614232E+02  0.7816164E-02  0.1320468E+00
        -11   -1    0    0    0    0  0.00000000000E+00  0.00000000000E+00  0.45593999997E+02  0.45594000000E+02  0.51100000000E-03 0.  1.
         11   -1    0    0    0    0 -0.00000000000E+00 -0.00000000000E+00 -0.45593999997E+02  0.45594000000E+02  0.51100000000E-03 0. -1.
    9900012    2    1    2    0    0  0.26370912973E+02 -0.35475042996E+02  0.86723565322E+01  0.46142317694E+02  0.99999993879E+01 0.  0.
         12    1    1    2    0    0 -0.26370912973E+02  0.35475042996E+02 -0.86723565322E+01  0.45045682306E+02  0.00000000000E+00 0. -1.
         11    1    3    3    0    0  0.28337331743E+01 -0.81878951143E+01  0.42646406510E+01  0.96570611600E+01  0.51100000000E-03 0. -1.
        -11    1    3    3    0    0  0.46492947302E+01 -0.62122659871E+01 -0.44431920129E+00  0.77721046054E+01  0.51100000000E-03 0.  1.
         12    1    3    3    0    0  0.18887885069E+02 -0.21074881894E+02  0.48520350826E+01  0.28713151929E+02  0.00000000000E+00 0. -1.
</event>
<event>
 7    1  0.3046295E-009  0.4614232E+02  0.7816164E-02  0.1320468E+00
        -11   -1    0    0    0    0  0.00000000000E+00  0.00000000000E+00  0.45593999997E+02  0.45594000000E+02  0.51100000000E-03 0.  1.
         11   -1    0    0    0    0 -0.00000000000E+00 -0.00000000000E+00 -0.45593999997E+02  0.45594000000E+02  0.51100000000E-03 0. -1.
    9900012    2    1    2    0    0  0.15832291163E+02 -0.22314030920E+01  0.42112621197E+02  0.46142317995E+02  0.10000002133E+02 0.  0.
         12    1    1    2    0    0 -0.15832291163E+02  0.22314030920E+01 -0.42112621197E+02  0.45045682005E+02  0.00000000000E+00 0. -1.
         11    1    3    3    0    0  0.22407154304E+01 -0.16949670266E+01  0.14138481031E+02  0.14414935483E+02  0.51100000000E-03 0. -1.
        -11    1    3    3    0    0 -0.31691156511E+00 -0.98511400993E+00  0.23684062520E+01  0.25846142823E+01  0.51100000000E-03 0.  1.
        -12    1    3    3    0    0  0.13908487298E+02  0.44867794459E+00  0.25605733914E+02  0.29142768230E+02  0.00000000000E+00 0.  1.
</event>
<event>
 7    1  0.3046295E-009  0.4614232E+02  0.7816164E-02  0.1320468E+00
        -11   -1    0    0    0    0  0.00000000000E+00  0.00000000000E+00  0.45593999997E+02  0.45594000000E+02  0.51100000000E-03 0.  1.
         11   -1    0    0    0    0 -0.00000000000E+00 -0.00000000000E+00 -0.45593999997E+02  0.45594000000E+02  0.51100000000E-03 0. -1.
    9900012    2    1    2    0    0 -0.43311138730E+02  0.84323005384E+01  0.90639332018E+01  0.46142319679E+02  0.10000017491E+02 0.  0.
         12    1    1    2    0    0  0.43311138730E+02 -0.84323005384E+01 -0.90639332018E+01  0.45045680321E+02  0.00000000000E+00 0. -1.
         11    1    3    3    0    0 -0.13572679471E+02  0.21900673985E+01  0.57596746711E+01  0.14905967792E+02  0.51100000000E-03 0.  1.
        -11    1    3    3    0    0 -0.71180155492E+00 -0.72821460111E+00 -0.51504308034E+00  0.11411518718E+01  0.51100000000E-03 0. -1.
        -12    1    3    3    0    0 -0.29026657704E+02  0.69704477410E+01  0.38193016111E+01  0.30095200016E+02  0.00000000000E+00 0.  1.
</event>
<event>
 7    1  0.3046295E-009  0.4614232E+02  0.7816164E-02  0.1320468E+00
        -11   -1    0    0    0    0  0.00000000000E+00  0.00000000000E+00  0.45593999997E+02  0.45594000000E+02  0.51100000000E-03 0. -1.
         11   -1    0    0    0    0 -0.00000000000E+00 -0.00000000000E+00 -0.45593999997E+02  0.45594000000E+02  0.51100000000E-03 0.  1.
    9900012    2    1    2    0    0  0.13105266110E+02 -0.41013559501E+02 -0.13238333964E+02  0.46142317089E+02  0.99999938748E+01 0.  0.
         12    1    1    2    0    0 -0.13105266110E+02  0.41013559501E+02  0.13238333964E+02  0.45045682911E+02  0.00000000000E+00 0. -1.
         11    1    3    3    0    0  0.36347767522E+01 -0.15554877248E+02 -0.74558475117E+01  0.17628257731E+02  0.51100000000E-03 0.  1.
        -11    1    3    3    0    0  0.14222549177E+01 -0.86752040705E+01  0.66367650294E+00  0.88160332053E+01  0.51100000000E-03 0. -1.
         12    1    3    3    0    0  0.80482344397E+01 -0.16783478182E+02 -0.64461629552E+01  0.19698026153E+02  0.00000000000E+00 0. -1.
</event>
<event>
 7    1  0.3046295E-009  0.4614232E+02  0.7816164E-02  0.1320468E+00
        -11   -1    0    0    0    0  0.00000000000E+00  0.00000000000E+00  0.45593999997E+02  0.45594000000E+02  0.51100000000E-03 0. -1.
         11   -1    0    0    0    0 -0.00000000000E+00 -0.00000000000E+00 -0.45593999997E+02  0.45594000000E+02  0.51100000000E-03 0.  1.
    9900012    2    1    2    0    0  0.39527617599E+02  0.69022553127E+01 -0.20470464908E+02  0.46142316356E+02  0.99999871852E+01 0.  0.
         12    1    1    2    0    0 -0.39527617599E+02 -0.69022553127E+01  0.20470464908E+02  0.45045683644E+02  0.00000000000E+00 0. -1.
         11    1    3    3    0    0  0.12577606654E+02  0.18402117801E+01 -0.28676839427E+01  0.13030970033E+02  0.51100000000E-03 0. -1.
        -11    1    3    3    0    0  0.23692364178E+02  0.58394046563E+01 -0.13758869107E+02  0.28013090627E+02  0.51100000000E-03 0.  1.
         12    1    3    3    0    0  0.32576467663E+01 -0.77736112369E+00 -0.38439118581E+01  0.50982556962E+01  0.00000000000E+00 0. -1.
</event>
<event>
 7    1  0.3046295E-009  0.4614232E+02  0.7816164E-02  0.1320468E+00
        -11   -1    0    0    0    0  0.00000000000E+00  0.00000000000E+00  0.45593999997E+02  0.45594000000E+02  0.51100000000E-03 0. -1.
         11   -1    0    0    0    0 -0.00000000000E+00 -0.00000000000E+00 -0.45593999997E+02  0.45594000000E+02  0.51100000000E-03 0.  1.
    9900012    2    1    2    0    0  0.26642800214E+02  0.24419630666E+02 -0.26887845166E+02  0.46142318933E+02  0.10000010686E+02 0.  0.
         12    1    1    2    0    0 -0.26642800214E+02 -0.24419630666E+02  0.26887845166E+02  0.45045681067E+02  0.00000000000E+00 0. -1.
         11    1    3    3    0    0  0.64386607682E+01  0.12712670149E+01 -0.62750198004E+01  0.90801071617E+01  0.51100000000E-03 0. -1.
        -11    1    3    3    0    0  0.94165364827E+01  0.91932384141E+01 -0.90508503778E+01  0.15971996891E+02  0.51100000000E-03 0.  1.
         12    1    3    3    0    0  0.10787602963E+02  0.13955125237E+02 -0.11561974988E+02  0.21090214880E+02  0.00000000000E+00 0. -1.
</event>
<event>
 7    1  0.3046295E-009  0.4614232E+02  0.7816164E-02  0.1320468E+00
        -11   -1    0    0    0    0  0.00000000000E+00  0.00000000000E+00  0.45593999997E+02  0.45594000000E+02  0.51100000000E-03 0.  1.
         11   -1    0    0    0    0 -0.00000000000E+00 -0.00000000000E+00 -0.45593999997E+02  0.45594000000E+02  0.51100000000E-03 0. -1.
    9900012    2    1    2    0    0  0.32834812362E+02  0.26632653066E+02  0.15546393102E+02  0.46142318180E+02  0.10000003819E+02 0.  0.
         12    1    1    2    0    0 -0.32834812362E+02 -0.26632653066E+02 -0.15546393102E+02  0.45045681820E+02  0.00000000000E+00 0. -1.
         11    1    3    3    0    0  0.23501676928E+02  0.20696463972E+02  0.11542200828E+02  0.33375063140E+02  0.51100000000E-03 0. -1.
        -11    1    3    3    0    0  0.53124429145E+00  0.23330803578E+01  0.18266579251E+01  0.30103428193E+01  0.51100000000E-03 0.  1.
         12    1    3    3    0    0  0.88018911418E+01  0.36031087356E+01  0.21775343494E+01  0.97569122204E+01  0.00000000000E+00 0. -1.
</event>
<event>
 7    1  0.3046295E-009  0.4614232E+02  0.7816164E-02  0.1320468E+00
        -11   -1    0    0    0    0  0.00000000000E+00  0.00000000000E+00  0.45593999997E+02  0.45594000000E+02  0.51100000000E-03 0.  1.
         11   -1    0    0    0    0 -0.00000000000E+00 -0.00000000000E+00 -0.45593999997E+02  0.45594000000E+02  0.51100000000E-03 0. -1.
    9900012    2    1    2    0    0  0.85762479951E+01  0.27747963046E+02  0.34432711937E+02  0.46142321693E+02  0.10000035851E+02 0.  0.
         12    1    1    2    0    0 -0.85762479951E+01 -0.27747963046E+02 -0.34432711937E+02  0.45045678307E+02  0.00000000000E+00 0. -1.
         11    1    3    3    0    0  0.31920844545E+01  0.28833423057E+01  0.27598578432E+01  0.51107613515E+01  0.51100000000E-03 0. -1.
        -11    1    3    3    0    0  0.52890313977E+01  0.12743893380E+02  0.14542579547E+02  0.20046627939E+02  0.51100000000E-03 0.  1.
        -12    1    3    3    0    0  0.95132142922E-01  0.12120727360E+02  0.17130274547E+02  0.20984932402E+02  0.00000000000E+00 0.  1.
</event>
<event>
 7    1  0.3046295E-009  0.4614232E+02  0.7816164E-02  0.1320468E+00
        -11   -1    0    0    0    0  0.00000000000E+00  0.00000000000E+00  0.45593999997E+02  0.45594000000E+02  0.51100000000E-03 0. -1.
         11   -1    0    0    0    0 -0.00000000000E+00 -0.00000000000E+00 -0.45593999997E+02  0.45594000000E+02  0.51100000000E-03 0.  1.
    9900012    2    1    2    0    0 -0.40078747662E+02 -0.20556215757E+02 -0.49934846851E+00  0.46142319083E+02  0.10000012053E+02 0.  0.
         12    1    1    2    0    0  0.40078747662E+02  0.20556215757E+02  0.49934846851E+00  0.45045680917E+02  0.00000000000E+00 0. -1.
         11    1    3    3    0    0 -0.11448676954E+01 -0.10167418874E+00 -0.11265670234E+01  0.16094139306E+01  0.51100000000E-03 0. -1.
        -11    1    3    3    0    0 -0.10225476648E+02 -0.41897796345E+01 -0.26830094310E+01  0.11371594696E+02  0.51100000000E-03 0.  1.
        -12    1    3    3    0    0 -0.28708403318E+02 -0.16264761934E+02  0.33102279859E+01  0.33161310456E+02  0.00000000000E+00 0.  1.
</event>
<event>
 7    1  0.3046295E-009  0.4614232E+02  0.7816164E-02  0.1320468E+00
        -11   -1    0    0    0    0  0.00000000000E+00  0.00000000000E+00  0.45593999997E+02  0.45594000000E+02  0.51100000000E-03 0.  1.
         11   -1    0    0    0    0 -0.00000000000E+00 -0.00000000000E+00 -0.45593999997E+02  0.45594000000E+02  0.51100000000E-03 0. -1.
    9900012    2    1    2    0    0 -0.27962245130E+02  0.27002193215E+02  0.22761982721E+02  0.46142318204E+02  0.10000004035E+02 0.  0.
         12    1    1    2    0    0  0.27962245130E+02 -0.27002193215E+02 -0.22761982721E+02  0.45045681796E+02  0.00000000000E+00 0. -1.
         11    1    3    3    0    0 -0.17911465887E+02  0.18974965765E+02  0.12319615429E+02  0.28855551643E+02  0.51100000000E-03 0.  1.
        -11    1    3    3    0    0 -0.94788070513E+01  0.50631552907E+01  0.84376457852E+01  0.13662986177E+02  0.51100000000E-03 0. -1.
         12    1    3    3    0    0 -0.57197219122E+00  0.29640721588E+01  0.20047215072E+01  0.36237803840E+01  0.00000000000E+00 0. -1.
</event>
<event>
 7    1  0.3046295E-009  0.4614232E+02  0.7816164E-02  0.1320468E+00
        -11   -1    0    0    0    0  0.00000000000E+00  0.00000000000E+00  0.45593999997E+02  0.45594000000E+02  0.51100000000E-03 0. -1.
         11   -1    0    0    0    0 -0.00000000000E+00 -0.00000000000E+00 -0.45593999997E+02  0.45594000000E+02  0.51100000000E-03 0.  1.
    9900012    2    1    2    0    0  0.26406331419E+02 -0.34516309372E+02  0.11850890210E+02  0.46142317072E+02  0.99999937161E+01 0.  0.
         12    1    1    2    0    0 -0.26406331419E+02  0.34516309372E+02 -0.11850890210E+02  0.45045682928E+02  0.00000000000E+00 0. -1.
         11    1    3    3    0    0  0.60835457024E+01 -0.13943913735E+02  0.32602576171E+01  0.15558648352E+02  0.51100000000E-03 0. -1.
        -11    1    3    3    0    0  0.14717562767E+02 -0.16017072125E+02  0.42701755249E+01  0.22167265338E+02  0.51100000000E-03 0.  1.
        -12    1    3    3    0    0  0.56052229494E+01 -0.45553235116E+01  0.43204570682E+01  0.84164033819E+01  0.00000000000E+00 0.  1.
</event>
<event>
 7    1  0.3046295E-009  0.4614232E+02  0.7816164E-02  0.1320468E+00
        -11   -1    0    0    0    0  0.00000000000E+00  0.00000000000E+00  0.45593999997E+02  0.45594000000E+02  0.51100000000E-03 0.  1.
         11   -1    0    0    0    0 -0.00000000000E+00 -0.00000000000E+00 -0.45593999997E+02  0.45594000000E+02  0.51100000000E-03 0. -1.
    9900012    2    1    2    0    0 -0.34472657889E+01  0.33877155545E+02  0.29488441184E+02  0.46142317935E+02  0.10000001586E+02 0.  0.
         12    1    1    2    0    0  0.34472657889E+01 -0.33877155545E+02 -0.29488441184E+02  0.45045682065E+02  0.00000000000E+00 0. -1.
         11    1    3    3    0    0 -0.19280984324E+01  0.76426019653E+01  0.79936962971E+01  0.11226135093E+02  0.51100000000E-03 0. -1.
        -11    1    3    3    0    0 -0.41411063108E+01  0.20489501403E+02  0.18552614303E+02  0.27949381513E+02  0.51100000000E-03 0.  1.
         12    1    3    3    0    0  0.26219389543E+01  0.57450521766E+01  0.29421305840E+01  0.69668013296E+01  0.00000000000E+00 0. -1.
</event>
<event>
 7    1  0.3046295E-009  0.4614232E+02  0.7816164E-02  0.1320468E+00
        -11   -1    0    0    0    0  0.00000000000E+00  0.00000000000E+00  0.45593999997E+02  0.45594000000E+02  0.51100000000E-03 0.  1.
         11   -1    0    0    0    0 -0.00000000000E+00 -0.00000000000E+00 -0.45593999997E+02  0.45594000000E+02  0.51100000000E-03 0. -1.
    9900012    2    1    2    0    0 -0.33966291979E+02  0.46255794008E+01  0.29223422657E+02  0.46142318660E+02  0.10000008195E+02 0.  0.
         12    1    1    2    0    0  0.33966291979E+02 -0.46255794008E+01 -0.29223422657E+02  0.45045681340E+02  0.00000000000E+00 0. -1.
         11    1    3    3    0    0 -0.46594531165E+01 -0.93348099512E+00  0.26812245413E+01  0.54562675351E+01  0.51100000000E-03 0. -1.
        -11    1    3    3    0    0 -0.15668677020E+02  0.14720002689E+01  0.91306145436E+01  0.18194569150E+02  0.51100000000E-03 0.  1.
        -12    1    3    3    0    0 -0.13638161843E+02  0.40870601271E+01  0.17411583572E+02  0.22491481975E+02  0.00000000000E+00 0.  1.
</event>
<event>
 7    1  0.3046295E-009  0.4614232E+02  0.7816164E-02  0.1320468E+00
        -11   -1    0    0    0    0  0.00000000000E+00  0.00000000000E+00  0.45593999997E+02  0.45594000000E+02  0.51100000000E-03 0. -1.
         11   -1    0    0    0    0 -0.00000000000E+00 -0.00000000000E+00 -0.45593999997E+02  0.45594000000E+02  0.51100000000E-03 0.  1.
    9900012    2    1    2    0    0  0.11423738744E+02  0.39126840255E+02 -0.19175560940E+02  0.46142316826E+02  0.99999914745E+01 0.  0.
         12    1    1    2    0    0 -0.11423738744E+02 -0.39126840255E+02  0.19175560940E+02  0.45045683174E+02  0.00000000000E+00 0. -1.
         11    1    3    3    0    0  0.15511158941E+01  0.99468809508E+01 -0.84830410687E+01  0.13164664341E+02  0.51100000000E-03 0.  1.
        -11    1    3    3    0    0  0.87636306641E+01  0.19366817389E+02 -0.63166978708E+01  0.22176012050E+02  0.51100000000E-03 0. -1.
        -12    1    3    3    0    0  0.11089921856E+01  0.98131419146E+01 -0.43758220010E+01  0.10801640435E+02  0.00000000000E+00 0.  1.
</event>
<event>
 7    1  0.3046295E-009  0.4614232E+02  0.7816164E-02  0.1320468E+00
        -11   -1    0    0    0    0  0.00000000000E+00  0.00000000000E+00  0.45593999997E+02  0.45594000000E+02  0.51100000000E-03 0.  1.
         11   -1    0    0    0    0 -0.00000000000E+00 -0.00000000000E+00 -0.45593999997E+02  0.45594000000E+02  0.51100000000E-03 0. -1.
    9900012    2    1    2    0    0 -0.32531443174E+02 -0.16010894662E+02  0.26729573299E+02  0.46142316171E+02  0.99999854980E+01 0.  0.
         12    1    1    2    0    0  0.32531443174E+02  0.16010894662E+02 -0.26729573299E+02  0.45045683829E+02  0.00000000000E+00 0. -1.
         11    1    3    3    0    0 -0.59505274159E+01 -0.12936614799E+01  0.51137809650E+01  0.79519238283E+01  0.51100000000E-03 0. -1.
        -11    1    3    3    0    0 -0.70327418566E+01 -0.44877059081E+01  0.10719757052E+02  0.13583525089E+02  0.51100000000E-03 0.  1.
        -12    1    3    3    0    0 -0.19548173902E+02 -0.10229527274E+02  0.10896035283E+02  0.24606867253E+02  0.00000000000E+00 0.  1.
</event>
<event>
 7    1  0.3046295E-009  0.4614232E+02  0.7816164E-02  0.1320468E+00
        -11   -1    0    0    0    0  0.00000000000E+00  0.00000000000E+00  0.45593999997E+02  0.45594000000E+02  0.51100000000E-03 0.  1.
         11   -1    0    0    0    0 -0.00000000000E+00 -0.00000000000E+00 -0.45593999997E+02  0.45594000000E+02  0.51100000000E-03 0. -1.
    9900012    2    1    2    0    0  0.38468898164E+01  0.24317191832E+02  0.37722528110E+02  0.46142317556E+02  0.99999981275E+01 0.  0.
         12    1    1    2    0    0 -0.38468898164E+01 -0.24317191832E+02 -0.37722528110E+02  0.45045682444E+02  0.00000000000E+00 0. -1.
         11    1    3    3    0    0  0.40937849750E+01  0.94363608198E+01  0.17675924662E+02  0.20450972932E+02  0.51100000000E-03 0. -1.
        -11    1    3    3    0    0  0.32865746643E-01  0.75971015925E+01  0.53671399244E+01  0.93017860647E+01  0.51100000000E-03 0.  1.
        -12    1    3    3    0    0 -0.27976090529E+00  0.72837294198E+01  0.14679463523E+02  0.16389558559E+02  0.00000000000E+00 0.  1.
</event>
<event>
 7    1  0.3046295E-009  0.4614232E+02  0.7816164E-02  0.1320468E+00
        -11   -1    0    0    0    0  0.00000000000E+00  0.00000000000E+00  0.45593999997E+02  0.45594000000E+02  0.51100000000E-03 0.  1.
         11   -1    0    0    0    0 -0.00000000000E+00 -0.00000000000E+00 -0.45593999997E+02  0.45594000000E+02  0.51100000000E-03 0. -1.
    9900012    2    1    2    0    0  0.35694454635E+02 -0.77865571628E+01  0.26351262075E+02  0.46142316776E+02  0.99999910205E+01 0.  0.
         12    1    1    2    0    0 -0.35694454635E+02  0.77865571628E+01 -0.26351262075E+02  0.45045683224E+02  0.00000000000E+00 0. -1.
         11    1    3    3    0    0  0.17830229197E+02 -0.56904043642E+01  0.79156480253E+01  0.20321300622E+02  0.51100000000E-03 0. -1.
        -11    1    3    3    0    0  0.95003549844E+01 -0.22358805752E+00  0.10000965512E+02  0.13795870683E+02  0.51100000000E-03 0.  1.
         12    1    3    3    0    0  0.83638704539E+01 -0.18725647411E+01  0.84346485372E+01  0.12025145472E+02  0.00000000000E+00 0. -1.
</event>
<event>
 7    1  0.3046295E-009  0.4614232E+02  0.7816164E-02  0.1320468E+00
        -11   -1    0    0    0    0  0.00000000000E+00  0.00000000000E+00  0.45593999997E+02  0.45594000000E+02  0.51100000000E-03 0. -1.
         11   -1    0    0    0    0 -0.00000000000E+00 -0.00000000000E+00 -0.45593999997E+02  0.45594000000E+02  0.51100000000E-03 0.  1.
    9900012    2    1    2    0    0  0.53606410959E+01  0.32187691023E+02 -0.31053655314E+02  0.46142318357E+02  0.10000005431E+02 0.  0.
         12    1    1    2    0    0 -0.53606410959E+01 -0.32187691023E+02  0.31053655314E+02  0.45045681643E+02  0.00000000000E+00 0. -1.
         11    1    3    3    0    0  0.39150566821E+00  0.93812202149E+01 -0.13948998672E+02  0.16814729662E+02  0.51100000000E-03 0. -1.
        -11    1    3    3    0    0  0.35341243086E+00  0.93676792447E+01 -0.88642975153E+01  0.12901708626E+02  0.51100000000E-03 0.  1.
         12    1    3    3    0    0  0.46157229968E+01  0.13438791564E+02 -0.82403591268E+01  0.16425880068E+02  0.00000000000E+00 0. -1.
</event>
<event>
 7    1  0.3046295E-009  0.4614232E+02  0.7816164E-02  0.1320468E+00
        -11   -1    0    0    0    0  0.00000000000E+00  0.00000000000E+00  0.45593999997E+02  0.45594000000E+02  0.51100000000E-03 0. -1.
         11   -1    0    0    0    0 -0.00000000000E+00 -0.00000000000E+00 -0.45593999997E+02  0.45594000000E+02  0.51100000000E-03 0.  1.
    9900012    2    1    2    0    0 -0.28151147502E+02 -0.35163374107E+02 -0.40418672375E+00  0.46142319284E+02  0.10000013890E+02 0.  0.
         12    1    1    2    0    0  0.28151147502E+02  0.35163374107E+02  0.40418672375E+00  0.45045680716E+02  0.00000000000E+00 0. -1.
         11    1    3    3    0    0 -0.10710628705E+02 -0.10711416212E+02  0.13516892596E+01  0.15207862066E+02  0.51100000000E-03 0. -1.
        -11    1    3    3    0    0 -0.73765142723E+01 -0.16044710580E+02  0.29416206299E+00  0.17661603325E+02  0.51100000000E-03 0.  1.
        -12    1    3    3    0    0 -0.10064004525E+02 -0.84072473147E+01 -0.20500380463E+01  0.13272853893E+02  0.00000000000E+00 0.  1.
</event>
<event>
 7    1  0.3046295E-009  0.4614232E+02  0.7816164E-02  0.1320468E+00
        -11   -1    0    0    0    0  0.00000000000E+00  0.00000000000E+00  0.45593999997E+02  0.45594000000E+02  0.51100000000E-03 0.  1.
         11   -1    0    0    0    0 -0.00000000000E+00 -0.00000000000E+00 -0.45593999997E+02  0.45594000000E+02  0.51100000000E-03 0. -1.
    9900012    2    1    2    0    0 -0.13200072664E+02  0.19503469257E+02  0.38399041510E+02  0.46142316297E+02  0.99999866453E+01 0.  0.
         12    1    1    2    0    0  0.13200072664E+02 -0.19503469257E+02 -0.38399041510E+02  0.45045683703E+02  0.00000000000E+00 0. -1.
         11    1    3    3    0    0 -0.73353856515E+01  0.11234343225E+02  0.13614544816E+02  0.19114763434E+02  0.51100000000E-03 0. -1.
        -11    1    3    3    0    0 -0.54037735310E+01  0.86256992128E+01  0.23036860112E+02  0.25185320712E+02  0.51100000000E-03 0.  1.
        -12    1    3    3    0    0 -0.46091348182E+00 -0.35657318077E+00  0.17476365823E+01  0.18422321501E+01  0.00000000000E+00 0.  1.
</event>
<event>
 7    1  0.3046295E-009  0.4614232E+02  0.7816164E-02  0.1320468E+00
        -11   -1    0    0    0    0  0.00000000000E+00  0.00000000000E+00  0.45593999997E+02  0.45594000000E+02  0.51100000000E-03 0.  1.
         11   -1    0    0    0    0 -0.00000000000E+00 -0.00000000000E+00 -0.45593999997E+02  0.45594000000E+02  0.51100000000E-03 0. -1.
    9900012    2    1    2    0    0 -0.20086717140E+02 -0.31200161133E+02  0.25537956388E+02  0.46142317891E+02  0.10000001184E+02 0.  0.
         12    1    1    2    0    0  0.20086717140E+02  0.31200161133E+02 -0.25537956388E+02  0.45045682109E+02  0.00000000000E+00 0. -1.
         11    1    3    3    0    0 -0.84567308339E+00 -0.46469517143E+01  0.54324905932E+01  0.71986997093E+01  0.51100000000E-03 0. -1.
        -11    1    3    3    0    0 -0.13248271721E+02 -0.13686340341E+02  0.13075238546E+02  0.23103992704E+02  0.51100000000E-03 0.  1.
        -12    1    3    3    0    0 -0.59927723348E+01 -0.12866869078E+02  0.70302272485E+01  0.15839625478E+02  0.00000000000E+00 0.  1.
</event>
<event>
 7    1  0.3046295E-009  0.4614232E+02  0.7816164E-02  0.1320468E+00
        -11   -1    0    0    0    0  0.00000000000E+00  0.00000000000E+00  0.45593999997E+02  0.45594000000E+02  0.51100000000E-03 0. -1.
         11   -1    0    0    0    0 -0.00000000000E+00 -0.00000000000E+00 -0.45593999997E+02  0.45594000000E+02  0.51100000000E-03 0.  1.
    9900012    2    1    2    0    0  0.50560100293E+01  0.38641665844E+02 -0.22591410635E+02  0.46142318619E+02  0.10000007820E+02 0.  0.
         12    1    1    2    0    0 -0.50560100293E+01 -0.38641665844E+02  0.22591410635E+02  0.45045681381E+02  0.00000000000E+00 0. -1.
         11    1    3    3    0    0 -0.73839855978E+00 -0.23549597900E+00 -0.11444543038E+00  0.78344674794E+00  0.51100000000E-03 0. -1.
        -11    1    3    3    0    0  0.39984986463E+01  0.33290399789E+02 -0.19084830933E+02  0.38580687935E+02  0.51100000000E-03 0.  1.
        -12    1    3    3    0    0  0.17959099428E+01  0.55867620348E+01 -0.33921342709E+01  0.67781839358E+01  0.00000000000E+00 0.  1.
</event>
<event>
 7    1  0.3046295E-009  0.4614232E+02  0.7816164E-02  0.1320468E+00
        -11   -1    0    0    0    0  0.00000000000E+00  0.00000000000E+00  0.45593999997E+02  0.45594000000E+02  0.51100000000E-03 0.  1.
         11   -1    0    0    0    0 -0.00000000000E+00 -0.00000000000E+00 -0.45593999997E+02  0.45594000000E+02  0.51100000000E-03 0. -1.
    9900012    2    1    2    0    0 -0.29470873511E+02 -0.31863825509E+02  0.12053119636E+02  0.46142318137E+02  0.10000003424E+02 0.  0.
         12    1    1    2    0    0  0.29470873511E+02  0.31863825509E+02 -0.12053119636E+02  0.45045681863E+02  0.00000000000E+00 0. -1.
         11    1    3    3    0    0 -0.22629937935E+02 -0.20948059324E+02  0.69098006423E+01  0.31601908575E+02  0.51100000000E-03 0.  1.
        -11    1    3    3    0    0  0.43030431161E+00 -0.16468175008E+01  0.41905717201E-01  0.17026232794E+01  0.51100000000E-03 0. -1.
        -12    1    3    3    0    0 -0.72712398873E+01 -0.92689486845E+01  0.51014132764E+01  0.12837786282E+02  0.00000000000E+00 0.  1.
</event>
<event>
 7    1  0.3046295E-009  0.4614232E+02  0.7816164E-02  0.1320468E+00
        -11   -1    0    0    0    0  0.00000000000E+00  0.00000000000E+00  0.45593999997E+02  0.45594000000E+02  0.51100000000E-03 0.  1.
         11   -1    0    0    0    0 -0.00000000000E+00 -0.00000000000E+00 -0.45593999997E+02  0.45594000000E+02  0.51100000000E-03 0. -1.
    9900012    2    1    2    0    0 -0.23303671247E+02  0.99762556237E+01  0.37236094195E+02  0.46142317846E+02  0.10000000770E+02 0.  0.
         12    1    1    2    0    0  0.23303671247E+02 -0.99762556237E+01 -0.37236094195E+02  0.45045682154E+02  0.00000000000E+00 0. -1.
         11    1    3    3    0    0 -0.16038314775E+02  0.36535491029E+01  0.22576753230E+02  0.27933595338E+02  0.51100000000E-03 0. -1.
        -11    1    3    3    0    0 -0.19087146263E+01 -0.64251093244E+00  0.27800174102E+01  0.34328572480E+01  0.51100000000E-03 0.  1.
         12    1    3    3    0    0 -0.53566418460E+01  0.69652174532E+01  0.11879323555E+02  0.14775865259E+02  0.00000000000E+00 0. -1.
</event>
<event>
 7    1  0.3046295E-009  0.4614232E+02  0.7816164E-02  0.1320468E+00
        -11   -1    0    0    0    0  0.00000000000E+00  0.00000000000E+00  0.45593999997E+02  0.45594000000E+02  0.51100000000E-03 0.  1.
         11   -1    0    0    0    0 -0.00000000000E+00 -0.00000000000E+00 -0.45593999997E+02  0.45594000000E+02  0.51100000000E-03 0. -1.
    9900012    2    1    2    0    0 -0.33281199347E+02 -0.84922791990E+01  0.29143724801E+02  0.46142315065E+02  0.99999754147E+01 0.  0.
         12    1    1    2    0    0  0.33281199347E+02  0.84922791990E+01 -0.29143724801E+02  0.45045684935E+02  0.00000000000E+00 0. -1.
         11    1    3    3    0    0 -0.21491315068E+01  0.61542715308E+00  0.26514169165E+01  0.34680727703E+01  0.51100000000E-03 0. -1.
        -11    1    3    3    0    0 -0.24473885601E+02 -0.65955678050E+01  0.15926433555E+02  0.29935328245E+02  0.51100000000E-03 0.  1.
        -12    1    3    3    0    0 -0.66581822386E+01 -0.25121385471E+01  0.10565874330E+02  0.12738914050E+02  0.00000000000E+00 0.  1.
</event>
<event>
 7    1  0.3046295E-009  0.4614232E+02  0.7816164E-02  0.1320468E+00
        -11   -1    0    0    0    0  0.00000000000E+00  0.00000000000E+00  0.45593999997E+02  0.45594000000E+02  0.51100000000E-03 0. -1.
         11   -1    0    0    0    0 -0.00000000000E+00 -0.00000000000E+00 -0.45593999997E+02  0.45594000000E+02  0.51100000000E-03 0.  1.
    9900012    2    1    2    0    0 -0.13392077511E+02 -0.31182970481E+02 -0.29620739145E+02  0.46142316793E+02  0.99999911764E+01 0.  0.
         12    1    1    2    0    0  0.13392077511E+02  0.31182970481E+02  0.29620739145E+02  0.45045683207E+02  0.00000000000E+00 0. -1.
         11    1    3    3    0    0 -0.27369275690E+01 -0.12569398873E+02 -0.68233899484E+01  0.14561566234E+02  0.51100000000E-03 0. -1.
        -11    1    3    3    0    0 -0.10578727658E+02 -0.18120487253E+02 -0.20886650755E+02  0.29605974349E+02  0.51100000000E-03 0.  1.
         12    1    3    3    0    0 -0.76422284653E-01 -0.49308435452E+00 -0.19106984409E+01  0.19747762097E+01  0.00000000000E+00 0. -1.
</event>
<event>
 7    1  0.3046295E-009  0.4614232E+02  0.7816164E-02  0.1320468E+00
        -11   -1    0    0    0    0  0.00000000000E+00  0.00000000000E+00  0.45593999997E+02  0.45594000000E+02  0.51100000000E-03 0.  1.
         11   -1    0    0    0    0 -0.00000000000E+00 -0.00000000000E+00 -0.45593999997E+02  0.45594000000E+02  0.51100000000E-03 0. -1.
    9900012    2    1    2    0    0  0.23909509587E+02  0.15713615314E+02  0.34792687806E+02  0.46142317857E+02  0.10000000878E+02 0.  0.
         12    1    1    2    0    0 -0.23909509587E+02 -0.15713615314E+02 -0.34792687806E+02  0.45045682143E+02  0.00000000000E+00 0. -1.
         11    1    3    3    0    0  0.23319282588E+01  0.33362863625E+00  0.14487426004E+01  0.27655113188E+01  0.51100000000E-03 0. -1.
        -11    1    3    3    0    0  0.73161625395E+00  0.38491276230E+01  0.49478521788E+01  0.63112825357E+01  0.51100000000E-03 0.  1.
        -12    1    3    3    0    0  0.20845965074E+02  0.11530859054E+02  0.28396093027E+02  0.37065524003E+02  0.00000000000E+00 0.  1.
</event>
<event>
 7    1  0.3046295E-009  0.4614232E+02  0.7816164E-02  0.1320468E+00
        -11   -1    0    0    0    0  0.00000000000E+00  0.00000000000E+00  0.45593999997E+02  0.45594000000E+02  0.51100000000E-03 0. -1.
         11   -1    0    0    0    0 -0.00000000000E+00 -0.00000000000E+00 -0.45593999997E+02  0.45594000000E+02  0.51100000000E-03 0.  1.
    9900012    2    1    2    0    0  0.30215522880E+02  0.33303535086E+02 -0.26477167964E+01  0.46142315674E+02  0.99999809715E+01 0.  0.
         12    1    1    2    0    0 -0.30215522880E+02 -0.33303535086E+02  0.26477167964E+01  0.45045684326E+02  0.00000000000E+00 0. -1.
         11    1    3    3    0    0  0.46733110303E+00  0.17439756153E+01  0.91352902435E+00  0.20234586346E+01  0.51100000000E-03 0. -1.
        -11    1    3    3    0    0  0.20898705991E+02  0.17033331573E+02 -0.24889007140E+01  0.27075541058E+02  0.51100000000E-03 0.  1.
        -12    1    3    3    0    0  0.88494857855E+01  0.14526227898E+02 -0.10723451067E+01  0.17043315981E+02  0.00000000000E+00 0.  1.
</event>
<event>
 7    1  0.3046295E-009  0.4614232E+02  0.7816164E-02  0.1320468E+00
        -11   -1    0    0    0    0  0.00000000000E+00  0.00000000000E+00  0.45593999997E+02  0.45594000000E+02  0.51100000000E-03 0. -1.
         11   -1    0    0    0    0 -0.00000000000E+00 -0.00000000000E+00 -0.45593999997E+02  0.45594000000E+02  0.51100000000E-03 0.  1.
    9900012    2    1    2    0    0 -0.27710097094E+02  0.34321129406E+02  0.91281994941E+01  0.46142318402E+02  0.10000005840E+02 0.  0.
         12    1    1    2    0    0  0.27710097094E+02 -0.34321129406E+02 -0.91281994941E+01  0.45045681598E+02  0.00000000000E+00 0. -1.
         11    1    3    3    0    0 -0.63524054056E+01  0.12538231026E+02  0.72324381178E+00  0.14074209519E+02  0.51100000000E-03 0. -1.
        -11    1    3    3    0    0 -0.22197570734E+01  0.38509763726E+01  0.27886382833E+01  0.52472701688E+01  0.51100000000E-03 0.  1.
        -12    1    3    3    0    0 -0.19137934615E+02  0.17931922007E+02  0.56163173990E+01  0.26820838714E+02  0.00000000000E+00 0.  1.
</event>
<event>
 7    1  0.3046295E-009  0.4614232E+02  0.7816164E-02  0.1320468E+00
        -11   -1    0    0    0    0  0.00000000000E+00  0.00000000000E+00  0.45593999997E+02  0.45594000000E+02  0.51100000000E-03 0.  1.
         11   -1    0    0    0    0 -0.00000000000E+00 -0.00000000000E+00 -0.45593999997E+02  0.45594000000E+02  0.51100000000E-03 0. -1.
    9900012    2    1    2    0    0 -0.37670551864E+02 -0.23500072986E+02  0.76019444499E+01  0.46142317992E+02  0.10000002110E+02 0.  0.
         12    1    1    2    0    0  0.37670551864E+02  0.23500072986E+02 -0.76019444499E+01  0.45045682008E+02  0.00000000000E+00 0. -1.
         11    1    3    3    0    0 -0.20017271340E+02 -0.14369174583E+02  0.31673242741E+01  0.24843435217E+02  0.51100000000E-03 0. -1.
        -11    1    3    3    0    0 -0.42267166479E+00 -0.16853372748E+01  0.15099285928E+01  0.23019334662E+01  0.51100000000E-03 0.  1.
        -12    1    3    3    0    0 -0.17230608860E+02 -0.74455611285E+01  0.29246915830E+01  0.18996949309E+02  0.00000000000E+00 0.  1.
</event>
<event>
 7    1  0.3046295E-009  0.4614232E+02  0.7816164E-02  0.1320468E+00
        -11   -1    0    0    0    0  0.00000000000E+00  0.00000000000E+00  0.45593999997E+02  0.45594000000E+02  0.51100000000E-03 0.  1.
         11   -1    0    0    0    0 -0.00000000000E+00 -0.00000000000E+00 -0.45593999997E+02  0.45594000000E+02  0.51100000000E-03 0. -1.
    9900012    2    1    2    0    0  0.19427332788E+02 -0.40551644392E+02  0.26937628055E+01  0.46142317851E+02  0.10000000824E+02 0.  0.
         12    1    1    2    0    0 -0.19427332788E+02  0.40551644392E+02 -0.26937628055E+01  0.45045682149E+02  0.00000000000E+00 0. -1.
         11    1    3    3    0    0  0.12819096062E+02 -0.21211290209E+02 -0.53617582402E+00  0.24789827368E+02  0.51100000000E-03 0. -1.
        -11    1    3    3    0    0  0.35915794671E+01 -0.15929796648E+02  0.37934746493E+01  0.16764495653E+02  0.51100000000E-03 0.  1.
        -12    1    3    3    0    0  0.30166572583E+01 -0.34105575356E+01 -0.56353601982E+00  0.45879948304E+01  0.00000000000E+00 0.  1.
</event>
<event>
 7    1  0.3046295E-009  0.4614232E+02  0.7816164E-02  0.1320468E+00
        -11   -1    0    0    0    0  0.00000000000E+00  0.00000000000E+00  0.45593999997E+02  0.45594000000E+02  0.51100000000E-03 0. -1.
         11   -1    0    0    0    0 -0.00000000000E+00 -0.00000000000E+00 -0.45593999997E+02  0.45594000000E+02  0.51100000000E-03 0.  1.
    9900012    2    1    2    0    0  0.10987111410E+02  0.32608785544E+02 -0.29069983069E+02  0.46142318437E+02  0.10000006163E+02 0.  0.
         12    1    1    2    0    0 -0.10987111410E+02 -0.32608785544E+02  0.29069983069E+02  0.45045681563E+02  0.00000000000E+00 0. -1.
         11    1    3    3    0    0  0.69188513234E+01  0.19998126842E+02 -0.22149191471E+02  0.30633025706E+02  0.51100000000E-03 0. -1.
        -11    1    3    3    0    0  0.16353012235E+01  0.10057433242E+02 -0.40618306883E+01  0.10969258968E+02  0.51100000000E-03 0.  1.
         12    1    3    3    0    0  0.24329588634E+01  0.25532254602E+01 -0.28589609102E+01  0.45400337628E+01  0.00000000000E+00 0. -1.
</event>
<event>
 7    1  0.3046295E-009  0.4614232E+02  0.7816164E-02  0.1320468E+00
        -11   -1    0    0    0    0  0.00000000000E+00  0.00000000000E+00  0.45593999997E+02  0.45594000000E+02  0.51100000000E-03 0.  1.
         11   -1    0    0    0    0 -0.00000000000E+00 -0.00000000000E+00 -0.45593999997E+02  0.45594000000E+02  0.51100000000E-03 0. -1.
    9900012    2    1    2    0    0  0.22993668320E+02 -0.19098237378E+02  0.33699584614E+02  0.46142318110E+02  0.10000003182E+02 0.  0.
         12    1    1    2    0    0 -0.22993668320E+02  0.19098237378E+02 -0.33699584614E+02  0.45045681890E+02  0.00000000000E+00 0. -1.
         11    1    3    3    0    0  0.64811276323E+01 -0.34832246142E+01  0.51300206794E+01  0.89696700904E+01  0.51100000000E-03 0. -1.
        -11    1    3    3    0    0  0.67907730647E+01 -0.11134937607E+02  0.16695353160E+02  0.21185755869E+02  0.51100000000E-03 0.  1.
        -12    1    3    3    0    0  0.97217676230E+01 -0.44800751571E+01  0.11874210775E+02  0.15986892151E+02  0.00000000000E+00 0.  1.
</event>
<event>
 7    1  0.3046295E-009  0.4614233E+02  0.7816164E-02  0.1320468E+00
        -11   -1    0    0    0    0  0.00000000000E+00  0.00000000000E+00  0.45593999997E+02  0.45594000000E+02  0.51100000000E-03 0. -1.
         11   -1    0    0    0    0 -0.00000000000E+00 -0.00000000000E+00 -0.45593999997E+02  0.45594000000E+02  0.51100000000E-03 0.  1.
    9900012    2    1    2    0    0 -0.19393630883E+02  0.39586453190E+02 -0.92688987262E+01  0.46142326750E+02  0.10000081964E+02 0.  0.
         12    1    1    2    0    0  0.19393630883E+02 -0.39586453190E+02  0.92688987262E+01  0.45045673250E+02  0.00000000000E+00 0. -1.
         11    1    3    3    0    0 -0.10028747557E+02  0.13374051773E+02  0.22902362715E+00  0.16718058813E+02  0.51100000000E-03 0.  1.
        -11    1    3    3    0    0 -0.34190860466E+01  0.98017088105E+01 -0.39887605387E+01  0.11120874781E+02  0.51100000000E-03 0. -1.
        -12    1    3    3    0    0 -0.59457972797E+01  0.16410692606E+02 -0.55091618147E+01  0.18303393156E+02  0.00000000000E+00 0.  1.
</event>
<event>
 7    1  0.3129541E-009  0.4614232E+02  0.7816164E-02  0.1320468E+00
        -11   -1    0    0    0    0  0.00000000000E+00  0.00000000000E+00  0.45593999997E+02  0.45594000000E+02  0.51100000000E-03 0. -1.
         11   -1    0    0    0    0 -0.00000000000E+00 -0.00000000000E+00 -0.45593999997E+02  0.45594000000E+02  0.51100000000E-03 0.  1.
    9900012    2    1    2    0    0 -0.66758369043E+01  0.38843974054E+02 -0.21810374444E+02  0.46142317054E+02  0.99999935525E+01 0.  0.
         12    1    1    2    0    0  0.66758369043E+01 -0.38843974054E+02  0.21810374444E+02  0.45045682946E+02  0.00000000000E+00 0. -1.
         11    1    3    3    0    0 -0.12409796135E+01  0.98817556672E+00 -0.77817286069E+00  0.17669393351E+01  0.51100000000E-03 0. -1.
        -11    1    3    3    0    0 -0.27455747839E+01  0.15204071669E+02 -0.41524000107E+01  0.15998262478E+02  0.51100000000E-03 0.  1.
        -12    1    3    3    0    0 -0.26892825070E+01  0.22651726818E+02 -0.16879801573E+02  0.28377115241E+02  0.00000000000E+00 0.  1.
</event>
<event>
 7    1  0.3046295E-009  0.4614232E+02  0.7816164E-02  0.1320468E+00
        -11   -1    0    0    0    0  0.00000000000E+00  0.00000000000E+00  0.45593999997E+02  0.45594000000E+02  0.51100000000E-03 0.  1.
         11   -1    0    0    0    0 -0.00000000000E+00 -0.00000000000E+00 -0.45593999997E+02  0.45594000000E+02  0.51100000000E-03 0. -1.
    9900012    2    1    2    0    0 -0.16090042163E+02  0.41990401183E+02  0.26513777675E+01  0.46142322601E+02  0.10000044133E+02 0.  0.
         12    1    1    2    0    0  0.16090042163E+02 -0.41990401183E+02 -0.26513777675E+01  0.45045677399E+02  0.00000000000E+00 0. -1.
         11    1    3    3    0    0 -0.77867780392E+01  0.12376087142E+02 -0.61997417404E+00  0.14635088432E+02  0.51100000000E-03 0. -1.
        -11    1    3    3    0    0 -0.70939788606E+01  0.20199382082E+02 -0.17243758083E+00  0.21409561125E+02  0.51100000000E-03 0.  1.
        -12    1    3    3    0    0 -0.12092852632E+01  0.94149319581E+01  0.34437895224E+01  0.10097673044E+02  0.00000000000E+00 0.  1.
</event>
<event>
 7    1  0.3046295E-009  0.4614232E+02  0.7816164E-02  0.1320468E+00
        -11   -1    0    0    0    0  0.00000000000E+00  0.00000000000E+00  0.45593999997E+02  0.45594000000E+02  0.51100000000E-03 0. -1.
         11   -1    0    0    0    0 -0.00000000000E+00 -0.00000000000E+00 -0.45593999997E+02  0.45594000000E+02  0.51100000000E-03 0.  1.
    9900012    2    1    2    0    0 -0.63368640596E+01  0.10012490609E+02 -0.43459264982E+02  0.46142317331E+02  0.99999960793E+01 0.  0.
         12    1    1    2    0    0  0.63368640596E+01 -0.10012490609E+02  0.43459264982E+02  0.45045682669E+02  0.00000000000E+00 0. -1.
         11    1    3    3    0    0 -0.38520052375E+01  0.71159760796E+01 -0.15805847781E+02  0.17756685622E+02  0.51100000000E-03 0. -1.
        -11    1    3    3    0    0  0.15841242552E+01  0.98351398445E+00 -0.66579483994E+01  0.69141179165E+01  0.51100000000E-03 0.  1.
        -12    1    3    3    0    0 -0.40689830773E+01  0.19130005448E+01 -0.20995468801E+02  0.21471513793E+02  0.00000000000E+00 0.  1.
</event>
<event>
 7    1  0.3046295E-009  0.4614232E+02  0.7816164E-02  0.1320468E+00
        -11   -1    0    0    0    0  0.00000000000E+00  0.00000000000E+00  0.45593999997E+02  0.45594000000E+02  0.51100000000E-03 0.  1.
         11   -1    0    0    0    0 -0.00000000000E+00 -0.00000000000E+00 -0.45593999997E+02  0.45594000000E+02  0.51100000000E-03 0. -1.
    9900012    2    1    2    0    0  0.38145218823E+02 -0.23420019403E+02 -0.50555316905E+01  0.46142318425E+02  0.10000006055E+02 0.  0.
         12    1    1    2    0    0 -0.38145218823E+02  0.23420019403E+02  0.50555316905E+01  0.45045681575E+02  0.00000000000E+00 0. -1.
         11    1    3    3    0    0  0.97234248319E+01 -0.32547949089E+01 -0.36030423450E+01  0.10868329898E+02  0.51100000000E-03 0. -1.
        -11    1    3    3    0    0  0.53367151128E+01 -0.56455235009E+01 -0.19040077344E+01  0.79986067230E+01  0.51100000000E-03 0.  1.
        -12    1    3    3    0    0  0.23085078878E+02 -0.14519700993E+02  0.45151838893E+00  0.27275381805E+02  0.00000000000E+00 0.  1.
</event>
<event>
 7    1  0.3046295E-009  0.4614232E+02  0.7816164E-02  0.1320468E+00
        -11   -1    0    0    0    0  0.00000000000E+00  0.00000000000E+00  0.45593999997E+02  0.45594000000E+02  0.51100000000E-03 0. -1.
         11   -1    0    0    0    0 -0.00000000000E+00 -0.00000000000E+00 -0.45593999997E+02  0.45594000000E+02  0.51100000000E-03 0.  1.
    9900012    2    1    2    0    0  0.44508862269E+02  0.65948577383E+01  0.21406855114E+01  0.46142317592E+02  0.99999984610E+01 0.  0.
         12    1    1    2    0    0 -0.44508862269E+02 -0.65948577383E+01 -0.21406855114E+01  0.45045682408E+02  0.00000000000E+00 0. -1.
         11    1    3    3    0    0  0.13440789341E+02  0.16409766602E+00 -0.31314378852E+01  0.13801726328E+02  0.51100000000E-03 0. -1.
        -11    1    3    3    0    0  0.13772418144E+02  0.12541281411E+01  0.29196360618E+01  0.14134235526E+02  0.51100000000E-03 0.  1.
         12    1    3    3    0    0  0.17295654785E+02  0.51766319312E+01  0.23524873348E+01  0.18206355738E+02  0.00000000000E+00 0. -1.
</event>
<event>
 7    1  0.3046295E-009  0.4614232E+02  0.7816164E-02  0.1320468E+00
        -11   -1    0    0    0    0  0.00000000000E+00  0.00000000000E+00  0.45593999997E+02  0.45594000000E+02  0.51100000000E-03 0.  1.
         11   -1    0    0    0    0 -0.00000000000E+00 -0.00000000000E+00 -0.45593999997E+02  0.45594000000E+02  0.51100000000E-03 0. -1.
    9900012    2    1    2    0    0  0.30985721839E+02  0.32284495147E+02  0.51681447855E+01  0.46142319793E+02  0.10000018531E+02 0.  0.
         12    1    1    2    0    0 -0.30985721839E+02 -0.32284495147E+02 -0.51681447855E+01  0.45045680207E+02  0.00000000000E+00 0. -1.
         11    1    3    3    0    0  0.26514751511E+01 -0.16160246438E-01 -0.28907292916E-01  0.26516820177E+01  0.51100000000E-03 0. -1.
        -11    1    3    3    0    0  0.20982326570E+02  0.22685899901E+02  0.54806076923E+01  0.31383835705E+02  0.51100000000E-03 0.  1.
        -12    1    3    3    0    0  0.73519201179E+01  0.96147554921E+01 -0.28355561385E+00  0.12106802071E+02  0.00000000000E+00 0.  1.
</event>
<event>
 7    1  0.3046295E-009  0.4614232E+02  0.7816164E-02  0.1320468E+00
        -11   -1    0    0    0    0  0.00000000000E+00  0.00000000000E+00  0.45593999997E+02  0.45594000000E+02  0.51100000000E-03 0.  1.
         11   -1    0    0    0    0 -0.00000000000E+00 -0.00000000000E+00 -0.45593999997E+02  0.45594000000E+02  0.51100000000E-03 0. -1.
    9900012    2    1    2    0    0  0.19842657851E+02  0.21714137683E+02  0.34115667299E+02  0.46142316509E+02  0.99999885787E+01 0.  0.
         12    1    1    2    0    0 -0.19842657851E+02 -0.21714137683E+02 -0.34115667299E+02  0.45045683491E+02  0.00000000000E+00 0. -1.
         11    1    3    3    0    0  0.40900506204E+01  0.10744184503E+02  0.14435068973E+02  0.18453650892E+02  0.51100000000E-03 0. -1.
        -11    1    3    3    0    0  0.84454367624E+01  0.75232854698E+01  0.12753786563E+02  0.17046533323E+02  0.51100000000E-03 0.  1.
         12    1    3    3    0    0  0.73071704687E+01  0.34466677103E+01  0.69268117628E+01  0.10642132294E+02  0.00000000000E+00 0. -1.
</event>
<event>
 7    1  0.3046295E-009  0.4614232E+02  0.7816164E-02  0.1320468E+00
        -11   -1    0    0    0    0  0.00000000000E+00  0.00000000000E+00  0.45593999997E+02  0.45594000000E+02  0.51100000000E-03 0.  1.
         11   -1    0    0    0    0 -0.00000000000E+00 -0.00000000000E+00 -0.45593999997E+02  0.45594000000E+02  0.51100000000E-03 0. -1.
    9900012    2    1    2    0    0  0.11550782171E+02  0.99537578109E+01  0.42386504011E+02  0.46142316682E+02  0.99999901627E+01 0.  0.
         12    1    1    2    0    0 -0.11550782171E+02 -0.99537578109E+01 -0.42386504011E+02  0.45045683318E+02  0.00000000000E+00 0. -1.
         11    1    3    3    0    0  0.89833092932E+01  0.59170070374E+01  0.20824560505E+02  0.23438710259E+02  0.51100000000E-03 0. -1.
        -11    1    3    3    0    0 -0.56184653939E+00 -0.98959405113E+00  0.45733165248E+01  0.47127690604E+01  0.51100000000E-03 0.  1.
        -12    1    3    3    0    0  0.31293194171E+01  0.50263448246E+01  0.16988626981E+02  0.17990837363E+02  0.00000000000E+00 0.  1.
</event>
<event>
 7    1  0.3046295E-009  0.4614232E+02  0.7816164E-02  0.1320468E+00
        -11   -1    0    0    0    0  0.00000000000E+00  0.00000000000E+00  0.45593999997E+02  0.45594000000E+02  0.51100000000E-03 0.  1.
         11   -1    0    0    0    0 -0.00000000000E+00 -0.00000000000E+00 -0.45593999997E+02  0.45594000000E+02  0.51100000000E-03 0. -1.
    9900012    2    1    2    0    0 -0.18752331615E+02 -0.37701009664E+02  0.16003043451E+02  0.46142317960E+02  0.10000001816E+02 0.  0.
         12    1    1    2    0    0  0.18752331615E+02  0.37701009664E+02 -0.16003043451E+02  0.45045682040E+02  0.00000000000E+00 0. -1.
         11    1    3    3    0    0 -0.38405989323E+01 -0.13536208202E+02  0.74969285304E+01  0.15943119842E+02  0.51100000000E-03 0. -1.
        -11    1    3    3    0    0 -0.27365264439E+01 -0.20814847127E+01  0.25704180594E+01  0.42928085036E+01  0.51100000000E-03 0.  1.
         12    1    3    3    0    0 -0.12175206239E+02 -0.22083316750E+02  0.59356968614E+01  0.25906389615E+02  0.00000000000E+00 0. -1.
</event>
<event>
 7    1  0.3046295E-009  0.4614232E+02  0.7816164E-02  0.1320468E+00
        -11   -1    0    0    0    0  0.00000000000E+00  0.00000000000E+00  0.45593999997E+02  0.45594000000E+02  0.51100000000E-03 0.  1.
         11   -1    0    0    0    0 -0.00000000000E+00 -0.00000000000E+00 -0.45593999997E+02  0.45594000000E+02  0.51100000000E-03 0. -1.
    9900012    2    1    2    0    0  0.52089440267E+01  0.25131349129E+02  0.37018855088E+02  0.46142318310E+02  0.10000005006E+02 0.  0.
         12    1    1    2    0    0 -0.52089440267E+01 -0.25131349129E+02 -0.37018855088E+02  0.45045681690E+02  0.00000000000E+00 0. -1.
         11    1    3    3    0    0  0.25518227696E+01  0.14001882450E+01  0.37231498045E+01  0.47259042835E+01  0.51100000000E-03 0. -1.
        -11    1    3    3    0    0 -0.52710963407E+00  0.77796087975E+01  0.15207464347E+02  0.17089971613E+02  0.51100000000E-03 0.  1.
        -12    1    3    3    0    0  0.31842308912E+01  0.15951552086E+02  0.18088240936E+02  0.24326442413E+02  0.00000000000E+00 0.  1.
</event>
<event>
 7    1  0.3046295E-009  0.4614232E+02  0.7816164E-02  0.1320468E+00
        -11   -1    0    0    0    0  0.00000000000E+00  0.00000000000E+00  0.45593999997E+02  0.45594000000E+02  0.51100000000E-03 0.  1.
         11   -1    0    0    0    0 -0.00000000000E+00 -0.00000000000E+00 -0.45593999997E+02  0.45594000000E+02  0.51100000000E-03 0. -1.
    9900012    2    1    2    0    0 -0.61772774126E+01  0.28950968633E+02  0.33952844346E+02  0.46142323402E+02  0.10000051434E+02 0.  0.
         12    1    1    2    0    0  0.61772774126E+01 -0.28950968633E+02 -0.33952844346E+02  0.45045676598E+02  0.00000000000E+00 0. -1.
         11    1    3    3    0    0 -0.41609253769E+01  0.13898054219E+02  0.11895152783E+02  0.18760700175E+02  0.51100000000E-03 0. -1.
        -11    1    3    3    0    0  0.99111718034E+00  0.89888834839E+01  0.95018185948E+01  0.13117427203E+02  0.51100000000E-03 0.  1.
         12    1    3    3    0    0 -0.30074692160E+01  0.60640309300E+01  0.12555872969E+02  0.14264196024E+02  0.00000000000E+00 0. -1.
</event>
<event>
 7    1  0.3046295E-009  0.4614232E+02  0.7816164E-02  0.1320468E+00
        -11   -1    0    0    0    0  0.00000000000E+00  0.00000000000E+00  0.45593999997E+02  0.45594000000E+02  0.51100000000E-03 0.  1.
         11   -1    0    0    0    0 -0.00000000000E+00 -0.00000000000E+00 -0.45593999997E+02  0.45594000000E+02  0.51100000000E-03 0. -1.
    9900012    2    1    2    0    0 -0.25668107475E+02 -0.26472847283E+01  0.36922265049E+02  0.46142317476E+02  0.99999973963E+01 0.  0.
         12    1    1    2    0    0  0.25668107475E+02  0.26472847283E+01 -0.36922265049E+02  0.45045682524E+02  0.00000000000E+00 0. -1.
         11    1    3    3    0    0 -0.19498704805E+02 -0.34897560168E+01  0.21482551447E+02  0.29221189282E+02  0.51100000000E-03 0. -1.
        -11    1    3    3    0    0 -0.52403916765E+01 -0.43876649116E+00  0.12873417348E+02  0.13906081239E+02  0.51100000000E-03 0.  1.
         12    1    3    3    0    0 -0.92901099303E+00  0.12812377797E+01  0.25662962538E+01  0.30150469541E+01  0.00000000000E+00 0. -1.
</event>
<event>
 7    1  0.3046295E-009  0.4614232E+02  0.7816164E-02  0.1320468E+00
        -11   -1    0    0    0    0  0.00000000000E+00  0.00000000000E+00  0.45593999997E+02  0.45594000000E+02  0.51100000000E-03 0.  1.
         11   -1    0    0    0    0 -0.00000000000E+00 -0.00000000000E+00 -0.45593999997E+02  0.45594000000E+02  0.51100000000E-03 0. -1.
    9900012    2    1    2    0    0  0.38298693454E+02 -0.20883814552E+02  0.11233429867E+02  0.46142316776E+02  0.99999910203E+01 0.  0.
         12    1    1    2    0    0 -0.38298693454E+02  0.20883814552E+02 -0.11233429867E+02  0.45045683224E+02  0.00000000000E+00 0. -1.
         11    1    3    3    0    0  0.27313158312E+02 -0.98951861835E+01  0.90011219581E+01  0.30412884167E+02  0.51100000000E-03 0. -1.
        -11    1    3    3    0    0  0.79591606884E+01 -0.73126980778E+01  0.15071317360E+01  0.10913076485E+02  0.51100000000E-03 0.  1.
         12    1    3    3    0    0  0.30263744534E+01 -0.36759302909E+01  0.72517617321E+00  0.48163561245E+01  0.00000000000E+00 0. -1.
</event>
<event>
 7    1  0.3645346E-009  0.4614232E+02  0.7816164E-02  0.1320468E+00
        -11   -1    0    0    0    0  0.00000000000E+00  0.00000000000E+00  0.45593999997E+02  0.45594000000E+02  0.51100000000E-03 0. -1.
         11   -1    0    0    0    0 -0.00000000000E+00 -0.00000000000E+00 -0.45593999997E+02  0.45594000000E+02  0.51100000000E-03 0.  1.
    9900012    2    1    2    0    0  0.29498550555E+01 -0.43527921445E+02  0.11213024388E+02  0.46142317564E+02  0.99999982033E+01 0.  0.
         12    1    1    2    0    0 -0.29498550555E+01  0.43527921445E+02 -0.11213024388E+02  0.45045682436E+02  0.00000000000E+00 0. -1.
         11    1    3    3    0    0  0.18053288944E+00 -0.64720095452E+01 -0.11049164583E+01  0.65681306563E+01  0.51100000000E-03 0. -1.
        -11    1    3    3    0    0  0.11932115662E+01 -0.18740829620E+02  0.92637414939E+01  0.20939421086E+02  0.51100000000E-03 0.  1.
        -12    1    3    3    0    0  0.15761105998E+01 -0.18315082280E+02  0.30541993521E+01  0.18634765822E+02  0.00000000000E+00 0.  1.
</event>
<event>
 7    1  0.3046295E-009  0.4614231E+02  0.7816164E-02  0.1320468E+00
        -11   -1    0    0    0    0  0.00000000000E+00  0.00000000000E+00  0.45593999997E+02  0.45594000000E+02  0.51100000000E-03 0.  1.
         11   -1    0    0    0    0 -0.00000000000E+00 -0.00000000000E+00 -0.45593999997E+02  0.45594000000E+02  0.51100000000E-03 0. -1.
    9900012    2    1    2    0    0  0.18554639848E+02  0.28770337725E+02  0.29276385655E+02  0.46142314860E+02  0.99999735446E+01 0.  0.
         12    1    1    2    0    0 -0.18554639848E+02 -0.28770337725E+02 -0.29276385655E+02  0.45045685140E+02  0.00000000000E+00 0. -1.
         11    1    3    3    0    0  0.10207263638E+01  0.36998536634E+01  0.14641346939E+01  0.41078571181E+01  0.51100000000E-03 0. -1.
        -11    1    3    3    0    0  0.16429737290E+02  0.25475079003E+02  0.27089702179E+02  0.40654248019E+02  0.51100000000E-03 0.  1.
        -12    1    3    3    0    0  0.11041761946E+01 -0.40459494121E+00  0.72254878254E+00  0.13802097226E+01  0.00000000000E+00 0.  1.
</event>
<event>
 7    1  0.3046295E-009  0.4614232E+02  0.7816164E-02  0.1320468E+00
        -11   -1    0    0    0    0  0.00000000000E+00  0.00000000000E+00  0.45593999997E+02  0.45594000000E+02  0.51100000000E-03 0. -1.
         11   -1    0    0    0    0 -0.00000000000E+00 -0.00000000000E+00 -0.45593999997E+02  0.45594000000E+02  0.51100000000E-03 0.  1.
    9900012    2    1    2    0    0  0.41060719350E+01 -0.27879978974E+02 -0.35142004996E+02  0.46142316861E+02  0.99999917921E+01 0.  0.
         12    1    1    2    0    0 -0.41060719350E+01  0.27879978974E+02  0.35142004996E+02  0.45045683139E+02  0.00000000000E+00 0. -1.
         11    1    3    3    0    0 -0.51058460494E+00 -0.20154435991E+02 -0.26835480170E+02  0.33564936809E+02  0.51100000000E-03 0. -1.
        -11    1    3    3    0    0  0.50741926200E+00 -0.33708436318E+01 -0.36336499514E+01  0.49823160606E+01  0.51100000000E-03 0.  1.
         12    1    3    3    0    0  0.41092372779E+01 -0.43546993513E+01 -0.46728748745E+01  0.75950639918E+01  0.00000000000E+00 0. -1.
</event>
<event>
 7    1  0.3046295E-009  0.4614232E+02  0.7816164E-02  0.1320468E+00
        -11   -1    0    0    0    0  0.00000000000E+00  0.00000000000E+00  0.45593999997E+02  0.45594000000E+02  0.51100000000E-03 0.  1.
         11   -1    0    0    0    0 -0.00000000000E+00 -0.00000000000E+00 -0.45593999997E+02  0.45594000000E+02  0.51100000000E-03 0. -1.
    9900012    2    1    2    0    0  0.21383998403E+02  0.30909632405E+02  0.24828063551E+02  0.46142317601E+02  0.99999985389E+01 0.  0.
         12    1    1    2    0    0 -0.21383998403E+02 -0.30909632405E+02 -0.24828063551E+02  0.45045682399E+02  0.00000000000E+00 0. -1.
         11    1    3    3    0    0  0.87403047489E+00  0.60236893269E+01  0.58142642362E+01  0.84175074249E+01  0.51100000000E-03 0. -1.
        -11    1    3    3    0    0  0.10378152385E+02  0.11425308509E+02  0.65472275823E+01  0.16766332656E+02  0.51100000000E-03 0.  1.
         12    1    3    3    0    0  0.10131815544E+02  0.13460634569E+02  0.12466571733E+02  0.20958477520E+02  0.00000000000E+00 0. -1.
</event>
<event>
 7    1  0.3046295E-009  0.4614232E+02  0.7816164E-02  0.1320468E+00
        -11   -1    0    0    0    0  0.00000000000E+00  0.00000000000E+00  0.45593999997E+02  0.45594000000E+02  0.51100000000E-03 0. -1.
         11   -1    0    0    0    0 -0.00000000000E+00 -0.00000000000E+00 -0.45593999997E+02  0.45594000000E+02  0.51100000000E-03 0.  1.
    9900012    2    1    2    0    0  0.11746910164E+02  0.43304952060E+02  0.39755117552E+01  0.46142318020E+02  0.10000002363E+02 0.  0.
         12    1    1    2    0    0 -0.11746910164E+02 -0.43304952060E+02 -0.39755117552E+01  0.45045681980E+02  0.00000000000E+00 0. -1.
         11    1    3    3    0    0  0.51656312024E+01  0.34466711149E+02  0.36460569338E+01  0.35041855753E+02  0.51100000000E-03 0. -1.
        -11    1    3    3    0    0  0.39790070544E+01  0.63260324830E+01  0.63212150983E-01  0.74736323266E+01  0.51100000000E-03 0.  1.
         12    1    3    3    0    0  0.26022719069E+01  0.25122084277E+01  0.26624267048E+00  0.36268299411E+01  0.00000000000E+00 0. -1.
</event>
<event>
 7    1  0.3046295E-009  0.4614232E+02  0.7816164E-02  0.1320468E+00
        -11   -1    0    0    0    0  0.00000000000E+00  0.00000000000E+00  0.45593999997E+02  0.45594000000E+02  0.51100000000E-03 0.  1.
         11   -1    0    0    0    0 -0.00000000000E+00 -0.00000000000E+00 -0.45593999997E+02  0.45594000000E+02  0.51100000000E-03 0. -1.
    9900012    2    1    2    0    0 -0.18833648487E+02  0.38842595697E+02  0.12870895056E+02  0.46142317684E+02  0.99999992932E+01 0.  0.
         12    1    1    2    0    0  0.18833648487E+02 -0.38842595697E+02 -0.12870895056E+02  0.45045682316E+02  0.00000000000E+00 0. -1.
         11    1    3    3    0    0 -0.60011991271E+00  0.12242288405E+01 -0.72757504467E+00  0.15453950531E+01  0.51100000000E-03 0. -1.
        -11    1    3    3    0    0 -0.50160713535E+01  0.15349817223E+02  0.83307307989E+01  0.18170826522E+02  0.51100000000E-03 0.  1.
        -12    1    3    3    0    0 -0.13217457221E+02  0.22268549634E+02  0.52677393019E+01  0.26426096108E+02  0.00000000000E+00 0.  1.
</event>
<event>
 7    1  0.3046295E-009  0.4614232E+02  0.7816164E-02  0.1320468E+00
        -11   -1    0    0    0    0  0.00000000000E+00  0.00000000000E+00  0.45593999997E+02  0.45594000000E+02  0.51100000000E-03 0. -1.
         11   -1    0    0    0    0 -0.00000000000E+00 -0.00000000000E+00 -0.45593999997E+02  0.45594000000E+02  0.51100000000E-03 0.  1.
    9900012    2    1    2    0    0  0.40154616306E+02  0.18603184502E+02  0.84048697448E+01  0.46142317413E+02  0.99999968300E+01 0.  0.
         12    1    1    2    0    0 -0.40154616306E+02 -0.18603184502E+02 -0.84048697448E+01  0.45045682587E+02  0.00000000000E+00 0. -1.
         11    1    3    3    0    0  0.13847073697E+02  0.36113814925E+01  0.46894147438E+01  0.15059021786E+02  0.51100000000E-03 0. -1.
        -11    1    3    3    0    0  0.17921924028E+02  0.11687270398E+02  0.50177011901E+01  0.21976464132E+02  0.51100000000E-03 0.  1.
         12    1    3    3    0    0  0.83856185802E+01  0.33045326109E+01 -0.13022461891E+01  0.91068314954E+01  0.00000000000E+00 0. -1.
</event>
<event>
 7    1  0.3446398E-009  0.4614232E+02  0.7816164E-02  0.1320468E+00
        -11   -1    0    0    0    0  0.00000000000E+00  0.00000000000E+00  0.45593999997E+02  0.45594000000E+02  0.51100000000E-03 0.  1.
         11   -1    0    0    0    0 -0.00000000000E+00 -0.00000000000E+00 -0.45593999997E+02  0.45594000000E+02  0.51100000000E-03 0. -1.
    9900012    2    1    2    0    0  0.32726286413E+02 -0.24653528712E+02  0.18716494184E+02  0.46142318132E+02  0.10000003385E+02 0.  0.
         12    1    1    2    0    0 -0.32726286413E+02  0.24653528712E+02 -0.18716494184E+02  0.45045681868E+02  0.00000000000E+00 0. -1.
         11    1    3    3    0    0  0.45621273601E+01 -0.12666950067E+01  0.51884483362E+00  0.47630581051E+01  0.51100000000E-03 0. -1.
        -11    1    3    3    0    0  0.25409336537E+02 -0.21419757516E+02  0.14196652088E+02  0.36138418976E+02  0.51100000000E-03 0.  1.
        -12    1    3    3    0    0  0.27548225165E+01 -0.19670761891E+01  0.40009972629E+01  0.52408410517E+01  0.00000000000E+00 0.  1.
</event>
<event>
 7    1  0.3046295E-009  0.4614232E+02  0.7816164E-02  0.1320468E+00
        -11   -1    0    0    0    0  0.00000000000E+00  0.00000000000E+00  0.45593999997E+02  0.45594000000E+02  0.51100000000E-03 0.  1.
         11   -1    0    0    0    0 -0.00000000000E+00 -0.00000000000E+00 -0.45593999997E+02  0.45594000000E+02  0.51100000000E-03 0. -1.
    9900012    2    1    2    0    0 -0.96388261802E+01  0.27517607012E+02  0.34336391241E+02  0.46142318418E+02  0.10000005987E+02 0.  0.
         12    1    1    2    0    0  0.96388261802E+01 -0.27517607012E+02 -0.34336391241E+02  0.45045681582E+02  0.00000000000E+00 0. -1.
         11    1    3    3    0    0  0.34515240101E+00  0.19133118279E-01 -0.41510280096E+00  0.54019149625E+00  0.51100000000E-03 0. -1.
        -11    1    3    3    0    0 -0.23274102360E+01  0.96674240046E+01  0.14214342627E+02  0.17347145640E+02  0.51100000000E-03 0.  1.
         12    1    3    3    0    0 -0.76565683453E+01  0.17831049889E+02  0.20537151415E+02  0.28254981281E+02  0.00000000000E+00 0. -1.
</event>
<event>
 7    1  0.3046295E-009  0.4614232E+02  0.7816164E-02  0.1320468E+00
        -11   -1    0    0    0    0  0.00000000000E+00  0.00000000000E+00  0.45593999997E+02  0.45594000000E+02  0.51100000000E-03 0. -1.
         11   -1    0    0    0    0 -0.00000000000E+00 -0.00000000000E+00 -0.45593999997E+02  0.45594000000E+02  0.51100000000E-03 0.  1.
    9900012    2    1    2    0    0 -0.30357721820E+02 -0.18678500707E+02 -0.27543348845E+02  0.46142315098E+02  0.99999757111E+01 0.  0.
         12    1    1    2    0    0  0.30357721820E+02  0.18678500707E+02  0.27543348845E+02  0.45045684902E+02  0.00000000000E+00 0. -1.
         11    1    3    3    0    0 -0.88331991920E+01 -0.44128882670E+01 -0.43823401582E+01  0.10802957759E+02  0.51100000000E-03 0. -1.
        -11    1    3    3    0    0 -0.10409065386E+02 -0.35204083898E+01 -0.12004384016E+02  0.16274125270E+02  0.51100000000E-03 0.  1.
         12    1    3    3    0    0 -0.11115457241E+02 -0.10745204051E+02 -0.11156624671E+02  0.19065232068E+02  0.00000000000E+00 0. -1.
</event>
<event>
 7    1  0.3046295E-009  0.4614232E+02  0.7816164E-02  0.1320468E+00
        -11   -1    0    0    0    0  0.00000000000E+00  0.00000000000E+00  0.45593999997E+02  0.45594000000E+02  0.51100000000E-03 0.  1.
         11   -1    0    0    0    0 -0.00000000000E+00 -0.00000000000E+00 -0.45593999997E+02  0.45594000000E+02  0.51100000000E-03 0. -1.
    9900012    2    1    2    0    0  0.18068025151E+02 -0.40160937791E+02 -0.94741237551E+01  0.46142317875E+02  0.10000001043E+02 0.  0.
         12    1    1    2    0    0 -0.18068025151E+02  0.40160937791E+02  0.94741237551E+01  0.45045682125E+02  0.00000000000E+00 0. -1.
         11    1    3    3    0    0  0.47597327105E+01 -0.76974755809E+01 -0.41601266801E+00  0.90597600738E+01  0.51100000000E-03 0.  1.
        -11    1    3    3    0    0  0.24201043899E+01 -0.10933473764E+01 -0.14119075587E+01  0.30076231411E+01  0.51100000000E-03 0. -1.
         12    1    3    3    0    0  0.10888188051E+02 -0.31370114834E+02 -0.76462035284E+01  0.34074934661E+02  0.00000000000E+00 0. -1.
</event>
<event>
 7    1  0.3046295E-009  0.4614232E+02  0.7816164E-02  0.1320468E+00
        -11   -1    0    0    0    0  0.00000000000E+00  0.00000000000E+00  0.45593999997E+02  0.45594000000E+02  0.51100000000E-03 0.  1.
         11   -1    0    0    0    0 -0.00000000000E+00 -0.00000000000E+00 -0.45593999997E+02  0.45594000000E+02  0.51100000000E-03 0. -1.
    9900012    2    1    2    0    0  0.37153842955E+02  0.23703123853E+02  0.93202678573E+01  0.46142317414E+02  0.99999968377E+01 0.  0.
         12    1    1    2    0    0 -0.37153842955E+02 -0.23703123853E+02 -0.93202678573E+01  0.45045682586E+02  0.00000000000E+00 0. -1.
         11    1    3    3    0    0  0.11404180858E+01  0.62010893892E+00  0.23411966408E+01  0.26769928051E+01  0.51100000000E-03 0. -1.
        -11    1    3    3    0    0  0.28977744210E+02  0.19140456565E+02  0.68594403858E+01  0.35399416093E+02  0.51100000000E-03 0.  1.
         12    1    3    3    0    0  0.70356806584E+01  0.39425583493E+01  0.11963083078E+00  0.80659085167E+01  0.00000000000E+00 0. -1.
</event>
<event>
 7    1  0.3046295E-009  0.4614232E+02  0.7816164E-02  0.1320468E+00
        -11   -1    0    0    0    0  0.00000000000E+00  0.00000000000E+00  0.45593999997E+02  0.45594000000E+02  0.51100000000E-03 0. -1.
         11   -1    0    0    0    0 -0.00000000000E+00 -0.00000000000E+00 -0.45593999997E+02  0.45594000000E+02  0.51100000000E-03 0.  1.
    9900012    2    1    2    0    0  0.25210823625E+02 -0.37157782259E+02  0.35814816031E+01  0.46142318511E+02  0.10000006841E+02 0.  0.
         12    1    1    2    0    0 -0.25210823625E+02  0.37157782259E+02 -0.35814816031E+01  0.45045681489E+02  0.00000000000E+00 0. -1.
         11    1    3    3    0    0  0.23994302855E+01 -0.55883007895E+01  0.21841160305E+01  0.64619451023E+01  0.51100000000E-03 0. -1.
        -11    1    3    3    0    0  0.19321455620E+01 -0.76999113464E+01  0.44140610428E-01  0.79387511530E+01  0.51100000000E-03 0.  1.
        -12    1    3    3    0    0  0.20879247778E+02 -0.23869570123E+02  0.13532249622E+01  0.31741622256E+02  0.00000000000E+00 0.  1.
</event>
<event>
 7    1  0.3046295E-009  0.4614232E+02  0.7816164E-02  0.1320468E+00
        -11   -1    0    0    0    0  0.00000000000E+00  0.00000000000E+00  0.45593999997E+02  0.45594000000E+02  0.51100000000E-03 0.  1.
         11   -1    0    0    0    0 -0.00000000000E+00 -0.00000000000E+00 -0.45593999997E+02  0.45594000000E+02  0.51100000000E-03 0. -1.
    9900012    2    1    2    0    0 -0.80696463823E+01 -0.20960929758E+02  0.39046559019E+02  0.46142317185E+02  0.99999947495E+01 0.  0.
         12    1    1    2    0    0  0.80696463823E+01  0.20960929758E+02 -0.39046559019E+02  0.45045682815E+02  0.00000000000E+00 0. -1.
         11    1    3    3    0    0 -0.36249018498E+00 -0.77661467136E+01  0.82267253350E+01  0.11319162686E+02  0.51100000000E-03 0. -1.
        -11    1    3    3    0    0 -0.15960031975E+00 -0.44436849239E+01  0.62396840009E+01  0.76619491422E+01  0.51100000000E-03 0.  1.
         12    1    3    3    0    0 -0.75475558776E+01 -0.87510981204E+01  0.24580149683E+02  0.27161205357E+02  0.00000000000E+00 0. -1.
</event>
<event>
 7    1  0.3046295E-009  0.4614232E+02  0.7816164E-02  0.1320468E+00
        -11   -1    0    0    0    0  0.00000000000E+00  0.00000000000E+00  0.45593999997E+02  0.45594000000E+02  0.51100000000E-03 0.  1.
         11   -1    0    0    0    0 -0.00000000000E+00 -0.00000000000E+00 -0.45593999997E+02  0.45594000000E+02  0.51100000000E-03 0. -1.
    9900012    2    1    2    0    0 -0.11851551222E+02 -0.51152729144E+00  0.43455636923E+02  0.46142319776E+02  0.10000018370E+02 0.  0.
         12    1    1    2    0    0  0.11851551222E+02  0.51152729144E+00 -0.43455636923E+02  0.45045680224E+02  0.00000000000E+00 0. -1.
         11    1    3    3    0    0 -0.41910009635E+01 -0.30510270013E+01  0.94871368051E+01  0.10811060071E+02  0.51100000000E-03 0. -1.
        -11    1    3    3    0    0 -0.42758369376E+01  0.40067732855E+01  0.17513484727E+02  0.18467787123E+02  0.51100000000E-03 0.  1.
        -12    1    3    3    0    0 -0.33847133208E+01 -0.14672735756E+01  0.16455015390E+02  0.16863472582E+02  0.00000000000E+00 0.  1.
</event>
<event>
 7    1  0.3046295E-009  0.4614232E+02  0.7816164E-02  0.1320468E+00
        -11   -1    0    0    0    0  0.00000000000E+00  0.00000000000E+00  0.45593999997E+02  0.45594000000E+02  0.51100000000E-03 0.  1.
         11   -1    0    0    0    0 -0.00000000000E+00 -0.00000000000E+00 -0.45593999997E+02  0.45594000000E+02  0.51100000000E-03 0. -1.
    9900012    2    1    2    0    0  0.17669593198E+02  0.34529694489E+02 -0.22904127941E+02  0.46142318720E+02  0.10000008742E+02 0.  0.
         12    1    1    2    0    0 -0.17669593198E+02 -0.34529694489E+02  0.22904127941E+02  0.45045681280E+02  0.00000000000E+00 0. -1.
         11    1    3    3    0    0  0.55294356854E+01  0.68335089253E+01 -0.59693010030E+01  0.10625632120E+02  0.51100000000E-03 0. -1.
        -11    1    3    3    0    0 -0.10292560862E+00  0.76331456867E+01 -0.52814839168E+01  0.92827571002E+01  0.51100000000E-03 0.  1.
        -12    1    3    3    0    0  0.12243083121E+02  0.20063039877E+02 -0.11653343021E+02  0.26233929499E+02  0.00000000000E+00 0.  1.
</event>
<event>
 7    1  0.3046295E-009  0.4614232E+02  0.7816164E-02  0.1320468E+00
        -11   -1    0    0    0    0  0.00000000000E+00  0.00000000000E+00  0.45593999997E+02  0.45594000000E+02  0.51100000000E-03 0. -1.
         11   -1    0    0    0    0 -0.00000000000E+00 -0.00000000000E+00 -0.45593999997E+02  0.45594000000E+02  0.51100000000E-03 0.  1.
    9900012    2    1    2    0    0  0.41009828852E+02 -0.12871874093E+01 -0.18591680145E+02  0.46142317804E+02  0.10000000393E+02 0.  0.
         12    1    1    2    0    0 -0.41009828852E+02  0.12871874093E+01  0.18591680145E+02  0.45045682196E+02  0.00000000000E+00 0. -1.
         11    1    3    3    0    0  0.12343006537E+02 -0.11210542119E+01 -0.70884252348E+01  0.14277686979E+02  0.51100000000E-03 0. -1.
        -11    1    3    3    0    0  0.27587106314E+02 -0.40119451361E+00 -0.88244760775E+01  0.28966890930E+02  0.51100000000E-03 0.  1.
        -12    1    3    3    0    0  0.10797160008E+01  0.23506131623E+00 -0.26787788327E+01  0.28977398951E+01  0.00000000000E+00 0.  1.
</event>
<event>
 7    1  0.3046295E-009  0.4614232E+02  0.7816164E-02  0.1320468E+00
        -11   -1    0    0    0    0  0.00000000000E+00  0.00000000000E+00  0.45593999997E+02  0.45594000000E+02  0.51100000000E-03 0.  1.
         11   -1    0    0    0    0 -0.00000000000E+00 -0.00000000000E+00 -0.45593999997E+02  0.45594000000E+02  0.51100000000E-03 0. -1.
    9900012    2    1    2    0    0  0.29318338280E+02 -0.19655330210E+02  0.27986005946E+02  0.46142317699E+02  0.99999994331E+01 0.  0.
         12    1    1    2    0    0 -0.29318338280E+02  0.19655330210E+02 -0.27986005946E+02  0.45045682301E+02  0.00000000000E+00 0. -1.
         11    1    3    3    0    0  0.70202737439E+01 -0.13152049356E+01  0.65759240529E+01  0.97085933519E+01  0.51100000000E-03 0. -1.
        -11    1    3    3    0    0  0.18103719949E+02 -0.16085036936E+02  0.20159868963E+02  0.31510211140E+02  0.51100000000E-03 0.  1.
         12    1    3    3    0    0  0.41943445871E+01 -0.22550883378E+01  0.12502129299E+01  0.49235132068E+01  0.00000000000E+00 0. -1.
</event>
<event>
 7    1  0.3046295E-009  0.4614232E+02  0.7816164E-02  0.1320468E+00
        -11   -1    0    0    0    0  0.00000000000E+00  0.00000000000E+00  0.45593999997E+02  0.45594000000E+02  0.51100000000E-03 0.  1.
         11   -1    0    0    0    0 -0.00000000000E+00 -0.00000000000E+00 -0.45593999997E+02  0.45594000000E+02  0.51100000000E-03 0. -1.
    9900012    2    1    2    0    0 -0.42335875085E+02  0.10713208114E+02  0.11046011267E+02  0.46142317496E+02  0.99999975823E+01 0.  0.
         12    1    1    2    0    0  0.42335875085E+02 -0.10713208114E+02 -0.11046011267E+02  0.45045682504E+02  0.00000000000E+00 0. -1.
         11    1    3    3    0    0 -0.61185107773E+01  0.30194301781E+01 -0.12556592235E+01  0.69375653567E+01  0.51100000000E-03 0. -1.
        -11    1    3    3    0    0 -0.34718339043E+02  0.74144998563E+01  0.10908638745E+02  0.37139416710E+02  0.51100000000E-03 0.  1.
        -12    1    3    3    0    0 -0.14990252650E+01  0.27927807964E+00  0.13930317457E+01  0.20653354293E+01  0.00000000000E+00 0.  1.
</event>
<event>
 7    1  0.3046295E-009  0.4614232E+02  0.7816164E-02  0.1320468E+00
        -11   -1    0    0    0    0  0.00000000000E+00  0.00000000000E+00  0.45593999997E+02  0.45594000000E+02  0.51100000000E-03 0. -1.
         11   -1    0    0    0    0 -0.00000000000E+00 -0.00000000000E+00 -0.45593999997E+02  0.45594000000E+02  0.51100000000E-03 0.  1.
    9900012    2    1    2    0    0  0.67254601792E+01  0.36495894257E+02 -0.25532946387E+02  0.46142318038E+02  0.10000002522E+02 0.  0.
         12    1    1    2    0    0 -0.67254601792E+01 -0.36495894257E+02  0.25532946387E+02  0.45045681962E+02  0.00000000000E+00 0. -1.
         11    1    3    3    0    0  0.32128449647E+01  0.22486979447E+02 -0.20380902834E+02  0.30518319384E+02  0.51100000000E-03 0. -1.
        -11    1    3    3    0    0  0.15163945501E+01  0.10234237576E+02 -0.45852694825E+01  0.11316526308E+02  0.51100000000E-03 0.  1.
         12    1    3    3    0    0  0.19962206644E+01  0.37746772344E+01 -0.56677407020E+00  0.43074723460E+01  0.00000000000E+00 0. -1.
</event>
<event>
 7    1  0.3046295E-009  0.4614232E+02  0.7816164E-02  0.1320468E+00
        -11   -1    0    0    0    0  0.00000000000E+00  0.00000000000E+00  0.45593999997E+02  0.45594000000E+02  0.51100000000E-03 0.  1.
         11   -1    0    0    0    0 -0.00000000000E+00 -0.00000000000E+00 -0.45593999997E+02  0.45594000000E+02  0.51100000000E-03 0. -1.
    9900012    2    1    2    0    0 -0.86557901222E+01 -0.31798399664E+02  0.30709156154E+02  0.46142321011E+02  0.10000029638E+02 0.  0.
         12    1    1    2    0    0  0.86557901222E+01  0.31798399664E+02 -0.30709156154E+02  0.45045678989E+02  0.00000000000E+00 0. -1.
         11    1    3    3    0    0 -0.64326629173E+01 -0.18918694091E+02  0.14341347969E+02  0.24596146042E+02  0.51100000000E-03 0. -1.
        -11    1    3    3    0    0 -0.16744711729E+01 -0.45756209474E+01  0.27726020052E+01  0.56060220213E+01  0.51100000000E-03 0.  1.
         12    1    3    3    0    0 -0.54865603197E+00 -0.83040846262E+01  0.13595206180E+02  0.15940152948E+02  0.00000000000E+00 0. -1.
</event>
<event>
 7    1  0.3046295E-009  0.4614232E+02  0.7816164E-02  0.1320468E+00
        -11   -1    0    0    0    0  0.00000000000E+00  0.00000000000E+00  0.45593999997E+02  0.45594000000E+02  0.51100000000E-03 0.  1.
         11   -1    0    0    0    0 -0.00000000000E+00 -0.00000000000E+00 -0.45593999997E+02  0.45594000000E+02  0.51100000000E-03 0. -1.
    9900012    2    1    2    0    0  0.42103012592E+02  0.10119979687E+02  0.12411117206E+02  0.46142317760E+02  0.99999999882E+01 0.  0.
         12    1    1    2    0    0 -0.42103012592E+02 -0.10119979687E+02 -0.12411117206E+02  0.45045682240E+02  0.00000000000E+00 0. -1.
         11    1    3    3    0    0  0.11692266756E+02  0.37955739016E+01  0.23900266349E+01  0.12523087108E+02  0.51100000000E-03 0. -1.
        -11    1    3    3    0    0  0.28280681436E+02  0.38131482086E+01  0.75978117261E+01  0.29530726118E+02  0.51100000000E-03 0.  1.
        -12    1    3    3    0    0  0.21300643995E+01  0.25112575769E+01  0.24232788448E+01  0.40885045338E+01  0.00000000000E+00 0.  1.
</event>
<event>
 7    1  0.3046295E-009  0.4614232E+02  0.7816164E-02  0.1320468E+00
        -11   -1    0    0    0    0  0.00000000000E+00  0.00000000000E+00  0.45593999997E+02  0.45594000000E+02  0.51100000000E-03 0. -1.
         11   -1    0    0    0    0 -0.00000000000E+00 -0.00000000000E+00 -0.45593999997E+02  0.45594000000E+02  0.51100000000E-03 0.  1.
    9900012    2    1    2    0    0  0.38514380269E+02  0.69284381079E+01 -0.22310374067E+02  0.46142317264E+02  0.99999954665E+01 0.  0.
         12    1    1    2    0    0 -0.38514380269E+02 -0.69284381079E+01  0.22310374067E+02  0.45045682736E+02  0.00000000000E+00 0. -1.
         11    1    3    3    0    0  0.89986447614E+01 -0.12305642583E+00 -0.76751450354E+01  0.11827873943E+02  0.51100000000E-03 0. -1.
        -11    1    3    3    0    0  0.24851845821E+00  0.95757946249E+00  0.83036766834E-01  0.99278155544E+00  0.51100000000E-03 0.  1.
        -12    1    3    3    0    0  0.29267217050E+02  0.60939150713E+01 -0.14718265799E+02  0.33321661766E+02  0.00000000000E+00 0.  1.
</event>
<event>
 7    1  0.3046295E-009  0.4614232E+02  0.7816164E-02  0.1320468E+00
        -11   -1    0    0    0    0  0.00000000000E+00  0.00000000000E+00  0.45593999997E+02  0.45594000000E+02  0.51100000000E-03 0.  1.
         11   -1    0    0    0    0 -0.00000000000E+00 -0.00000000000E+00 -0.45593999997E+02  0.45594000000E+02  0.51100000000E-03 0. -1.
    9900012    2    1    2    0    0  0.14031473248E+01  0.36468791153E+02  0.26404014348E+02  0.46142317363E+02  0.99999963683E+01 0.  0.
         12    1    1    2    0    0 -0.14031473248E+01 -0.36468791153E+02 -0.26404014348E+02  0.45045682637E+02  0.00000000000E+00 0. -1.
         11    1    3    3    0    0  0.25808199535E+01  0.91428757843E+01  0.42393491446E+01  0.10403119276E+02  0.51100000000E-03 0. -1.
        -11    1    3    3    0    0  0.59039840298E+00  0.25109788266E+02  0.20703857468E+02  0.32549957778E+02  0.51100000000E-03 0.  1.
        -12    1    3    3    0    0 -0.17680710317E+01  0.22161271018E+01  0.14608077356E+01  0.31892403084E+01  0.00000000000E+00 0.  1.
</event>
<event>
 7    1  0.3046295E-009  0.4614232E+02  0.7816164E-02  0.1320468E+00
        -11   -1    0    0    0    0  0.00000000000E+00  0.00000000000E+00  0.45593999997E+02  0.45594000000E+02  0.51100000000E-03 0.  1.
         11   -1    0    0    0    0 -0.00000000000E+00 -0.00000000000E+00 -0.45593999997E+02  0.45594000000E+02  0.51100000000E-03 0. -1.
    9900012    2    1    2    0    0  0.66250844396E+01  0.37877905869E+02 -0.23462439110E+02  0.46142317123E+02  0.99999941852E+01 0.  0.
         12    1    1    2    0    0 -0.66250844396E+01 -0.37877905869E+02  0.23462439110E+02  0.45045682877E+02  0.00000000000E+00 0. -1.
         11    1    3    3    0    0 -0.15416018404E+00  0.44342002532E+00 -0.16613486908E+01  0.17264027383E+01  0.51100000000E-03 0. -1.
        -11    1    3    3    0    0 -0.13699699216E+01  0.33576463720E+01 -0.25978268712E+01  0.44608644296E+01  0.51100000000E-03 0.  1.
        -12    1    3    3    0    0  0.81492145452E+01  0.34076839471E+02 -0.19203263548E+02  0.39955049956E+02  0.00000000000E+00 0.  1.
</event>
<event>
 7    1  0.3046295E-009  0.4614232E+02  0.7816164E-02  0.1320468E+00
        -11   -1    0    0    0    0  0.00000000000E+00  0.00000000000E+00  0.45593999997E+02  0.45594000000E+02  0.51100000000E-03 0.  1.
         11   -1    0    0    0    0 -0.00000000000E+00 -0.00000000000E+00 -0.45593999997E+02  0.45594000000E+02  0.51100000000E-03 0. -1.
    9900012    2    1    2    0    0  0.17522777542E+02  0.84232643195E+01  0.40633907627E+02  0.46142316926E+02  0.99999923833E+01 0.  0.
         12    1    1    2    0    0 -0.17522777542E+02 -0.84232643195E+01 -0.40633907627E+02  0.45045683074E+02  0.00000000000E+00 0. -1.
         11    1    3    3    0    0  0.36485258938E+01  0.38763542920E+01  0.74519592182E+01  0.91580325532E+01  0.51100000000E-03 0. -1.
        -11    1    3    3    0    0  0.14378920751E+02  0.30108429144E+01  0.29220902879E+02  0.32705958209E+02  0.51100000000E-03 0.  1.
        -12    1    3    3    0    0 -0.50466910227E+00  0.15360671132E+01  0.39610455293E+01  0.42783261639E+01  0.00000000000E+00 0.  1.
</event>
<event>
 7    1  0.3046295E-009  0.4614232E+02  0.7816164E-02  0.1320468E+00
        -11   -1    0    0    0    0  0.00000000000E+00  0.00000000000E+00  0.45593999997E+02  0.45594000000E+02  0.51100000000E-03 0.  1.
         11   -1    0    0    0    0 -0.00000000000E+00 -0.00000000000E+00 -0.45593999997E+02  0.45594000000E+02  0.51100000000E-03 0. -1.
    9900012    2    1    2    0    0  0.26616684228E+02 -0.15402019823E+02  0.32915699579E+02  0.46142319046E+02  0.10000011714E+02 0.  0.
         12    1    1    2    0    0 -0.26616684228E+02  0.15402019823E+02 -0.32915699579E+02  0.45045680954E+02  0.00000000000E+00 0. -1.
         11    1    3    3    0    0  0.16567638970E+02 -0.51785760825E+01  0.22060493851E+02  0.28070798002E+02  0.51100000000E-03 0. -1.
        -11    1    3    3    0    0  0.79509011244E+01 -0.73473963343E+01  0.88682423377E+01  0.13994526930E+02  0.51100000000E-03 0.  1.
         12    1    3    3    0    0  0.20981441331E+01 -0.28760474058E+01  0.19869633900E+01  0.40769941129E+01  0.00000000000E+00 0. -1.
</event>
<event>
 7    1  0.3777852E-009  0.4614232E+02  0.7816164E-02  0.1320468E+00
        -11   -1    0    0    0    0  0.00000000000E+00  0.00000000000E+00  0.45593999997E+02  0.45594000000E+02  0.51100000000E-03 0. -1.
         11   -1    0    0    0    0 -0.00000000000E+00 -0.00000000000E+00 -0.45593999997E+02  0.45594000000E+02  0.51100000000E-03 0.  1.
    9900012    2    1    2    0    0  0.40438142559E+02 -0.19796115935E+02 -0.14084510650E+01  0.46142319695E+02  0.10000017635E+02 0.  0.
         12    1    1    2    0    0 -0.40438142559E+02  0.19796115935E+02  0.14084510650E+01  0.45045680305E+02  0.00000000000E+00 0. -1.
         11    1    3    3    0    0  0.36935556400E+00 -0.14527368690E+01 -0.88467145078E+00  0.17405492754E+01  0.51100000000E-03 0. -1.
        -11    1    3    3    0    0  0.37162151929E+02 -0.16707736069E+02 -0.19098720404E+01  0.40789969258E+02  0.51100000000E-03 0.  1.
        -12    1    3    3    0    0  0.29066350658E+01 -0.16356429970E+01  0.13860924262E+01  0.36118011620E+01  0.00000000000E+00 0.  1.
</event>
<event>
 7    1  0.3046295E-009  0.4614232E+02  0.7816164E-02  0.1320468E+00
        -11   -1    0    0    0    0  0.00000000000E+00  0.00000000000E+00  0.45593999997E+02  0.45594000000E+02  0.51100000000E-03 0.  1.
         11   -1    0    0    0    0 -0.00000000000E+00 -0.00000000000E+00 -0.45593999997E+02  0.45594000000E+02  0.51100000000E-03 0. -1.
    9900012    2    1    2    0    0  0.42697829258E+02 -0.10596851851E+02  0.96806489776E+01  0.46142324768E+02  0.10000063893E+02 0.  0.
         12    1    1    2    0    0 -0.42697829258E+02  0.10596851851E+02 -0.96806489776E+01  0.45045675232E+02  0.00000000000E+00 0. -1.
         11    1    3    3    0    0  0.39830205759E+01 -0.20932623610E+01 -0.71919027564E+00  0.45566912485E+01  0.51100000000E-03 0. -1.
        -11    1    3    3    0    0  0.29798603027E+02 -0.95324182275E+01  0.82816695475E+01  0.32363711010E+02  0.51100000000E-03 0.  1.
         12    1    3    3    0    0  0.89162056553E+01  0.10288287375E+01  0.21181697058E+01  0.92219225090E+01  0.00000000000E+00 0. -1.
</event>
<event>
 7    1  0.3046295E-009  0.4614232E+02  0.7816164E-02  0.1320468E+00
        -11   -1    0    0    0    0  0.00000000000E+00  0.00000000000E+00  0.45593999997E+02  0.45594000000E+02  0.51100000000E-03 0. -1.
         11   -1    0    0    0    0 -0.00000000000E+00 -0.00000000000E+00 -0.45593999997E+02  0.45594000000E+02  0.51100000000E-03 0.  1.
    9900012    2    1    2    0    0 -0.44388049881E+02 -0.18176515622E+01 -0.74505497810E+01  0.46142317393E+02  0.99999966445E+01 0.  0.
         12    1    1    2    0    0  0.44388049881E+02  0.18176515622E+01  0.74505497810E+01  0.45045682607E+02  0.00000000000E+00 0. -1.
         11    1    3    3    0    0 -0.10228558918E+02  0.23359107527E+01 -0.37867162596E+01  0.11154331754E+02  0.51100000000E-03 0. -1.
        -11    1    3    3    0    0 -0.53582347104E+01 -0.24107147979E+01  0.18503149772E+00  0.58784744590E+01  0.51100000000E-03 0.  1.
         12    1    3    3    0    0 -0.28801256253E+02 -0.17428475170E+01 -0.38488650191E+01  0.29109511180E+02  0.00000000000E+00 0. -1.
</event>
<event>
 7    1  0.3616319E-009  0.4614232E+02  0.7816164E-02  0.1320468E+00
        -11   -1    0    0    0    0  0.00000000000E+00  0.00000000000E+00  0.45593999997E+02  0.45594000000E+02  0.51100000000E-03 0. -1.
         11   -1    0    0    0    0 -0.00000000000E+00 -0.00000000000E+00 -0.45593999997E+02  0.45594000000E+02  0.51100000000E-03 0.  1.
    9900012    2    1    2    0    0  0.36427491488E+02  0.24805752020E+02 -0.93180513190E+01  0.46142317079E+02  0.99999937817E+01 0.  0.
         12    1    1    2    0    0 -0.36427491488E+02 -0.24805752020E+02  0.93180513190E+01  0.45045682921E+02  0.00000000000E+00 0. -1.
         11    1    3    3    0    0  0.11572678503E+00 -0.11331556550E+00  0.23952170628E+00  0.28914358900E+00  0.51100000000E-03 0. -1.
        -11    1    3    3    0    0  0.33015958385E+02  0.19378984252E+02 -0.93260431372E+01  0.39402710815E+02  0.51100000000E-03 0.  1.
        -12    1    3    3    0    0  0.32958063181E+01  0.55400833339E+01 -0.23152988809E+00  0.64504626750E+01  0.00000000000E+00 0.  1.
</event>
<event>
 7    1  0.3046295E-009  0.4614232E+02  0.7816164E-02  0.1320468E+00
        -11   -1    0    0    0    0  0.00000000000E+00  0.00000000000E+00  0.45593999997E+02  0.45594000000E+02  0.51100000000E-03 0.  1.
         11   -1    0    0    0    0 -0.00000000000E+00 -0.00000000000E+00 -0.45593999997E+02  0.45594000000E+02  0.51100000000E-03 0. -1.
    9900012    2    1    2    0    0  0.50016518242E+01 -0.31463338311E+02  0.31845801674E+02  0.46142320264E+02  0.10000022822E+02 0.  0.
         12    1    1    2    0    0 -0.50016518242E+01  0.31463338311E+02 -0.31845801674E+02  0.45045679736E+02  0.00000000000E+00 0. -1.
         11    1    3    3    0    0  0.10515798650E+01 -0.56097481386E+01  0.28816028714E+01  0.63936476099E+01  0.51100000000E-03 0. -1.
        -11    1    3    3    0    0  0.29701771525E+01 -0.25648257006E+02  0.26094624394E+02  0.36709460120E+02  0.51100000000E-03 0.  1.
         12    1    3    3    0    0  0.97989480669E+00 -0.20533316631E+00  0.28695744088E+01  0.30392125343E+01  0.00000000000E+00 0. -1.
</event>
<event>
 7    1  0.3046295E-009  0.4614232E+02  0.7816164E-02  0.1320468E+00
        -11   -1    0    0    0    0  0.00000000000E+00  0.00000000000E+00  0.45593999997E+02  0.45594000000E+02  0.51100000000E-03 0.  1.
         11   -1    0    0    0    0 -0.00000000000E+00 -0.00000000000E+00 -0.45593999997E+02  0.45594000000E+02  0.51100000000E-03 0. -1.
    9900012    2    1    2    0    0 -0.29301989140E+02  0.31235212234E+02 -0.13959530016E+02  0.46142317308E+02  0.99999958689E+01 0.  0.
         12    1    1    2    0    0  0.29301989140E+02 -0.31235212234E+02  0.13959530016E+02  0.45045682692E+02  0.00000000000E+00 0. -1.
         11    1    3    3    0    0  0.42628816451E+00  0.11348382083E+01  0.18915096606E+00  0.12269301966E+01  0.51100000000E-03 0. -1.
        -11    1    3    3    0    0 -0.11423871258E+02  0.10049801343E+02 -0.27090031830E+01  0.15454515200E+02  0.51100000000E-03 0.  1.
        -12    1    3    3    0    0 -0.18304406047E+02  0.20050572683E+02 -0.11439677799E+02  0.29460871911E+02  0.00000000000E+00 0.  1.
</event>
<event>
 7    1  0.3046295E-009  0.4614232E+02  0.7816164E-02  0.1320468E+00
        -11   -1    0    0    0    0  0.00000000000E+00  0.00000000000E+00  0.45593999997E+02  0.45594000000E+02  0.51100000000E-03 0.  1.
         11   -1    0    0    0    0 -0.00000000000E+00 -0.00000000000E+00 -0.45593999997E+02  0.45594000000E+02  0.51100000000E-03 0. -1.
    9900012    2    1    2    0    0 -0.16654791359E+02 -0.62113139747E+01  0.41390229522E+02  0.46142316562E+02  0.99999890619E+01 0.  0.
         12    1    1    2    0    0  0.16654791359E+02  0.62113139747E+01 -0.41390229522E+02  0.45045683438E+02  0.00000000000E+00 0. -1.
         11    1    3    3    0    0 -0.83301553584E+01 -0.55766648022E+01  0.14147584304E+02  0.17339112449E+02  0.51100000000E-03 0. -1.
        -11    1    3    3    0    0 -0.78308638281E+00 -0.79572866399E+00  0.89046253444E+01  0.89743390383E+01  0.51100000000E-03 0.  1.
        -12    1    3    3    0    0 -0.75415496182E+01  0.16107949150E+00  0.18338019873E+02  0.19828865074E+02  0.00000000000E+00 0.  1.
</event>
<event>
 7    1  0.3046295E-009  0.4614232E+02  0.7816164E-02  0.1320468E+00
        -11   -1    0    0    0    0  0.00000000000E+00  0.00000000000E+00  0.45593999997E+02  0.45594000000E+02  0.51100000000E-03 0. -1.
         11   -1    0    0    0    0 -0.00000000000E+00 -0.00000000000E+00 -0.45593999997E+02  0.45594000000E+02  0.51100000000E-03 0.  1.
    9900012    2    1    2    0    0  0.17182238046E+02  0.35045140697E+02 -0.22488270763E+02  0.46142317491E+02  0.99999975399E+01 0.  0.
         12    1    1    2    0    0 -0.17182238046E+02 -0.35045140697E+02  0.22488270763E+02  0.45045682509E+02  0.00000000000E+00 0. -1.
         11    1    3    3    0    0  0.11443482951E+02  0.15758216703E+02 -0.12306115822E+02  0.23037256403E+02  0.51100000000E-03 0. -1.
        -11    1    3    3    0    0  0.86153000867E+00  0.36163258545E+00 -0.13898948953E+01  0.16747597331E+01  0.51100000000E-03 0.  1.
         12    1    3    3    0    0  0.48772250867E+01  0.18925291409E+02 -0.87922600459E+01  0.21430301355E+02  0.00000000000E+00 0. -1.
</event>
<event>
 7    1  0.3046295E-009  0.4614232E+02  0.7816164E-02  0.1320468E+00
        -11   -1    0    0    0    0  0.00000000000E+00  0.00000000000E+00  0.45593999997E+02  0.45594000000E+02  0.51100000000E-03 0.  1.
         11   -1    0    0    0    0 -0.00000000000E+00 -0.00000000000E+00 -0.45593999997E+02  0.45594000000E+02  0.51100000000E-03 0. -1.
    9900012    2    1    2    0    0 -0.23687826885E+02  0.34381769985E+02  0.16908408086E+02  0.46142317479E+02  0.99999974246E+01 0.  0.
         12    1    1    2    0    0  0.23687826885E+02 -0.34381769985E+02 -0.16908408086E+02  0.45045682521E+02  0.00000000000E+00 0. -1.
         11    1    3    3    0    0 -0.10136270741E+02  0.21697870979E+02  0.11178741736E+02  0.26429261371E+02  0.51100000000E-03 0. -1.
        -11    1    3    3    0    0 -0.20589639943E+01  0.27439714818E+01  0.23170918280E+01  0.41397617109E+01  0.51100000000E-03 0.  1.
         12    1    3    3    0    0 -0.11492592150E+02  0.99399275237E+01  0.34125745220E+01  0.15573294397E+02  0.00000000000E+00 0. -1.
</event>
<event>
 7    1  0.3046295E-009  0.4614232E+02  0.7816164E-02  0.1320468E+00
        -11   -1    0    0    0    0  0.00000000000E+00  0.00000000000E+00  0.45593999997E+02  0.45594000000E+02  0.51100000000E-03 0.  1.
         11   -1    0    0    0    0 -0.00000000000E+00 -0.00000000000E+00 -0.45593999997E+02  0.45594000000E+02  0.51100000000E-03 0. -1.
    9900012    2    1    2    0    0 -0.62744768775E+00  0.33185412368E+02  0.30454033263E+02  0.46142318446E+02  0.10000006249E+02 0.  0.
         12    1    1    2    0    0  0.62744768775E+00 -0.33185412368E+02 -0.30454033263E+02  0.45045681554E+02  0.00000000000E+00 0. -1.
         11    1    3    3    0    0 -0.28287384965E+01  0.10770353592E+02  0.13796669878E+02  0.17729928876E+02  0.51100000000E-03 0. -1.
        -11    1    3    3    0    0 -0.75656703263E+00  0.80071727670E+01  0.38830680057E+01  0.89311492426E+01  0.51100000000E-03 0.  1.
        -12    1    3    3    0    0  0.29578578414E+01  0.14407886009E+02  0.12774295380E+02  0.19481240328E+02  0.00000000000E+00 0.  1.
</event>
<event>
 7    1  0.3046295E-009  0.4614232E+02  0.7816164E-02  0.1320468E+00
        -11   -1    0    0    0    0  0.00000000000E+00  0.00000000000E+00  0.45593999997E+02  0.45594000000E+02  0.51100000000E-03 0.  1.
         11   -1    0    0    0    0 -0.00000000000E+00 -0.00000000000E+00 -0.45593999997E+02  0.45594000000E+02  0.51100000000E-03 0. -1.
    9900012    2    1    2    0    0  0.23980775335E+02  0.36809836090E+02  0.99534867642E+01  0.46142317439E+02  0.99999970645E+01 0.  0.
         12    1    1    2    0    0 -0.23980775335E+02 -0.36809836090E+02 -0.99534867642E+01  0.45045682561E+02  0.00000000000E+00 0. -1.
         11    1    3    3    0    0  0.51823669700E+01  0.40860972911E+01  0.20386061631E+01  0.69071726367E+01  0.51100000000E-03 0. -1.
        -11    1    3    3    0    0  0.15015495983E+02  0.24438212580E+02  0.90024321488E+01  0.30062187854E+02  0.51100000000E-03 0.  1.
        -12    1    3    3    0    0  0.37829123815E+01  0.82855262189E+01 -0.10875515477E+01  0.91729569485E+01  0.00000000000E+00 0.  1.
</event>
<event>
 7    1  0.3046295E-009  0.4614232E+02  0.7816164E-02  0.1320468E+00
        -11   -1    0    0    0    0  0.00000000000E+00  0.00000000000E+00  0.45593999997E+02  0.45594000000E+02  0.51100000000E-03 0. -1.
         11   -1    0    0    0    0 -0.00000000000E+00 -0.00000000000E+00 -0.45593999997E+02  0.45594000000E+02  0.51100000000E-03 0.  1.
    9900012    2    1    2    0    0  0.44785547921E+02  0.48218452986E+01  0.34348918503E+00  0.46142317859E+02  0.10000000895E+02 0.  0.
         12    1    1    2    0    0 -0.44785547921E+02 -0.48218452986E+01 -0.34348918503E+00  0.45045682141E+02  0.00000000000E+00 0. -1.
         11    1    3    3    0    0  0.90217553171E+00  0.14260902155E+01  0.55492325571E+00  0.17763991876E+01  0.51100000000E-03 0. -1.
        -11    1    3    3    0    0  0.22799459096E+02  0.10949746786E+01 -0.28107852516E+01  0.22998148157E+02  0.51100000000E-03 0.  1.
        -12    1    3    3    0    0  0.21083913293E+02  0.23007804045E+01  0.25993511809E+01  0.21367770515E+02  0.00000000000E+00 0.  1.
</event>
<event>
 7    1  0.3046295E-009  0.4614232E+02  0.7816164E-02  0.1320468E+00
        -11   -1    0    0    0    0  0.00000000000E+00  0.00000000000E+00  0.45593999997E+02  0.45594000000E+02  0.51100000000E-03 0.  1.
         11   -1    0    0    0    0 -0.00000000000E+00 -0.00000000000E+00 -0.45593999997E+02  0.45594000000E+02  0.51100000000E-03 0. -1.
    9900012    2    1    2    0    0 -0.24290245355E+02 -0.18938944644E+02  0.32869650268E+02  0.46142317050E+02  0.99999935180E+01 0.  0.
         12    1    1    2    0    0  0.24290245355E+02  0.18938944644E+02 -0.32869650268E+02  0.45045682950E+02  0.00000000000E+00 0. -1.
         11    1    3    3    0    0 -0.15081576477E+01  0.18172186640E+00  0.52030875542E+01  0.54203028222E+01  0.51100000000E-03 0.  1.
        -11    1    3    3    0    0 -0.15251206905E+02 -0.12234739814E+02  0.16383750712E+02  0.25509124996E+02  0.51100000000E-03 0. -1.
        -12    1    3    3    0    0 -0.75308808020E+01 -0.68859266967E+01  0.11282812002E+02  0.15212889232E+02  0.00000000000E+00 0.  1.
</event>
<event>
 7    1  0.3046295E-009  0.4614232E+02  0.7816164E-02  0.1320468E+00
        -11   -1    0    0    0    0  0.00000000000E+00  0.00000000000E+00  0.45593999997E+02  0.45594000000E+02  0.51100000000E-03 0.  1.
         11   -1    0    0    0    0 -0.00000000000E+00 -0.00000000000E+00 -0.45593999997E+02  0.45594000000E+02  0.51100000000E-03 0. -1.
    9900012    2    1    2    0    0  0.16197149917E+01  0.35799384188E+02  0.27292747651E+02  0.46142318084E+02  0.10000002946E+02 0.  0.
         12    1    1    2    0    0 -0.16197149917E+01 -0.35799384188E+02 -0.27292747651E+02  0.45045681916E+02  0.00000000000E+00 0. -1.
         11    1    3    3    0    0 -0.36536189444E+01  0.16075057086E+02  0.14222634800E+02  0.21772453528E+02  0.51100000000E-03 0. -1.
        -11    1    3    3    0    0  0.16445916233E+01  0.10957465384E+02  0.70792367482E+01  0.13148624355E+02  0.51100000000E-03 0.  1.
         12    1    3    3    0    0  0.36287423127E+01  0.87668617182E+01  0.59908761035E+01  0.11221240201E+02  0.00000000000E+00 0. -1.
</event>
<event>
 7    1  0.3046295E-009  0.4614232E+02  0.7816164E-02  0.1320468E+00
        -11   -1    0    0    0    0  0.00000000000E+00  0.00000000000E+00  0.45593999997E+02  0.45594000000E+02  0.51100000000E-03 0. -1.
         11   -1    0    0    0    0 -0.00000000000E+00 -0.00000000000E+00 -0.45593999997E+02  0.45594000000E+02  0.51100000000E-03 0.  1.
    9900012    2    1    2    0    0  0.43572484157E+02 -0.45077532024E+00 -0.11417045723E+02  0.46142317554E+02  0.99999981115E+01 0.  0.
         12    1    1    2    0    0 -0.43572484157E+02  0.45077532024E+00  0.11417045723E+02  0.45045682446E+02  0.00000000000E+00 0. -1.
         11    1    3    3    0    0  0.71840964608E+01  0.12143778302E+01 -0.38735412136E+01  0.82516832990E+01  0.51100000000E-03 0. -1.
        -11    1    3    3    0    0  0.15357605686E+02  0.27185497078E+01 -0.41735288980E+01  0.16145120274E+02  0.51100000000E-03 0.  1.
         12    1    3    3    0    0  0.21030782010E+02 -0.43837028582E+01 -0.33699756115E+01  0.21745513981E+02  0.00000000000E+00 0. -1.
</event>
<event>
 7    1  0.3046295E-009  0.4614232E+02  0.7816164E-02  0.1320468E+00
        -11   -1    0    0    0    0  0.00000000000E+00  0.00000000000E+00  0.45593999997E+02  0.45594000000E+02  0.51100000000E-03 0.  1.
         11   -1    0    0    0    0 -0.00000000000E+00 -0.00000000000E+00 -0.45593999997E+02  0.45594000000E+02  0.51100000000E-03 0. -1.
    9900012    2    1    2    0    0 -0.43854051947E+02 -0.10044425905E+02  0.22461393676E+01  0.46142317565E+02  0.99999982131E+01 0.  0.
         12    1    1    2    0    0  0.43854051947E+02  0.10044425905E+02 -0.22461393676E+01  0.45045682435E+02  0.00000000000E+00 0. -1.
         11    1    3    3    0    0 -0.15635511212E+02 -0.57030135542E+01  0.17111850492E+01  0.16730861574E+02  0.51100000000E-03 0. -1.
        -11    1    3    3    0    0 -0.19798718157E+00 -0.10679427129E+01  0.51097215865E+00  0.12003305253E+01  0.51100000000E-03 0.  1.
        -12    1    3    3    0    0 -0.28020553553E+02 -0.32734696383E+01  0.23982159743E-01  0.28211125466E+02  0.00000000000E+00 0.  1.
</event>
<event>
 7    1  0.3046295E-009  0.4614232E+02  0.7816164E-02  0.1320468E+00
        -11   -1    0    0    0    0  0.00000000000E+00  0.00000000000E+00  0.45593999997E+02  0.45594000000E+02  0.51100000000E-03 0. -1.
         11   -1    0    0    0    0 -0.00000000000E+00 -0.00000000000E+00 -0.45593999997E+02  0.45594000000E+02  0.51100000000E-03 0.  1.
    9900012    2    1    2    0    0 -0.24523525264E+02 -0.25770156706E+02 -0.27633480179E+02  0.46142317690E+02  0.99999993471E+01 0.  0.
         12    1    1    2    0    0  0.24523525264E+02  0.25770156706E+02  0.27633480179E+02  0.45045682310E+02  0.00000000000E+00 0. -1.
         11    1    3    3    0    0 -0.15075506496E+02 -0.14011855864E+02 -0.15632993823E+02  0.25845570162E+02  0.51100000000E-03 0. -1.
        -11    1    3    3    0    0 -0.44760583893E+01 -0.25278228303E+01 -0.12710844838E+01  0.52953416313E+01  0.51100000000E-03 0.  1.
         12    1    3    3    0    0 -0.49719603781E+01 -0.92304780114E+01 -0.10729401872E+02  0.15001405896E+02  0.00000000000E+00 0. -1.
</event>
<event>
 7    1  0.3046295E-009  0.4614232E+02  0.7816164E-02  0.1320468E+00
        -11   -1    0    0    0    0  0.00000000000E+00  0.00000000000E+00  0.45593999997E+02  0.45594000000E+02  0.51100000000E-03 0.  1.
         11   -1    0    0    0    0 -0.00000000000E+00 -0.00000000000E+00 -0.45593999997E+02  0.45594000000E+02  0.51100000000E-03 0. -1.
    9900012    2    1    2    0    0  0.34983916849E+02  0.20856733569E+01  0.28299983718E+02  0.46142317078E+02  0.99999937716E+01 0.  0.
         12    1    1    2    0    0 -0.34983916849E+02 -0.20856733569E+01 -0.28299983718E+02  0.45045682922E+02  0.00000000000E+00 0. -1.
         11    1    3    3    0    0  0.84014457026E+01  0.34818971454E+01  0.59391415431E+01  0.10861919727E+02  0.51100000000E-03 0. -1.
        -11    1    3    3    0    0  0.83718060927E+01  0.12505939073E+01  0.10051780303E+02  0.13141134270E+02  0.51100000000E-03 0.  1.
         12    1    3    3    0    0  0.18210665054E+02 -0.26468176959E+01  0.12309061872E+02  0.22139263081E+02  0.00000000000E+00 0. -1.
</event>
<event>
 7    1  0.3046295E-009  0.4614232E+02  0.7816164E-02  0.1320468E+00
        -11   -1    0    0    0    0  0.00000000000E+00  0.00000000000E+00  0.45593999997E+02  0.45594000000E+02  0.51100000000E-03 0.  1.
         11   -1    0    0    0    0 -0.00000000000E+00 -0.00000000000E+00 -0.45593999997E+02  0.45594000000E+02  0.51100000000E-03 0. -1.
    9900012    2    1    2    0    0  0.32845145749E+02 -0.27594936127E+02  0.13741516719E+02  0.46142318954E+02  0.10000010877E+02 0.  0.
         12    1    1    2    0    0 -0.32845145749E+02  0.27594936127E+02 -0.13741516719E+02  0.45045681046E+02  0.00000000000E+00 0. -1.
         11    1    3    3    0    0  0.42839719431E+01 -0.82147736219E+01  0.43941677382E+01  0.10253956877E+02  0.51100000000E-03 0. -1.
        -11    1    3    3    0    0  0.15901713956E+02 -0.11616662838E+02  0.67161505393E+01  0.20806682594E+02  0.51100000000E-03 0.  1.
         12    1    3    3    0    0  0.12659459850E+02 -0.77634996676E+01  0.26311984416E+01  0.15081679483E+02  0.00000000000E+00 0. -1.
</event>
<event>
 7    1  0.3046295E-009  0.4614232E+02  0.7816164E-02  0.1320468E+00
        -11   -1    0    0    0    0  0.00000000000E+00  0.00000000000E+00  0.45593999997E+02  0.45594000000E+02  0.51100000000E-03 0.  1.
         11   -1    0    0    0    0 -0.00000000000E+00 -0.00000000000E+00 -0.45593999997E+02  0.45594000000E+02  0.51100000000E-03 0. -1.
    9900012    2    1    2    0    0 -0.20704486258E+02  0.30879289485E+02  0.25434371230E+02  0.46142317519E+02  0.99999977929E+01 0.  0.
         12    1    1    2    0    0  0.20704486258E+02 -0.30879289485E+02 -0.25434371230E+02  0.45045682481E+02  0.00000000000E+00 0. -1.
         11    1    3    3    0    0  0.80371833141E+00  0.56142086934E+00  0.61258473930E+00  0.11560349790E+01  0.51100000000E-03 0. -1.
        -11    1    3    3    0    0 -0.19527677947E+02  0.27638574148E+02  0.20637264877E+02  0.39637326963E+02  0.51100000000E-03 0.  1.
         12    1    3    3    0    0 -0.19805266423E+01  0.26792944677E+01  0.41845216136E+01  0.53489555766E+01  0.00000000000E+00 0. -1.
</event>
<event>
 7    1  0.3046295E-009  0.4614232E+02  0.7816164E-02  0.1320468E+00
        -11   -1    0    0    0    0  0.00000000000E+00  0.00000000000E+00  0.45593999997E+02  0.45594000000E+02  0.51100000000E-03 0.  1.
         11   -1    0    0    0    0 -0.00000000000E+00 -0.00000000000E+00 -0.45593999997E+02  0.45594000000E+02  0.51100000000E-03 0. -1.
    9900012    2    1    2    0    0  0.66474587222E+01  0.44463206129E+02 -0.28192297302E+01  0.46142318043E+02  0.10000002571E+02 0.  0.
         12    1    1    2    0    0 -0.66474587222E+01 -0.44463206129E+02  0.28192297302E+01  0.45045681957E+02  0.00000000000E+00 0. -1.
         11    1    3    3    0    0 -0.44963687678E+00  0.19851923034E+02 -0.23498260207E+01  0.19995567110E+02  0.51100000000E-03 0. -1.
        -11    1    3    3    0    0  0.25668437527E+01  0.58714435011E+01 -0.22346225025E+01  0.67864625268E+01  0.51100000000E-03 0.  1.
        -12    1    3    3    0    0  0.45302518463E+01  0.18739839593E+02  0.17652187929E+01  0.19360288406E+02  0.00000000000E+00 0.  1.
</event>
<event>
 7    1  0.3046295E-009  0.4614232E+02  0.7816164E-02  0.1320468E+00
        -11   -1    0    0    0    0  0.00000000000E+00  0.00000000000E+00  0.45593999997E+02  0.45594000000E+02  0.51100000000E-03 0.  1.
         11   -1    0    0    0    0 -0.00000000000E+00 -0.00000000000E+00 -0.45593999997E+02  0.45594000000E+02  0.51100000000E-03 0. -1.
    9900012    2    1    2    0    0 -0.69645422198E+01 -0.44205477910E+01  0.44283939625E+02  0.46142318745E+02  0.10000008968E+02 0.  0.
         12    1    1    2    0    0  0.69645422198E+01  0.44205477910E+01 -0.44283939625E+02  0.45045681255E+02  0.00000000000E+00 0. -1.
         11    1    3    3    0    0  0.63614038625E+00 -0.11154960125E+01  0.75696940113E+01  0.76778430324E+01  0.51100000000E-03 0. -1.
        -11    1    3    3    0    0 -0.54322952154E+00 -0.91421712630E+00  0.21472212205E+02  0.21498529915E+02  0.51100000000E-03 0.  1.
        -12    1    3    3    0    0 -0.70574530845E+01 -0.23908346523E+01  0.15242033408E+02  0.16965945797E+02  0.00000000000E+00 0.  1.
</event>
<event>
 7    1  0.3046295E-009  0.4614232E+02  0.7816164E-02  0.1320468E+00
        -11   -1    0    0    0    0  0.00000000000E+00  0.00000000000E+00  0.45593999997E+02  0.45594000000E+02  0.51100000000E-03 0.  1.
         11   -1    0    0    0    0 -0.00000000000E+00 -0.00000000000E+00 -0.45593999997E+02  0.45594000000E+02  0.51100000000E-03 0. -1.
    9900012    2    1    2    0    0 -0.14922891707E+02  0.40414102498E+02  0.13157547114E+02  0.46142318479E+02  0.10000006551E+02 0.  0.
         12    1    1    2    0    0  0.14922891707E+02 -0.40414102498E+02 -0.13157547114E+02  0.45045681521E+02  0.00000000000E+00 0. -1.
         11    1    3    3    0    0 -0.10170680855E+01  0.28627262482E+01  0.39286885892E+01  0.49663088259E+01  0.51100000000E-03 0. -1.
        -11    1    3    3    0    0 -0.96209202491E+01  0.22447763351E+02  0.52652250434E+01  0.24983730324E+02  0.51100000000E-03 0.  1.
         12    1    3    3    0    0 -0.42849033729E+01  0.15103612899E+02  0.39636334810E+01  0.16192279329E+02  0.00000000000E+00 0. -1.
</event>
<event>
 7    1  0.3046295E-009  0.4614232E+02  0.7816164E-02  0.1320468E+00
        -11   -1    0    0    0    0  0.00000000000E+00  0.00000000000E+00  0.45593999997E+02  0.45594000000E+02  0.51100000000E-03 0.  1.
         11   -1    0    0    0    0 -0.00000000000E+00 -0.00000000000E+00 -0.45593999997E+02  0.45594000000E+02  0.51100000000E-03 0. -1.
    9900012    2    1    2    0    0  0.30924252151E+02 -0.10868618662E+02  0.30897851971E+02  0.46142317641E+02  0.99999989073E+01 0.  0.
         12    1    1    2    0    0 -0.30924252151E+02  0.10868618662E+02 -0.30897851971E+02  0.45045682359E+02  0.00000000000E+00 0. -1.
         11    1    3    3    0    0  0.34750797035E+01  0.62966577157E+00  0.66858484388E+01  0.75612980061E+01  0.51100000000E-03 0. -1.
        -11    1    3    3    0    0  0.18582208354E+02 -0.58885806980E+01  0.16814628875E+02  0.25743068862E+02  0.51100000000E-03 0.  1.
         12    1    3    3    0    0  0.88669640935E+01 -0.56097037361E+01  0.73973746571E+01  0.12837950773E+02  0.00000000000E+00 0. -1.
</event>
<event>
 7    1  0.3046295E-009  0.4614232E+02  0.7816164E-02  0.1320468E+00
        -11   -1    0    0    0    0  0.00000000000E+00  0.00000000000E+00  0.45593999997E+02  0.45594000000E+02  0.51100000000E-03 0.  1.
         11   -1    0    0    0    0 -0.00000000000E+00 -0.00000000000E+00 -0.45593999997E+02  0.45594000000E+02  0.51100000000E-03 0. -1.
    9900012    2    1    2    0    0 -0.15169395002E+02  0.32487044008E+02  0.27268935535E+02  0.46142318538E+02  0.10000007086E+02 0.  0.
         12    1    1    2    0    0  0.15169395002E+02 -0.32487044008E+02 -0.27268935535E+02  0.45045681462E+02  0.00000000000E+00 0. -1.
         11    1    3    3    0    0 -0.12896455144E+01  0.81193832370E+01  0.22672440035E+01  0.85280692618E+01  0.51100000000E-03 0. -1.
        -11    1    3    3    0    0 -0.76942417491E+01  0.12933658405E+02  0.12256307596E+02  0.19408708148E+02  0.51100000000E-03 0.  1.
         12    1    3    3    0    0 -0.61855077382E+01  0.11434002366E+02  0.12745383936E+02  0.18205541128E+02  0.00000000000E+00 0. -1.
</event>
<event>
 7    1  0.3046295E-009  0.4614232E+02  0.7816164E-02  0.1320468E+00
        -11   -1    0    0    0    0  0.00000000000E+00  0.00000000000E+00  0.45593999997E+02  0.45594000000E+02  0.51100000000E-03 0.  1.
         11   -1    0    0    0    0 -0.00000000000E+00 -0.00000000000E+00 -0.45593999997E+02  0.45594000000E+02  0.51100000000E-03 0. -1.
    9900012    2    1    2    0    0 -0.22035951141E+02 -0.28516188444E+02  0.27025122403E+02  0.46142318887E+02  0.10000010265E+02 0.  0.
         12    1    1    2    0    0  0.22035951141E+02  0.28516188444E+02 -0.27025122403E+02  0.45045681113E+02  0.00000000000E+00 0. -1.
         11    1    3    3    0    0 -0.88880077262E+01 -0.16942644539E+02  0.16321474589E+02  0.25148368105E+02  0.51100000000E-03 0.  1.
        -11    1    3    3    0    0 -0.58382586210E+00  0.18197572943E+00  0.11774311451E+01  0.13267675629E+01  0.51100000000E-03 0. -1.
         12    1    3    3    0    0 -0.12564117553E+02 -0.11755519634E+02  0.95262166689E+01  0.19667183219E+02  0.00000000000E+00 0. -1.
</event>
<event>
 7    1  0.3046295E-009  0.4614232E+02  0.7816164E-02  0.1320468E+00
        -11   -1    0    0    0    0  0.00000000000E+00  0.00000000000E+00  0.45593999997E+02  0.45594000000E+02  0.51100000000E-03 0.  1.
         11   -1    0    0    0    0 -0.00000000000E+00 -0.00000000000E+00 -0.45593999997E+02  0.45594000000E+02  0.51100000000E-03 0. -1.
    9900012    2    1    2    0    0  0.13743805630E+02  0.33612706180E+02  0.26653465313E+02  0.46142318485E+02  0.10000006603E+02 0.  0.
         12    1    1    2    0    0 -0.13743805630E+02 -0.33612706180E+02 -0.26653465313E+02  0.45045681515E+02  0.00000000000E+00 0. -1.
         11    1    3    3    0    0  0.99568999466E+00  0.91427371842E+01  0.31540953343E+01  0.97226210161E+01  0.51100000000E-03 0. -1.
        -11    1    3    3    0    0  0.11446213232E+02  0.18833803532E+02  0.18665436033E+02  0.28881247469E+02  0.51100000000E-03 0.  1.
        -12    1    3    3    0    0  0.13019024032E+01  0.56361654640E+01  0.48339339456E+01  0.75384499996E+01  0.00000000000E+00 0.  1.
</event>
<event>
 7    1  0.3046295E-009  0.4614232E+02  0.7816164E-02  0.1320468E+00
        -11   -1    0    0    0    0  0.00000000000E+00  0.00000000000E+00  0.45593999997E+02  0.45594000000E+02  0.51100000000E-03 0.  1.
         11   -1    0    0    0    0 -0.00000000000E+00 -0.00000000000E+00 -0.45593999997E+02  0.45594000000E+02  0.51100000000E-03 0. -1.
    9900012    2    1    2    0    0 -0.18502917605E+02 -0.28125524474E+02  0.29928415822E+02  0.46142321401E+02  0.10000033190E+02 0.  0.
         12    1    1    2    0    0  0.18502917605E+02  0.28125524474E+02 -0.29928415822E+02  0.45045678599E+02  0.00000000000E+00 0. -1.
         11    1    3    3    0    0 -0.14064736398E+01 -0.26612264922E+00  0.27832912770E+01  0.31298082940E+01  0.51100000000E-03 0. -1.
        -11    1    3    3    0    0 -0.17573170444E+02 -0.27137223310E+02  0.25587410371E+02  0.41230580619E+02  0.51100000000E-03 0.  1.
        -12    1    3    3    0    0  0.47672647869E+00 -0.72217851512E+00  0.15577141741E+01  0.17819324879E+01  0.00000000000E+00 0.  1.
</event>
<event>
 7    1  0.3046295E-009  0.4614232E+02  0.7816164E-02  0.1320468E+00
        -11   -1    0    0    0    0  0.00000000000E+00  0.00000000000E+00  0.45593999997E+02  0.45594000000E+02  0.51100000000E-03 0.  1.
         11   -1    0    0    0    0 -0.00000000000E+00 -0.00000000000E+00 -0.45593999997E+02  0.45594000000E+02  0.51100000000E-03 0. -1.
    9900012    2    1    2    0    0  0.70197793907E+00  0.62428841727E+01  0.44605460085E+02  0.46142318240E+02  0.10000004365E+02 0.  0.
         12    1    1    2    0    0 -0.70197793907E+00 -0.62428841727E+01 -0.44605460085E+02  0.45045681760E+02  0.00000000000E+00 0. -1.
         11    1    3    3    0    0  0.23810822253E+01  0.13018077393E+01  0.85044280432E+01  0.89269005012E+01  0.51100000000E-03 0. -1.
        -11    1    3    3    0    0  0.89892048215E+00  0.58097915625E+01  0.18680254315E+02  0.19583504221E+02  0.51100000000E-03 0.  1.
        -12    1    3    3    0    0 -0.25780247684E+01 -0.86871512919E+00  0.17420777727E+02  0.17631913518E+02  0.00000000000E+00 0.  1.
</event>
<event>
 7    1  0.3046295E-009  0.4614232E+02  0.7816164E-02  0.1320468E+00
        -11   -1    0    0    0    0  0.00000000000E+00  0.00000000000E+00  0.45593999997E+02  0.45594000000E+02  0.51100000000E-03 0.  1.
         11   -1    0    0    0    0 -0.00000000000E+00 -0.00000000000E+00 -0.45593999997E+02  0.45594000000E+02  0.51100000000E-03 0. -1.
    9900012    2    1    2    0    0  0.43854777763E+02 -0.10255319844E+02 -0.83686804144E+00  0.46142318011E+02  0.10000002278E+02 0.  0.
         12    1    1    2    0    0 -0.43854777763E+02  0.10255319844E+02  0.83686804144E+00  0.45045681989E+02  0.00000000000E+00 0. -1.
         11    1    3    3    0    0  0.15355678158E+02 -0.50039810523E+01  0.78465729070E+00  0.16169488718E+02  0.51100000000E-03 0. -1.
        -11    1    3    3    0    0  0.16191834621E+02 -0.46346505110E+01  0.23962161866E+01  0.17011682634E+02  0.51100000000E-03 0.  1.
         12    1    3    3    0    0  0.12307264984E+02 -0.61668828040E+00 -0.40177415187E+01  0.12961146659E+02  0.00000000000E+00 0. -1.
</event>
<event>
 7    1  0.3046295E-009  0.4614232E+02  0.7816164E-02  0.1320468E+00
        -11   -1    0    0    0    0  0.00000000000E+00  0.00000000000E+00  0.45593999997E+02  0.45594000000E+02  0.51100000000E-03 0.  1.
         11   -1    0    0    0    0 -0.00000000000E+00 -0.00000000000E+00 -0.45593999997E+02  0.45594000000E+02  0.51100000000E-03 0. -1.
    9900012    2    1    2    0    0 -0.26914363105E+02  0.10981472421E+02  0.34411301601E+02  0.46142319233E+02  0.10000013419E+02 0.  0.
         12    1    1    2    0    0  0.26914363105E+02 -0.10981472421E+02 -0.34411301601E+02  0.45045680767E+02  0.00000000000E+00 0. -1.
         11    1    3    3    0    0  0.73238036170E-01 -0.93481453269E+00  0.30083599662E+00  0.98475610100E+00  0.51100000000E-03 0. -1.
        -11    1    3    3    0    0 -0.17497572143E+02  0.68615057334E+01  0.22878987080E+02  0.29609007783E+02  0.51100000000E-03 0.  1.
         12    1    3    3    0    0 -0.94900289986E+01  0.50547812206E+01  0.11231478525E+02  0.15548555349E+02  0.00000000000E+00 0. -1.
</event>
<event>
 7    1  0.3046295E-009  0.4614232E+02  0.7816164E-02  0.1320468E+00
        -11   -1    0    0    0    0  0.00000000000E+00  0.00000000000E+00  0.45593999997E+02  0.45594000000E+02  0.51100000000E-03 0. -1.
         11   -1    0    0    0    0 -0.00000000000E+00 -0.00000000000E+00 -0.45593999997E+02  0.45594000000E+02  0.51100000000E-03 0.  1.
    9900012    2    1    2    0    0  0.80102554221E+01 -0.25577068762E+01 -0.44253897408E+02  0.46142317719E+02  0.99999996136E+01 0.  0.
         12    1    1    2    0    0 -0.80102554221E+01  0.25577068762E+01  0.44253897408E+02  0.45045682281E+02  0.00000000000E+00 0. -1.
         11    1    3    3    0    0  0.66520142016E+01 -0.54562029456E+01 -0.24717478095E+02  0.26171992037E+02  0.51100000000E-03 0. -1.
        -11    1    3    3    0    0  0.20887412608E+01  0.17768180362E+01 -0.14619012708E+02  0.14873985854E+02  0.51100000000E-03 0.  1.
         12    1    3    3    0    0 -0.73050004030E+00  0.11216780332E+01 -0.49174066055E+01  0.50963398280E+01  0.00000000000E+00 0. -1.
</event>
<event>
 7    1  0.3046295E-009  0.4614232E+02  0.7816164E-02  0.1320468E+00
        -11   -1    0    0    0    0  0.00000000000E+00  0.00000000000E+00  0.45593999997E+02  0.45594000000E+02  0.51100000000E-03 0.  1.
         11   -1    0    0    0    0 -0.00000000000E+00 -0.00000000000E+00 -0.45593999997E+02  0.45594000000E+02  0.51100000000E-03 0. -1.
    9900012    2    1    2    0    0  0.40805195684E+02  0.18928064058E+02  0.24037346049E+01  0.46142317145E+02  0.99999943841E+01 0.  0.
         12    1    1    2    0    0 -0.40805195684E+02 -0.18928064058E+02 -0.24037346049E+01  0.45045682855E+02  0.00000000000E+00 0. -1.
         11    1    3    3    0    0  0.55294897483E+01  0.47191874719E+01 -0.48149003906E-01  0.72696840275E+01  0.51100000000E-03 0. -1.
        -11    1    3    3    0    0  0.11808922951E+02  0.67478607534E+01  0.40654919830E+01  0.14195510253E+02  0.51100000000E-03 0.  1.
        -12    1    3    3    0    0  0.23466782985E+02  0.74610158326E+01 -0.16136083743E+01  0.24677122865E+02  0.00000000000E+00 0.  1.
</event>
<event>
 7    1  0.3046295E-009  0.4614232E+02  0.7816164E-02  0.1320468E+00
        -11   -1    0    0    0    0  0.00000000000E+00  0.00000000000E+00  0.45593999997E+02  0.45594000000E+02  0.51100000000E-03 0.  1.
         11   -1    0    0    0    0 -0.00000000000E+00 -0.00000000000E+00 -0.45593999997E+02  0.45594000000E+02  0.51100000000E-03 0. -1.
    9900012    2    1    2    0    0 -0.17239051345E+02 -0.35211523259E+02  0.22182815330E+02  0.46142316995E+02  0.99999930115E+01 0.  0.
         12    1    1    2    0    0  0.17239051345E+02  0.35211523259E+02 -0.22182815330E+02  0.45045683005E+02  0.00000000000E+00 0. -1.
         11    1    3    3    0    0 -0.11586046410E+02 -0.18254676160E+02  0.16681110757E+02  0.27308041480E+02  0.51100000000E-03 0. -1.
        -11    1    3    3    0    0 -0.19995656954E+01 -0.92847557694E+01  0.33191282860E+01  0.10060892878E+02  0.51100000000E-03 0.  1.
         12    1    3    3    0    0 -0.36534392392E+01 -0.76720913295E+01  0.21825762867E+01  0.87733826367E+01  0.00000000000E+00 0. -1.
</event>
<event>
 7    1  0.3046295E-009  0.4614232E+02  0.7816164E-02  0.1320468E+00
        -11   -1    0    0    0    0  0.00000000000E+00  0.00000000000E+00  0.45593999997E+02  0.45594000000E+02  0.51100000000E-03 0.  1.
         11   -1    0    0    0    0 -0.00000000000E+00 -0.00000000000E+00 -0.45593999997E+02  0.45594000000E+02  0.51100000000E-03 0. -1.
    9900012    2    1    2    0    0  0.92645099765E+01 -0.11065518748E+02  0.42671262874E+02  0.46142317348E+02  0.99999962367E+01 0.  0.
         12    1    1    2    0    0 -0.92645099765E+01  0.11065518748E+02 -0.42671262874E+02  0.45045682652E+02  0.00000000000E+00 0. -1.
         11    1    3    3    0    0  0.39193691920E+01 -0.16529769577E-01  0.44475045506E+01  0.59280709413E+01  0.51100000000E-03 0. -1.
        -11    1    3    3    0    0  0.19506598811E+01 -0.28531253866E+01  0.13902468548E+02  0.14325642409E+02  0.51100000000E-03 0.  1.
         12    1    3    3    0    0  0.33944809034E+01 -0.81958635914E+01  0.24321289776E+02  0.25888603998E+02  0.00000000000E+00 0. -1.
</event>
<event>
 7    1  0.3046295E-009  0.4614232E+02  0.7816164E-02  0.1320468E+00
        -11   -1    0    0    0    0  0.00000000000E+00  0.00000000000E+00  0.45593999997E+02  0.45594000000E+02  0.51100000000E-03 0.  1.
         11   -1    0    0    0    0 -0.00000000000E+00 -0.00000000000E+00 -0.45593999997E+02  0.45594000000E+02  0.51100000000E-03 0. -1.
    9900012    2    1    2    0    0  0.15305303324E+02 -0.39809273384E+02  0.14494235900E+02  0.46142318392E+02  0.10000005753E+02 0.  0.
         12    1    1    2    0    0 -0.15305303324E+02  0.39809273384E+02 -0.14494235900E+02  0.45045681608E+02  0.00000000000E+00 0. -1.
         11    1    3    3    0    0  0.32726665676E-01 -0.30831468919E+01 -0.10006392568E+01  0.32416269025E+01  0.51100000000E-03 0. -1.
        -11    1    3    3    0    0  0.10328401792E+02 -0.19298985848E+02  0.83391583886E+01  0.23423669679E+02  0.51100000000E-03 0.  1.
        -12    1    3    3    0    0  0.49441748665E+01 -0.17427140644E+02  0.71557167679E+01  0.19477021810E+02  0.00000000000E+00 0.  1.
</event>
<event>
 7    1  0.3046295E-009  0.4614232E+02  0.7816164E-02  0.1320468E+00
        -11   -1    0    0    0    0  0.00000000000E+00  0.00000000000E+00  0.45593999997E+02  0.45594000000E+02  0.51100000000E-03 0.  1.
         11   -1    0    0    0    0 -0.00000000000E+00 -0.00000000000E+00 -0.45593999997E+02  0.45594000000E+02  0.51100000000E-03 0. -1.
    9900012    2    1    2    0    0  0.13397442854E+02  0.85324685518E+01  0.42152332161E+02  0.46142316508E+02  0.99999885731E+01 0.  0.
         12    1    1    2    0    0 -0.13397442854E+02 -0.85324685518E+01 -0.42152332161E+02  0.45045683492E+02  0.00000000000E+00 0. -1.
         11    1    3    3    0    0  0.23366134597E+01 -0.73403932853E+00  0.41498223802E+01  0.48186722491E+01  0.51100000000E-03 0. -1.
        -11    1    3    3    0    0  0.66742381071E+01  0.83549470152E+00  0.15975594980E+02  0.17333872647E+02  0.51100000000E-03 0.  1.
         12    1    3    3    0    0  0.43865912871E+01  0.84310131789E+01  0.22026914801E+02  0.23989771612E+02  0.00000000000E+00 0. -1.
</event>
<event>
 7    1  0.3046295E-009  0.4614232E+02  0.7816164E-02  0.1320468E+00
        -11   -1    0    0    0    0  0.00000000000E+00  0.00000000000E+00  0.45593999997E+02  0.45594000000E+02  0.51100000000E-03 0.  1.
         11   -1    0    0    0    0 -0.00000000000E+00 -0.00000000000E+00 -0.45593999997E+02  0.45594000000E+02  0.51100000000E-03 0. -1.
    9900012    2    1    2    0    0  0.95218731526E+01  0.20542627336E+02  0.38941595887E+02  0.46142317671E+02  0.99999991823E+01 0.  0.
         12    1    1    2    0    0 -0.95218731526E+01 -0.20542627336E+02 -0.38941595887E+02  0.45045682329E+02  0.00000000000E+00 0. -1.
         11    1    3    3    0    0 -0.60055962952E+00  0.40738824765E+01  0.63828166574E+01  0.75958896150E+01  0.51100000000E-03 0. -1.
        -11    1    3    3    0    0  0.47636477384E+01  0.20723291696E+01  0.97403758548E+01  0.11039103678E+02  0.51100000000E-03 0.  1.
        -12    1    3    3    0    0  0.53587850437E+01  0.14396415690E+02  0.22818403375E+02  0.27507324378E+02  0.00000000000E+00 0.  1.
</event>
<event>
 7    1  0.3046295E-009  0.4614232E+02  0.7816164E-02  0.1320468E+00
        -11   -1    0    0    0    0  0.00000000000E+00  0.00000000000E+00  0.45593999997E+02  0.45594000000E+02  0.51100000000E-03 0.  1.
         11   -1    0    0    0    0 -0.00000000000E+00 -0.00000000000E+00 -0.45593999997E+02  0.45594000000E+02  0.51100000000E-03 0. -1.
    9900012    2    1    2    0    0  0.31889520970E+02 -0.52383940952E+01  0.31380418701E+02  0.46142323202E+02  0.10000049611E+02 0.  0.
         12    1    1    2    0    0 -0.31889520970E+02  0.52383940952E+01 -0.31380418701E+02  0.45045676798E+02  0.00000000000E+00 0. -1.
         11    1    3    3    0    0  0.24257383504E+02 -0.33929134600E+01  0.24708073792E+02  0.34791111321E+02  0.51100000000E-03 0.  1.
        -11    1    3    3    0    0  0.37390087963E+00  0.81268117217E+00 -0.29797393583E+00  0.94288985727E+00  0.51100000000E-03 0. -1.
         12    1    3    3    0    0  0.72582365865E+01 -0.26581618074E+01  0.69703188452E+01  0.10408322023E+02  0.00000000000E+00 0. -1.
</event>
<event>
 7    1  0.3046295E-009  0.4614232E+02  0.7816164E-02  0.1320468E+00
        -11   -1    0    0    0    0  0.00000000000E+00  0.00000000000E+00  0.45593999997E+02  0.45594000000E+02  0.51100000000E-03 0.  1.
         11   -1    0    0    0    0 -0.00000000000E+00 -0.00000000000E+00 -0.45593999997E+02  0.45594000000E+02  0.51100000000E-03 0. -1.
    9900012    2    1    2    0    0  0.27438379290E+02  0.17099608743E+02  0.31366419396E+02  0.46142317155E+02  0.99999944717E+01 0.  0.
         12    1    1    2    0    0 -0.27438379290E+02 -0.17099608743E+02 -0.31366419396E+02  0.45045682845E+02  0.00000000000E+00 0. -1.
         11    1    3    3    0    0  0.13877813829E+01  0.22167306164E+01  0.26397665364E+00  0.26285957710E+01  0.51100000000E-03 0. -1.
        -11    1    3    3    0    0  0.17760142614E+02  0.12611993218E+02  0.21120705444E+02  0.30340883925E+02  0.51100000000E-03 0.  1.
         12    1    3    3    0    0  0.82904552931E+01  0.22708849093E+01  0.99817372984E+01  0.13172837459E+02  0.00000000000E+00 0. -1.
</event>
<event>
 7    1  0.3046295E-009  0.4614232E+02  0.7816164E-02  0.1320468E+00
        -11   -1    0    0    0    0  0.00000000000E+00  0.00000000000E+00  0.45593999997E+02  0.45594000000E+02  0.51100000000E-03 0.  1.
         11   -1    0    0    0    0 -0.00000000000E+00 -0.00000000000E+00 -0.45593999997E+02  0.45594000000E+02  0.51100000000E-03 0. -1.
    9900012    2    1    2    0    0 -0.32984107240E+02 -0.21619809290E+02  0.21765707516E+02  0.46142317546E+02  0.99999980340E+01 0.  0.
         12    1    1    2    0    0  0.32984107240E+02  0.21619809290E+02 -0.21765707516E+02  0.45045682454E+02  0.00000000000E+00 0. -1.
         11    1    3    3    0    0 -0.13065933158E+02 -0.68659855543E+01  0.58861698627E+01  0.15890480258E+02  0.51100000000E-03 0. -1.
        -11    1    3    3    0    0 -0.92088389950E+01 -0.29899839863E+01  0.76579666529E+01  0.12344519974E+02  0.51100000000E-03 0.  1.
        -12    1    3    3    0    0 -0.10709335086E+02 -0.11763839749E+02  0.82215710006E+01  0.17907317313E+02  0.00000000000E+00 0.  1.
</event>
<event>
 7    1  0.3605518E-009  0.4614232E+02  0.7816164E-02  0.1320468E+00
        -11   -1    0    0    0    0  0.00000000000E+00  0.00000000000E+00  0.45593999997E+02  0.45594000000E+02  0.51100000000E-03 0.  1.
         11   -1    0    0    0    0 -0.00000000000E+00 -0.00000000000E+00 -0.45593999997E+02  0.45594000000E+02  0.51100000000E-03 0. -1.
    9900012    2    1    2    0    0 -0.31209949591E+02 -0.32367397353E+02  0.27210519882E+01  0.46142317756E+02  0.99999999555E+01 0.  0.
         12    1    1    2    0    0  0.31209949591E+02  0.32367397353E+02 -0.27210519882E+01  0.45045682244E+02  0.00000000000E+00 0. -1.
         11    1    3    3    0    0 -0.10304738878E+02 -0.62538007604E+01 -0.59902159806E-01  0.12054097056E+02  0.51100000000E-03 0. -1.
        -11    1    3    3    0    0 -0.12330361308E+02 -0.18988883633E+02  0.18646229899E+00  0.22641781733E+02  0.51100000000E-03 0.  1.
        -12    1    3    3    0    0 -0.85748494053E+01 -0.71247129593E+01  0.25944918490E+01  0.11446438967E+02  0.00000000000E+00 0.  1.
</event>
<event>
 7    1  0.3046295E-009  0.4614232E+02  0.7816164E-02  0.1320468E+00
        -11   -1    0    0    0    0  0.00000000000E+00  0.00000000000E+00  0.45593999997E+02  0.45594000000E+02  0.51100000000E-03 0.  1.
         11   -1    0    0    0    0 -0.00000000000E+00 -0.00000000000E+00 -0.45593999997E+02  0.45594000000E+02  0.51100000000E-03 0. -1.
    9900012    2    1    2    0    0  0.87663749087E+01 -0.39530299041E+02 -0.19738785587E+02  0.46142317324E+02  0.99999960140E+01 0.  0.
         12    1    1    2    0    0 -0.87663749087E+01  0.39530299041E+02  0.19738785587E+02  0.45045682676E+02  0.00000000000E+00 0. -1.
         11    1    3    3    0    0  0.22451495651E+01 -0.41321220380E+01 -0.43089043089E+01  0.63782274741E+01  0.51100000000E-03 0. -1.
        -11    1    3    3    0    0  0.21947530412E+01 -0.17625030469E+02 -0.11172807272E+02  0.20983094685E+02  0.51100000000E-03 0.  1.
        -12    1    3    3    0    0  0.43264723024E+01 -0.17773146534E+02 -0.42570740051E+01  0.18780995165E+02  0.00000000000E+00 0.  1.
</event>
<event>
 7    1  0.3046295E-009  0.4614232E+02  0.7816164E-02  0.1320468E+00
        -11   -1    0    0    0    0  0.00000000000E+00  0.00000000000E+00  0.45593999997E+02  0.45594000000E+02  0.51100000000E-03 0.  1.
         11   -1    0    0    0    0 -0.00000000000E+00 -0.00000000000E+00 -0.45593999997E+02  0.45594000000E+02  0.51100000000E-03 0. -1.
    9900012    2    1    2    0    0  0.16306208725E+02 -0.25352641581E+02  0.33473341033E+02  0.46142318320E+02  0.10000005098E+02 0.  0.
         12    1    1    2    0    0 -0.16306208725E+02  0.25352641581E+02 -0.33473341033E+02  0.45045681680E+02  0.00000000000E+00 0. -1.
         11    1    3    3    0    0  0.16193102733E+01 -0.13279302361E+00  0.44745561439E+01  0.47604046775E+01  0.51100000000E-03 0. -1.
        -11    1    3    3    0    0  0.42538310037E+01 -0.42383254500E+01  0.47013916139E+01  0.76263729385E+01  0.51100000000E-03 0.  1.
         12    1    3    3    0    0  0.10433067448E+02 -0.20981523107E+02  0.24297393275E+02  0.33755540704E+02  0.00000000000E+00 0. -1.
</event>
<event>
 7    1  0.3046295E-009  0.4614232E+02  0.7816164E-02  0.1320468E+00
        -11   -1    0    0    0    0  0.00000000000E+00  0.00000000000E+00  0.45593999997E+02  0.45594000000E+02  0.51100000000E-03 0.  1.
         11   -1    0    0    0    0 -0.00000000000E+00 -0.00000000000E+00 -0.45593999997E+02  0.45594000000E+02  0.51100000000E-03 0. -1.
    9900012    2    1    2    0    0 -0.16965293217E+01  0.23784993208E+02  0.38216612159E+02  0.46142316982E+02  0.99999928945E+01 0.  0.
         12    1    1    2    0    0  0.16965293217E+01 -0.23784993208E+02 -0.38216612159E+02  0.45045683018E+02  0.00000000000E+00 0. -1.
         11    1    3    3    0    0  0.56916001010E+00  0.42718022593E+01  0.92421188373E+01  0.10197499621E+02  0.51100000000E-03 0. -1.
        -11    1    3    3    0    0  0.92399236551E+00  0.15804057337E+02  0.25224717831E+02  0.29781007037E+02  0.51100000000E-03 0.  1.
        -12    1    3    3    0    0 -0.31896816973E+01  0.37091336117E+01  0.37497754909E+01  0.61638103241E+01  0.00000000000E+00 0.  1.
</event>
<event>
 7    1  0.3046295E-009  0.4614232E+02  0.7816164E-02  0.1320468E+00
        -11   -1    0    0    0    0  0.00000000000E+00  0.00000000000E+00  0.45593999997E+02  0.45594000000E+02  0.51100000000E-03 0.  1.
         11   -1    0    0    0    0 -0.00000000000E+00 -0.00000000000E+00 -0.45593999997E+02  0.45594000000E+02  0.51100000000E-03 0. -1.
    9900012    2    1    2    0    0  0.18549657188E+02  0.17718001894E+02  0.37028314662E+02  0.46142318080E+02  0.10000002908E+02 0.  0.
         12    1    1    2    0    0 -0.18549657188E+02 -0.17718001894E+02 -0.37028314662E+02  0.45045681920E+02  0.00000000000E+00 0. -1.
         11    1    3    3    0    0  0.10185991618E+02  0.37530515870E+01  0.11231358116E+02  0.15619962447E+02  0.51100000000E-03 0. -1.
        -11    1    3    3    0    0  0.82730955684E+01  0.13468363115E+02  0.24904438938E+02  0.29496982801E+02  0.51100000000E-03 0.  1.
         12    1    3    3    0    0  0.90570002210E-01  0.49658719133E+00  0.89251760862E+00  0.10253728325E+01  0.00000000000E+00 0. -1.
</event>
<event>
 7    1  0.3046295E-009  0.4614231E+02  0.7816164E-02  0.1320468E+00
        -11   -1    0    0    0    0  0.00000000000E+00  0.00000000000E+00  0.45593999997E+02  0.45594000000E+02  0.51100000000E-03 0. -1.
         11   -1    0    0    0    0 -0.00000000000E+00 -0.00000000000E+00 -0.45593999997E+02  0.45594000000E+02  0.51100000000E-03 0.  1.
    9900012    2    1    2    0    0  0.37353946995E+02  0.20333741235E+02 -0.14843700429E+02  0.46142313956E+02  0.99999653044E+01 0.  0.
         12    1    1    2    0    0 -0.37353946995E+02 -0.20333741235E+02  0.14843700429E+02  0.45045686044E+02  0.00000000000E+00 0. -1.
         11    1    3    3    0    0  0.91945073962E+01  0.36320882106E+01 -0.58244580842E+01  0.11474116230E+02  0.51100000000E-03 0. -1.
        -11    1    3    3    0    0  0.29658744615E+01  0.32520126388E+01  0.78995739750E+00  0.44716921266E+01  0.51100000000E-03 0.  1.
        -12    1    3    3    0    0  0.25193565137E+02  0.13449640386E+02 -0.98091997427E+01  0.30196505600E+02  0.00000000000E+00 0.  1.
</event>
<event>
 7    1  0.3046295E-009  0.4614232E+02  0.7816164E-02  0.1320468E+00
        -11   -1    0    0    0    0  0.00000000000E+00  0.00000000000E+00  0.45593999997E+02  0.45594000000E+02  0.51100000000E-03 0. -1.
         11   -1    0    0    0    0 -0.00000000000E+00 -0.00000000000E+00 -0.45593999997E+02  0.45594000000E+02  0.51100000000E-03 0.  1.
    9900012    2    1    2    0    0 -0.13501640321E+02  0.31352965426E+02 -0.29390657971E+02  0.46142317539E+02  0.99999979770E+01 0.  0.
         12    1    1    2    0    0  0.13501640321E+02 -0.31352965426E+02  0.29390657971E+02  0.45045682461E+02  0.00000000000E+00 0. -1.
         11    1    3    3    0    0 -0.45256173975E+01  0.11968015614E+02 -0.88579902224E+01  0.15562088600E+02  0.51100000000E-03 0. -1.
        -11    1    3    3    0    0 -0.61753522543E+01  0.17547448917E+02 -0.14151544336E+02  0.23373364035E+02  0.51100000000E-03 0.  1.
         12    1    3    3    0    0 -0.28006706690E+01  0.18375008958E+01 -0.63811234128E+01  0.72068649042E+01  0.00000000000E+00 0. -1.
</event>
<event>
 7    1  0.3046295E-009  0.4614232E+02  0.7816164E-02  0.1320468E+00
        -11   -1    0    0    0    0  0.00000000000E+00  0.00000000000E+00  0.45593999997E+02  0.45594000000E+02  0.51100000000E-03 0. -1.
         11   -1    0    0    0    0 -0.00000000000E+00 -0.00000000000E+00 -0.45593999997E+02  0.45594000000E+02  0.51100000000E-03 0.  1.
    9900012    2    1    2    0    0 -0.20889764303E+01 -0.28437145563E+02 -0.34872317378E+02  0.46142316637E+02  0.99999897532E+01 0.  0.
         12    1    1    2    0    0  0.20889764303E+01  0.28437145563E+02  0.34872317378E+02  0.45045683363E+02  0.00000000000E+00 0. -1.
         11    1    3    3    0    0  0.52569501036E+00 -0.21548265780E+02 -0.19893824420E+02  0.29332036474E+02  0.51100000000E-03 0.  1.
        -11    1    3    3    0    0 -0.15886628637E+01 -0.26608357768E+01 -0.44942305955E+01  0.54591213242E+01  0.51100000000E-03 0. -1.
        -12    1    3    3    0    0 -0.10260085770E+01 -0.42280440058E+01 -0.10484262362E+02  0.11351158839E+02  0.00000000000E+00 0.  1.
</event>
<event>
 7    1  0.3046295E-009  0.4614232E+02  0.7816164E-02  0.1320468E+00
        -11   -1    0    0    0    0  0.00000000000E+00  0.00000000000E+00  0.45593999997E+02  0.45594000000E+02  0.51100000000E-03 0.  1.
         11   -1    0    0    0    0 -0.00000000000E+00 -0.00000000000E+00 -0.45593999997E+02  0.45594000000E+02  0.51100000000E-03 0. -1.
    9900012    2    1    2    0    0 -0.39904554516E+02 -0.20459810009E+02  0.42586559141E+01  0.46142318221E+02  0.10000004197E+02 0.  0.
         12    1    1    2    0    0  0.39904554516E+02  0.20459810009E+02 -0.42586559141E+01  0.45045681779E+02  0.00000000000E+00 0. -1.
         11    1    3    3    0    0 -0.16959024270E+02 -0.49909194010E+01  0.12413119822E+01  0.17721699590E+02  0.51100000000E-03 0. -1.
        -11    1    3    3    0    0 -0.69864695157E+01 -0.74788712075E+01 -0.42900774042E+00  0.10243452481E+02  0.51100000000E-03 0.  1.
         12    1    3    3    0    0 -0.15959060730E+02 -0.79900194003E+01  0.34463516723E+01  0.18177166150E+02  0.00000000000E+00 0. -1.
</event>
<event>
 7    1  0.3046295E-009  0.4614231E+02  0.7816164E-02  0.1320468E+00
        -11   -1    0    0    0    0  0.00000000000E+00  0.00000000000E+00  0.45593999997E+02  0.45594000000E+02  0.51100000000E-03 0.  1.
         11   -1    0    0    0    0 -0.00000000000E+00 -0.00000000000E+00 -0.45593999997E+02  0.45594000000E+02  0.51100000000E-03 0. -1.
    9900012    2    1    2    0    0  0.18095508645E+02  0.30019252197E+02  0.28293313109E+02  0.46142306507E+02  0.99998973770E+01 0.  0.
         12    1    1    2    0    0 -0.18095508645E+02 -0.30019252197E+02 -0.28293313109E+02  0.45045693493E+02  0.00000000000E+00 0. -1.
         11    1    3    3    0    0  0.14386651250E+02  0.23141332063E+02  0.17858816365E+02  0.32579660926E+02  0.51100000000E-03 0. -1.
        -11    1    3    3    0    0  0.41068924758E+01  0.58787874210E+01  0.72334348928E+01  0.10185739441E+02  0.51100000000E-03 0.  1.
         12    1    3    3    0    0 -0.39803508099E+00  0.99913271275E+00  0.32010618515E+01  0.33769061403E+01  0.00000000000E+00 0. -1.
</event>
<event>
 7    1  0.3046295E-009  0.4614232E+02  0.7816164E-02  0.1320468E+00
        -11   -1    0    0    0    0  0.00000000000E+00  0.00000000000E+00  0.45593999997E+02  0.45594000000E+02  0.51100000000E-03 0.  1.
         11   -1    0    0    0    0 -0.00000000000E+00 -0.00000000000E+00 -0.45593999997E+02  0.45594000000E+02  0.51100000000E-03 0. -1.
    9900012    2    1    2    0    0 -0.27026862220E+02  0.29761224357E+02  0.20320721152E+02  0.46142318022E+02  0.10000002382E+02 0.  0.
         12    1    1    2    0    0  0.27026862220E+02 -0.29761224357E+02 -0.20320721152E+02  0.45045681978E+02  0.00000000000E+00 0. -1.
         11    1    3    3    0    0 -0.17604851145E+02  0.20573155769E+02  0.16717174477E+02  0.31822153367E+02  0.51100000000E-03 0. -1.
        -11    1    3    3    0    0 -0.13269243007E+00 -0.30135520553E+00  0.63168170146E+00  0.71235122936E+00  0.51100000000E-03 0.  1.
         12    1    3    3    0    0 -0.92893186452E+01  0.94894237932E+01  0.29718649733E+01  0.13607813426E+02  0.00000000000E+00 0. -1.
</event>
<event>
 7    1  0.3046295E-009  0.4614232E+02  0.7816164E-02  0.1320468E+00
        -11   -1    0    0    0    0  0.00000000000E+00  0.00000000000E+00  0.45593999997E+02  0.45594000000E+02  0.51100000000E-03 0.  1.
         11   -1    0    0    0    0 -0.00000000000E+00 -0.00000000000E+00 -0.45593999997E+02  0.45594000000E+02  0.51100000000E-03 0. -1.
    9900012    2    1    2    0    0  0.24337664552E+02 -0.37774121300E+02 -0.31475943748E+01  0.46142317564E+02  0.99999981998E+01 0.  0.
         12    1    1    2    0    0 -0.24337664552E+02  0.37774121300E+02  0.31475943748E+01  0.45045682436E+02  0.00000000000E+00 0. -1.
         11    1    3    3    0    0  0.27330112746E+01 -0.62326745715E+01 -0.16063133736E+01  0.69925550306E+01  0.51100000000E-03 0. -1.
        -11    1    3    3    0    0  0.19251669083E+02 -0.28611881022E+02  0.11871012806E+01  0.34506169128E+02  0.51100000000E-03 0.  1.
        -12    1    3    3    0    0  0.23529841939E+01 -0.29295657057E+01 -0.27283822818E+01  0.46435934055E+01  0.00000000000E+00 0.  1.
</event>
<event>
 7    1  0.3046295E-009  0.4614232E+02  0.7816164E-02  0.1320468E+00
        -11   -1    0    0    0    0  0.00000000000E+00  0.00000000000E+00  0.45593999997E+02  0.45594000000E+02  0.51100000000E-03 0. -1.
         11   -1    0    0    0    0 -0.00000000000E+00 -0.00000000000E+00 -0.45593999997E+02  0.45594000000E+02  0.51100000000E-03 0.  1.
    9900012    2    1    2    0    0  0.34656043435E+02  0.60533675259E+01 -0.28132345291E+02  0.46142318114E+02  0.10000003218E+02 0.  0.
         12    1    1    2    0    0 -0.34656043435E+02 -0.60533675259E+01  0.28132345291E+02  0.45045681886E+02  0.00000000000E+00 0. -1.
         11    1    3    3    0    0  0.25838347861E+02  0.35134699893E+01 -0.17611307242E+02  0.31466217354E+02  0.51100000000E-03 0. -1.
        -11    1    3    3    0    0  0.86443774984E+01  0.31838638996E+01 -0.10553387309E+02  0.14008434446E+02  0.51100000000E-03 0.  1.
         12    1    3    3    0    0  0.17331807615E+00 -0.64396636301E+00  0.32349260008E-01  0.66766631399E+00  0.00000000000E+00 0. -1.
</event>
<event>
 7    1  0.3046295E-009  0.4614232E+02  0.7816164E-02  0.1320468E+00
        -11   -1    0    0    0    0  0.00000000000E+00  0.00000000000E+00  0.45593999997E+02  0.45594000000E+02  0.51100000000E-03 0.  1.
         11   -1    0    0    0    0 -0.00000000000E+00 -0.00000000000E+00 -0.45593999997E+02  0.45594000000E+02  0.51100000000E-03 0. -1.
    9900012    2    1    2    0    0 -0.12755917865E+02  0.17193885215E+02  0.39632945303E+02  0.46142317824E+02  0.10000000572E+02 0.  0.
         12    1    1    2    0    0  0.12755917865E+02 -0.17193885215E+02 -0.39632945303E+02  0.45045682176E+02  0.00000000000E+00 0. -1.
         11    1    3    3    0    0  0.40257617066E+00  0.91805066082E+00 -0.23450779819E+00  0.10295041319E+01  0.51100000000E-03 0. -1.
        -11    1    3    3    0    0 -0.11514780358E+02  0.13292555300E+02  0.31464441680E+02  0.36045711029E+02  0.51100000000E-03 0.  1.
         12    1    3    3    0    0 -0.16437136770E+01  0.29832792544E+01  0.84030114206E+01  0.90671026627E+01  0.00000000000E+00 0. -1.
</event>
<event>
 7    1  0.3046295E-009  0.4614232E+02  0.7816164E-02  0.1320468E+00
        -11   -1    0    0    0    0  0.00000000000E+00  0.00000000000E+00  0.45593999997E+02  0.45594000000E+02  0.51100000000E-03 0. -1.
         11   -1    0    0    0    0 -0.00000000000E+00 -0.00000000000E+00 -0.45593999997E+02  0.45594000000E+02  0.51100000000E-03 0.  1.
    9900012    2    1    2    0    0  0.13764353705E+02 -0.41037533961E+02 -0.12473040992E+02  0.46142318985E+02  0.10000011158E+02 0.  0.
         12    1    1    2    0    0 -0.13764353705E+02  0.41037533961E+02  0.12473040992E+02  0.45045681015E+02  0.00000000000E+00 0. -1.
         11    1    3    3    0    0  0.12465328271E+02 -0.31429166177E+02 -0.63646294669E+01  0.34404729384E+02  0.51100000000E-03 0. -1.
        -11    1    3    3    0    0  0.11363850095E+01 -0.16044687027E+01 -0.16960813818E+01  0.25966099096E+01  0.51100000000E-03 0.  1.
         12    1    3    3    0    0  0.16264042408E+00 -0.80038990820E+01 -0.44123301436E+01  0.91409796914E+01  0.00000000000E+00 0. -1.
</event>
<event>
 7    1  0.3046295E-009  0.4614231E+02  0.7816164E-02  0.1320468E+00
        -11   -1    0    0    0    0  0.00000000000E+00  0.00000000000E+00  0.45593999997E+02  0.45594000000E+02  0.51100000000E-03 0.  1.
         11   -1    0    0    0    0 -0.00000000000E+00 -0.00000000000E+00 -0.45593999997E+02  0.45594000000E+02  0.51100000000E-03 0. -1.
    9900012    2    1    2    0    0 -0.33544301581E+02  0.12435621698E+02  0.27372422903E+02  0.46142307741E+02  0.99999086252E+01 0.  0.
         12    1    1    2    0    0  0.33544301581E+02 -0.12435621698E+02 -0.27372422903E+02  0.45045692259E+02  0.00000000000E+00 0. -1.
         11    1    3    3    0    0 -0.15834818194E+01  0.22442948532E+01  0.47124957219E+01  0.54545293335E+01  0.51100000000E-03 0. -1.
        -11    1    3    3    0    0 -0.13200963677E+02  0.51225438760E+01  0.11762553371E+02  0.18408247060E+02  0.51100000000E-03 0.  1.
         12    1    3    3    0    0 -0.18759856084E+02  0.50687829685E+01  0.10897373810E+02  0.22279531347E+02  0.00000000000E+00 0. -1.
</event>
<event>
 7    1  0.3046295E-009  0.4614232E+02  0.7816164E-02  0.1320468E+00
        -11   -1    0    0    0    0  0.00000000000E+00  0.00000000000E+00  0.45593999997E+02  0.45594000000E+02  0.51100000000E-03 0. -1.
         11   -1    0    0    0    0 -0.00000000000E+00 -0.00000000000E+00 -0.45593999997E+02  0.45594000000E+02  0.51100000000E-03 0.  1.
    9900012    2    1    2    0    0  0.18561413405E+01 -0.21944930779E-01 -0.45007421483E+02  0.46142315070E+02  0.99999754604E+01 0.  0.
         12    1    1    2    0    0 -0.18561413405E+01  0.21944930779E-01  0.45007421483E+02  0.45045684930E+02  0.00000000000E+00 0. -1.
         11    1    3    3    0    0 -0.20080288579E+01  0.63140776253E+00 -0.75896619998E+01  0.78761554828E+01  0.51100000000E-03 0. -1.
        -11    1    3    3    0    0  0.28286172588E+01 -0.92356704811E+00 -0.36996566154E+02  0.37116033721E+02  0.51100000000E-03 0.  1.
        -12    1    3    3    0    0  0.10355529395E+01  0.27021435480E+00 -0.42119332886E+00  0.11501258663E+01  0.00000000000E+00 0.  1.
</event>
<event>
 7    1  0.3046295E-009  0.4614232E+02  0.7816164E-02  0.1320468E+00
        -11   -1    0    0    0    0  0.00000000000E+00  0.00000000000E+00  0.45593999997E+02  0.45594000000E+02  0.51100000000E-03 0.  1.
         11   -1    0    0    0    0 -0.00000000000E+00 -0.00000000000E+00 -0.45593999997E+02  0.45594000000E+02  0.51100000000E-03 0. -1.
    9900012    2    1    2    0    0 -0.35005747901E+01  0.17064496101E+02  0.41541093633E+02  0.46142317507E+02  0.99999976796E+01 0.  0.
         12    1    1    2    0    0  0.35005747901E+01 -0.17064496101E+02 -0.41541093633E+02  0.45045682493E+02  0.00000000000E+00 0. -1.
         11    1    3    3    0    0 -0.39433392143E+01  0.72616808954E+01  0.15656326414E+02  0.17703177416E+02  0.51100000000E-03 0. -1.
        -11    1    3    3    0    0  0.27451305576E+00  0.50135641528E+01  0.52873370838E+01  0.72915784732E+01  0.51100000000E-03 0.  1.
        -12    1    3    3    0    0  0.16825136845E+00  0.47892510528E+01  0.20597430135E+02  0.21147561617E+02  0.00000000000E+00 0.  1.
</event>
<event>
 7    1  0.3046295E-009  0.4614232E+02  0.7816164E-02  0.1320468E+00
        -11   -1    0    0    0    0  0.00000000000E+00  0.00000000000E+00  0.45593999997E+02  0.45594000000E+02  0.51100000000E-03 0.  1.
         11   -1    0    0    0    0 -0.00000000000E+00 -0.00000000000E+00 -0.45593999997E+02  0.45594000000E+02  0.51100000000E-03 0. -1.
    9900012    2    1    2    0    0  0.13193656118E+02  0.41002158976E+02 -0.13185744862E+02  0.46142317965E+02  0.10000001859E+02 0.  0.
         12    1    1    2    0    0 -0.13193656118E+02 -0.41002158976E+02  0.13185744862E+02  0.45045682035E+02  0.00000000000E+00 0. -1.
         11    1    3    3    0    0  0.49173366211E+01  0.75414479812E+01 -0.49755312246E+01  0.10286376832E+02  0.51100000000E-03 0. -1.
        -11    1    3    3    0    0  0.28760365766E-01  0.91332055656E+01 -0.10780466125E+01  0.91966545994E+01  0.51100000000E-03 0.  1.
        -12    1    3    3    0    0  0.82475591314E+01  0.24327505429E+02 -0.71321670251E+01  0.26659286534E+02  0.00000000000E+00 0.  1.
</event>
<event>
 7    1  0.3046295E-009  0.4614232E+02  0.7816164E-02  0.1320468E+00
        -11   -1    0    0    0    0  0.00000000000E+00  0.00000000000E+00  0.45593999997E+02  0.45594000000E+02  0.51100000000E-03 0. -1.
         11   -1    0    0    0    0 -0.00000000000E+00 -0.00000000000E+00 -0.45593999997E+02  0.45594000000E+02  0.51100000000E-03 0.  1.
    9900012    2    1    2    0    0  0.35953128676E+02  0.22297742656E+02 -0.15469216215E+02  0.46142318304E+02  0.10000004948E+02 0.  0.
         12    1    1    2    0    0 -0.35953128676E+02 -0.22297742656E+02  0.15469216215E+02  0.45045681696E+02  0.00000000000E+00 0. -1.
         11    1    3    3    0    0  0.24300033392E+02  0.18240072093E+02 -0.12238933828E+02  0.32756424627E+02  0.51100000000E-03 0. -1.
        -11    1    3    3    0    0  0.95868040532E+01  0.32379187831E+01 -0.42060766201E+01  0.10958193774E+02  0.51100000000E-03 0.  1.
         12    1    3    3    0    0  0.20662912305E+01  0.81975177989E+00  0.97579423319E+00  0.24276999023E+01  0.00000000000E+00 0. -1.
</event>
<event>
 7    1  0.3542916E-009  0.4614232E+02  0.7816164E-02  0.1320468E+00
        -11   -1    0    0    0    0  0.00000000000E+00  0.00000000000E+00  0.45593999997E+02  0.45594000000E+02  0.51100000000E-03 0. -1.
         11   -1    0    0    0    0 -0.00000000000E+00 -0.00000000000E+00 -0.45593999997E+02  0.45594000000E+02  0.51100000000E-03 0.  1.
    9900012    2    1    2    0    0 -0.39450178434E+02 -0.38397645181E+01 -0.21402175029E+02  0.46142318009E+02  0.10000002262E+02 0.  0.
         12    1    1    2    0    0  0.39450178434E+02  0.38397645181E+01  0.21402175029E+02  0.45045681991E+02  0.00000000000E+00 0. -1.
         11    1    3    3    0    0 -0.14921991084E+02 -0.71510183642E+00 -0.34866323210E+01  0.15340593005E+02  0.51100000000E-03 0. -1.
        -11    1    3    3    0    0 -0.22179343141E+02 -0.19555201342E+01 -0.14833145988E+02  0.26753869652E+02  0.51100000000E-03 0.  1.
         12    1    3    3    0    0 -0.23488442089E+01 -0.11691425474E+01 -0.30823967201E+01  0.40478553524E+01  0.00000000000E+00 0. -1.
</event>
<event>
 7    1  0.3046295E-009  0.4614232E+02  0.7816164E-02  0.1320468E+00
        -11   -1    0    0    0    0  0.00000000000E+00  0.00000000000E+00  0.45593999997E+02  0.45594000000E+02  0.51100000000E-03 0.  1.
         11   -1    0    0    0    0 -0.00000000000E+00 -0.00000000000E+00 -0.45593999997E+02  0.45594000000E+02  0.51100000000E-03 0. -1.
    9900012    2    1    2    0    0 -0.37324705293E+02  0.24783417894E+02  0.46649837365E+01  0.46142317622E+02  0.99999987295E+01 0.  0.
         12    1    1    2    0    0  0.37324705293E+02 -0.24783417894E+02 -0.46649837365E+01  0.45045682378E+02  0.00000000000E+00 0. -1.
         11    1    3    3    0    0 -0.12984162977E+02  0.32273648801E+01  0.11928559770E+01  0.13432322135E+02  0.51100000000E-03 0. -1.
        -11    1    3    3    0    0 -0.44826806586E+01  0.37373878400E+01  0.91187473048E+00  0.59071151621E+01  0.51100000000E-03 0.  1.
         12    1    3    3    0    0 -0.19857861657E+02  0.17818665173E+02  0.25602530290E+01  0.26802880325E+02  0.00000000000E+00 0. -1.
</event>
<event>
 7    1  0.3046295E-009  0.4614232E+02  0.7816164E-02  0.1320468E+00
        -11   -1    0    0    0    0  0.00000000000E+00  0.00000000000E+00  0.45593999997E+02  0.45594000000E+02  0.51100000000E-03 0.  1.
         11   -1    0    0    0    0 -0.00000000000E+00 -0.00000000000E+00 -0.45593999997E+02  0.45594000000E+02  0.51100000000E-03 0. -1.
    9900012    2    1    2    0    0 -0.12804311178E+02  0.22075222552E+02  0.37119370948E+02  0.46142317243E+02  0.99999952790E+01 0.  0.
         12    1    1    2    0    0  0.12804311178E+02 -0.22075222552E+02 -0.37119370948E+02  0.45045682757E+02  0.00000000000E+00 0. -1.
         11    1    3    3    0    0  0.12279168115E+01  0.26651903250E+01  0.54147420353E+01  0.61587702291E+01  0.51100000000E-03 0. -1.
        -11    1    3    3    0    0 -0.10466061471E+02  0.17075939852E+02  0.27248996003E+02  0.33817657341E+02  0.51100000000E-03 0.  1.
        -12    1    3    3    0    0 -0.35661665180E+01  0.23340923750E+01  0.44556329089E+01  0.61658896737E+01  0.00000000000E+00 0.  1.
</event>
<event>
 7    1  0.3046295E-009  0.4614232E+02  0.7816164E-02  0.1320468E+00
        -11   -1    0    0    0    0  0.00000000000E+00  0.00000000000E+00  0.45593999997E+02  0.45594000000E+02  0.51100000000E-03 0. -1.
         11   -1    0    0    0    0 -0.00000000000E+00 -0.00000000000E+00 -0.45593999997E+02  0.45594000000E+02  0.51100000000E-03 0.  1.
    9900012    2    1    2    0    0  0.36189121544E+02  0.18402702978E+02  0.19514134674E+02  0.46142318220E+02  0.10000004181E+02 0.  0.
         12    1    1    2    0    0 -0.36189121544E+02 -0.18402702978E+02 -0.19514134674E+02  0.45045681780E+02  0.00000000000E+00 0. -1.
         11    1    3    3    0    0  0.11366774747E+01  0.21942081031E+01  0.26162155421E+00  0.24849609615E+01  0.51100000000E-03 0. -1.
        -11    1    3    3    0    0  0.17910136180E+02  0.11842723286E+02  0.98265605829E+01  0.23613224387E+02  0.51100000000E-03 0.  1.
         12    1    3    3    0    0  0.17142307889E+02  0.43657715888E+01  0.94259525367E+01  0.20044132871E+02  0.00000000000E+00 0. -1.
</event>
<event>
 7    1  0.3046295E-009  0.4614232E+02  0.7816164E-02  0.1320468E+00
        -11   -1    0    0    0    0  0.00000000000E+00  0.00000000000E+00  0.45593999997E+02  0.45594000000E+02  0.51100000000E-03 0. -1.
         11   -1    0    0    0    0 -0.00000000000E+00 -0.00000000000E+00 -0.45593999997E+02  0.45594000000E+02  0.51100000000E-03 0.  1.
    9900012    2    1    2    0    0  0.11647430030E+02 -0.42204233452E+02 -0.10594975851E+02  0.46142318066E+02  0.10000002781E+02 0.  0.
         12    1    1    2    0    0 -0.11647430030E+02  0.42204233452E+02  0.10594975851E+02  0.45045681934E+02  0.00000000000E+00 0. -1.
         11    1    3    3    0    0  0.41597561396E+01 -0.18584185791E+02 -0.41638391392E-01  0.19044087446E+02  0.51100000000E-03 0. -1.
        -11    1    3    3    0    0  0.18537286519E+01 -0.10739644872E+02 -0.44531526555E+01  0.11773141073E+02  0.51100000000E-03 0.  1.
         12    1    3    3    0    0  0.56339452384E+01 -0.12880402789E+02 -0.61001848037E+01  0.15325089546E+02  0.00000000000E+00 0. -1.
</event>
<event>
 7    1  0.3046295E-009  0.4614232E+02  0.7816164E-02  0.1320468E+00
        -11   -1    0    0    0    0  0.00000000000E+00  0.00000000000E+00  0.45593999997E+02  0.45594000000E+02  0.51100000000E-03 0. -1.
         11   -1    0    0    0    0 -0.00000000000E+00 -0.00000000000E+00 -0.45593999997E+02  0.45594000000E+02  0.51100000000E-03 0.  1.
    9900012    2    1    2    0    0  0.18096077802E+02 -0.24270645159E+01 -0.41179545223E+02  0.46142316314E+02  0.99999868058E+01 0.  0.
         12    1    1    2    0    0 -0.18096077802E+02  0.24270645159E+01  0.41179545223E+02  0.45045683686E+02  0.00000000000E+00 0. -1.
         11    1    3    3    0    0  0.42975228646E+01  0.11128408246E+01 -0.13885469053E+02  0.14577838267E+02  0.51100000000E-03 0. -1.
        -11    1    3    3    0    0 -0.21354084626E+00  0.10721000145E+01 -0.21706667321E+01  0.24303893633E+01  0.51100000000E-03 0.  1.
        -12    1    3    3    0    0  0.14012095783E+02 -0.46120053551E+01 -0.25123409438E+02  0.29134088684E+02  0.00000000000E+00 0.  1.
</event>
<event>
 7    1  0.3046295E-009  0.4614232E+02  0.7816164E-02  0.1320468E+00
        -11   -1    0    0    0    0  0.00000000000E+00  0.00000000000E+00  0.45593999997E+02  0.45594000000E+02  0.51100000000E-03 0.  1.
         11   -1    0    0    0    0 -0.00000000000E+00 -0.00000000000E+00 -0.45593999997E+02  0.45594000000E+02  0.51100000000E-03 0. -1.
    9900012    2    1    2    0    0  0.21020359004E+02 -0.20853201262E+02  0.33947046397E+02  0.46142318136E+02  0.10000003415E+02 0.  0.
         12    1    1    2    0    0 -0.21020359004E+02  0.20853201262E+02 -0.33947046397E+02  0.45045681864E+02  0.00000000000E+00 0. -1.
         11    1    3    3    0    0  0.98649026668E+00 -0.10526916772E+01  0.60719248416E+01  0.62409610123E+01  0.51100000000E-03 0. -1.
        -11    1    3    3    0    0  0.16366048618E+02 -0.16372262638E+02  0.20164250032E+02  0.30700089754E+02  0.51100000000E-03 0.  1.
        -12    1    3    3    0    0  0.36678201196E+01 -0.34282469468E+01  0.77108715235E+01  0.92012673697E+01  0.00000000000E+00 0.  1.
</event>
<event>
 7    1  0.3046295E-009  0.4614232E+02  0.7816164E-02  0.1320468E+00
        -11   -1    0    0    0    0  0.00000000000E+00  0.00000000000E+00  0.45593999997E+02  0.45594000000E+02  0.51100000000E-03 0.  1.
         11   -1    0    0    0    0 -0.00000000000E+00 -0.00000000000E+00 -0.45593999997E+02  0.45594000000E+02  0.51100000000E-03 0. -1.
    9900012    2    1    2    0    0 -0.29911995229E+02  0.12319095160E+01  0.33658109798E+02  0.46142318578E+02  0.10000007445E+02 0.  0.
         12    1    1    2    0    0  0.29911995229E+02 -0.12319095160E+01 -0.33658109798E+02  0.45045681422E+02  0.00000000000E+00 0. -1.
         11    1    3    3    0    0 -0.32232487542E+01  0.14747211480E+01  0.48630941221E+01  0.60177919287E+01  0.51100000000E-03 0. -1.
        -11    1    3    3    0    0 -0.50450296151E+01  0.40293220509E+00  0.10958808549E+02  0.12071046485E+02  0.51100000000E-03 0.  1.
        -12    1    3    3    0    0 -0.21643716860E+02 -0.64574383711E+00  0.17836207127E+02  0.28053480164E+02  0.00000000000E+00 0.  1.
</event>
<event>
 7    1  0.3046295E-009  0.4614232E+02  0.7816164E-02  0.1320468E+00
        -11   -1    0    0    0    0  0.00000000000E+00  0.00000000000E+00  0.45593999997E+02  0.45594000000E+02  0.51100000000E-03 0.  1.
         11   -1    0    0    0    0 -0.00000000000E+00 -0.00000000000E+00 -0.45593999997E+02  0.45594000000E+02  0.51100000000E-03 0. -1.
    9900012    2    1    2    0    0  0.45745101787E+01 -0.33591961981E+02  0.29660876527E+02  0.46142315973E+02  0.99999836946E+01 0.  0.
         12    1    1    2    0    0 -0.45745101787E+01  0.33591961981E+02 -0.29660876527E+02  0.45045684027E+02  0.00000000000E+00 0. -1.
         11    1    3    3    0    0  0.10054200049E+01 -0.69914884981E+01  0.38902662698E+01  0.80638671068E+01  0.51100000000E-03 0. -1.
        -11    1    3    3    0    0  0.58016347813E+00 -0.36447684690E+01  0.36637757948E+00  0.37087949048E+01  0.51100000000E-03 0.  1.
        -12    1    3    3    0    0  0.29889266956E+01 -0.22955705014E+02  0.25404232678E+02  0.34369653961E+02  0.00000000000E+00 0.  1.
</event>
<event>
 7    1  0.3046295E-009  0.4614232E+02  0.7816164E-02  0.1320468E+00
        -11   -1    0    0    0    0  0.00000000000E+00  0.00000000000E+00  0.45593999997E+02  0.45594000000E+02  0.51100000000E-03 0.  1.
         11   -1    0    0    0    0 -0.00000000000E+00 -0.00000000000E+00 -0.45593999997E+02  0.45594000000E+02  0.51100000000E-03 0. -1.
    9900012    2    1    2    0    0  0.19784057275E+02  0.37398130434E+02  0.15462355166E+02  0.46142317526E+02  0.99999978599E+01 0.  0.
         12    1    1    2    0    0 -0.19784057275E+02 -0.37398130434E+02 -0.15462355166E+02  0.45045682474E+02  0.00000000000E+00 0. -1.
         11    1    3    3    0    0  0.30123142871E-01  0.54301660998E+01  0.12042563678E+01  0.55621798726E+01  0.51100000000E-03 0. -1.
        -11    1    3    3    0    0  0.15321686177E+02  0.25085634219E+02  0.13538458417E+02  0.32362524130E+02  0.51100000000E-03 0.  1.
        -12    1    3    3    0    0  0.44322479554E+01  0.68823301149E+01  0.71964038121E+00  0.82176135238E+01  0.00000000000E+00 0.  1.
</event>
<event>
 7    1  0.3046295E-009  0.4614232E+02  0.7816164E-02  0.1320468E+00
        -11   -1    0    0    0    0  0.00000000000E+00  0.00000000000E+00  0.45593999997E+02  0.45594000000E+02  0.51100000000E-03 0.  1.
         11   -1    0    0    0    0 -0.00000000000E+00 -0.00000000000E+00 -0.45593999997E+02  0.45594000000E+02  0.51100000000E-03 0. -1.
    9900012    2    1    2    0    0 -0.83892104331E+01 -0.14409486383E+02  0.41846161744E+02  0.46142318718E+02  0.10000008722E+02 0.  0.
         12    1    1    2    0    0  0.83892104331E+01  0.14409486383E+02 -0.41846161744E+02  0.45045681282E+02  0.00000000000E+00 0. -1.
         11    1    3    3    0    0 -0.36064751022E+00 -0.48282660141E+01  0.20245441410E+02  0.20816342558E+02  0.51100000000E-03 0. -1.
        -11    1    3    3    0    0 -0.75813469422E+01 -0.61542825027E+01  0.15824256613E+02  0.18594599006E+02  0.51100000000E-03 0.  1.
        -12    1    3    3    0    0 -0.44721598062E+00 -0.34269378658E+01  0.57764637214E+01  0.67313771544E+01  0.00000000000E+00 0.  1.
</event>
<event>
 7    1  0.3046295E-009  0.4614232E+02  0.7816164E-02  0.1320468E+00
        -11   -1    0    0    0    0  0.00000000000E+00  0.00000000000E+00  0.45593999997E+02  0.45594000000E+02  0.51100000000E-03 0.  1.
         11   -1    0    0    0    0 -0.00000000000E+00 -0.00000000000E+00 -0.45593999997E+02  0.45594000000E+02  0.51100000000E-03 0. -1.
    9900012    2    1    2    0    0  0.14010917112E+02 -0.37481185940E+02  0.20687396204E+02  0.46142318082E+02  0.10000002923E+02 0.  0.
         12    1    1    2    0    0 -0.14010917112E+02  0.37481185940E+02 -0.20687396204E+02  0.45045681918E+02  0.00000000000E+00 0. -1.
         11    1    3    3    0    0  0.12130664384E+02 -0.27753332983E+02  0.17367819538E+02  0.34914777184E+02  0.51100000000E-03 0. -1.
        -11    1    3    3    0    0  0.25850074707E+01 -0.31168020532E+01  0.16503818701E+01  0.43726970214E+01  0.51100000000E-03 0.  1.
         12    1    3    3    0    0 -0.70475474261E+00 -0.66110509036E+01  0.16691947963E+01  0.68548438761E+01  0.00000000000E+00 0. -1.
</event>
<event>
 7    1  0.3046295E-009  0.4614232E+02  0.7816164E-02  0.1320468E+00
        -11   -1    0    0    0    0  0.00000000000E+00  0.00000000000E+00  0.45593999997E+02  0.45594000000E+02  0.51100000000E-03 0.  1.
         11   -1    0    0    0    0 -0.00000000000E+00 -0.00000000000E+00 -0.45593999997E+02  0.45594000000E+02  0.51100000000E-03 0. -1.
    9900012    2    1    2    0    0 -0.34673789243E+02  0.15608563761E+00  0.28754434144E+02  0.46142317564E+02  0.99999982000E+01 0.  0.
         12    1    1    2    0    0  0.34673789243E+02 -0.15608563761E+00 -0.28754434144E+02  0.45045682436E+02  0.00000000000E+00 0. -1.
         11    1    3    3    0    0 -0.12273005539E+02  0.22875228591E+01  0.14494220058E+02  0.19129606404E+02  0.51100000000E-03 0. -1.
        -11    1    3    3    0    0 -0.66616659591E+01  0.64432763610E+00  0.61559977109E+01  0.90933634883E+01  0.51100000000E-03 0.  1.
         12    1    3    3    0    0 -0.15739117745E+02 -0.27757648576E+01  0.81042163747E+01  0.17919347672E+02  0.00000000000E+00 0. -1.
</event>
<event>
 7    1  0.3046295E-009  0.4614232E+02  0.7816164E-02  0.1320468E+00
        -11   -1    0    0    0    0  0.00000000000E+00  0.00000000000E+00  0.45593999997E+02  0.45594000000E+02  0.51100000000E-03 0.  1.
         11   -1    0    0    0    0 -0.00000000000E+00 -0.00000000000E+00 -0.45593999997E+02  0.45594000000E+02  0.51100000000E-03 0. -1.
    9900012    2    1    2    0    0 -0.52499783762E+00 -0.30536569488E+02  0.33111261887E+02  0.46142319158E+02  0.10000012736E+02 0.  0.
         12    1    1    2    0    0  0.52499783762E+00  0.30536569488E+02 -0.33111261887E+02  0.45045680842E+02  0.00000000000E+00 0. -1.
         11    1    3    3    0    0  0.92796301947E+00 -0.50456749488E+00  0.45732947690E+00  0.11510231249E+01  0.51100000000E-03 0. -1.
        -11    1    3    3    0    0  0.56588279848E-01 -0.21613630359E+01  0.17841863397E+00  0.21694528980E+01  0.51100000000E-03 0.  1.
        -12    1    3    3    0    0 -0.15095491369E+01 -0.27870638957E+02  0.32475513776E+02  0.42821843135E+02  0.00000000000E+00 0.  1.
</event>
<event>
 7    1  0.3046295E-009  0.4614232E+02  0.7816164E-02  0.1320468E+00
        -11   -1    0    0    0    0  0.00000000000E+00  0.00000000000E+00  0.45593999997E+02  0.45594000000E+02  0.51100000000E-03 0.  1.
         11   -1    0    0    0    0 -0.00000000000E+00 -0.00000000000E+00 -0.45593999997E+02  0.45594000000E+02  0.51100000000E-03 0. -1.
    9900012    2    1    2    0    0  0.38069652524E+02  0.17341489744E+02  0.16705909949E+02  0.46142321661E+02  0.10000035560E+02 0.  0.
         12    1    1    2    0    0 -0.38069652524E+02 -0.17341489744E+02 -0.16705909949E+02  0.45045678339E+02  0.00000000000E+00 0. -1.
         11    1    3    3    0    0  0.24491318029E+01  0.11659930130E+01 -0.12927268417E+01  0.30048176721E+01  0.51100000000E-03 0. -1.
        -11    1    3    3    0    0  0.15195877608E+02  0.77494178148E+01  0.89352176004E+01  0.19256331078E+02  0.51100000000E-03 0.  1.
         12    1    3    3    0    0  0.20424643112E+02  0.84260789161E+01  0.90634191903E+01  0.23881172911E+02  0.00000000000E+00 0. -1.
</event>
<event>
 7    1  0.3046295E-009  0.4614232E+02  0.7816164E-02  0.1320468E+00
        -11   -1    0    0    0    0  0.00000000000E+00  0.00000000000E+00  0.45593999997E+02  0.45594000000E+02  0.51100000000E-03 0.  1.
         11   -1    0    0    0    0 -0.00000000000E+00 -0.00000000000E+00 -0.45593999997E+02  0.45594000000E+02  0.51100000000E-03 0. -1.
    9900012    2    1    2    0    0  0.41181369787E+02 -0.17362428813E+02 -0.56350979505E+01  0.46142317846E+02  0.10000000774E+02 0.  0.
         12    1    1    2    0    0 -0.41181369787E+02  0.17362428813E+02  0.56350979505E+01  0.45045682154E+02  0.00000000000E+00 0. -1.
         11    1    3    3    0    0  0.32455423379E+01 -0.24292948289E+01  0.13705972251E+01  0.42794340102E+01  0.51100000000E-03 0. -1.
        -11    1    3    3    0    0  0.10741189303E+02 -0.73965126811E+01 -0.26712004277E+01  0.13312282279E+02  0.51100000000E-03 0.  1.
        -12    1    3    3    0    0  0.27194638146E+02 -0.75366213034E+01 -0.43344947479E+01  0.28550601557E+02  0.00000000000E+00 0.  1.
</event>
<event>
 7    1  0.3046295E-009  0.4614232E+02  0.7816164E-02  0.1320468E+00
        -11   -1    0    0    0    0  0.00000000000E+00  0.00000000000E+00  0.45593999997E+02  0.45594000000E+02  0.51100000000E-03 0. -1.
         11   -1    0    0    0    0 -0.00000000000E+00 -0.00000000000E+00 -0.45593999997E+02  0.45594000000E+02  0.51100000000E-03 0.  1.
    9900012    2    1    2    0    0 -0.10699003614E+02  0.18036422525E+02 -0.39866427925E+02  0.46142319948E+02  0.10000019938E+02 0.  0.
         12    1    1    2    0    0  0.10699003614E+02 -0.18036422525E+02  0.39866427925E+02  0.45045680052E+02  0.00000000000E+00 0. -1.
         11    1    3    3    0    0 -0.86425630065E+00  0.62243481098E+01 -0.16973151030E+02  0.18099096787E+02  0.51100000000E-03 0. -1.
        -11    1    3    3    0    0 -0.33978726121E+01  0.80236816743E+01 -0.12903561795E+02  0.15570064649E+02  0.51100000000E-03 0.  1.
         12    1    3    3    0    0 -0.64368747017E+01  0.37883927410E+01 -0.99897150996E+01  0.12473158512E+02  0.00000000000E+00 0. -1.
</event>
<event>
 7    1  0.3046295E-009  0.4614232E+02  0.7816164E-02  0.1320468E+00
        -11   -1    0    0    0    0  0.00000000000E+00  0.00000000000E+00  0.45593999997E+02  0.45594000000E+02  0.51100000000E-03 0.  1.
         11   -1    0    0    0    0 -0.00000000000E+00 -0.00000000000E+00 -0.45593999997E+02  0.45594000000E+02  0.51100000000E-03 0. -1.
    9900012    2    1    2    0    0 -0.24069233987E+02  0.33021813274E+02  0.18956404720E+02  0.46142318114E+02  0.10000003221E+02 0.  0.
         12    1    1    2    0    0  0.24069233987E+02 -0.33021813274E+02 -0.18956404720E+02  0.45045681886E+02  0.00000000000E+00 0. -1.
         11    1    3    3    0    0 -0.10853611319E+01  0.51048677401E+01  0.39393701315E+00  0.52338198347E+01  0.51100000000E-03 0. -1.
        -11    1    3    3    0    0 -0.15032700106E+02  0.20190851065E+02  0.10896860264E+02  0.27429803191E+02  0.51100000000E-03 0.  1.
        -12    1    3    3    0    0 -0.79511727486E+01  0.77260944694E+01  0.76656074433E+01  0.13478695089E+02  0.00000000000E+00 0.  1.
</event>
<event>
 7    1  0.3046295E-009  0.4614233E+02  0.7816164E-02  0.1320468E+00
        -11   -1    0    0    0    0  0.00000000000E+00  0.00000000000E+00  0.45593999997E+02  0.45594000000E+02  0.51100000000E-03 0.  1.
         11   -1    0    0    0    0 -0.00000000000E+00 -0.00000000000E+00 -0.45593999997E+02  0.45594000000E+02  0.51100000000E-03 0. -1.
    9900012    2    1    2    0    0  0.11054724435E+02 -0.26227823534E+02  0.34914276249E+02  0.46142330445E+02  0.10000115662E+02 0.  0.
         12    1    1    2    0    0 -0.11054724435E+02  0.26227823534E+02 -0.34914276249E+02  0.45045669555E+02  0.00000000000E+00 0. -1.
         11    1    3    3    0    0  0.35707188227E+00 -0.49313449640E+01  0.38256726919E+01  0.62515146397E+01  0.51100000000E-03 0. -1.
        -11    1    3    3    0    0  0.29206916669E+01 -0.13401375491E+02  0.14681296568E+02  0.20091485113E+02  0.51100000000E-03 0.  1.
        -12    1    3    3    0    0  0.77769608859E+01 -0.78951030798E+01  0.16407306989E+02  0.19799330693E+02  0.00000000000E+00 0.  1.
</event>
<event>
 7    1  0.3046295E-009  0.4614232E+02  0.7816164E-02  0.1320468E+00
        -11   -1    0    0    0    0  0.00000000000E+00  0.00000000000E+00  0.45593999997E+02  0.45594000000E+02  0.51100000000E-03 0. -1.
         11   -1    0    0    0    0 -0.00000000000E+00 -0.00000000000E+00 -0.45593999997E+02  0.45594000000E+02  0.51100000000E-03 0.  1.
    9900012    2    1    2    0    0  0.51276190413E+01  0.34545318513E+02  0.28450693530E+02  0.46142317960E+02  0.10000001811E+02 0.  0.
         12    1    1    2    0    0 -0.51276190413E+01 -0.34545318513E+02 -0.28450693530E+02  0.45045682040E+02  0.00000000000E+00 0. -1.
         11    1    3    3    0    0 -0.12142377595E+01  0.34260678140E+01  0.36531538726E+01  0.51534306516E+01  0.51100000000E-03 0. -1.
        -11    1    3    3    0    0  0.35117133987E+01  0.24618003353E+02  0.15523392570E+02  0.29314739249E+02  0.51100000000E-03 0.  1.
        -12    1    3    3    0    0  0.28301434020E+01  0.65012473458E+01  0.92741470868E+01  0.11674148059E+02  0.00000000000E+00 0.  1.
</event>
<event>
 7    1  0.3046295E-009  0.4614232E+02  0.7816164E-02  0.1320468E+00
        -11   -1    0    0    0    0  0.00000000000E+00  0.00000000000E+00  0.45593999997E+02  0.45594000000E+02  0.51100000000E-03 0.  1.
         11   -1    0    0    0    0 -0.00000000000E+00 -0.00000000000E+00 -0.45593999997E+02  0.45594000000E+02  0.51100000000E-03 0. -1.
    9900012    2    1    2    0    0 -0.20114489274E+02 -0.20970814710E+02  0.34420135900E+02  0.46142317590E+02  0.99999984441E+01 0.  0.
         12    1    1    2    0    0  0.20114489274E+02  0.20970814710E+02 -0.34420135900E+02  0.45045682410E+02  0.00000000000E+00 0. -1.
         11    1    3    3    0    0 -0.82765306945E+01 -0.10666849014E+02  0.91134854206E+01  0.16289206396E+02  0.51100000000E-03 0. -1.
        -11    1    3    3    0    0 -0.11223001734E+02 -0.90063706985E+01  0.22688969244E+02  0.26867448832E+02  0.51100000000E-03 0.  1.
         12    1    3    3    0    0 -0.61495684565E+00 -0.12975949969E+01  0.26176812353E+01  0.29856623633E+01  0.00000000000E+00 0. -1.
</event>
<event>
 7    1  0.3046295E-009  0.4614232E+02  0.7816164E-02  0.1320468E+00
        -11   -1    0    0    0    0  0.00000000000E+00  0.00000000000E+00  0.45593999997E+02  0.45594000000E+02  0.51100000000E-03 0. -1.
         11   -1    0    0    0    0 -0.00000000000E+00 -0.00000000000E+00 -0.45593999997E+02  0.45594000000E+02  0.51100000000E-03 0.  1.
    9900012    2    1    2    0    0 -0.36006273422E+02  0.87957837871E+00 -0.27053425159E+02  0.46142320999E+02  0.10000029523E+02 0.  0.
         12    1    1    2    0    0  0.36006273422E+02 -0.87957837871E+00  0.27053425159E+02  0.45045679001E+02  0.00000000000E+00 0. -1.
         11    1    3    3    0    0 -0.23604364715E+02  0.18270961876E+01 -0.19211589768E+02  0.30489170139E+02  0.51100000000E-03 0.  1.
        -11    1    3    3    0    0 -0.43820067501E+01 -0.24401382851E+01 -0.48131336027E+01  0.69514396600E+01  0.51100000000E-03 0. -1.
        -12    1    3    3    0    0 -0.80199019565E+01  0.14926204762E+01 -0.30287017879E+01  0.87017111994E+01  0.00000000000E+00 0.  1.
</event>
<event>
 7    1  0.3046295E-009  0.4614232E+02  0.7816164E-02  0.1320468E+00
        -11   -1    0    0    0    0  0.00000000000E+00  0.00000000000E+00  0.45593999997E+02  0.45594000000E+02  0.51100000000E-03 0.  1.
         11   -1    0    0    0    0 -0.00000000000E+00 -0.00000000000E+00 -0.45593999997E+02  0.45594000000E+02  0.51100000000E-03 0. -1.
    9900012    2    1    2    0    0  0.16820567293E+02 -0.30783302773E+02  0.28258984271E+02  0.46142318679E+02  0.10000008370E+02 0.  0.
         12    1    1    2    0    0 -0.16820567293E+02  0.30783302773E+02 -0.28258984271E+02  0.45045681321E+02  0.00000000000E+00 0. -1.
         11    1    3    3    0    0  0.14083880963E+02 -0.24080327613E+02  0.21173536464E+02  0.35021943515E+02  0.51100000000E-03 0. -1.
        -11    1    3    3    0    0  0.10615285124E-01 -0.56030448408E+01  0.50681412968E+01  0.75551492797E+01  0.51100000000E-03 0.  1.
         12    1    3    3    0    0  0.27260710454E+01 -0.10999303187E+01  0.20173065099E+01  0.35652258842E+01  0.00000000000E+00 0. -1.
</event>
<event>
 7    1  0.3046295E-009  0.4614232E+02  0.7816164E-02  0.1320468E+00
        -11   -1    0    0    0    0  0.00000000000E+00  0.00000000000E+00  0.45593999997E+02  0.45594000000E+02  0.51100000000E-03 0.  1.
         11   -1    0    0    0    0 -0.00000000000E+00 -0.00000000000E+00 -0.45593999997E+02  0.45594000000E+02  0.51100000000E-03 0. -1.
    9900012    2    1    2    0    0 -0.29792354107E+02  0.12095925622E+01  0.33764861364E+02  0.46142319404E+02  0.10000014982E+02 0.  0.
         12    1    1    2    0    0  0.29792354107E+02 -0.12095925622E+01 -0.33764861364E+02  0.45045680596E+02  0.00000000000E+00 0. -1.
         11    1    3    3    0    0 -0.15898394430E+02 -0.28833728860E+00  0.22793232791E+02  0.27791609258E+02  0.51100000000E-03 0. -1.
        -11    1    3    3    0    0 -0.12395577862E+02  0.26745533496E+00  0.10730094847E+02  0.16396853923E+02  0.51100000000E-03 0.  1.
         12    1    3    3    0    0 -0.14983818157E+01  0.12304745159E+01  0.24153372632E+00  0.19538562232E+01  0.00000000000E+00 0. -1.
</event>
<event>
 7    1  0.3046295E-009  0.4614232E+02  0.7816164E-02  0.1320468E+00
        -11   -1    0    0    0    0  0.00000000000E+00  0.00000000000E+00  0.45593999997E+02  0.45594000000E+02  0.51100000000E-03 0.  1.
         11   -1    0    0    0    0 -0.00000000000E+00 -0.00000000000E+00 -0.45593999997E+02  0.45594000000E+02  0.51100000000E-03 0. -1.
    9900012    2    1    2    0    0 -0.71987485672E+01 -0.33530933067E+02  0.29205613173E+02  0.46142319918E+02  0.10000019664E+02 0.  0.
         12    1    1    2    0    0  0.71987485672E+01  0.33530933067E+02 -0.29205613173E+02  0.45045680082E+02  0.00000000000E+00 0. -1.
         11    1    3    3    0    0 -0.17020894212E+01 -0.11413517126E+02  0.15888847041E+02  0.19637233566E+02  0.51100000000E-03 0. -1.
        -11    1    3    3    0    0 -0.48645104586E+01 -0.17266396737E+02  0.11379288231E+02  0.21243354706E+02  0.51100000000E-03 0.  1.
        -12    1    3    3    0    0 -0.63214868742E+00 -0.48510192048E+01  0.19374779004E+01  0.52617316449E+01  0.00000000000E+00 0.  1.
</event>
<event>
 7    1  0.3046295E-009  0.4614232E+02  0.7816164E-02  0.1320468E+00
        -11   -1    0    0    0    0  0.00000000000E+00  0.00000000000E+00  0.45593999997E+02  0.45594000000E+02  0.51100000000E-03 0.  1.
         11   -1    0    0    0    0 -0.00000000000E+00 -0.00000000000E+00 -0.45593999997E+02  0.45594000000E+02  0.51100000000E-03 0. -1.
    9900012    2    1    2    0    0 -0.29014482834E+02 -0.64789841986E+01  0.33842223526E+02  0.46142317149E+02  0.99999944161E+01 0.  0.
         12    1    1    2    0    0  0.29014482834E+02  0.64789841986E+01 -0.33842223526E+02  0.45045682851E+02  0.00000000000E+00 0. -1.
         11    1    3    3    0    0 -0.12980844780E+02 -0.58754968903E+01  0.16423475880E+02  0.21742915056E+02  0.51100000000E-03 0. -1.
        -11    1    3    3    0    0 -0.15321429552E+02  0.78439192325E+00  0.14602891373E+02  0.21180318953E+02  0.51100000000E-03 0.  1.
        -12    1    3    3    0    0 -0.71220850128E+00 -0.13878792316E+01  0.28158562729E+01  0.32190831397E+01  0.00000000000E+00 0.  1.
</event>
<event>
 7    1  0.3046295E-009  0.4614232E+02  0.7816164E-02  0.1320468E+00
        -11   -1    0    0    0    0  0.00000000000E+00  0.00000000000E+00  0.45593999997E+02  0.45594000000E+02  0.51100000000E-03 0.  1.
         11   -1    0    0    0    0 -0.00000000000E+00 -0.00000000000E+00 -0.45593999997E+02  0.45594000000E+02  0.51100000000E-03 0. -1.
    9900012    2    1    2    0    0  0.19695205383E+02 -0.31679509388E+02  0.25251158959E+02  0.46142318088E+02  0.10000002985E+02 0.  0.
         12    1    1    2    0    0 -0.19695205383E+02  0.31679509388E+02 -0.25251158959E+02  0.45045681912E+02  0.00000000000E+00 0. -1.
         11    1    3    3    0    0  0.47436679567E+01 -0.81911888524E+01  0.11799767549E+02  0.15127209755E+02  0.51100000000E-03 0. -1.
        -11    1    3    3    0    0  0.47547807271E+01 -0.72440525590E+01  0.29792856665E+01  0.91629897186E+01  0.51100000000E-03 0.  1.
         12    1    3    3    0    0  0.10196756699E+02 -0.16244267976E+02  0.10472105743E+02  0.21852118615E+02  0.00000000000E+00 0. -1.
</event>
<event>
 7    1  0.3046295E-009  0.4614232E+02  0.7816164E-02  0.1320468E+00
        -11   -1    0    0    0    0  0.00000000000E+00  0.00000000000E+00  0.45593999997E+02  0.45594000000E+02  0.51100000000E-03 0.  1.
         11   -1    0    0    0    0 -0.00000000000E+00 -0.00000000000E+00 -0.45593999997E+02  0.45594000000E+02  0.51100000000E-03 0. -1.
    9900012    2    1    2    0    0 -0.29088298887E+02 -0.27770098241E+02  0.20293002971E+02  0.46142318098E+02  0.10000003069E+02 0.  0.
         12    1    1    2    0    0  0.29088298887E+02  0.27770098241E+02 -0.20293002971E+02  0.45045681902E+02  0.00000000000E+00 0. -1.
         11    1    3    3    0    0 -0.30529027162E+01 -0.15531207908E+01 -0.25474329579E-01  0.34253537610E+01  0.51100000000E-03 0. -1.
        -11    1    3    3    0    0 -0.18987393052E+02 -0.20188565718E+02  0.18341330594E+02  0.33234074214E+02  0.51100000000E-03 0.  1.
        -12    1    3    3    0    0 -0.70480031186E+01 -0.60284117330E+01  0.19771467073E+01  0.94828901230E+01  0.00000000000E+00 0.  1.
</event>
<event>
 7    1  0.3046295E-009  0.4614232E+02  0.7816164E-02  0.1320468E+00
        -11   -1    0    0    0    0  0.00000000000E+00  0.00000000000E+00  0.45593999997E+02  0.45594000000E+02  0.51100000000E-03 0.  1.
         11   -1    0    0    0    0 -0.00000000000E+00 -0.00000000000E+00 -0.45593999997E+02  0.45594000000E+02  0.51100000000E-03 0. -1.
    9900012    2    1    2    0    0 -0.29914219112E+02 -0.17942233464E+02  0.28501392551E+02  0.46142316255E+02  0.99999862649E+01 0.  0.
         12    1    1    2    0    0  0.29914219112E+02  0.17942233464E+02 -0.28501392551E+02  0.45045683745E+02  0.00000000000E+00 0. -1.
         11    1    3    3    0    0  0.31793600999E+00 -0.42641533543E+00  0.23771294919E+00  0.58259853422E+00  0.51100000000E-03 0. -1.
        -11    1    3    3    0    0 -0.35881977379E+01 -0.20809257045E+01  0.64779452887E+00  0.41982201951E+01  0.51100000000E-03 0.  1.
        -12    1    3    3    0    0 -0.26643957384E+02 -0.15434892424E+02  0.27615885072E+02  0.41361497526E+02  0.00000000000E+00 0.  1.
</event>
<event>
 7    1  0.3046295E-009  0.4614232E+02  0.7816164E-02  0.1320468E+00
        -11   -1    0    0    0    0  0.00000000000E+00  0.00000000000E+00  0.45593999997E+02  0.45594000000E+02  0.51100000000E-03 0.  1.
         11   -1    0    0    0    0 -0.00000000000E+00 -0.00000000000E+00 -0.45593999997E+02  0.45594000000E+02  0.51100000000E-03 0. -1.
    9900012    2    1    2    0    0  0.44282054515E+02 -0.78139916264E+01 -0.26748362059E+01  0.46142316900E+02  0.99999921484E+01 0.  0.
         12    1    1    2    0    0 -0.44282054515E+02  0.78139916264E+01  0.26748362059E+01  0.45045683100E+02  0.00000000000E+00 0. -1.
         11    1    3    3    0    0  0.12430897188E+01  0.95408070500E+00 -0.72707057028E-01  0.15687028456E+01  0.51100000000E-03 0. -1.
        -11    1    3    3    0    0  0.11882673116E+02 -0.28788990529E+00 -0.30860073977E+01  0.12280237900E+02  0.51100000000E-03 0.  1.
        -12    1    3    3    0    0  0.31156291681E+02 -0.84801824261E+01  0.48387824882E+00  0.32293376154E+02  0.00000000000E+00 0.  1.
</event>
<event>
 7    1  0.3046295E-009  0.4614232E+02  0.7816164E-02  0.1320468E+00
        -11   -1    0    0    0    0  0.00000000000E+00  0.00000000000E+00  0.45593999997E+02  0.45594000000E+02  0.51100000000E-03 0.  1.
         11   -1    0    0    0    0 -0.00000000000E+00 -0.00000000000E+00 -0.45593999997E+02  0.45594000000E+02  0.51100000000E-03 0. -1.
    9900012    2    1    2    0    0  0.21563045473E+02 -0.17543910324E+01  0.39510388632E+02  0.46142316213E+02  0.99999858813E+01 0.  0.
         12    1    1    2    0    0 -0.21563045473E+02  0.17543910324E+01 -0.39510388632E+02  0.45045683787E+02  0.00000000000E+00 0. -1.
         11    1    3    3    0    0  0.18388026132E+02 -0.22495115153E+00  0.33560319950E+02  0.38268331338E+02  0.51100000000E-03 0. -1.
        -11    1    3    3    0    0 -0.38876120196E+00  0.32925422756E+00  0.25768007558E+01  0.26266796559E+01  0.51100000000E-03 0.  1.
         12    1    3    3    0    0  0.35637805430E+01 -0.18586941084E+01  0.33732679271E+01  0.52473052184E+01  0.00000000000E+00 0. -1.
</event>
<event>
 7    1  0.3046295E-009  0.4614232E+02  0.7816164E-02  0.1320468E+00
        -11   -1    0    0    0    0  0.00000000000E+00  0.00000000000E+00  0.45593999997E+02  0.45594000000E+02  0.51100000000E-03 0.  1.
         11   -1    0    0    0    0 -0.00000000000E+00 -0.00000000000E+00 -0.45593999997E+02  0.45594000000E+02  0.51100000000E-03 0. -1.
    9900012    2    1    2    0    0 -0.10260782886E+02  0.20329044027E+02  0.38865919278E+02  0.46142318989E+02  0.10000011194E+02 0.  0.
         12    1    1    2    0    0  0.10260782886E+02 -0.20329044027E+02 -0.38865919278E+02  0.45045681011E+02  0.00000000000E+00 0. -1.
         11    1    3    3    0    0 -0.44832266616E+01  0.56371207863E+01  0.14929374256E+02  0.16575966578E+02  0.51100000000E-03 0. -1.
        -11    1    3    3    0    0 -0.14760874524E+01  0.94311259471E+01  0.18670300862E+02  0.20969146509E+02  0.51100000000E-03 0.  1.
         12    1    3    3    0    0 -0.43014687722E+01  0.52607972931E+01  0.52662441599E+01  0.85972059012E+01  0.00000000000E+00 0. -1.
</event>
<event>
 7    1  0.3046295E-009  0.4614232E+02  0.7816164E-02  0.1320468E+00
        -11   -1    0    0    0    0  0.00000000000E+00  0.00000000000E+00  0.45593999997E+02  0.45594000000E+02  0.51100000000E-03 0.  1.
         11   -1    0    0    0    0 -0.00000000000E+00 -0.00000000000E+00 -0.45593999997E+02  0.45594000000E+02  0.51100000000E-03 0. -1.
    9900012    2    1    2    0    0 -0.36658230499E+00 -0.33550425343E+02  0.30055747225E+02  0.46142319136E+02  0.10000012533E+02 0.  0.
         12    1    1    2    0    0  0.36658230499E+00  0.33550425343E+02 -0.30055747225E+02  0.45045680864E+02  0.00000000000E+00 0. -1.
         11    1    3    3    0    0  0.27788886054E+01 -0.42503314500E+01  0.29370389288E+01  0.58663222931E+01  0.51100000000E-03 0. -1.
        -11    1    3    3    0    0 -0.38245878405E+01 -0.16157067362E+02  0.14514935788E+02  0.22053608754E+02  0.51100000000E-03 0.  1.
         12    1    3    3    0    0  0.67911693003E+00 -0.13143026531E+02  0.12603772508E+02  0.18222388089E+02  0.00000000000E+00 0. -1.
</event>
<event>
 7    1  0.3046295E-009  0.4614232E+02  0.7816164E-02  0.1320468E+00
        -11   -1    0    0    0    0  0.00000000000E+00  0.00000000000E+00  0.45593999997E+02  0.45594000000E+02  0.51100000000E-03 0.  1.
         11   -1    0    0    0    0 -0.00000000000E+00 -0.00000000000E+00 -0.45593999997E+02  0.45594000000E+02  0.51100000000E-03 0. -1.
    9900012    2    1    2    0    0 -0.35396173566E+02  0.13972088388E+02  0.24104046265E+02  0.46142318704E+02  0.10000008598E+02 0.  0.
         12    1    1    2    0    0  0.35396173566E+02 -0.13972088388E+02 -0.24104046265E+02  0.45045681296E+02  0.00000000000E+00 0. -1.
         11    1    3    3    0    0 -0.92864155389E+00  0.36434634999E+00  0.22907444961E+00  0.10235227222E+01  0.51100000000E-03 0. -1.
        -11    1    3    3    0    0 -0.17361255084E+02  0.11080123143E+02  0.16183850319E+02  0.26193497635E+02  0.51100000000E-03 0.  1.
        -12    1    3    3    0    0 -0.17106276929E+02  0.25276188947E+01  0.76911214970E+01  0.18925298347E+02  0.00000000000E+00 0.  1.
</event>
<event>
 7    1  0.3046295E-009  0.4614231E+02  0.7816164E-02  0.1320468E+00
        -11   -1    0    0    0    0  0.00000000000E+00  0.00000000000E+00  0.45593999997E+02  0.45594000000E+02  0.51100000000E-03 0. -1.
         11   -1    0    0    0    0 -0.00000000000E+00 -0.00000000000E+00 -0.45593999997E+02  0.45594000000E+02  0.51100000000E-03 0.  1.
    9900012    2    1    2    0    0 -0.31025115532E+02  0.32639434983E+02  0.11060850407E+01  0.46142312816E+02  0.99999549060E+01 0.  0.
         12    1    1    2    0    0  0.31025115532E+02 -0.32639434983E+02 -0.11060850407E+01  0.45045687184E+02  0.00000000000E+00 0. -1.
         11    1    3    3    0    0 -0.13839292895E+02  0.16903149107E+02  0.28240893537E+01  0.22027663483E+02  0.51100000000E-03 0. -1.
        -11    1    3    3    0    0 -0.97496461347E+01  0.12268115116E+02 -0.25145789942E+01  0.15870896510E+02  0.51100000000E-03 0.  1.
         12    1    3    3    0    0 -0.74361765017E+01  0.34681707600E+01  0.79657468122E+00  0.82437528231E+01  0.00000000000E+00 0. -1.
</event>
<event>
 7    1  0.3046295E-009  0.4614232E+02  0.7816164E-02  0.1320468E+00
        -11   -1    0    0    0    0  0.00000000000E+00  0.00000000000E+00  0.45593999997E+02  0.45594000000E+02  0.51100000000E-03 0.  1.
         11   -1    0    0    0    0 -0.00000000000E+00 -0.00000000000E+00 -0.45593999997E+02  0.45594000000E+02  0.51100000000E-03 0. -1.
    9900012    2    1    2    0    0  0.42594090191E+02  0.99534247712E+01  0.10760405434E+02  0.46142317533E+02  0.99999979161E+01 0.  0.
         12    1    1    2    0    0 -0.42594090191E+02 -0.99534247712E+01 -0.10760405434E+02  0.45045682467E+02  0.00000000000E+00 0. -1.
         11    1    3    3    0    0  0.11900057876E+02  0.13070529131E+01  0.56039614566E+01  0.13218326257E+02  0.51100000000E-03 0. -1.
        -11    1    3    3    0    0  0.84566488670E+01  0.48800806211E+01 -0.10530487466E+00  0.97642811464E+01  0.51100000000E-03 0.  1.
        -12    1    3    3    0    0  0.22237383448E+02  0.37662912369E+01  0.52617488518E+01  0.23159710129E+02  0.00000000000E+00 0.  1.
</event>
<event>
 7    1  0.3046295E-009  0.4614232E+02  0.7816164E-02  0.1320468E+00
        -11   -1    0    0    0    0  0.00000000000E+00  0.00000000000E+00  0.45593999997E+02  0.45594000000E+02  0.51100000000E-03 0. -1.
         11   -1    0    0    0    0 -0.00000000000E+00 -0.00000000000E+00 -0.45593999997E+02  0.45594000000E+02  0.51100000000E-03 0.  1.
    9900012    2    1    2    0    0 -0.19618816024E+02 -0.14973999592E+02 -0.37682817419E+02  0.46142319468E+02  0.10000015565E+02 0.  0.
         12    1    1    2    0    0  0.19618816024E+02  0.14973999592E+02  0.37682817419E+02  0.45045680532E+02  0.00000000000E+00 0. -1.
         11    1    3    3    0    0 -0.64120054302E+01 -0.78698143103E+01 -0.14021713436E+02  0.17310581702E+02  0.51100000000E-03 0. -1.
        -11    1    3    3    0    0 -0.72504031432E+01 -0.11019352429E+01 -0.15162422461E+02  0.16842851961E+02  0.51100000000E-03 0.  1.
        -12    1    3    3    0    0 -0.59564074510E+01 -0.60022500389E+01 -0.84986815214E+01  0.11988885805E+02  0.00000000000E+00 0.  1.
</event>
<event>
 7    1  0.3046295E-009  0.4614232E+02  0.7816164E-02  0.1320468E+00
        -11   -1    0    0    0    0  0.00000000000E+00  0.00000000000E+00  0.45593999997E+02  0.45594000000E+02  0.51100000000E-03 0.  1.
         11   -1    0    0    0    0 -0.00000000000E+00 -0.00000000000E+00 -0.45593999997E+02  0.45594000000E+02  0.51100000000E-03 0. -1.
    9900012    2    1    2    0    0  0.19665271082E+02  0.12403151872E+02  0.38581762851E+02  0.46142317767E+02  0.10000000057E+02 0.  0.
         12    1    1    2    0    0 -0.19665271082E+02 -0.12403151872E+02 -0.38581762851E+02  0.45045682233E+02  0.00000000000E+00 0. -1.
         11    1    3    3    0    0  0.21669256019E+01  0.59917749706E+01  0.12857069768E+02  0.14349257024E+02  0.51100000000E-03 0. -1.
        -11    1    3    3    0    0  0.11864715703E+02  0.39695785008E+01  0.18107038215E+02  0.22008949665E+02  0.51100000000E-03 0.  1.
         12    1    3    3    0    0  0.56336297770E+01  0.24417984009E+01  0.76176548684E+01  0.97841110781E+01  0.00000000000E+00 0. -1.
</event>
<event>
 7    1  0.3046295E-009  0.4614232E+02  0.7816164E-02  0.1320468E+00
        -11   -1    0    0    0    0  0.00000000000E+00  0.00000000000E+00  0.45593999997E+02  0.45594000000E+02  0.51100000000E-03 0.  1.
         11   -1    0    0    0    0 -0.00000000000E+00 -0.00000000000E+00 -0.45593999997E+02  0.45594000000E+02  0.51100000000E-03 0. -1.
    9900012    2    1    2    0    0  0.12636821193E+02 -0.27912440920E+02  0.33019993486E+02  0.46142316769E+02  0.99999909506E+01 0.  0.
         12    1    1    2    0    0 -0.12636821193E+02  0.27912440920E+02 -0.33019993486E+02  0.45045683231E+02  0.00000000000E+00 0. -1.
         11    1    3    3    0    0  0.13528700264E+01 -0.90429776986E+01  0.12042942284E+02  0.15120785763E+02  0.51100000000E-03 0. -1.
        -11    1    3    3    0    0  0.12046741115E+02 -0.17813769508E+02  0.19278028069E+02  0.28880732714E+02  0.51100000000E-03 0.  1.
        -12    1    3    3    0    0 -0.76278994885E+00 -0.10556937129E+01  0.16990231328E+01  0.21407982921E+01  0.00000000000E+00 0.  1.
</event>
<event>
 7    1  0.3046295E-009  0.4614232E+02  0.7816164E-02  0.1320468E+00
        -11   -1    0    0    0    0  0.00000000000E+00  0.00000000000E+00  0.45593999997E+02  0.45594000000E+02  0.51100000000E-03 0. -1.
         11   -1    0    0    0    0 -0.00000000000E+00 -0.00000000000E+00 -0.45593999997E+02  0.45594000000E+02  0.51100000000E-03 0.  1.
    9900012    2    1    2    0    0  0.44398222211E+02  0.75404430756E+01  0.10262031673E+01  0.46142317519E+02  0.99999977882E+01 0.  0.
         12    1    1    2    0    0 -0.44398222211E+02 -0.75404430756E+01 -0.10262031673E+01  0.45045682481E+02  0.00000000000E+00 0. -1.
         11    1    3    3    0    0  0.17898445048E+02  0.30031791214E-01  0.27673529877E+01  0.18111142423E+02  0.51100000000E-03 0. -1.
        -11    1    3    3    0    0  0.91387084000E+01  0.19194715873E+01 -0.28358966642E+01  0.97592352439E+01  0.51100000000E-03 0.  1.
         12    1    3    3    0    0  0.17361068763E+02  0.55909396970E+01  0.10947468438E+01  0.18271939851E+02  0.00000000000E+00 0. -1.
</event>
<event>
 7    1  0.3046295E-009  0.4614232E+02  0.7816164E-02  0.1320468E+00
        -11   -1    0    0    0    0  0.00000000000E+00  0.00000000000E+00  0.45593999997E+02  0.45594000000E+02  0.51100000000E-03 0.  1.
         11   -1    0    0    0    0 -0.00000000000E+00 -0.00000000000E+00 -0.45593999997E+02  0.45594000000E+02  0.51100000000E-03 0. -1.
    9900012    2    1    2    0    0 -0.13764838909E+02  0.13473860409E+02  0.40719746514E+02  0.46142318068E+02  0.10000002801E+02 0.  0.
         12    1    1    2    0    0  0.13764838909E+02 -0.13473860409E+02 -0.40719746514E+02  0.45045681932E+02  0.00000000000E+00 0. -1.
         11    1    3    3    0    0 -0.68574166661E+01  0.11817396593E+01  0.13717989375E+02  0.15381934362E+02  0.51100000000E-03 0. -1.
        -11    1    3    3    0    0 -0.65696376716E+01  0.11163664756E+02  0.26466999339E+02  0.29466754219E+02  0.51100000000E-03 0.  1.
        -12    1    3    3    0    0 -0.33778457160E+00  0.11284559939E+01  0.53475780018E+00  0.12936294879E+01  0.00000000000E+00 0.  1.
</event>
<event>
 7    1  0.3046295E-009  0.4614232E+02  0.7816164E-02  0.1320468E+00
        -11   -1    0    0    0    0  0.00000000000E+00  0.00000000000E+00  0.45593999997E+02  0.45594000000E+02  0.51100000000E-03 0. -1.
         11   -1    0    0    0    0 -0.00000000000E+00 -0.00000000000E+00 -0.45593999997E+02  0.45594000000E+02  0.51100000000E-03 0.  1.
    9900012    2    1    2    0    0 -0.19780113631E+02 -0.34462039231E+02 -0.21218587053E+02  0.46142317856E+02  0.10000000869E+02 0.  0.
         12    1    1    2    0    0  0.19780113631E+02  0.34462039231E+02  0.21218587053E+02  0.45045682144E+02  0.00000000000E+00 0. -1.
         11    1    3    3    0    0 -0.88283969259E+01 -0.12259067636E+02 -0.30984153889E+01  0.15421592323E+02  0.51100000000E-03 0. -1.
        -11    1    3    3    0    0 -0.90042791781E+01 -0.16880403507E+02 -0.13642477102E+02  0.23497707288E+02  0.51100000000E-03 0.  1.
         12    1    3    3    0    0 -0.19474375270E+01 -0.53225680882E+01 -0.44776945623E+01  0.72230182451E+01  0.00000000000E+00 0. -1.
</event>
<event>
 7    1  0.3046295E-009  0.4614232E+02  0.7816164E-02  0.1320468E+00
        -11   -1    0    0    0    0  0.00000000000E+00  0.00000000000E+00  0.45593999997E+02  0.45594000000E+02  0.51100000000E-03 0.  1.
         11   -1    0    0    0    0 -0.00000000000E+00 -0.00000000000E+00 -0.45593999997E+02  0.45594000000E+02  0.51100000000E-03 0. -1.
    9900012    2    1    2    0    0 -0.27191166581E+02  0.33782610078E+02  0.12185616016E+02  0.46142317394E+02  0.99999966552E+01 0.  0.
         12    1    1    2    0    0  0.27191166581E+02 -0.33782610078E+02 -0.12185616016E+02  0.45045682606E+02  0.00000000000E+00 0. -1.
         11    1    3    3    0    0 -0.12196349151E+02  0.90772090828E+01  0.41716365060E+01  0.15765443500E+02  0.51100000000E-03 0. -1.
        -11    1    3    3    0    0 -0.13853060133E+02  0.21031803557E+02  0.54893976810E+01  0.25775521781E+02  0.51100000000E-03 0.  1.
        -12    1    3    3    0    0 -0.11417572971E+01  0.36735974377E+01  0.25245818291E+01  0.46013521134E+01  0.00000000000E+00 0.  1.
</event>
<event>
 7    1  0.3046295E-009  0.4614232E+02  0.7816164E-02  0.1320468E+00
        -11   -1    0    0    0    0  0.00000000000E+00  0.00000000000E+00  0.45593999997E+02  0.45594000000E+02  0.51100000000E-03 0. -1.
         11   -1    0    0    0    0 -0.00000000000E+00 -0.00000000000E+00 -0.45593999997E+02  0.45594000000E+02  0.51100000000E-03 0.  1.
    9900012    2    1    2    0    0  0.44353873074E+02  0.64138798782E+01  0.45507602646E+01  0.46142319511E+02  0.10000015957E+02 0.  0.
         12    1    1    2    0    0 -0.44353873074E+02 -0.64138798782E+01 -0.45507602646E+01  0.45045680489E+02  0.00000000000E+00 0. -1.
         11    1    3    3    0    0  0.20107666734E+01  0.94031562171E+00  0.14514766114E+01  0.26521992191E+01  0.51100000000E-03 0. -1.
        -11    1    3    3    0    0  0.39840098833E+02  0.37849694834E+01  0.42809035574E+01  0.40247802481E+02  0.51100000000E-03 0.  1.
         12    1    3    3    0    0  0.25030075672E+01  0.16885947731E+01 -0.11816199042E+01  0.32423178109E+01  0.00000000000E+00 0. -1.
</event>
<event>
 7    1  0.3046295E-009  0.4614232E+02  0.7816164E-02  0.1320468E+00
        -11   -1    0    0    0    0  0.00000000000E+00  0.00000000000E+00  0.45593999997E+02  0.45594000000E+02  0.51100000000E-03 0. -1.
         11   -1    0    0    0    0 -0.00000000000E+00 -0.00000000000E+00 -0.45593999997E+02  0.45594000000E+02  0.51100000000E-03 0.  1.
    9900012    2    1    2    0    0 -0.22921635241E+02  0.37057901653E+02 -0.11420329697E+02  0.46142319104E+02  0.10000012244E+02 0.  0.
         12    1    1    2    0    0  0.22921635241E+02 -0.37057901653E+02  0.11420329697E+02  0.45045680896E+02  0.00000000000E+00 0. -1.
         11    1    3    3    0    0 -0.13117089208E+02  0.14016527314E+02 -0.57597776416E+01  0.20042357795E+02  0.51100000000E-03 0. -1.
        -11    1    3    3    0    0 -0.30294224966E+01  0.59305979087E+01  0.53697572789E+00  0.66811477615E+01  0.51100000000E-03 0.  1.
         12    1    3    3    0    0 -0.67751235359E+01  0.17110776430E+02 -0.61975277835E+01  0.19418813547E+02  0.00000000000E+00 0. -1.
</event>
<event>
 7    1  0.3046295E-009  0.4614232E+02  0.7816164E-02  0.1320468E+00
        -11   -1    0    0    0    0  0.00000000000E+00  0.00000000000E+00  0.45593999997E+02  0.45594000000E+02  0.51100000000E-03 0.  1.
         11   -1    0    0    0    0 -0.00000000000E+00 -0.00000000000E+00 -0.45593999997E+02  0.45594000000E+02  0.51100000000E-03 0. -1.
    9900012    2    1    2    0    0  0.43375724132E+02 -0.79610235733E+00  0.12125440093E+02  0.46142317406E+02  0.99999967632E+01 0.  0.
         12    1    1    2    0    0 -0.43375724132E+02  0.79610235733E+00 -0.12125440093E+02  0.45045682594E+02  0.00000000000E+00 0. -1.
         11    1    3    3    0    0  0.43253595649E+01  0.15964243753E+01  0.57574103736E+00  0.46463732259E+01  0.51100000000E-03 0.  1.
        -11    1    3    3    0    0  0.84794505206E+01  0.26175846268E+01  0.27911416099E+01  0.93028652660E+01  0.51100000000E-03 0. -1.
        -12    1    3    3    0    0  0.30570914046E+02 -0.50101113595E+01  0.87585574456E+01  0.32193078914E+02  0.00000000000E+00 0.  1.
</event>
<event>
 7    1  0.3046295E-009  0.4614232E+02  0.7816164E-02  0.1320468E+00
        -11   -1    0    0    0    0  0.00000000000E+00  0.00000000000E+00  0.45593999997E+02  0.45594000000E+02  0.51100000000E-03 0.  1.
         11   -1    0    0    0    0 -0.00000000000E+00 -0.00000000000E+00 -0.45593999997E+02  0.45594000000E+02  0.51100000000E-03 0. -1.
    9900012    2    1    2    0    0  0.66047354257E+01  0.79725441498E+01  0.43839816272E+02  0.46142317843E+02  0.10000000742E+02 0.  0.
         12    1    1    2    0    0 -0.66047354257E+01 -0.79725441498E+01 -0.43839816272E+02  0.45045682157E+02  0.00000000000E+00 0. -1.
         11    1    3    3    0    0  0.32437085255E+01  0.27825621438E+01  0.25922741830E+02  0.26272663384E+02  0.51100000000E-03 0. -1.
        -11    1    3    3    0    0  0.29824958410E+01  0.37135592983E+01  0.17700553081E+02  0.18330176860E+02  0.51100000000E-03 0.  1.
         12    1    3    3    0    0  0.37853105918E+00  0.14764227077E+01  0.21652136191E+00  0.15394775980E+01  0.00000000000E+00 0. -1.
</event>
<event>
 7    1  0.3046295E-009  0.4614232E+02  0.7816164E-02  0.1320468E+00
        -11   -1    0    0    0    0  0.00000000000E+00  0.00000000000E+00  0.45593999997E+02  0.45594000000E+02  0.51100000000E-03 0. -1.
         11   -1    0    0    0    0 -0.00000000000E+00 -0.00000000000E+00 -0.45593999997E+02  0.45594000000E+02  0.51100000000E-03 0.  1.
    9900012    2    1    2    0    0  0.21338011622E+02 -0.33993985220E+02 -0.20450230366E+02  0.46142315488E+02  0.99999792741E+01 0.  0.
         12    1    1    2    0    0 -0.21338011622E+02  0.33993985220E+02  0.20450230366E+02  0.45045684512E+02  0.00000000000E+00 0. -1.
         11    1    3    3    0    0  0.53427495073E+00 -0.33650219912E+01  0.66337420729E+00  0.34711508646E+01  0.51100000000E-03 0. -1.
        -11    1    3    3    0    0  0.58556394281E+01 -0.78928334369E+01 -0.65312170274E+01  0.11800090207E+02  0.51100000000E-03 0.  1.
         12    1    3    3    0    0  0.14948097243E+02 -0.22736129792E+02 -0.14582387546E+02  0.30871074417E+02  0.00000000000E+00 0. -1.
</event>
<event>
 7    1  0.3046295E-009  0.4614232E+02  0.7816164E-02  0.1320468E+00
        -11   -1    0    0    0    0  0.00000000000E+00  0.00000000000E+00  0.45593999997E+02  0.45594000000E+02  0.51100000000E-03 0.  1.
         11   -1    0    0    0    0 -0.00000000000E+00 -0.00000000000E+00 -0.45593999997E+02  0.45594000000E+02  0.51100000000E-03 0. -1.
    9900012    2    1    2    0    0 -0.11353531390E+02 -0.43563294263E+02 -0.15653129092E+01  0.46142317781E+02  0.10000000182E+02 0.  0.
         12    1    1    2    0    0  0.11353531390E+02  0.43563294263E+02  0.15653129092E+01  0.45045682219E+02  0.00000000000E+00 0. -1.
         11    1    3    3    0    0  0.94384513807E+00 -0.57014171911E+01 -0.85539620478E+00  0.58419777952E+01  0.51100000000E-03 0. -1.
        -11    1    3    3    0    0 -0.10130948338E+02 -0.30709566536E+02  0.18773206782E+01  0.32391942273E+02  0.51100000000E-03 0.  1.
         12    1    3    3    0    0 -0.21664281899E+01 -0.71523105359E+01 -0.25872373826E+01  0.79083977124E+01  0.00000000000E+00 0. -1.
</event>
<event>
 7    1  0.3046295E-009  0.4614232E+02  0.7816164E-02  0.1320468E+00
        -11   -1    0    0    0    0  0.00000000000E+00  0.00000000000E+00  0.45593999997E+02  0.45594000000E+02  0.51100000000E-03 0. -1.
         11   -1    0    0    0    0 -0.00000000000E+00 -0.00000000000E+00 -0.45593999997E+02  0.45594000000E+02  0.51100000000E-03 0.  1.
    9900012    2    1    2    0    0  0.98444878238E+00  0.33851802577E+02 -0.29701846373E+02  0.46142319240E+02  0.10000013490E+02 0.  0.
         12    1    1    2    0    0 -0.98444878238E+00 -0.33851802577E+02  0.29701846373E+02  0.45045680760E+02  0.00000000000E+00 0. -1.
         11    1    3    3    0    0 -0.86093492603E+00  0.18679933303E+01 -0.49276428349E+01  0.53396883990E+01  0.51100000000E-03 0. -1.
        -11    1    3    3    0    0  0.30802898976E+01  0.22417168130E+02 -0.19101372764E+02  0.29612160586E+02  0.51100000000E-03 0.  1.
         12    1    3    3    0    0 -0.12349061892E+01  0.95666411168E+01 -0.56728307736E+01  0.11190470256E+02  0.00000000000E+00 0. -1.
</event>
<event>
 7    1  0.3046295E-009  0.4614232E+02  0.7816164E-02  0.1320468E+00
        -11   -1    0    0    0    0  0.00000000000E+00  0.00000000000E+00  0.45593999997E+02  0.45594000000E+02  0.51100000000E-03 0. -1.
         11   -1    0    0    0    0 -0.00000000000E+00 -0.00000000000E+00 -0.45593999997E+02  0.45594000000E+02  0.51100000000E-03 0.  1.
    9900012    2    1    2    0    0  0.14305644049E+02 -0.33684554259E+02 -0.26264289805E+02  0.46142316897E+02  0.99999921199E+01 0.  0.
         12    1    1    2    0    0 -0.14305644049E+02  0.33684554259E+02  0.26264289805E+02  0.45045683103E+02  0.00000000000E+00 0. -1.
         11    1    3    3    0    0  0.37322012650E+01 -0.41696872701E+01 -0.38054696174E+01  0.67673641459E+01  0.51100000000E-03 0. -1.
        -11    1    3    3    0    0 -0.12518592070E+00 -0.47965904236E+01 -0.64612669910E+01  0.80480384316E+01  0.51100000000E-03 0.  1.
        -12    1    3    3    0    0  0.10698628705E+02 -0.24718276565E+02 -0.15997553197E+02  0.31326914319E+02  0.00000000000E+00 0.  1.
</event>
<event>
 7    1  0.3046295E-009  0.4614232E+02  0.7816164E-02  0.1320468E+00
        -11   -1    0    0    0    0  0.00000000000E+00  0.00000000000E+00  0.45593999997E+02  0.45594000000E+02  0.51100000000E-03 0.  1.
         11   -1    0    0    0    0 -0.00000000000E+00 -0.00000000000E+00 -0.45593999997E+02  0.45594000000E+02  0.51100000000E-03 0. -1.
    9900012    2    1    2    0    0  0.64245398888E+01  0.46932320096E+01  0.44337477733E+02  0.46142322392E+02  0.10000042225E+02 0.  0.
         12    1    1    2    0    0 -0.64245398888E+01 -0.46932320096E+01 -0.44337477733E+02  0.45045677608E+02  0.00000000000E+00 0. -1.
         11    1    3    3    0    0  0.46968835194E+01  0.19482313044E+01  0.26224107728E+02  0.26712546610E+02  0.51100000000E-03 0. -1.
        -11    1    3    3    0    0 -0.37372646425E+00  0.27141744382E+00  0.14744644406E+02  0.14751877094E+02  0.51100000000E-03 0.  1.
         12    1    3    3    0    0  0.21013828336E+01  0.24735832614E+01  0.33687255996E+01  0.46778986874E+01  0.00000000000E+00 0. -1.
</event>
<event>
 7    1  0.3046295E-009  0.4614232E+02  0.7816164E-02  0.1320468E+00
        -11   -1    0    0    0    0  0.00000000000E+00  0.00000000000E+00  0.45593999997E+02  0.45594000000E+02  0.51100000000E-03 0.  1.
         11   -1    0    0    0    0 -0.00000000000E+00 -0.00000000000E+00 -0.45593999997E+02  0.45594000000E+02  0.51100000000E-03 0. -1.
    9900012    2    1    2    0    0 -0.12115754663E+02 -0.28996565420E+02  0.32272607295E+02  0.46142317645E+02  0.99999989407E+01 0.  0.
         12    1    1    2    0    0  0.12115754663E+02  0.28996565420E+02 -0.32272607295E+02  0.45045682355E+02  0.00000000000E+00 0. -1.
         11    1    3    3    0    0 -0.49079342969E-01 -0.17415353007E+01  0.59093963737E+01  0.61608700480E+01  0.51100000000E-03 0. -1.
        -11    1    3    3    0    0 -0.61811041137E+01 -0.18256323824E+02  0.16038894794E+02  0.25074799184E+02  0.51100000000E-03 0.  1.
         12    1    3    3    0    0 -0.58855712067E+01 -0.89987062946E+01  0.10324316128E+02  0.14906648413E+02  0.00000000000E+00 0. -1.
</event>
<event>
 7    1  0.3046295E-009  0.4614232E+02  0.7816164E-02  0.1320468E+00
        -11   -1    0    0    0    0  0.00000000000E+00  0.00000000000E+00  0.45593999997E+02  0.45594000000E+02  0.51100000000E-03 0. -1.
         11   -1    0    0    0    0 -0.00000000000E+00 -0.00000000000E+00 -0.45593999997E+02  0.45594000000E+02  0.51100000000E-03 0.  1.
    9900012    2    1    2    0    0  0.26296279588E+02  0.34612269271E+02 -0.11815667121E+02  0.46142317702E+02  0.99999994575E+01 0.  0.
         12    1    1    2    0    0 -0.26296279588E+02 -0.34612269271E+02  0.11815667121E+02  0.45045682298E+02  0.00000000000E+00 0. -1.
         11    1    3    3    0    0  0.51874574831E+01  0.12892566100E+02 -0.38319385811E+01  0.14415676513E+02  0.51100000000E-03 0. -1.
        -11    1    3    3    0    0  0.10231678106E+02  0.14086041972E+02 -0.41850135782E+01  0.17905813420E+02  0.51100000000E-03 0.  1.
         12    1    3    3    0    0  0.10877143998E+02  0.76336611984E+01 -0.37987149620E+01  0.13820827769E+02  0.00000000000E+00 0. -1.
</event>
<event>
 7    1  0.3046295E-009  0.4614232E+02  0.7816164E-02  0.1320468E+00
        -11   -1    0    0    0    0  0.00000000000E+00  0.00000000000E+00  0.45593999997E+02  0.45594000000E+02  0.51100000000E-03 0.  1.
         11   -1    0    0    0    0 -0.00000000000E+00 -0.00000000000E+00 -0.45593999997E+02  0.45594000000E+02  0.51100000000E-03 0. -1.
    9900012    2    1    2    0    0 -0.12525851536E+02 -0.16672351886E+01  0.43236984272E+02  0.46142318311E+02  0.10000005012E+02 0.  0.
         12    1    1    2    0    0  0.12525851536E+02  0.16672351886E+01 -0.43236984272E+02  0.45045681689E+02  0.00000000000E+00 0. -1.
         11    1    3    3    0    0 -0.62524779441E+01 -0.27007469745E+01  0.25848794052E+02  0.26731024463E+02  0.51100000000E-03 0. -1.
        -11    1    3    3    0    0 -0.26532593299E+01  0.31013036412E+01  0.57687695726E+01  0.70665813510E+01  0.51100000000E-03 0.  1.
        -12    1    3    3    0    0 -0.36201142624E+01 -0.20677918554E+01  0.11619420648E+02  0.12344712496E+02  0.00000000000E+00 0.  1.
</event>
<event>
 7    1  0.3046295E-009  0.4614232E+02  0.7816164E-02  0.1320468E+00
        -11   -1    0    0    0    0  0.00000000000E+00  0.00000000000E+00  0.45593999997E+02  0.45594000000E+02  0.51100000000E-03 0. -1.
         11   -1    0    0    0    0 -0.00000000000E+00 -0.00000000000E+00 -0.45593999997E+02  0.45594000000E+02  0.51100000000E-03 0.  1.
    9900012    2    1    2    0    0 -0.29823667976E+02  0.14347873685E+02 -0.30558153466E+02  0.46142318807E+02  0.10000009540E+02 0.  0.
         12    1    1    2    0    0  0.29823667976E+02 -0.14347873685E+02  0.30558153466E+02  0.45045681193E+02  0.00000000000E+00 0. -1.
         11    1    3    3    0    0 -0.54909086727E+01  0.47462934946E+01 -0.35766120657E+01  0.80913246208E+01  0.51100000000E-03 0. -1.
        -11    1    3    3    0    0 -0.19717567164E+02  0.10142661484E+02 -0.21899715001E+02  0.31164941107E+02  0.51100000000E-03 0.  1.
         12    1    3    3    0    0 -0.46151921392E+01 -0.54108129363E+00 -0.50818264000E+01  0.68860530791E+01  0.00000000000E+00 0. -1.
</event>
<event>
 7    1  0.3046295E-009  0.4614232E+02  0.7816164E-02  0.1320468E+00
        -11   -1    0    0    0    0  0.00000000000E+00  0.00000000000E+00  0.45593999997E+02  0.45594000000E+02  0.51100000000E-03 0.  1.
         11   -1    0    0    0    0 -0.00000000000E+00 -0.00000000000E+00 -0.45593999997E+02  0.45594000000E+02  0.51100000000E-03 0. -1.
    9900012    2    1    2    0    0  0.13018634190E+02 -0.28564974366E+02  0.32305896911E+02  0.46142316834E+02  0.99999915440E+01 0.  0.
         12    1    1    2    0    0 -0.13018634190E+02  0.28564974366E+02 -0.32305896911E+02  0.45045683166E+02  0.00000000000E+00 0. -1.
         11    1    3    3    0    0  0.69867605270E+01 -0.82365060670E+01  0.64471257238E+01  0.12578564513E+02  0.51100000000E-03 0. -1.
        -11    1    3    3    0    0  0.24450678507E+01 -0.61099642079E+01  0.99315901717E+01  0.11914130393E+02  0.51100000000E-03 0.  1.
         12    1    3    3    0    0  0.35868058120E+01 -0.14218504091E+02  0.15927181015E+02  0.21649621928E+02  0.00000000000E+00 0. -1.
</event>
<event>
 7    1  0.3046295E-009  0.4614232E+02  0.7816164E-02  0.1320468E+00
        -11   -1    0    0    0    0  0.00000000000E+00  0.00000000000E+00  0.45593999997E+02  0.45594000000E+02  0.51100000000E-03 0.  1.
         11   -1    0    0    0    0 -0.00000000000E+00 -0.00000000000E+00 -0.45593999997E+02  0.45594000000E+02  0.51100000000E-03 0. -1.
    9900012    2    1    2    0    0  0.15101032658E+01 -0.23363868075E+02  0.38483278046E+02  0.46142318381E+02  0.10000005656E+02 0.  0.
         12    1    1    2    0    0 -0.15101032658E+01  0.23363868075E+02 -0.38483278046E+02  0.45045681619E+02  0.00000000000E+00 0. -1.
         11    1    3    3    0    0 -0.10008077258E+01 -0.15402288215E+01  0.52955922562E+01  0.56051064693E+01  0.51100000000E-03 0. -1.
        -11    1    3    3    0    0  0.36286434771E+01 -0.21626582893E+02  0.32512596632E+02  0.39216642910E+02  0.51100000000E-03 0.  1.
        -12    1    3    3    0    0 -0.11177324855E+01 -0.19705636053E+00  0.67508915835E+00  0.13205690024E+01  0.00000000000E+00 0.  1.
</event>
<event>
 7    1  0.3046295E-009  0.4614232E+02  0.7816164E-02  0.1320468E+00
        -11   -1    0    0    0    0  0.00000000000E+00  0.00000000000E+00  0.45593999997E+02  0.45594000000E+02  0.51100000000E-03 0.  1.
         11   -1    0    0    0    0 -0.00000000000E+00 -0.00000000000E+00 -0.45593999997E+02  0.45594000000E+02  0.51100000000E-03 0. -1.
    9900012    2    1    2    0    0  0.36620705440E+02 -0.19043291630E+01  0.26161249250E+02  0.46142317645E+02  0.99999989457E+01 0.  0.
         12    1    1    2    0    0 -0.36620705440E+02  0.19043291630E+01 -0.26161249250E+02  0.45045682355E+02  0.00000000000E+00 0. -1.
         11    1    3    3    0    0  0.53500959786E+01  0.19524387153E+01  0.93065803746E+00  0.57707597907E+01  0.51100000000E-03 0. -1.
        -11    1    3    3    0    0  0.12873385362E+02 -0.14760942113E+01  0.10824444897E+02  0.16884060898E+02  0.51100000000E-03 0.  1.
         12    1    3    3    0    0  0.18397224099E+02 -0.23806736669E+01  0.14406146315E+02  0.23487496957E+02  0.00000000000E+00 0. -1.
</event>
<event>
 7    1  0.3046295E-009  0.4614230E+02  0.7816164E-02  0.1320468E+00
        -11   -1    0    0    0    0  0.00000000000E+00  0.00000000000E+00  0.45593999997E+02  0.45594000000E+02  0.51100000000E-03 0.  1.
         11   -1    0    0    0    0 -0.00000000000E+00 -0.00000000000E+00 -0.45593999997E+02  0.45594000000E+02  0.51100000000E-03 0. -1.
    9900012    2    1    2    0    0  0.46851557549E+01  0.41633004240E+02  0.16548631691E+02  0.46142301678E+02  0.99998533402E+01 0.  0.
         12    1    1    2    0    0 -0.46851557549E+01 -0.41633004240E+02 -0.16548631691E+02  0.45045698322E+02  0.00000000000E+00 0. -1.
         11    1    3    3    0    0 -0.14885268837E+01  0.55104099253E+01  0.52116434023E+01  0.77292662680E+01  0.51100000000E-03 0. -1.
        -11    1    3    3    0    0 -0.87909004790E-01  0.13516589000E+01  0.64596409140E+00  0.15006597361E+01  0.51100000000E-03 0.  1.
         12    1    3    3    0    0  0.62615916435E+01  0.34770935414E+02  0.10691024198E+02  0.36912375674E+02  0.00000000000E+00 0. -1.
</event>
<event>
 7    1  0.3046295E-009  0.4614232E+02  0.7816164E-02  0.1320468E+00
        -11   -1    0    0    0    0  0.00000000000E+00  0.00000000000E+00  0.45593999997E+02  0.45594000000E+02  0.51100000000E-03 0.  1.
         11   -1    0    0    0    0 -0.00000000000E+00 -0.00000000000E+00 -0.45593999997E+02  0.45594000000E+02  0.51100000000E-03 0. -1.
    9900012    2    1    2    0    0  0.38965626876E+02  0.22147774055E+02 -0.45021679181E+01  0.46142317750E+02  0.99999998982E+01 0.  0.
         12    1    1    2    0    0 -0.38965626876E+02 -0.22147774055E+02  0.45021679181E+01  0.45045682250E+02  0.00000000000E+00 0. -1.
         11    1    3    3    0    0  0.35088093177E+00 -0.46086504665E+00  0.18839567263E+00  0.60910361194E+00  0.51100000000E-03 0. -1.
        -11    1    3    3    0    0  0.18784592604E+02  0.13069652552E+02  0.63498359931E+00  0.22892792350E+02  0.51100000000E-03 0.  1.
        -12    1    3    3    0    0  0.19830153340E+02  0.95389865489E+01 -0.53255471900E+01  0.22640421788E+02  0.00000000000E+00 0.  1.
</event>
<event>
 7    1  0.3046295E-009  0.4614232E+02  0.7816164E-02  0.1320468E+00
        -11   -1    0    0    0    0  0.00000000000E+00  0.00000000000E+00  0.45593999997E+02  0.45594000000E+02  0.51100000000E-03 0.  1.
         11   -1    0    0    0    0 -0.00000000000E+00 -0.00000000000E+00 -0.45593999997E+02  0.45594000000E+02  0.51100000000E-03 0. -1.
    9900012    2    1    2    0    0 -0.32846484017E+02  0.18224995004E+02  0.24861044180E+02  0.46142317933E+02  0.10000001569E+02 0.  0.
         12    1    1    2    0    0  0.32846484017E+02 -0.18224995004E+02 -0.24861044180E+02  0.45045682067E+02  0.00000000000E+00 0. -1.
         11    1    3    3    0    0 -0.12667832572E+02  0.55037179941E+01  0.50515178015E+01  0.14706553852E+02  0.51100000000E-03 0. -1.
        -11    1    3    3    0    0 -0.18675815451E+02  0.10045722186E+02  0.16124135355E+02  0.26640014231E+02  0.51100000000E-03 0.  1.
        -12    1    3    3    0    0 -0.15028359936E+01  0.26755548234E+01  0.36853910233E+01  0.47957498508E+01  0.00000000000E+00 0.  1.
</event>
<event>
 7    1  0.3046295E-009  0.4614232E+02  0.7816164E-02  0.1320468E+00
        -11   -1    0    0    0    0  0.00000000000E+00  0.00000000000E+00  0.45593999997E+02  0.45594000000E+02  0.51100000000E-03 0. -1.
         11   -1    0    0    0    0 -0.00000000000E+00 -0.00000000000E+00 -0.45593999997E+02  0.45594000000E+02  0.51100000000E-03 0.  1.
    9900012    2    1    2    0    0 -0.44348325689E+02 -0.76945565350E+01  0.17701079018E+01  0.46142317924E+02  0.10000001483E+02 0.  0.
         12    1    1    2    0    0  0.44348325689E+02  0.76945565350E+01 -0.17701079018E+01  0.45045682076E+02  0.00000000000E+00 0. -1.
         11    1    3    3    0    0 -0.16652923145E+02  0.88959518915E+00 -0.19600035603E+01  0.16791451489E+02  0.51100000000E-03 0. -1.
        -11    1    3    3    0    0 -0.14250918471E+02 -0.57786806635E+01  0.20814411884E+01  0.15518190138E+02  0.51100000000E-03 0.  1.
        -12    1    3    3    0    0 -0.13444484073E+02 -0.28054710607E+01  0.16486702737E+01  0.13832676297E+02  0.00000000000E+00 0.  1.
</event>
<event>
 7    1  0.3046295E-009  0.4614232E+02  0.7816164E-02  0.1320468E+00
        -11   -1    0    0    0    0  0.00000000000E+00  0.00000000000E+00  0.45593999997E+02  0.45594000000E+02  0.51100000000E-03 0.  1.
         11   -1    0    0    0    0 -0.00000000000E+00 -0.00000000000E+00 -0.45593999997E+02  0.45594000000E+02  0.51100000000E-03 0. -1.
    9900012    2    1    2    0    0  0.33838429828E+02  0.19589121356E+01  0.29668783374E+02  0.46142318998E+02  0.10000011283E+02 0.  0.
         12    1    1    2    0    0 -0.33838429828E+02 -0.19589121356E+01 -0.29668783374E+02  0.45045681002E+02  0.00000000000E+00 0. -1.
         11    1    3    3    0    0 -0.19620500032E-01  0.33161778764E+00 -0.17326056924E+00  0.37466626092E+00  0.51100000000E-03 0.  1.
        -11    1    3    3    0    0  0.51867844658E+01  0.17550083607E+01  0.81334325964E+01  0.98048719268E+01  0.51100000000E-03 0. -1.
        -12    1    3    3    0    0  0.28671265863E+02 -0.12771401274E+00  0.21708611347E+02  0.35962780811E+02  0.00000000000E+00 0.  1.
</event>
<event>
 7    1  0.3046295E-009  0.4614232E+02  0.7816164E-02  0.1320468E+00
        -11   -1    0    0    0    0  0.00000000000E+00  0.00000000000E+00  0.45593999997E+02  0.45594000000E+02  0.51100000000E-03 0.  1.
         11   -1    0    0    0    0 -0.00000000000E+00 -0.00000000000E+00 -0.45593999997E+02  0.45594000000E+02  0.51100000000E-03 0. -1.
    9900012    2    1    2    0    0 -0.38017895495E+02 -0.23633824746E+02 -0.50195026132E+01  0.46142318115E+02  0.10000003228E+02 0.  0.
         12    1    1    2    0    0  0.38017895495E+02  0.23633824746E+02  0.50195026132E+01  0.45045681885E+02  0.00000000000E+00 0. -1.
         11    1    3    3    0    0 -0.20722162338E+02 -0.79996224350E+01 -0.15687721939E+01  0.22267981891E+02  0.51100000000E-03 0. -1.
        -11    1    3    3    0    0 -0.80432896505E+01 -0.93118030879E+01 -0.29687315963E+01  0.12657707245E+02  0.51100000000E-03 0.  1.
        -12    1    3    3    0    0 -0.92524435069E+01 -0.63223992231E+01 -0.48199882300E+00  0.11216628979E+02  0.00000000000E+00 0.  1.
</event>
<event>
 7    1  0.3046295E-009  0.4614232E+02  0.7816164E-02  0.1320468E+00
        -11   -1    0    0    0    0  0.00000000000E+00  0.00000000000E+00  0.45593999997E+02  0.45594000000E+02  0.51100000000E-03 0.  1.
         11   -1    0    0    0    0 -0.00000000000E+00 -0.00000000000E+00 -0.45593999997E+02  0.45594000000E+02  0.51100000000E-03 0. -1.
    9900012    2    1    2    0    0 -0.14954546261E+02 -0.28561787601E+02  0.31459487332E+02  0.46142317543E+02  0.99999980090E+01 0.  0.
         12    1    1    2    0    0  0.14954546261E+02  0.28561787601E+02 -0.31459487332E+02  0.45045682457E+02  0.00000000000E+00 0. -1.
         11    1    3    3    0    0 -0.11713459797E+01 -0.18169567694E+01 -0.33877513141E+00  0.21881846715E+01  0.51100000000E-03 0. -1.
        -11    1    3    3    0    0 -0.99859571509E+01 -0.15411269935E+02  0.18319465249E+02  0.25938955039E+02  0.51100000000E-03 0.  1.
         12    1    3    3    0    0 -0.37972431306E+01 -0.11333560897E+02  0.13478797215E+02  0.18015177833E+02  0.00000000000E+00 0. -1.
</event>
<event>
 7    1  0.3046295E-009  0.4614232E+02  0.7816164E-02  0.1320468E+00
        -11   -1    0    0    0    0  0.00000000000E+00  0.00000000000E+00  0.45593999997E+02  0.45594000000E+02  0.51100000000E-03 0.  1.
         11   -1    0    0    0    0 -0.00000000000E+00 -0.00000000000E+00 -0.45593999997E+02  0.45594000000E+02  0.51100000000E-03 0. -1.
    9900012    2    1    2    0    0 -0.23500774024E+02  0.15474171311E+01  0.38398341451E+02  0.46142317569E+02  0.99999982486E+01 0.  0.
         12    1    1    2    0    0  0.23500774024E+02 -0.15474171311E+01 -0.38398341451E+02  0.45045682431E+02  0.00000000000E+00 0. -1.
         11    1    3    3    0    0 -0.27981487420E+01  0.10201748233E+00  0.47210485234E+01  0.54889291642E+01  0.51100000000E-03 0. -1.
        -11    1    3    3    0    0 -0.15170402895E+02 -0.28409135936E+01  0.26228879280E+02  0.30432975908E+02  0.51100000000E-03 0.  1.
        -12    1    3    3    0    0 -0.55322223874E+01  0.42863132424E+01  0.74484136470E+01  0.10220412497E+02  0.00000000000E+00 0.  1.
</event>
<event>
 7    1  0.3046295E-009  0.4614232E+02  0.7816164E-02  0.1320468E+00
        -11   -1    0    0    0    0  0.00000000000E+00  0.00000000000E+00  0.45593999997E+02  0.45594000000E+02  0.51100000000E-03 0.  1.
         11   -1    0    0    0    0 -0.00000000000E+00 -0.00000000000E+00 -0.45593999997E+02  0.45594000000E+02  0.51100000000E-03 0. -1.
    9900012    2    1    2    0    0  0.10669497731E+02  0.35023324204E+02  0.26241990715E+02  0.46142317667E+02  0.99999991456E+01 0.  0.
         12    1    1    2    0    0 -0.10669497731E+02 -0.35023324204E+02 -0.26241990715E+02  0.45045682333E+02  0.00000000000E+00 0. -1.
         11    1    3    3    0    0 -0.14910627153E+01  0.60569585818E+01  0.32062255139E+01  0.70135509971E+01  0.51100000000E-03 0. -1.
        -11    1    3    3    0    0  0.11489529979E+02  0.25375313849E+02  0.19197421861E+02  0.33829822029E+02  0.51100000000E-03 0.  1.
        -12    1    3    3    0    0  0.67103046688E+00  0.35910517728E+01  0.38383433396E+01  0.52989446416E+01  0.00000000000E+00 0.  1.
</event>
<event>
 7    1  0.3046295E-009  0.4614232E+02  0.7816164E-02  0.1320468E+00
        -11   -1    0    0    0    0  0.00000000000E+00  0.00000000000E+00  0.45593999997E+02  0.45594000000E+02  0.51100000000E-03 0.  1.
         11   -1    0    0    0    0 -0.00000000000E+00 -0.00000000000E+00 -0.45593999997E+02  0.45594000000E+02  0.51100000000E-03 0. -1.
    9900012    2    1    2    0    0  0.59093695152E+00  0.23877877645E+02  0.38191771278E+02  0.46142316071E+02  0.99999845837E+01 0.  0.
         12    1    1    2    0    0 -0.59093695152E+00 -0.23877877645E+02 -0.38191771278E+02  0.45045683929E+02  0.00000000000E+00 0. -1.
         11    1    3    3    0    0  0.14151955985E+00  0.90212981672E+00  0.50977089312E+00  0.10458167223E+01  0.51100000000E-03 0. -1.
        -11    1    3    3    0    0  0.48559425999E+01  0.11662518077E+02  0.19188659637E+02  0.22973880067E+02  0.51100000000E-03 0.  1.
        -12    1    3    3    0    0 -0.44065252082E+01  0.11313229751E+02  0.18493340748E+02  0.22122619281E+02  0.00000000000E+00 0.  1.
</event>
<event>
 7    1  0.3046295E-009  0.4614232E+02  0.7816164E-02  0.1320468E+00
        -11   -1    0    0    0    0  0.00000000000E+00  0.00000000000E+00  0.45593999997E+02  0.45594000000E+02  0.51100000000E-03 0.  1.
         11   -1    0    0    0    0 -0.00000000000E+00 -0.00000000000E+00 -0.45593999997E+02  0.45594000000E+02  0.51100000000E-03 0. -1.
    9900012    2    1    2    0    0  0.20204981678E+02  0.31097939958E+02  0.25569324507E+02  0.46142317522E+02  0.99999978152E+01 0.  0.
         12    1    1    2    0    0 -0.20204981678E+02 -0.31097939958E+02 -0.25569324507E+02  0.45045682478E+02  0.00000000000E+00 0. -1.
         11    1    3    3    0    0  0.37712656160E+01  0.23756365601E+01  0.17960058157E+01  0.48053855790E+01  0.51100000000E-03 0. -1.
        -11    1    3    3    0    0  0.11797456596E+02  0.14240363486E+02  0.14757554818E+02  0.23659107312E+02  0.51100000000E-03 0.  1.
        -12    1    3    3    0    0  0.46362594659E+01  0.14481939912E+02  0.90157638729E+01  0.17677824630E+02  0.00000000000E+00 0.  1.
</event>
<event>
 7    1  0.3046295E-009  0.4614232E+02  0.7816164E-02  0.1320468E+00
        -11   -1    0    0    0    0  0.00000000000E+00  0.00000000000E+00  0.45593999997E+02  0.45594000000E+02  0.51100000000E-03 0.  1.
         11   -1    0    0    0    0 -0.00000000000E+00 -0.00000000000E+00 -0.45593999997E+02  0.45594000000E+02  0.51100000000E-03 0. -1.
    9900012    2    1    2    0    0 -0.71299135250E+00 -0.45428302184E+01  0.44810354463E+02  0.46142317297E+02  0.99999957718E+01 0.  0.
         12    1    1    2    0    0  0.71299135250E+00  0.45428302184E+01 -0.44810354463E+02  0.45045682703E+02  0.00000000000E+00 0. -1.
         11    1    3    3    0    0  0.50740254001E+00  0.18089226012E+01  0.39799629499E+01  0.44011093668E+01  0.51100000000E-03 0. -1.
        -11    1    3    3    0    0 -0.20992645341E+01 -0.48951468735E+01  0.38439998748E+02  0.38807252911E+02  0.51100000000E-03 0.  1.
        -12    1    3    3    0    0  0.87887064156E+00 -0.14566059461E+01  0.23903927653E+01  0.29339550200E+01  0.00000000000E+00 0.  1.
</event>
<event>
 7    1  0.3046295E-009  0.4614232E+02  0.7816164E-02  0.1320468E+00
        -11   -1    0    0    0    0  0.00000000000E+00  0.00000000000E+00  0.45593999997E+02  0.45594000000E+02  0.51100000000E-03 0.  1.
         11   -1    0    0    0    0 -0.00000000000E+00 -0.00000000000E+00 -0.45593999997E+02  0.45594000000E+02  0.51100000000E-03 0. -1.
    9900012    2    1    2    0    0  0.31328466442E+02 -0.13787872544E+02  0.29283702151E+02  0.46142318180E+02  0.10000003823E+02 0.  0.
         12    1    1    2    0    0 -0.31328466442E+02  0.13787872544E+02 -0.29283702151E+02  0.45045681820E+02  0.00000000000E+00 0. -1.
         11    1    3    3    0    0  0.37293595690E+01 -0.22405866787E+01  0.72296916837E+01  0.84378192421E+01  0.51100000000E-03 0. -1.
        -11    1    3    3    0    0  0.27026595071E+02 -0.12234001562E+02  0.21632171883E+02  0.36715916112E+02  0.51100000000E-03 0.  1.
        -12    1    3    3    0    0  0.57251180238E+00  0.68671569680E+00  0.42183858462E+00  0.98858282585E+00  0.00000000000E+00 0.  1.
</event>
<event>
 7    1  0.3046295E-009  0.4614232E+02  0.7816164E-02  0.1320468E+00
        -11   -1    0    0    0    0  0.00000000000E+00  0.00000000000E+00  0.45593999997E+02  0.45594000000E+02  0.51100000000E-03 0.  1.
         11   -1    0    0    0    0 -0.00000000000E+00 -0.00000000000E+00 -0.45593999997E+02  0.45594000000E+02  0.51100000000E-03 0. -1.
    9900012    2    1    2    0    0  0.27446888813E+02 -0.31978573824E+02  0.15910770089E+02  0.46142317697E+02  0.99999994135E+01 0.  0.
         12    1    1    2    0    0 -0.27446888813E+02  0.31978573824E+02 -0.15910770089E+02  0.45045682303E+02  0.00000000000E+00 0. -1.
         11    1    3    3    0    0  0.22983759171E+02 -0.25676295453E+02  0.12349456233E+02  0.36606480346E+02  0.51100000000E-03 0. -1.
        -11    1    3    3    0    0  0.33054320533E+01 -0.65309331855E+01  0.39188617206E+01  0.83027975273E+01  0.51100000000E-03 0.  1.
         12    1    3    3    0    0  0.11576975888E+01  0.22865481366E+00 -0.35754786531E+00  0.12330398237E+01  0.00000000000E+00 0. -1.
</event>
<event>
 7    1  0.3046295E-009  0.4614232E+02  0.7816164E-02  0.1320468E+00
        -11   -1    0    0    0    0  0.00000000000E+00  0.00000000000E+00  0.45593999997E+02  0.45594000000E+02  0.51100000000E-03 0.  1.
         11   -1    0    0    0    0 -0.00000000000E+00 -0.00000000000E+00 -0.45593999997E+02  0.45594000000E+02  0.51100000000E-03 0. -1.
    9900012    2    1    2    0    0  0.41635583462E+02 -0.13798747521E+02  0.10256033717E+02  0.46142317955E+02  0.10000001764E+02 0.  0.
         12    1    1    2    0    0 -0.41635583462E+02  0.13798747521E+02 -0.10256033717E+02  0.45045682045E+02  0.00000000000E+00 0. -1.
         11    1    3    3    0    0  0.32385272505E+02 -0.13374717335E+02  0.10343585776E+02  0.36533254796E+02  0.51100000000E-03 0. -1.
        -11    1    3    3    0    0  0.83348980916E+01 -0.10005422470E+01  0.43836901780E+00  0.84061750304E+01  0.51100000000E-03 0.  1.
         12    1    3    3    0    0  0.91541286485E+00  0.57651206114E+00 -0.52592107671E+00  0.12028881281E+01  0.00000000000E+00 0. -1.
</event>
<event>
 7    1  0.3046295E-009  0.4614232E+02  0.7816164E-02  0.1320468E+00
        -11   -1    0    0    0    0  0.00000000000E+00  0.00000000000E+00  0.45593999997E+02  0.45594000000E+02  0.51100000000E-03 0.  1.
         11   -1    0    0    0    0 -0.00000000000E+00 -0.00000000000E+00 -0.45593999997E+02  0.45594000000E+02  0.51100000000E-03 0. -1.
    9900012    2    1    2    0    0  0.53213417110E+01  0.41680635289E+02 -0.16233344201E+02  0.46142317636E+02  0.99999988619E+01 0.  0.
         12    1    1    2    0    0 -0.53213417110E+01 -0.41680635289E+02  0.16233344201E+02  0.45045682364E+02  0.00000000000E+00 0. -1.
         11    1    3    3    0    0  0.85349361163E+00  0.61724438220E+01 -0.31274062955E+01  0.69719570050E+01  0.51100000000E-03 0. -1.
        -11    1    3    3    0    0  0.62749949007E+00  0.30765979908E+02 -0.10265613484E+02  0.32439514420E+02  0.51100000000E-03 0.  1.
        -12    1    3    3    0    0  0.38403486092E+01  0.47422115580E+01 -0.28403244212E+01  0.67308462112E+01  0.00000000000E+00 0.  1.
</event>
<event>
 7    1  0.3046295E-009  0.4614231E+02  0.7816164E-02  0.1320468E+00
        -11   -1    0    0    0    0  0.00000000000E+00  0.00000000000E+00  0.45593999997E+02  0.45594000000E+02  0.51100000000E-03 0. -1.
         11   -1    0    0    0    0 -0.00000000000E+00 -0.00000000000E+00 -0.45593999997E+02  0.45594000000E+02  0.51100000000E-03 0.  1.
    9900012    2    1    2    0    0  0.29324196479E+02  0.34192741720E+02  0.24829865935E+00  0.46142314994E+02  0.99999747655E+01 0.  0.
         12    1    1    2    0    0 -0.29324196479E+02 -0.34192741720E+02 -0.24829865935E+00  0.45045685006E+02  0.00000000000E+00 0. -1.
         11    1    3    3    0    0  0.11969912266E+02  0.80860280819E+01  0.19307596753E+01  0.14573622850E+02  0.51100000000E-03 0. -1.
        -11    1    3    3    0    0  0.11678866234E+02  0.17097136162E+02 -0.26615835808E+01  0.20875631939E+02  0.51100000000E-03 0.  1.
         12    1    3    3    0    0  0.56754179788E+01  0.90095774760E+01  0.97912256491E+00  0.10693060204E+02  0.00000000000E+00 0. -1.
</event>
<event>
 7    1  0.3283815E-009  0.4614232E+02  0.7816164E-02  0.1320468E+00
        -11   -1    0    0    0    0  0.00000000000E+00  0.00000000000E+00  0.45593999997E+02  0.45594000000E+02  0.51100000000E-03 0. -1.
         11   -1    0    0    0    0 -0.00000000000E+00 -0.00000000000E+00 -0.45593999997E+02  0.45594000000E+02  0.51100000000E-03 0.  1.
    9900012    2    1    2    0    0 -0.49253011906E+01  0.40477968533E+02  0.19141284309E+02  0.46142319926E+02  0.10000019737E+02 0.  0.
         12    1    1    2    0    0  0.49253011906E+01 -0.40477968533E+02 -0.19141284309E+02  0.45045680074E+02  0.00000000000E+00 0. -1.
         11    1    3    3    0    0  0.66480089424E+00  0.40508231428E+00 -0.29238574030E+00  0.83158979827E+00  0.51100000000E-03 0. -1.
        -11    1    3    3    0    0 -0.42728397905E+01  0.36208631465E+02  0.19236530983E+02  0.41223370519E+02  0.51100000000E-03 0.  1.
        -12    1    3    3    0    0 -0.13172622944E+01  0.38642547540E+01  0.19713906608E+00  0.40873596083E+01  0.00000000000E+00 0.  1.
</event>
<event>
 7    1  0.3046295E-009  0.4614232E+02  0.7816164E-02  0.1320468E+00
        -11   -1    0    0    0    0  0.00000000000E+00  0.00000000000E+00  0.45593999997E+02  0.45594000000E+02  0.51100000000E-03 0.  1.
         11   -1    0    0    0    0 -0.00000000000E+00 -0.00000000000E+00 -0.45593999997E+02  0.45594000000E+02  0.51100000000E-03 0. -1.
    9900012    2    1    2    0    0 -0.42439137443E+02  0.10737976132E+02 -0.10617390310E+02  0.46142317684E+02  0.99999992929E+01 0.  0.
         12    1    1    2    0    0  0.42439137443E+02 -0.10737976132E+02  0.10617390310E+02  0.45045682316E+02  0.00000000000E+00 0. -1.
         11    1    3    3    0    0 -0.11383705811E+02  0.51141244697E+01 -0.66886442323E+01  0.14159130941E+02  0.51100000000E-03 0. -1.
        -11    1    3    3    0    0 -0.11441447724E+02  0.21915487339E+01 -0.30956160009E+01  0.12053731810E+02  0.51100000000E-03 0.  1.
        -12    1    3    3    0    0 -0.19613983909E+02  0.34323029289E+01 -0.83313007646E+00  0.19929454932E+02  0.00000000000E+00 0.  1.
</event>
<event>
 7    1  0.3046295E-009  0.4614232E+02  0.7816164E-02  0.1320468E+00
        -11   -1    0    0    0    0  0.00000000000E+00  0.00000000000E+00  0.45593999997E+02  0.45594000000E+02  0.51100000000E-03 0.  1.
         11   -1    0    0    0    0 -0.00000000000E+00 -0.00000000000E+00 -0.45593999997E+02  0.45594000000E+02  0.51100000000E-03 0. -1.
    9900012    2    1    2    0    0 -0.11679537068E+02 -0.41553373841E+02  0.12884838106E+02  0.46142317446E+02  0.99999971310E+01 0.  0.
         12    1    1    2    0    0  0.11679537068E+02  0.41553373841E+02 -0.12884838106E+02  0.45045682554E+02  0.00000000000E+00 0. -1.
         11    1    3    3    0    0 -0.86777016235E+00 -0.16178200658E+02  0.32775860314E+01  0.16529663398E+02  0.51100000000E-03 0. -1.
        -11    1    3    3    0    0 -0.16559538194E+01 -0.56714566801E+01  0.41214353379E+01  0.72037374627E+01  0.51100000000E-03 0.  1.
         12    1    3    3    0    0 -0.91558130858E+01 -0.19703716503E+02  0.54858167364E+01  0.22408916586E+02  0.00000000000E+00 0. -1.
</event>
<event>
 7    1  0.3046295E-009  0.4614232E+02  0.7816164E-02  0.1320468E+00
        -11   -1    0    0    0    0  0.00000000000E+00  0.00000000000E+00  0.45593999997E+02  0.45594000000E+02  0.51100000000E-03 0.  1.
         11   -1    0    0    0    0 -0.00000000000E+00 -0.00000000000E+00 -0.45593999997E+02  0.45594000000E+02  0.51100000000E-03 0. -1.
    9900012    2    1    2    0    0  0.39106594784E+02 -0.22347561147E+02 -0.61173843624E+00  0.46142317979E+02  0.10000001984E+02 0.  0.
         12    1    1    2    0    0 -0.39106594784E+02  0.22347561147E+02  0.61173843624E+00  0.45045682021E+02  0.00000000000E+00 0. -1.
         11    1    3    3    0    0  0.16317900891E+02 -0.69612366234E+01  0.18765995380E+01  0.17839684159E+02  0.51100000000E-03 0.  1.
        -11    1    3    3    0    0  0.17293388504E+02 -0.11498193994E+02  0.85863287835E+00  0.20784778126E+02  0.51100000000E-03 0. -1.
         12    1    3    3    0    0  0.54953053895E+01 -0.38881305295E+01 -0.33469708526E+01  0.75178556934E+01  0.00000000000E+00 0. -1.
</event>
<event>
 7    1  0.3046295E-009  0.4614232E+02  0.7816164E-02  0.1320468E+00
        -11   -1    0    0    0    0  0.00000000000E+00  0.00000000000E+00  0.45593999997E+02  0.45594000000E+02  0.51100000000E-03 0.  1.
         11   -1    0    0    0    0 -0.00000000000E+00 -0.00000000000E+00 -0.45593999997E+02  0.45594000000E+02  0.51100000000E-03 0. -1.
    9900012    2    1    2    0    0 -0.18534061459E+01  0.10377481640E+02 -0.43794820013E+02  0.46142317638E+02  0.99999988739E+01 0.  0.
         12    1    1    2    0    0  0.18534061459E+01 -0.10377481640E+02  0.43794820013E+02  0.45045682362E+02  0.00000000000E+00 0. -1.
         11    1    3    3    0    0 -0.98295270931E+00  0.66539498685E+01 -0.30151509093E+02  0.30892632547E+02  0.51100000000E-03 0. -1.
        -11    1    3    3    0    0 -0.26936840709E+01  0.98850053914E-01 -0.64577167601E+01  0.69977004238E+01  0.51100000000E-03 0.  1.
        -12    1    3    3    0    0  0.18232306343E+01  0.36246817178E+01 -0.71855941601E+01  0.82519846665E+01  0.00000000000E+00 0.  1.
</event>
<event>
 7    1  0.3046295E-009  0.4614232E+02  0.7816164E-02  0.1320468E+00
        -11   -1    0    0    0    0  0.00000000000E+00  0.00000000000E+00  0.45593999997E+02  0.45594000000E+02  0.51100000000E-03 0. -1.
         11   -1    0    0    0    0 -0.00000000000E+00 -0.00000000000E+00 -0.45593999997E+02  0.45594000000E+02  0.51100000000E-03 0.  1.
    9900012    2    1    2    0    0 -0.27522576793E+02  0.22503880901E+02 -0.27662185962E+02  0.46142318507E+02  0.10000006806E+02 0.  0.
         12    1    1    2    0    0  0.27522576793E+02 -0.22503880901E+02  0.27662185962E+02  0.45045681493E+02  0.00000000000E+00 0. -1.
         11    1    3    3    0    0  0.32492993339E+00  0.87130197813E+00 -0.23472316813E+01  0.25247264061E+01  0.51100000000E-03 0. -1.
        -11    1    3    3    0    0 -0.24839458298E+02  0.20248308839E+02 -0.21629062700E+02  0.38662760545E+02  0.51100000000E-03 0.  1.
        -12    1    3    3    0    0 -0.30080484278E+01  0.13842700839E+01 -0.36858915805E+01  0.49548315564E+01  0.00000000000E+00 0.  1.
</event>
<event>
 7    1  0.3046295E-009  0.4614232E+02  0.7816164E-02  0.1320468E+00
        -11   -1    0    0    0    0  0.00000000000E+00  0.00000000000E+00  0.45593999997E+02  0.45594000000E+02  0.51100000000E-03 0.  1.
         11   -1    0    0    0    0 -0.00000000000E+00 -0.00000000000E+00 -0.45593999997E+02  0.45594000000E+02  0.51100000000E-03 0. -1.
    9900012    2    1    2    0    0  0.25928752148E+02 -0.10677457417E+02  0.35253442607E+02  0.46142317627E+02  0.99999987756E+01 0.  0.
         12    1    1    2    0    0 -0.25928752148E+02  0.10677457417E+02 -0.35253442607E+02  0.45045682373E+02  0.00000000000E+00 0. -1.
         11    1    3    3    0    0  0.71923681988E+01 -0.31249523927E+01  0.86133165026E+01  0.11648377964E+02  0.51100000000E-03 0.  1.
        -11    1    3    3    0    0  0.14379093005E+02 -0.69572407649E+01  0.14468670902E+02  0.21552353761E+02  0.51100000000E-03 0. -1.
         12    1    3    3    0    0  0.43572909444E+01 -0.59526425901E+00  0.12171455202E+02  0.12941585902E+02  0.00000000000E+00 0. -1.
</event>
<event>
 7    1  0.3046295E-009  0.4614232E+02  0.7816164E-02  0.1320468E+00
        -11   -1    0    0    0    0  0.00000000000E+00  0.00000000000E+00  0.45593999997E+02  0.45594000000E+02  0.51100000000E-03 0.  1.
         11   -1    0    0    0    0 -0.00000000000E+00 -0.00000000000E+00 -0.45593999997E+02  0.45594000000E+02  0.51100000000E-03 0. -1.
    9900012    2    1    2    0    0  0.14293627279E+02  0.27762202975E+02  0.32466380106E+02  0.46142317276E+02  0.99999955798E+01 0.  0.
         12    1    1    2    0    0 -0.14293627279E+02 -0.27762202975E+02 -0.32466380106E+02  0.45045682724E+02  0.00000000000E+00 0. -1.
         11    1    3    3    0    0  0.63650801703E+01  0.17268604076E+02  0.20481920466E+02  0.27535940125E+02  0.51100000000E-03 0.  1.
        -11    1    3    3    0    0  0.38952995054E+01  0.34335390678E+01  0.80355609491E+01  0.95672769791E+01  0.51100000000E-03 0. -1.
         12    1    3    3    0    0  0.40332476036E+01  0.70600598316E+01  0.39488986904E+01  0.90391001723E+01  0.00000000000E+00 0. -1.
</event>
<event>
 7    1  0.3046295E-009  0.4614232E+02  0.7816164E-02  0.1320468E+00
        -11   -1    0    0    0    0  0.00000000000E+00  0.00000000000E+00  0.45593999997E+02  0.45594000000E+02  0.51100000000E-03 0.  1.
         11   -1    0    0    0    0 -0.00000000000E+00 -0.00000000000E+00 -0.45593999997E+02  0.45594000000E+02  0.51100000000E-03 0. -1.
    9900012    2    1    2    0    0 -0.19729229653E+02  0.20492633705E+02  0.34927394595E+02  0.46142318386E+02  0.10000005695E+02 0.  0.
         12    1    1    2    0    0  0.19729229653E+02 -0.20492633705E+02 -0.34927394595E+02  0.45045681614E+02  0.00000000000E+00 0. -1.
         11    1    3    3    0    0 -0.14155427589E+01 -0.44762408021E+00  0.43037780067E+01  0.45526513167E+01  0.51100000000E-03 0. -1.
        -11    1    3    3    0    0 -0.10244456428E+02  0.11395297658E+02  0.19935932972E+02  0.25144445111E+02  0.51100000000E-03 0.  1.
        -12    1    3    3    0    0 -0.80692304661E+01  0.95449601278E+01  0.10687683616E+02  0.16445221958E+02  0.00000000000E+00 0.  1.
</event>
<event>
 7    1  0.3046295E-009  0.4614232E+02  0.7816164E-02  0.1320468E+00
        -11   -1    0    0    0    0  0.00000000000E+00  0.00000000000E+00  0.45593999997E+02  0.45594000000E+02  0.51100000000E-03 0.  1.
         11   -1    0    0    0    0 -0.00000000000E+00 -0.00000000000E+00 -0.45593999997E+02  0.45594000000E+02  0.51100000000E-03 0. -1.
    9900012    2    1    2    0    0 -0.16007518052E+01  0.13418218326E+02  0.42970951384E+02  0.46142315942E+02  0.99999834147E+01 0.  0.
         12    1    1    2    0    0  0.16007518052E+01 -0.13418218326E+02 -0.42970951384E+02  0.45045684058E+02  0.00000000000E+00 0. -1.
         11    1    3    3    0    0  0.30695791595E+01  0.67064378436E+01  0.13363577283E+02  0.15263807613E+02  0.51100000000E-03 0. -1.
        -11    1    3    3    0    0 -0.21561100982E+01  0.55961429697E+01  0.19287260061E+02  0.20198119413E+02  0.51100000000E-03 0.  1.
         12    1    3    3    0    0 -0.25142208666E+01  0.11156375129E+01  0.10320114039E+02  0.10680388916E+02  0.00000000000E+00 0. -1.
</event>
<event>
 7    1  0.3046295E-009  0.4614232E+02  0.7816164E-02  0.1320468E+00
        -11   -1    0    0    0    0  0.00000000000E+00  0.00000000000E+00  0.45593999997E+02  0.45594000000E+02  0.51100000000E-03 0.  1.
         11   -1    0    0    0    0 -0.00000000000E+00 -0.00000000000E+00 -0.45593999997E+02  0.45594000000E+02  0.51100000000E-03 0. -1.
    9900012    2    1    2    0    0  0.31283954187E+02 -0.29988769189E+01  0.32271262338E+02  0.46142318462E+02  0.10000006388E+02 0.  0.
         12    1    1    2    0    0 -0.31283954187E+02  0.29988769189E+01 -0.32271262338E+02  0.45045681538E+02  0.00000000000E+00 0. -1.
         11    1    3    3    0    0  0.17230707642E+02 -0.24054934996E+01  0.24448623705E+02  0.30006980624E+02  0.51100000000E-03 0. -1.
        -11    1    3    3    0    0  0.12031943131E+02 -0.78200743195E+00  0.70221685627E+01  0.13953137379E+02  0.51100000000E-03 0.  1.
         12    1    3    3    0    0  0.20213034131E+01  0.18862401267E+00  0.80047007009E+00  0.21822004580E+01  0.00000000000E+00 0. -1.
</event>
<event>
 7    1  0.3046295E-009  0.4614232E+02  0.7816164E-02  0.1320468E+00
        -11   -1    0    0    0    0  0.00000000000E+00  0.00000000000E+00  0.45593999997E+02  0.45594000000E+02  0.51100000000E-03 0. -1.
         11   -1    0    0    0    0 -0.00000000000E+00 -0.00000000000E+00 -0.45593999997E+02  0.45594000000E+02  0.51100000000E-03 0.  1.
    9900012    2    1    2    0    0  0.25584960788E+02 -0.25591634037E+02 -0.26825203706E+02  0.46142317576E+02  0.99999983127E+01 0.  0.
         12    1    1    2    0    0 -0.25584960788E+02  0.25591634037E+02  0.26825203706E+02  0.45045682424E+02  0.00000000000E+00 0. -1.
         11    1    3    3    0    0  0.89409384247E+01 -0.87472419804E+01 -0.39278844923E+01  0.13110411856E+02  0.51100000000E-03 0. -1.
        -11    1    3    3    0    0  0.15700395735E+01 -0.27695997654E+01 -0.29644714613E+01  0.43501492421E+01  0.51100000000E-03 0.  1.
         12    1    3    3    0    0  0.15073982790E+02 -0.14074792291E+02 -0.19932847752E+02  0.28681756478E+02  0.00000000000E+00 0. -1.
</event>
<event>
 7    1  0.3046295E-009  0.4614232E+02  0.7816164E-02  0.1320468E+00
        -11   -1    0    0    0    0  0.00000000000E+00  0.00000000000E+00  0.45593999997E+02  0.45594000000E+02  0.51100000000E-03 0. -1.
         11   -1    0    0    0    0 -0.00000000000E+00 -0.00000000000E+00 -0.45593999997E+02  0.45594000000E+02  0.51100000000E-03 0.  1.
    9900012    2    1    2    0    0  0.25155498332E+02  0.36645683027E+02 -0.73080648527E+01  0.46142323262E+02  0.10000050164E+02 0.  0.
         12    1    1    2    0    0 -0.25155498332E+02 -0.36645683027E+02  0.73080648527E+01  0.45045676738E+02  0.00000000000E+00 0. -1.
         11    1    3    3    0    0  0.76942709845E+01  0.60441923249E+01 -0.24910868732E+01  0.10096513305E+02  0.51100000000E-03 0. -1.
        -11    1    3    3    0    0  0.17692769352E+02  0.28085163888E+02 -0.43778410655E+01  0.33480979833E+02  0.51100000000E-03 0.  1.
         12    1    3    3    0    0 -0.23154200417E+00  0.25163268145E+01 -0.43913691401E+00  0.25648301242E+01  0.00000000000E+00 0. -1.
</event>
<event>
 7    1  0.3046295E-009  0.4614232E+02  0.7816164E-02  0.1320468E+00
        -11   -1    0    0    0    0  0.00000000000E+00  0.00000000000E+00  0.45593999997E+02  0.45594000000E+02  0.51100000000E-03 0. -1.
         11   -1    0    0    0    0 -0.00000000000E+00 -0.00000000000E+00 -0.45593999997E+02  0.45594000000E+02  0.51100000000E-03 0.  1.
    9900012    2    1    2    0    0  0.26792234417E+02 -0.25105148647E+02 -0.26096381929E+02  0.46142318038E+02  0.10000002524E+02 0.  0.
         12    1    1    2    0    0 -0.26792234417E+02  0.25105148647E+02  0.26096381929E+02  0.45045681962E+02  0.00000000000E+00 0. -1.
         11    1    3    3    0    0  0.21592265131E+02 -0.15452236522E+02 -0.16224526228E+02  0.31116439042E+02  0.51100000000E-03 0. -1.
        -11    1    3    3    0    0  0.46249410244E+01 -0.57379324766E+01 -0.63180106786E+01  0.97072760227E+01  0.51100000000E-03 0.  1.
         12    1    3    3    0    0  0.57502826130E+00 -0.39149796484E+01 -0.35538450222E+01  0.53186029736E+01  0.00000000000E+00 0. -1.
</event>
<event>
 7    1  0.3046295E-009  0.4614232E+02  0.7816164E-02  0.1320468E+00
        -11   -1    0    0    0    0  0.00000000000E+00  0.00000000000E+00  0.45593999997E+02  0.45594000000E+02  0.51100000000E-03 0.  1.
         11   -1    0    0    0    0 -0.00000000000E+00 -0.00000000000E+00 -0.45593999997E+02  0.45594000000E+02  0.51100000000E-03 0. -1.
    9900012    2    1    2    0    0 -0.16250781911E+02  0.38751815904E+02 -0.16227208027E+02  0.46142318421E+02  0.10000006019E+02 0.  0.
         12    1    1    2    0    0  0.16250781911E+02 -0.38751815904E+02  0.16227208027E+02  0.45045681579E+02  0.00000000000E+00 0. -1.
         11    1    3    3    0    0 -0.69725431419E+00  0.38167844399E+01 -0.41428415274E+01  0.56760147306E+01  0.51100000000E-03 0. -1.
        -11    1    3    3    0    0 -0.84561512162E+01  0.12575542292E+02 -0.51108768283E+01  0.15992867771E+02  0.51100000000E-03 0.  1.
        -12    1    3    3    0    0 -0.70973763807E+01  0.22359489172E+02 -0.69734896710E+01  0.24473435920E+02  0.00000000000E+00 0.  1.
</event>
<event>
 7    1  0.3046295E-009  0.4614232E+02  0.7816164E-02  0.1320468E+00
        -11   -1    0    0    0    0  0.00000000000E+00  0.00000000000E+00  0.45593999997E+02  0.45594000000E+02  0.51100000000E-03 0. -1.
         11   -1    0    0    0    0 -0.00000000000E+00 -0.00000000000E+00 -0.45593999997E+02  0.45594000000E+02  0.51100000000E-03 0.  1.
    9900012    2    1    2    0    0  0.21325670307E+01 -0.49283487793E+01 -0.44724456824E+02  0.46142317609E+02  0.99999986158E+01 0.  0.
         12    1    1    2    0    0 -0.21325670307E+01  0.49283487793E+01  0.44724456824E+02  0.45045682391E+02  0.00000000000E+00 0. -1.
         11    1    3    3    0    0  0.14280833925E+01 -0.15082412769E+01 -0.14634284937E+01  0.25408339462E+01  0.51100000000E-03 0. -1.
        -11    1    3    3    0    0 -0.55102967359E+00 -0.39581898547E+01 -0.28773380509E+02  0.29049583935E+02  0.51100000000E-03 0.  1.
        -12    1    3    3    0    0  0.12555133118E+01  0.53808235231E+00 -0.14487647821E+02  0.14551899728E+02  0.00000000000E+00 0.  1.
</event>
<event>
 7    1  0.3046295E-009  0.4614232E+02  0.7816164E-02  0.1320468E+00
        -11   -1    0    0    0    0  0.00000000000E+00  0.00000000000E+00  0.45593999997E+02  0.45594000000E+02  0.51100000000E-03 0.  1.
         11   -1    0    0    0    0 -0.00000000000E+00 -0.00000000000E+00 -0.45593999997E+02  0.45594000000E+02  0.51100000000E-03 0. -1.
    9900012    2    1    2    0    0 -0.85742964350E-01  0.26120759734E+02  0.36698938303E+02  0.46142317482E+02  0.99999974569E+01 0.  0.
         12    1    1    2    0    0  0.85742964350E-01 -0.26120759734E+02 -0.36698938303E+02  0.45045682518E+02  0.00000000000E+00 0. -1.
         11    1    3    3    0    0 -0.10224238139E+01  0.88403427097E+01  0.99925205429E+01  0.13380862332E+02  0.51100000000E-03 0. -1.
        -11    1    3    3    0    0 -0.16207240583E+01  0.81516980708E+01  0.18267592516E+02  0.20069426113E+02  0.51100000000E-03 0.  1.
        -12    1    3    3    0    0  0.25574049078E+01  0.91287189532E+01  0.84388252443E+01  0.12692029038E+02  0.00000000000E+00 0.  1.
</event>
<event>
 7    1  0.3046295E-009  0.4614233E+02  0.7816164E-02  0.1320468E+00
        -11   -1    0    0    0    0  0.00000000000E+00  0.00000000000E+00  0.45593999997E+02  0.45594000000E+02  0.51100000000E-03 0. -1.
         11   -1    0    0    0    0 -0.00000000000E+00 -0.00000000000E+00 -0.45593999997E+02  0.45594000000E+02  0.51100000000E-03 0.  1.
    9900012    2    1    2    0    0  0.33877345310E+02  0.57322809892E+01 -0.29130380722E+02  0.46142327049E+02  0.10000084694E+02 0.  0.
         12    1    1    2    0    0 -0.33877345310E+02 -0.57322809892E+01  0.29130380722E+02  0.45045672951E+02  0.00000000000E+00 0. -1.
         11    1    3    3    0    0  0.17263886123E+02  0.13036815333E+00 -0.17613857492E+02  0.24663875120E+02  0.51100000000E-03 0. -1.
        -11    1    3    3    0    0  0.16378428498E+02  0.51386070072E+01 -0.99788016265E+01  0.19855343971E+02  0.51100000000E-03 0.  1.
         12    1    3    3    0    0  0.23503068966E+00  0.46330582868E+00 -0.15377216032E+01  0.16231079585E+01  0.00000000000E+00 0. -1.
</event>
<event>
 7    1  0.3046295E-009  0.4614232E+02  0.7816164E-02  0.1320468E+00
        -11   -1    0    0    0    0  0.00000000000E+00  0.00000000000E+00  0.45593999997E+02  0.45594000000E+02  0.51100000000E-03 0. -1.
         11   -1    0    0    0    0 -0.00000000000E+00 -0.00000000000E+00 -0.45593999997E+02  0.45594000000E+02  0.51100000000E-03 0.  1.
    9900012    2    1    2    0    0  0.23853339740E+02  0.37804242781E+02  0.55651404949E+01  0.46142318989E+02  0.10000011199E+02 0.  0.
         12    1    1    2    0    0 -0.23853339740E+02 -0.37804242781E+02 -0.55651404949E+01  0.45045681011E+02  0.00000000000E+00 0. -1.
         11    1    3    3    0    0  0.44929806303E+01  0.87976377033E+01 -0.11287879362E+01  0.99428097924E+01  0.51100000000E-03 0. -1.
        -11    1    3    3    0    0  0.15365898934E+02  0.18318743443E+02  0.65411138595E+01  0.24788573621E+02  0.51100000000E-03 0.  1.
        -12    1    3    3    0    0  0.39944601757E+01  0.10687861635E+02  0.15281457157E+00  0.11410935576E+02  0.00000000000E+00 0.  1.
</event>
<event>
 7    1  0.3046295E-009  0.4614232E+02  0.7816164E-02  0.1320468E+00
        -11   -1    0    0    0    0  0.00000000000E+00  0.00000000000E+00  0.45593999997E+02  0.45594000000E+02  0.51100000000E-03 0.  1.
         11   -1    0    0    0    0 -0.00000000000E+00 -0.00000000000E+00 -0.45593999997E+02  0.45594000000E+02  0.51100000000E-03 0. -1.
    9900012    2    1    2    0    0 -0.17880712931E+02 -0.36063759656E+02  0.20218774998E+02  0.46142317434E+02  0.99999970149E+01 0.  0.
         12    1    1    2    0    0  0.17880712931E+02  0.36063759656E+02 -0.20218774998E+02  0.45045682566E+02  0.00000000000E+00 0. -1.
         11    1    3    3    0    0 -0.28448084802E+00 -0.25716332572E+01 -0.51429788715E+00  0.26379403975E+01  0.51100000000E-03 0. -1.
        -11    1    3    3    0    0 -0.11759262887E+02 -0.19629142773E+02  0.97145323602E+01  0.24858713742E+02  0.51100000000E-03 0.  1.
         12    1    3    3    0    0 -0.58369691968E+01 -0.13862983625E+02  0.11018540525E+02  0.18645663295E+02  0.00000000000E+00 0. -1.
</event>
<event>
 7    1  0.3046295E-009  0.4614232E+02  0.7816164E-02  0.1320468E+00
        -11   -1    0    0    0    0  0.00000000000E+00  0.00000000000E+00  0.45593999997E+02  0.45594000000E+02  0.51100000000E-03 0.  1.
         11   -1    0    0    0    0 -0.00000000000E+00 -0.00000000000E+00 -0.45593999997E+02  0.45594000000E+02  0.51100000000E-03 0. -1.
    9900012    2    1    2    0    0 -0.23276902701E+02 -0.38194097809E+02  0.53394909745E+01  0.46142317957E+02  0.10000001791E+02 0.  0.
         12    1    1    2    0    0  0.23276902701E+02  0.38194097809E+02 -0.53394909745E+01  0.45045682043E+02  0.00000000000E+00 0. -1.
         11    1    3    3    0    0 -0.11197456255E+02 -0.23946969298E+02  0.47913611143E+01  0.26866289411E+02  0.51100000000E-03 0. -1.
        -11    1    3    3    0    0  0.55159720913E-01  0.30500251008E+00  0.90371436189E-01  0.32285659908E+00  0.51100000000E-03 0.  1.
        -12    1    3    3    0    0 -0.12134606167E+02 -0.14552131022E+02  0.45775842396E+00  0.18953171947E+02  0.00000000000E+00 0.  1.
</event>
<event>
 7    1  0.3046295E-009  0.4614232E+02  0.7816164E-02  0.1320468E+00
        -11   -1    0    0    0    0  0.00000000000E+00  0.00000000000E+00  0.45593999997E+02  0.45594000000E+02  0.51100000000E-03 0.  1.
         11   -1    0    0    0    0 -0.00000000000E+00 -0.00000000000E+00 -0.45593999997E+02  0.45594000000E+02  0.51100000000E-03 0. -1.
    9900012    2    1    2    0    0 -0.14322393701E+02 -0.29579409859E+02  0.30806510226E+02  0.46142317396E+02  0.99999966732E+01 0.  0.
         12    1    1    2    0    0  0.14322393701E+02  0.29579409859E+02 -0.30806510226E+02  0.45045682604E+02  0.00000000000E+00 0. -1.
         11    1    3    3    0    0  0.64992138953E+00  0.89396705659E-01  0.80237480967E+00  0.10364338763E+01  0.51100000000E-03 0. -1.
        -11    1    3    3    0    0 -0.81803295906E+00 -0.58767875475E+01  0.63740448804E+01  0.87082867545E+01  0.51100000000E-03 0.  1.
        -12    1    3    3    0    0 -0.14154282131E+02 -0.23792019017E+02  0.23630090536E+02  0.36397596766E+02  0.00000000000E+00 0.  1.
</event>
<event>
 7    1  0.3046295E-009  0.4614232E+02  0.7816164E-02  0.1320468E+00
        -11   -1    0    0    0    0  0.00000000000E+00  0.00000000000E+00  0.45593999997E+02  0.45594000000E+02  0.51100000000E-03 0.  1.
         11   -1    0    0    0    0 -0.00000000000E+00 -0.00000000000E+00 -0.45593999997E+02  0.45594000000E+02  0.51100000000E-03 0. -1.
    9900012    2    1    2    0    0  0.27688240463E+02  0.59994563693E+01  0.35021155254E+02  0.46142318165E+02  0.10000003680E+02 0.  0.
         12    1    1    2    0    0 -0.27688240463E+02 -0.59994563693E+01 -0.35021155254E+02  0.45045681835E+02  0.00000000000E+00 0. -1.
         11    1    3    3    0    0  0.64610150136E+01  0.50509189568E+01  0.79731128189E+01  0.11437964224E+02  0.51100000000E-03 0. -1.
        -11    1    3    3    0    0  0.10407901037E+02  0.11475538864E+00  0.16894434231E+02  0.19843373731E+02  0.51100000000E-03 0.  1.
         12    1    3    3    0    0  0.10819324413E+02  0.83378202387E+00  0.10153608205E+02  0.14860980209E+02  0.00000000000E+00 0. -1.
</event>
<event>
 7    1  0.3062909E-009  0.4614232E+02  0.7816164E-02  0.1320468E+00
        -11   -1    0    0    0    0  0.00000000000E+00  0.00000000000E+00  0.45593999997E+02  0.45594000000E+02  0.51100000000E-03 0. -1.
         11   -1    0    0    0    0 -0.00000000000E+00 -0.00000000000E+00 -0.45593999997E+02  0.45594000000E+02  0.51100000000E-03 0.  1.
    9900012    2    1    2    0    0 -0.14793002039E+02 -0.20261612499E+02 -0.37413203025E+02  0.46142316400E+02  0.99999875887E+01 0.  0.
         12    1    1    2    0    0  0.14793002039E+02  0.20261612499E+02  0.37413203025E+02  0.45045683600E+02  0.00000000000E+00 0. -1.
         11    1    3    3    0    0 -0.57794767896E+00 -0.84748491998E-01  0.10356916343E+00  0.59323912485E+00  0.51100000000E-03 0. -1.
        -11    1    3    3    0    0 -0.77277848474E+01 -0.14749380223E+02 -0.19474917716E+02  0.25622944716E+02  0.51100000000E-03 0.  1.
        -12    1    3    3    0    0 -0.64872695122E+01 -0.54274837841E+01 -0.18041854473E+02  0.19926132559E+02  0.00000000000E+00 0.  1.
</event>
<event>
 7    1  0.3046295E-009  0.4614232E+02  0.7816164E-02  0.1320468E+00
        -11   -1    0    0    0    0  0.00000000000E+00  0.00000000000E+00  0.45593999997E+02  0.45594000000E+02  0.51100000000E-03 0. -1.
         11   -1    0    0    0    0 -0.00000000000E+00 -0.00000000000E+00 -0.45593999997E+02  0.45594000000E+02  0.51100000000E-03 0.  1.
    9900012    2    1    2    0    0 -0.11894336627E+02  0.18057975492E+02 -0.39516424707E+02  0.46142317141E+02  0.99999943432E+01 0.  0.
         12    1    1    2    0    0  0.11894336627E+02 -0.18057975492E+02  0.39516424707E+02  0.45045682859E+02  0.00000000000E+00 0. -1.
         11    1    3    3    0    0 -0.88371974380E+01  0.56108704568E+01 -0.13250386124E+02  0.16886404547E+02  0.51100000000E-03 0. -1.
        -11    1    3    3    0    0 -0.80364832562E+00  0.35359714060E+01 -0.61512594114E+01  0.71405137787E+01  0.51100000000E-03 0.  1.
         12    1    3    3    0    0 -0.22534908631E+01  0.89111336288E+01 -0.20114779172E+02  0.22115398815E+02  0.00000000000E+00 0. -1.
</event>
<event>
 7    1  0.3046295E-009  0.4614232E+02  0.7816164E-02  0.1320468E+00
        -11   -1    0    0    0    0  0.00000000000E+00  0.00000000000E+00  0.45593999997E+02  0.45594000000E+02  0.51100000000E-03 0. -1.
         11   -1    0    0    0    0 -0.00000000000E+00 -0.00000000000E+00 -0.45593999997E+02  0.45594000000E+02  0.51100000000E-03 0.  1.
    9900012    2    1    2    0    0  0.34885686278E+02 -0.13640807024E+02 -0.25020606696E+02  0.46142317823E+02  0.10000000563E+02 0.  0.
         12    1    1    2    0    0 -0.34885686278E+02  0.13640807024E+02  0.25020606696E+02  0.45045682177E+02  0.00000000000E+00 0. -1.
         11    1    3    3    0    0  0.11255283361E+02 -0.75418160768E+01 -0.10467977963E+02  0.17121301240E+02  0.51100000000E-03 0. -1.
        -11    1    3    3    0    0  0.11787178853E+02 -0.41451950119E+01 -0.10594917097E+02  0.16382078487E+02  0.51100000000E-03 0.  1.
         12    1    3    3    0    0  0.11843224064E+02 -0.19537959355E+01 -0.39577116366E+01  0.12638938096E+02  0.00000000000E+00 0. -1.
</event>
<event>
 7    1  0.3046295E-009  0.4614232E+02  0.7816164E-02  0.1320468E+00
        -11   -1    0    0    0    0  0.00000000000E+00  0.00000000000E+00  0.45593999997E+02  0.45594000000E+02  0.51100000000E-03 0. -1.
         11   -1    0    0    0    0 -0.00000000000E+00 -0.00000000000E+00 -0.45593999997E+02  0.45594000000E+02  0.51100000000E-03 0.  1.
    9900012    2    1    2    0    0 -0.33418610482E+02 -0.12704682066E+02 -0.27402566881E+02  0.46142321577E+02  0.10000034797E+02 0.  0.
         12    1    1    2    0    0  0.33418610482E+02  0.12704682066E+02  0.27402566881E+02  0.45045678423E+02  0.00000000000E+00 0. -1.
         11    1    3    3    0    0 -0.18681559226E+02 -0.88922740924E+01 -0.14316006803E+02  0.25159913448E+02  0.51100000000E-03 0. -1.
        -11    1    3    3    0    0 -0.84388426020E+01 -0.51112451892E+01 -0.67486788266E+01  0.11953391067E+02  0.51100000000E-03 0.  1.
         12    1    3    3    0    0 -0.62982086531E+01  0.12988372151E+01 -0.63378812507E+01  0.90290170615E+01  0.00000000000E+00 0. -1.
</event>
<event>
 7    1  0.3046295E-009  0.4614232E+02  0.7816164E-02  0.1320468E+00
        -11   -1    0    0    0    0  0.00000000000E+00  0.00000000000E+00  0.45593999997E+02  0.45594000000E+02  0.51100000000E-03 0. -1.
         11   -1    0    0    0    0 -0.00000000000E+00 -0.00000000000E+00 -0.45593999997E+02  0.45594000000E+02  0.51100000000E-03 0.  1.
    9900012    2    1    2    0    0 -0.14750804873E+02  0.86141215773E-01 -0.42561952530E+02  0.46142317989E+02  0.10000002075E+02 0.  0.
         12    1    1    2    0    0  0.14750804873E+02 -0.86141215773E-01  0.42561952530E+02  0.45045682011E+02  0.00000000000E+00 0. -1.
         11    1    3    3    0    0 -0.81731687964E+01 -0.29067946859E+00 -0.11691095700E+02  0.14267687327E+02  0.51100000000E-03 0. -1.
        -11    1    3    3    0    0 -0.68914073291E+00  0.36361269340E+00 -0.13700019338E+02  0.13722159424E+02  0.51100000000E-03 0.  1.
         12    1    3    3    0    0 -0.58884953437E+01  0.13207990959E-01 -0.17170837492E+02  0.18152471237E+02  0.00000000000E+00 0. -1.
</event>
<event>
 7    1  0.3046295E-009  0.4614232E+02  0.7816164E-02  0.1320468E+00
        -11   -1    0    0    0    0  0.00000000000E+00  0.00000000000E+00  0.45593999997E+02  0.45594000000E+02  0.51100000000E-03 0.  1.
         11   -1    0    0    0    0 -0.00000000000E+00 -0.00000000000E+00 -0.45593999997E+02  0.45594000000E+02  0.51100000000E-03 0. -1.
    9900012    2    1    2    0    0  0.40287091591E+02 -0.17953781740E+02 -0.91501485419E+01  0.46142320452E+02  0.10000024538E+02 0.  0.
         12    1    1    2    0    0 -0.40287091591E+02  0.17953781740E+02  0.91501485419E+01  0.45045679548E+02  0.00000000000E+00 0. -1.
         11    1    3    3    0    0  0.17466984429E+02 -0.75188442697E+01 -0.51789623841E+01  0.19709140413E+02  0.51100000000E-03 0. -1.
        -11    1    3    3    0    0  0.10407928494E+02 -0.65883838746E+01 -0.52208644241E+01  0.13378684659E+02  0.51100000000E-03 0.  1.
        -12    1    3    3    0    0  0.12412178668E+02 -0.38465535955E+01  0.12496782663E+01  0.13054495379E+02  0.00000000000E+00 0.  1.
</event>
<event>
 7    1  0.3046295E-009  0.4614231E+02  0.7816164E-02  0.1320468E+00
        -11   -1    0    0    0    0  0.00000000000E+00  0.00000000000E+00  0.45593999997E+02  0.45594000000E+02  0.51100000000E-03 0.  1.
         11   -1    0    0    0    0 -0.00000000000E+00 -0.00000000000E+00 -0.45593999997E+02  0.45594000000E+02  0.51100000000E-03 0. -1.
    9900012    2    1    2    0    0 -0.71576645946E+01 -0.11449970701E+00  0.44473235799E+02  0.46142312359E+02  0.99999507372E+01 0.  0.
         12    1    1    2    0    0  0.71576645946E+01  0.11449970701E+00 -0.44473235799E+02  0.45045687641E+02  0.00000000000E+00 0. -1.
         11    1    3    3    0    0 -0.51862413472E+00 -0.28521779809E+01  0.20807166884E+02  0.21008143284E+02  0.51100000000E-03 0.  1.
        -11    1    3    3    0    0 -0.47071223716E+01 -0.17186722554E+00  0.10415628970E+02  0.11431179574E+02  0.51100000000E-03 0. -1.
        -12    1    3    3    0    0 -0.19319180883E+01  0.29095454995E+01  0.13250439946E+02  0.13702989501E+02  0.00000000000E+00 0.  1.
</event>
<event>
 7    1  0.3046295E-009  0.4614233E+02  0.7816164E-02  0.1320468E+00
        -11   -1    0    0    0    0  0.00000000000E+00  0.00000000000E+00  0.45593999997E+02  0.45594000000E+02  0.51100000000E-03 0. -1.
         11   -1    0    0    0    0 -0.00000000000E+00 -0.00000000000E+00 -0.45593999997E+02  0.45594000000E+02  0.51100000000E-03 0.  1.
    9900012    2    1    2    0    0  0.23989524963E+02 -0.32877293673E+02 -0.19305408557E+02  0.46142328213E+02  0.10000095307E+02 0.  0.
         12    1    1    2    0    0 -0.23989524963E+02  0.32877293673E+02  0.19305408557E+02  0.45045671787E+02  0.00000000000E+00 0. -1.
         11    1    3    3    0    0  0.22104783401E+01 -0.15055682409E+01 -0.15025428321E+00  0.26787173854E+01  0.51100000000E-03 0. -1.
        -11    1    3    3    0    0  0.13829606511E+02 -0.25220000334E+02 -0.12217608650E+02  0.31250222311E+02  0.51100000000E-03 0.  1.
        -12    1    3    3    0    0  0.79494401116E+01 -0.61517250979E+01 -0.69375456239E+01  0.12213388516E+02  0.00000000000E+00 0.  1.
</event>
<event>
 7    1  0.3046295E-009  0.4614232E+02  0.7816164E-02  0.1320468E+00
        -11   -1    0    0    0    0  0.00000000000E+00  0.00000000000E+00  0.45593999997E+02  0.45594000000E+02  0.51100000000E-03 0. -1.
         11   -1    0    0    0    0 -0.00000000000E+00 -0.00000000000E+00 -0.45593999997E+02  0.45594000000E+02  0.51100000000E-03 0.  1.
    9900012    2    1    2    0    0 -0.38884175891E+02 -0.20194599809E+01  0.22650739294E+02  0.46142319364E+02  0.10000014618E+02 0.  0.
         12    1    1    2    0    0  0.38884175891E+02  0.20194599809E+01 -0.22650739294E+02  0.45045680636E+02  0.00000000000E+00 0. -1.
         11    1    3    3    0    0 -0.61982202537E+01  0.10008103338E+01  0.51771879849E+01  0.81377411687E+01  0.51100000000E-03 0. -1.
        -11    1    3    3    0    0 -0.18923707776E+02 -0.33111287160E+01  0.61238687688E+01  0.20163632072E+02  0.51100000000E-03 0.  1.
         12    1    3    3    0    0 -0.13762247861E+02  0.29085840125E+00  0.11349682541E+02  0.17840946124E+02  0.00000000000E+00 0. -1.
</event>
<event>
 7    1  0.3046295E-009  0.4614232E+02  0.7816164E-02  0.1320468E+00
        -11   -1    0    0    0    0  0.00000000000E+00  0.00000000000E+00  0.45593999997E+02  0.45594000000E+02  0.51100000000E-03 0.  1.
         11   -1    0    0    0    0 -0.00000000000E+00 -0.00000000000E+00 -0.45593999997E+02  0.45594000000E+02  0.51100000000E-03 0. -1.
    9900012    2    1    2    0    0  0.17273275378E+02  0.24454185462E+02  0.33656204918E+02  0.46142319204E+02  0.10000013158E+02 0.  0.
         12    1    1    2    0    0 -0.17273275378E+02 -0.24454185462E+02 -0.33656204918E+02  0.45045680796E+02  0.00000000000E+00 0. -1.
         11    1    3    3    0    0  0.22031916314E+01  0.98129199194E+01  0.95347838685E+01  0.13858555278E+02  0.51100000000E-03 0. -1.
        -11    1    3    3    0    0  0.98479712643E+01  0.11965999743E+02  0.16115556467E+02  0.22357970578E+02  0.51100000000E-03 0.  1.
         12    1    3    3    0    0  0.52221124823E+01  0.26752657995E+01  0.80058645822E+01  0.99257933478E+01  0.00000000000E+00 0. -1.
</event>
<event>
 7    1  0.3046295E-009  0.4614232E+02  0.7816164E-02  0.1320468E+00
        -11   -1    0    0    0    0  0.00000000000E+00  0.00000000000E+00  0.45593999997E+02  0.45594000000E+02  0.51100000000E-03 0.  1.
         11   -1    0    0    0    0 -0.00000000000E+00 -0.00000000000E+00 -0.45593999997E+02  0.45594000000E+02  0.51100000000E-03 0. -1.
    9900012    2    1    2    0    0  0.65508527230E+01  0.16702134893E+02  0.41318741761E+02  0.46142318719E+02  0.10000008737E+02 0.  0.
         12    1    1    2    0    0 -0.65508527230E+01 -0.16702134893E+02 -0.41318741761E+02  0.45045681281E+02  0.00000000000E+00 0. -1.
         11    1    3    3    0    0  0.20134907545E+01  0.71725015707E+00  0.63928960478E+01  0.67407501768E+01  0.51100000000E-03 0. -1.
        -11    1    3    3    0    0  0.61623915172E+01  0.11110426317E+02  0.28265495788E+02  0.30989593327E+02  0.51100000000E-03 0.  1.
        -12    1    3    3    0    0 -0.16250295487E+01  0.48744584188E+01  0.66603499244E+01  0.84119752154E+01  0.00000000000E+00 0.  1.
</event>
<event>
 7    1  0.3046295E-009  0.4614232E+02  0.7816164E-02  0.1320468E+00
        -11   -1    0    0    0    0  0.00000000000E+00  0.00000000000E+00  0.45593999997E+02  0.45594000000E+02  0.51100000000E-03 0.  1.
         11   -1    0    0    0    0 -0.00000000000E+00 -0.00000000000E+00 -0.45593999997E+02  0.45594000000E+02  0.51100000000E-03 0. -1.
    9900012    2    1    2    0    0 -0.64889048346E+01  0.23501150164E+01  0.44513868484E+02  0.46142318587E+02  0.10000007527E+02 0.  0.
         12    1    1    2    0    0  0.64889048346E+01 -0.23501150164E+01 -0.44513868484E+02  0.45045681413E+02  0.00000000000E+00 0. -1.
         11    1    3    3    0    0 -0.13218244402E+01  0.18750314753E+01  0.55311784116E+01  0.59880629394E+01  0.51100000000E-03 0. -1.
        -11    1    3    3    0    0 -0.58644766369E+01  0.27281258823E+01  0.34372963381E+02  0.34976211472E+02  0.51100000000E-03 0.  1.
        -12    1    3    3    0    0  0.69739624259E+00 -0.22530423411E+01  0.46097266916E+01  0.51780441753E+01  0.00000000000E+00 0.  1.
</event>
<event>
 7    1  0.3046295E-009  0.4614232E+02  0.7816164E-02  0.1320468E+00
        -11   -1    0    0    0    0  0.00000000000E+00  0.00000000000E+00  0.45593999997E+02  0.45594000000E+02  0.51100000000E-03 0. -1.
         11   -1    0    0    0    0 -0.00000000000E+00 -0.00000000000E+00 -0.45593999997E+02  0.45594000000E+02  0.51100000000E-03 0.  1.
    9900012    2    1    2    0    0 -0.31738124829E+01  0.31733922231E+02 -0.31811926408E+02  0.46142316882E+02  0.99999919796E+01 0.  0.
         12    1    1    2    0    0  0.31738124829E+01 -0.31733922231E+02  0.31811926408E+02  0.45045683118E+02  0.00000000000E+00 0. -1.
         11    1    3    3    0    0  0.24668128357E+00 -0.44344221282E+00 -0.20841398306E+01  0.21450248825E+01  0.51100000000E-03 0. -1.
        -11    1    3    3    0    0 -0.16571589693E+01  0.15603496031E+02 -0.12911147987E+02  0.20320260994E+02  0.51100000000E-03 0.  1.
         12    1    3    3    0    0 -0.17633347972E+01  0.16573868413E+02 -0.16816638590E+02  0.23677031005E+02  0.00000000000E+00 0. -1.
</event>
<event>
 7    1  0.3046295E-009  0.4614232E+02  0.7816164E-02  0.1320468E+00
        -11   -1    0    0    0    0  0.00000000000E+00  0.00000000000E+00  0.45593999997E+02  0.45594000000E+02  0.51100000000E-03 0.  1.
         11   -1    0    0    0    0 -0.00000000000E+00 -0.00000000000E+00 -0.45593999997E+02  0.45594000000E+02  0.51100000000E-03 0. -1.
    9900012    2    1    2    0    0 -0.22334832546E+02  0.18805808011E+02  0.34301754536E+02  0.46142317364E+02  0.99999963812E+01 0.  0.
         12    1    1    2    0    0  0.22334832546E+02 -0.18805808011E+02 -0.34301754536E+02  0.45045682636E+02  0.00000000000E+00 0. -1.
         11    1    3    3    0    0  0.10306254153E+01  0.10620912235E+01  0.13457006189E+01  0.20002842125E+01  0.51100000000E-03 0. -1.
        -11    1    3    3    0    0 -0.91358785936E+01  0.73351535657E+01  0.13973797040E+02  0.18235563043E+02  0.51100000000E-03 0.  1.
         12    1    3    3    0    0 -0.14229579368E+02  0.10408563222E+02  0.18982256877E+02  0.25906470109E+02  0.00000000000E+00 0. -1.
</event>
<event>
 7    1  0.3046295E-009  0.4614232E+02  0.7816164E-02  0.1320468E+00
        -11   -1    0    0    0    0  0.00000000000E+00  0.00000000000E+00  0.45593999997E+02  0.45594000000E+02  0.51100000000E-03 0.  1.
         11   -1    0    0    0    0 -0.00000000000E+00 -0.00000000000E+00 -0.45593999997E+02  0.45594000000E+02  0.51100000000E-03 0. -1.
    9900012    2    1    2    0    0  0.39300705601E+02 -0.21931679893E+02  0.18892529701E+01  0.46142319625E+02  0.10000016999E+02 0.  0.
         12    1    1    2    0    0 -0.39300705601E+02  0.21931679893E+02 -0.18892529701E+01  0.45045680375E+02  0.00000000000E+00 0. -1.
         11    1    3    3    0    0  0.35725048113E+01 -0.30975748404E+01 -0.22055887277E+01  0.52175072991E+01  0.51100000000E-03 0. -1.
        -11    1    3    3    0    0  0.22737705636E+02 -0.11185790890E+02  0.14284690553E+00  0.25340591566E+02  0.51100000000E-03 0.  1.
         12    1    3    3    0    0  0.12990495153E+02 -0.76483141618E+01  0.39519947923E+01  0.15584220760E+02  0.00000000000E+00 0. -1.
</event>
<event>
 7    1  0.3046295E-009  0.4614233E+02  0.7816164E-02  0.1320468E+00
        -11   -1    0    0    0    0  0.00000000000E+00  0.00000000000E+00  0.45593999997E+02  0.45594000000E+02  0.51100000000E-03 0. -1.
         11   -1    0    0    0    0 -0.00000000000E+00 -0.00000000000E+00 -0.45593999997E+02  0.45594000000E+02  0.51100000000E-03 0.  1.
    9900012    2    1    2    0    0  0.47155725396E+01 -0.31810259020E+02  0.31543358488E+02  0.46142326867E+02  0.10000083030E+02 0.  0.
         12    1    1    2    0    0 -0.47155725396E+01  0.31810259020E+02 -0.31543358488E+02  0.45045673133E+02  0.00000000000E+00 0. -1.
         11    1    3    3    0    0  0.61337398352E+01 -0.16453391954E+02  0.14230804006E+02  0.22602049776E+02  0.51100000000E-03 0. -1.
        -11    1    3    3    0    0 -0.22700268529E+01 -0.99882835000E+01  0.91576363804E+01  0.13739764682E+02  0.51100000000E-03 0.  1.
         12    1    3    3    0    0  0.85185955738E+00 -0.53685835665E+01  0.81549181020E+01  0.98005124083E+01  0.00000000000E+00 0. -1.
</event>
<event>
 7    1  0.3046295E-009  0.4614232E+02  0.7816164E-02  0.1320468E+00
        -11   -1    0    0    0    0  0.00000000000E+00  0.00000000000E+00  0.45593999997E+02  0.45594000000E+02  0.51100000000E-03 0.  1.
         11   -1    0    0    0    0 -0.00000000000E+00 -0.00000000000E+00 -0.45593999997E+02  0.45594000000E+02  0.51100000000E-03 0. -1.
    9900012    2    1    2    0    0  0.20667058565E+02 -0.54173282855E+01  0.39656509500E+02  0.46142317619E+02  0.99999987050E+01 0.  0.
         12    1    1    2    0    0 -0.20667058565E+02  0.54173282855E+01 -0.39656509500E+02  0.45045682381E+02  0.00000000000E+00 0. -1.
         11    1    3    3    0    0  0.45535640914E+01 -0.10644833795E+01  0.14588720628E+02  0.15319883832E+02  0.51100000000E-03 0. -1.
        -11    1    3    3    0    0  0.91152181991E+01 -0.45042117837E+01  0.10264998978E+02  0.14448021695E+02  0.51100000000E-03 0.  1.
        -12    1    3    3    0    0  0.69982762744E+01  0.15136687767E+00  0.14802789893E+02  0.16374412092E+02  0.00000000000E+00 0.  1.
</event>
<event>
 7    1  0.3046295E-009  0.4614232E+02  0.7816164E-02  0.1320468E+00
        -11   -1    0    0    0    0  0.00000000000E+00  0.00000000000E+00  0.45593999997E+02  0.45594000000E+02  0.51100000000E-03 0. -1.
         11   -1    0    0    0    0 -0.00000000000E+00 -0.00000000000E+00 -0.45593999997E+02  0.45594000000E+02  0.51100000000E-03 0.  1.
    9900012    2    1    2    0    0  0.19024317897E+02 -0.39804608639E+02  0.90984567843E+01  0.46142318118E+02  0.10000003258E+02 0.  0.
         12    1    1    2    0    0 -0.19024317897E+02  0.39804608639E+02 -0.90984567843E+01  0.45045681882E+02  0.00000000000E+00 0. -1.
         11    1    3    3    0    0  0.11215649722E+02 -0.13159209153E+02  0.20410033080E+01  0.17410378485E+02  0.51100000000E-03 0. -1.
        -11    1    3    3    0    0  0.34862007563E+01 -0.14542117239E+02  0.29755661886E+01  0.15247319893E+02  0.51100000000E-03 0.  1.
        -12    1    3    3    0    0  0.43224674193E+01 -0.12103282247E+02  0.40818872877E+01  0.13484619741E+02  0.00000000000E+00 0.  1.
</event>
<event>
 7    1  0.3046295E-009  0.4614232E+02  0.7816164E-02  0.1320468E+00
        -11   -1    0    0    0    0  0.00000000000E+00  0.00000000000E+00  0.45593999997E+02  0.45594000000E+02  0.51100000000E-03 0. -1.
         11   -1    0    0    0    0 -0.00000000000E+00 -0.00000000000E+00 -0.45593999997E+02  0.45594000000E+02  0.51100000000E-03 0.  1.
    9900012    2    1    2    0    0 -0.23147955915E+02  0.26496105340E+02 -0.28129023384E+02  0.46142318544E+02  0.10000007141E+02 0.  0.
         12    1    1    2    0    0  0.23147955915E+02 -0.26496105340E+02  0.28129023384E+02  0.45045681456E+02  0.00000000000E+00 0. -1.
         11    1    3    3    0    0 -0.11655103320E+02  0.19295241064E+02 -0.15231450586E+02  0.27205603252E+02  0.51100000000E-03 0. -1.
        -11    1    3    3    0    0 -0.44061048561E+01  0.43796694459E+01 -0.52227926813E+01  0.81162077420E+01  0.51100000000E-03 0.  1.
         12    1    3    3    0    0 -0.70867477393E+01  0.28211948308E+01 -0.76747801172E+01  0.10820507550E+02  0.00000000000E+00 0. -1.
</event>
<event>
 7    1  0.3046295E-009  0.4614232E+02  0.7816164E-02  0.1320468E+00
        -11   -1    0    0    0    0  0.00000000000E+00  0.00000000000E+00  0.45593999997E+02  0.45594000000E+02  0.51100000000E-03 0.  1.
         11   -1    0    0    0    0 -0.00000000000E+00 -0.00000000000E+00 -0.45593999997E+02  0.45594000000E+02  0.51100000000E-03 0. -1.
    9900012    2    1    2    0    0  0.34421376500E+02 -0.76283147835E+01  0.28037314650E+02  0.46142319193E+02  0.10000013057E+02 0.  0.
         12    1    1    2    0    0 -0.34421376500E+02  0.76283147835E+01 -0.28037314650E+02  0.45045680807E+02  0.00000000000E+00 0. -1.
         11    1    3    3    0    0  0.23160697767E+01 -0.33267423169E+01  0.43750955705E+01  0.59642983800E+01  0.51100000000E-03 0. -1.
        -11    1    3    3    0    0  0.25694409420E+02 -0.25659411370E+01  0.19159579224E+02  0.32153945414E+02  0.51100000000E-03 0.  1.
         12    1    3    3    0    0  0.64108973034E+01 -0.17356313297E+01  0.45026398547E+01  0.80240753990E+01  0.00000000000E+00 0. -1.
</event>
<event>
 7    1  0.3046295E-009  0.4614232E+02  0.7816164E-02  0.1320468E+00
        -11   -1    0    0    0    0  0.00000000000E+00  0.00000000000E+00  0.45593999997E+02  0.45594000000E+02  0.51100000000E-03 0.  1.
         11   -1    0    0    0    0 -0.00000000000E+00 -0.00000000000E+00 -0.45593999997E+02  0.45594000000E+02  0.51100000000E-03 0. -1.
    9900012    2    1    2    0    0 -0.23963132296E+02 -0.31093091193E+02  0.22093017244E+02  0.46142318295E+02  0.10000004864E+02 0.  0.
         12    1    1    2    0    0  0.23963132296E+02  0.31093091193E+02 -0.22093017244E+02  0.45045681705E+02  0.00000000000E+00 0. -1.
         11    1    3    3    0    0 -0.15598687536E+02 -0.21432993540E+02  0.10910343432E+02  0.28665795977E+02  0.51100000000E-03 0. -1.
        -11    1    3    3    0    0 -0.79596549377E+01 -0.93146815811E+01  0.89285062105E+01  0.15160396535E+02  0.51100000000E-03 0.  1.
        -12    1    3    3    0    0 -0.40478982210E+00 -0.34541607158E+00  0.22541676021E+01  0.23161257826E+01  0.00000000000E+00 0.  1.
</event>
<event>
 7    1  0.3046295E-009  0.4614232E+02  0.7816164E-02  0.1320468E+00
        -11   -1    0    0    0    0  0.00000000000E+00  0.00000000000E+00  0.45593999997E+02  0.45594000000E+02  0.51100000000E-03 0.  1.
         11   -1    0    0    0    0 -0.00000000000E+00 -0.00000000000E+00 -0.45593999997E+02  0.45594000000E+02  0.51100000000E-03 0. -1.
    9900012    2    1    2    0    0  0.14245269653E+02 -0.12430439927E+02  0.40886061229E+02  0.46142317110E+02  0.99999940601E+01 0.  0.
         12    1    1    2    0    0 -0.14245269653E+02  0.12430439927E+02 -0.40886061229E+02  0.45045682890E+02  0.00000000000E+00 0. -1.
         11    1    3    3    0    0  0.14689158145E+01  0.21587483793E+00  0.37533224125E+01  0.40363033842E+01  0.51100000000E-03 0. -1.
        -11    1    3    3    0    0  0.11101197244E+01  0.94211923194E+00  0.61450266708E+01  0.63151648827E+01  0.51100000000E-03 0.  1.
        -12    1    3    3    0    0  0.11666234114E+02 -0.13588433997E+02  0.30987712145E+02  0.35790848843E+02  0.00000000000E+00 0.  1.
</event>
<event>
 7    1  0.3046295E-009  0.4614232E+02  0.7816164E-02  0.1320468E+00
        -11   -1    0    0    0    0  0.00000000000E+00  0.00000000000E+00  0.45593999997E+02  0.45594000000E+02  0.51100000000E-03 0.  1.
         11   -1    0    0    0    0 -0.00000000000E+00 -0.00000000000E+00 -0.45593999997E+02  0.45594000000E+02  0.51100000000E-03 0. -1.
    9900012    2    1    2    0    0  0.81048985358E+01 -0.13229946946E+02  0.42289392256E+02  0.46142316812E+02  0.99999913498E+01 0.  0.
         12    1    1    2    0    0 -0.81048985358E+01  0.13229946946E+02 -0.42289392256E+02  0.45045683188E+02  0.00000000000E+00 0. -1.
         11    1    3    3    0    0 -0.34577381138E+00 -0.42545556797E+01  0.46276328831E+01  0.62956961428E+01  0.51100000000E-03 0. -1.
        -11    1    3    3    0    0  0.70770425841E+01 -0.84429751472E+01  0.35887929277E+02  0.37540802190E+02  0.51100000000E-03 0.  1.
         12    1    3    3    0    0  0.13736297631E+01 -0.53241611903E+00  0.17738300960E+01  0.23058184792E+01  0.00000000000E+00 0. -1.
</event>
<event>
 7    1  0.3046295E-009  0.4614232E+02  0.7816164E-02  0.1320468E+00
        -11   -1    0    0    0    0  0.00000000000E+00  0.00000000000E+00  0.45593999997E+02  0.45594000000E+02  0.51100000000E-03 0.  1.
         11   -1    0    0    0    0 -0.00000000000E+00 -0.00000000000E+00 -0.45593999997E+02  0.45594000000E+02  0.51100000000E-03 0. -1.
    9900012    2    1    2    0    0 -0.14220620016E+02 -0.35526587620E+02  0.23764449651E+02  0.46142317312E+02  0.99999959032E+01 0.  0.
         12    1    1    2    0    0  0.14220620016E+02  0.35526587620E+02 -0.23764449651E+02  0.45045682688E+02  0.00000000000E+00 0. -1.
         11    1    3    3    0    0 -0.58916283951E+01 -0.83552175615E+01  0.73821719456E+01  0.12610210488E+02  0.51100000000E-03 0. -1.
        -11    1    3    3    0    0 -0.48197381073E+01 -0.18056262442E+02  0.69069923962E+01  0.19923981355E+02  0.51100000000E-03 0.  1.
        -12    1    3    3    0    0 -0.35092535140E+01 -0.91151076165E+01  0.94752853096E+01  0.13608125469E+02  0.00000000000E+00 0.  1.
</event>
<event>
 7    1  0.3046295E-009  0.4614232E+02  0.7816164E-02  0.1320468E+00
        -11   -1    0    0    0    0  0.00000000000E+00  0.00000000000E+00  0.45593999997E+02  0.45594000000E+02  0.51100000000E-03 0. -1.
         11   -1    0    0    0    0 -0.00000000000E+00 -0.00000000000E+00 -0.45593999997E+02  0.45594000000E+02  0.51100000000E-03 0.  1.
    9900012    2    1    2    0    0 -0.32029548909E+00  0.41984363689E+02 -0.16319440039E+02  0.46142317557E+02  0.99999981396E+01 0.  0.
         12    1    1    2    0    0  0.32029548909E+00 -0.41984363689E+02  0.16319440039E+02  0.45045682443E+02  0.00000000000E+00 0. -1.
         11    1    3    3    0    0 -0.51883467122E+00  0.15752843252E+01 -0.23345239353E+01  0.28636885981E+01  0.51100000000E-03 0. -1.
        -11    1    3    3    0    0  0.27957852886E+01  0.15725288039E+02 -0.73818800951E+01  0.17595262240E+02  0.51100000000E-03 0.  1.
         12    1    3    3    0    0 -0.25972461065E+01  0.24683791325E+02 -0.66030360089E+01  0.25683366719E+02  0.00000000000E+00 0. -1.
</event>
<event>
 7    1  0.3046295E-009  0.4614232E+02  0.7816164E-02  0.1320468E+00
        -11   -1    0    0    0    0  0.00000000000E+00  0.00000000000E+00  0.45593999997E+02  0.45594000000E+02  0.51100000000E-03 0.  1.
         11   -1    0    0    0    0 -0.00000000000E+00 -0.00000000000E+00 -0.45593999997E+02  0.45594000000E+02  0.51100000000E-03 0. -1.
    9900012    2    1    2    0    0 -0.13946463049E+02 -0.25762084946E+02  0.34218775568E+02  0.46142318146E+02  0.10000003508E+02 0.  0.
         12    1    1    2    0    0  0.13946463049E+02  0.25762084946E+02 -0.34218775568E+02  0.45045681854E+02  0.00000000000E+00 0. -1.
         11    1    3    3    0    0 -0.98235277912E+01 -0.12917939951E+02  0.14371634245E+02  0.21677609231E+02  0.51100000000E-03 0. -1.
        -11    1    3    3    0    0 -0.51410127513E+01 -0.96055335113E+01  0.14649918532E+02  0.18256954823E+02  0.51100000000E-03 0.  1.
        -12    1    3    3    0    0  0.10180774936E+01 -0.32386114839E+01  0.51972227914E+01  0.62077540922E+01  0.00000000000E+00 0.  1.
</event>
<event>
 7    1  0.3046295E-009  0.4614232E+02  0.7816164E-02  0.1320468E+00
        -11   -1    0    0    0    0  0.00000000000E+00  0.00000000000E+00  0.45593999997E+02  0.45594000000E+02  0.51100000000E-03 0.  1.
         11   -1    0    0    0    0 -0.00000000000E+00 -0.00000000000E+00 -0.45593999997E+02  0.45594000000E+02  0.51100000000E-03 0. -1.
    9900012    2    1    2    0    0 -0.43710774635E+01  0.57142938481E+01  0.44467447638E+02  0.46142319055E+02  0.10000011797E+02 0.  0.
         12    1    1    2    0    0  0.43710774635E+01 -0.57142938481E+01 -0.44467447638E+02  0.45045680945E+02  0.00000000000E+00 0. -1.
         11    1    3    3    0    0 -0.38105903481E+01  0.61953882563E+01  0.29189205738E+02  0.30081774654E+02  0.51100000000E-03 0. -1.
        -11    1    3    3    0    0 -0.21608221903E+01  0.50020008892E+00  0.12576915597E+02  0.12770988954E+02  0.51100000000E-03 0.  1.
         12    1    3    3    0    0  0.16003350750E+01 -0.98129449718E+00  0.27013263026E+01  0.32895554465E+01  0.00000000000E+00 0. -1.
</event>
<event>
 7    1  0.3046295E-009  0.4614232E+02  0.7816164E-02  0.1320468E+00
        -11   -1    0    0    0    0  0.00000000000E+00  0.00000000000E+00  0.45593999997E+02  0.45594000000E+02  0.51100000000E-03 0.  1.
         11   -1    0    0    0    0 -0.00000000000E+00 -0.00000000000E+00 -0.45593999997E+02  0.45594000000E+02  0.51100000000E-03 0. -1.
    9900012    2    1    2    0    0  0.31034006205E+02 -0.31133033345E+02  0.98355623070E+01  0.46142316607E+02  0.99999894792E+01 0.  0.
         12    1    1    2    0    0 -0.31034006205E+02  0.31133033345E+02 -0.98355623070E+01  0.45045683393E+02  0.00000000000E+00 0. -1.
         11    1    3    3    0    0  0.76420144875E+01 -0.10612098783E+02  0.57685681174E+01  0.14293124375E+02  0.51100000000E-03 0. -1.
        -11    1    3    3    0    0  0.92495688264E+01 -0.62100400048E+01  0.36549334031E+01  0.11725086728E+02  0.51100000000E-03 0.  1.
        -12    1    3    3    0    0  0.14142422891E+02 -0.14310894557E+02  0.41206078645E+00  0.20124105504E+02  0.00000000000E+00 0.  1.
</event>
<event>
 7    1  0.3046295E-009  0.4614232E+02  0.7816164E-02  0.1320468E+00
        -11   -1    0    0    0    0  0.00000000000E+00  0.00000000000E+00  0.45593999997E+02  0.45594000000E+02  0.51100000000E-03 0.  1.
         11   -1    0    0    0    0 -0.00000000000E+00 -0.00000000000E+00 -0.45593999997E+02  0.45594000000E+02  0.51100000000E-03 0. -1.
    9900012    2    1    2    0    0 -0.37993316089E+02  0.11218524761E+02  0.21442156582E+02  0.46142318252E+02  0.10000004477E+02 0.  0.
         12    1    1    2    0    0  0.37993316089E+02 -0.11218524761E+02 -0.21442156582E+02  0.45045681748E+02  0.00000000000E+00 0. -1.
         11    1    3    3    0    0  0.39390741619E+00  0.50076813318E+00  0.81775778996E+00  0.10366580149E+01  0.51100000000E-03 0. -1.
        -11    1    3    3    0    0 -0.81355669733E+01  0.37464182877E+01  0.60622507417E+01  0.10815451182E+02  0.51100000000E-03 0.  1.
         12    1    3    3    0    0 -0.30251656532E+02  0.69713383398E+01  0.14562148050E+02  0.34290209055E+02  0.00000000000E+00 0. -1.
</event>
<event>
 7    1  0.3046295E-009  0.4614232E+02  0.7816164E-02  0.1320468E+00
        -11   -1    0    0    0    0  0.00000000000E+00  0.00000000000E+00  0.45593999997E+02  0.45594000000E+02  0.51100000000E-03 0.  1.
         11   -1    0    0    0    0 -0.00000000000E+00 -0.00000000000E+00 -0.45593999997E+02  0.45594000000E+02  0.51100000000E-03 0. -1.
    9900012    2    1    2    0    0 -0.27665679521E+02 -0.26775440550E+02  0.23383743155E+02  0.46142317810E+02  0.10000000447E+02 0.  0.
         12    1    1    2    0    0  0.27665679521E+02  0.26775440550E+02 -0.23383743155E+02  0.45045682190E+02  0.00000000000E+00 0. -1.
         11    1    3    3    0    0 -0.13290079005E+01 -0.16481807345E+01 -0.79633084969E+00  0.22620576510E+01  0.51100000000E-03 0. -1.
        -11    1    3    3    0    0 -0.16895844446E+02 -0.15801761750E+02  0.17604906541E+02  0.29070568769E+02  0.51100000000E-03 0.  1.
         12    1    3    3    0    0 -0.94408271743E+01 -0.93254980657E+01  0.65751674638E+01  0.14809691391E+02  0.00000000000E+00 0. -1.
</event>
<event>
 7    1  0.3046295E-009  0.4614232E+02  0.7816164E-02  0.1320468E+00
        -11   -1    0    0    0    0  0.00000000000E+00  0.00000000000E+00  0.45593999997E+02  0.45594000000E+02  0.51100000000E-03 0. -1.
         11   -1    0    0    0    0 -0.00000000000E+00 -0.00000000000E+00 -0.45593999997E+02  0.45594000000E+02  0.51100000000E-03 0.  1.
    9900012    2    1    2    0    0 -0.17559504059E+02 -0.25960407319E+01 -0.41400939861E+02  0.46142318390E+02  0.10000005738E+02 0.  0.
         12    1    1    2    0    0  0.17559504059E+02  0.25960407319E+01  0.41400939861E+02  0.45045681610E+02  0.00000000000E+00 0. -1.
         11    1    3    3    0    0 -0.12490298135E+01  0.20100840443E+01 -0.22023978939E+01  0.32328114830E+01  0.51100000000E-03 0. -1.
        -11    1    3    3    0    0 -0.42572810525E+01  0.43991346558E+00 -0.11862259591E+02  0.12610756071E+02  0.51100000000E-03 0.  1.
         12    1    3    3    0    0 -0.12053193193E+02 -0.50460382418E+01 -0.27336282377E+02  0.30298750837E+02  0.00000000000E+00 0. -1.
</event>
<event>
 7    1  0.3046295E-009  0.4614232E+02  0.7816164E-02  0.1320468E+00
        -11   -1    0    0    0    0  0.00000000000E+00  0.00000000000E+00  0.45593999997E+02  0.45594000000E+02  0.51100000000E-03 0.  1.
         11   -1    0    0    0    0 -0.00000000000E+00 -0.00000000000E+00 -0.45593999997E+02  0.45594000000E+02  0.51100000000E-03 0. -1.
    9900012    2    1    2    0    0 -0.22521306312E+02  0.23291300564E+02  0.31295679234E+02  0.46142318090E+02  0.10000003002E+02 0.  0.
         12    1    1    2    0    0  0.22521306312E+02 -0.23291300564E+02 -0.31295679234E+02  0.45045681910E+02  0.00000000000E+00 0. -1.
         11    1    3    3    0    0 -0.15410380707E+02  0.13962954945E+02  0.18481627005E+02  0.27821115746E+02  0.51100000000E-03 0.  1.
        -11    1    3    3    0    0 -0.51657676040E+00 -0.42723896775E+00  0.27519050257E+01  0.28323781910E+01  0.51100000000E-03 0. -1.
         12    1    3    3    0    0 -0.65943488452E+01  0.97555845867E+01  0.10062147204E+02  0.15488824154E+02  0.00000000000E+00 0. -1.
</event>
<event>
 7    1  0.3381039E-009  0.4614232E+02  0.7816164E-02  0.1320468E+00
        -11   -1    0    0    0    0  0.00000000000E+00  0.00000000000E+00  0.45593999997E+02  0.45594000000E+02  0.51100000000E-03 0. -1.
         11   -1    0    0    0    0 -0.00000000000E+00 -0.00000000000E+00 -0.45593999997E+02  0.45594000000E+02  0.51100000000E-03 0.  1.
    9900012    2    1    2    0    0 -0.52061699726E+01 -0.37666982259E+02 -0.24149694719E+02  0.46142317484E+02  0.99999974726E+01 0.  0.
         12    1    1    2    0    0  0.52061699726E+01  0.37666982259E+02  0.24149694719E+02  0.45045682516E+02  0.00000000000E+00 0. -1.
         11    1    3    3    0    0  0.13926736117E+01 -0.36333189777E+01 -0.19988647372E+01  0.43744722060E+01  0.51100000000E-03 0. -1.
        -11    1    3    3    0    0 -0.22225008157E+01 -0.21931287131E+02 -0.10535584180E+02  0.24431934008E+02  0.51100000000E-03 0.  1.
        -12    1    3    3    0    0 -0.43763427686E+01 -0.12102376150E+02 -0.11615245802E+02  0.17335911270E+02  0.00000000000E+00 0.  1.
</event>
<event>
 7    1  0.3046295E-009  0.4614232E+02  0.7816164E-02  0.1320468E+00
        -11   -1    0    0    0    0  0.00000000000E+00  0.00000000000E+00  0.45593999997E+02  0.45594000000E+02  0.51100000000E-03 0.  1.
         11   -1    0    0    0    0 -0.00000000000E+00 -0.00000000000E+00 -0.45593999997E+02  0.45594000000E+02  0.51100000000E-03 0. -1.
    9900012    2    1    2    0    0  0.92775219126E+01  0.10690192001E+02  0.42764013633E+02  0.46142317856E+02  0.10000000862E+02 0.  0.
         12    1    1    2    0    0 -0.92775219126E+01 -0.10690192001E+02 -0.42764013633E+02  0.45045682144E+02  0.00000000000E+00 0. -1.
         11    1    3    3    0    0  0.51460377373E+01  0.11657010588E+00  0.10133165082E+02  0.11365576440E+02  0.51100000000E-03 0. -1.
        -11    1    3    3    0    0  0.21303278275E+01  0.36285604759E+01  0.17634597049E+02  0.18129637645E+02  0.51100000000E-03 0.  1.
        -12    1    3    3    0    0  0.20011563477E+01  0.69450614193E+01  0.14996251502E+02  0.16647103771E+02  0.00000000000E+00 0.  1.
</event>
<event>
 7    1  0.3046295E-009  0.4614232E+02  0.7816164E-02  0.1320468E+00
        -11   -1    0    0    0    0  0.00000000000E+00  0.00000000000E+00  0.45593999997E+02  0.45594000000E+02  0.51100000000E-03 0. -1.
         11   -1    0    0    0    0 -0.00000000000E+00 -0.00000000000E+00 -0.45593999997E+02  0.45594000000E+02  0.51100000000E-03 0.  1.
    9900012    2    1    2    0    0 -0.22277486508E+02 -0.12035909839E+02 -0.37255388886E+02  0.46142317278E+02  0.99999955984E+01 0.  0.
         12    1    1    2    0    0  0.22277486508E+02  0.12035909839E+02  0.37255388886E+02  0.45045682722E+02  0.00000000000E+00 0. -1.
         11    1    3    3    0    0  0.16211688204E+00 -0.15726938574E+01 -0.12176455856E+01  0.19955723203E+01  0.51100000000E-03 0. -1.
        -11    1    3    3    0    0 -0.17621969478E+01 -0.21050410154E+01 -0.70962248564E+01  0.76087412384E+01  0.51100000000E-03 0.  1.
        -12    1    3    3    0    0 -0.20677406442E+02 -0.83581749666E+01 -0.28941518444E+02  0.36538003720E+02  0.00000000000E+00 0.  1.
</event>
<event>
 7    1  0.3046295E-009  0.4614230E+02  0.7816164E-02  0.1320468E+00
        -11   -1    0    0    0    0  0.00000000000E+00  0.00000000000E+00  0.45593999997E+02  0.45594000000E+02  0.51100000000E-03 0.  1.
         11   -1    0    0    0    0 -0.00000000000E+00 -0.00000000000E+00 -0.45593999997E+02  0.45594000000E+02  0.51100000000E-03 0. -1.
    9900012    2    1    2    0    0  0.13732964109E+02  0.42895130770E+02 -0.72680292144E+00  0.46142303319E+02  0.99998683048E+01 0.  0.
         12    1    1    2    0    0 -0.13732964109E+02 -0.42895130770E+02  0.72680292144E+00  0.45045696681E+02  0.00000000000E+00 0. -1.
         11    1    3    3    0    0 -0.10004237538E+01  0.22972586806E+01  0.12846485204E+01  0.28157711582E+01  0.51100000000E-03 0. -1.
        -11    1    3    3    0    0  0.59004866597E+01  0.12960747904E+02  0.26935749906E-01  0.14240697133E+02  0.51100000000E-03 0.  1.
         12    1    3    3    0    0  0.88329012028E+01  0.27637124186E+02 -0.20383871918E+01  0.29085835028E+02  0.00000000000E+00 0. -1.
</event>
<event>
 7    1  0.3046295E-009  0.4614232E+02  0.7816164E-02  0.1320468E+00
        -11   -1    0    0    0    0  0.00000000000E+00  0.00000000000E+00  0.45593999997E+02  0.45594000000E+02  0.51100000000E-03 0.  1.
         11   -1    0    0    0    0 -0.00000000000E+00 -0.00000000000E+00 -0.45593999997E+02  0.45594000000E+02  0.51100000000E-03 0. -1.
    9900012    2    1    2    0    0 -0.24516799610E+02 -0.36714868911E+02  0.89475342261E+01  0.46142318398E+02  0.10000005805E+02 0.  0.
         12    1    1    2    0    0  0.24516799610E+02  0.36714868911E+02 -0.89475342261E+01  0.45045681602E+02  0.00000000000E+00 0. -1.
         11    1    3    3    0    0 -0.63726818989E+01 -0.66842111572E+01  0.40040068584E+01  0.10065874257E+02  0.51100000000E-03 0. -1.
        -11    1    3    3    0    0 -0.16263328153E+02 -0.27892436271E+02  0.26065063196E+01  0.32392556541E+02  0.51100000000E-03 0.  1.
        -12    1    3    3    0    0 -0.18807895580E+01 -0.21382214827E+01  0.23370210481E+01  0.36838876000E+01  0.00000000000E+00 0.  1.
</event>
<event>
 7    1  0.3046295E-009  0.4614232E+02  0.7816164E-02  0.1320468E+00
        -11   -1    0    0    0    0  0.00000000000E+00  0.00000000000E+00  0.45593999997E+02  0.45594000000E+02  0.51100000000E-03 0.  1.
         11   -1    0    0    0    0 -0.00000000000E+00 -0.00000000000E+00 -0.45593999997E+02  0.45594000000E+02  0.51100000000E-03 0. -1.
    9900012    2    1    2    0    0 -0.34129792760E+02  0.28852325887E+02  0.56403988670E+01  0.46142316940E+02  0.99999925118E+01 0.  0.
         12    1    1    2    0    0  0.34129792760E+02 -0.28852325887E+02 -0.56403988670E+01  0.45045683060E+02  0.00000000000E+00 0. -1.
         11    1    3    3    0    0 -0.41468753178E+01  0.77563617865E+01  0.11061359766E-01  0.87953309022E+01  0.51100000000E-03 0. -1.
        -11    1    3    3    0    0 -0.19052935613E+02  0.15897583451E+02  0.35668642220E+01  0.25069304651E+02  0.51100000000E-03 0.  1.
         12    1    3    3    0    0 -0.10929981830E+02  0.51983806494E+01  0.20624732853E+01  0.12277681386E+02  0.00000000000E+00 0. -1.
</event>
<event>
 7    1  0.3046295E-009  0.4614232E+02  0.7816164E-02  0.1320468E+00
        -11   -1    0    0    0    0  0.00000000000E+00  0.00000000000E+00  0.45593999997E+02  0.45594000000E+02  0.51100000000E-03 0. -1.
         11   -1    0    0    0    0 -0.00000000000E+00 -0.00000000000E+00 -0.45593999997E+02  0.45594000000E+02  0.51100000000E-03 0.  1.
    9900012    2    1    2    0    0 -0.27519375646E+02  0.34556631774E+02 -0.88111655648E+01  0.46142317919E+02  0.10000001444E+02 0.  0.
         12    1    1    2    0    0  0.27519375646E+02 -0.34556631774E+02  0.88111655648E+01  0.45045682081E+02  0.00000000000E+00 0. -1.
         11    1    3    3    0    0 -0.86874512972E+01  0.17372311346E+02 -0.56280571658E+01  0.20222364829E+02  0.51100000000E-03 0. -1.
        -11    1    3    3    0    0 -0.90767705299E+01  0.87441609129E+01 -0.32672167962E+01  0.13020092902E+02  0.51100000000E-03 0.  1.
         12    1    3    3    0    0 -0.97551538189E+01  0.84401595151E+01  0.84108397173E-01  0.12899860189E+02  0.00000000000E+00 0. -1.
</event>
<event>
 7    1  0.3046295E-009  0.4614232E+02  0.7816164E-02  0.1320468E+00
        -11   -1    0    0    0    0  0.00000000000E+00  0.00000000000E+00  0.45593999997E+02  0.45594000000E+02  0.51100000000E-03 0.  1.
         11   -1    0    0    0    0 -0.00000000000E+00 -0.00000000000E+00 -0.45593999997E+02  0.45594000000E+02  0.51100000000E-03 0. -1.
    9900012    2    1    2    0    0 -0.11569533421E+02 -0.42837729133E+02 -0.77581157013E+01  0.46142317631E+02  0.99999988122E+01 0.  0.
         12    1    1    2    0    0  0.11569533421E+02  0.42837729133E+02  0.77581157013E+01  0.45045682369E+02  0.00000000000E+00 0. -1.
         11    1    3    3    0    0 -0.17292826702E+01 -0.27555605730E+01 -0.12109363832E+01  0.34712965604E+01  0.51100000000E-03 0. -1.
        -11    1    3    3    0    0 -0.57458744023E+01 -0.35482633949E+02 -0.64079004927E+01  0.36511553974E+02  0.51100000000E-03 0.  1.
        -12    1    3    3    0    0 -0.40943763483E+01 -0.45995346109E+01 -0.13927882546E+00  0.61594670963E+01  0.00000000000E+00 0.  1.
</event>
<event>
 7    1  0.3046295E-009  0.4614232E+02  0.7816164E-02  0.1320468E+00
        -11   -1    0    0    0    0  0.00000000000E+00  0.00000000000E+00  0.45593999997E+02  0.45594000000E+02  0.51100000000E-03 0. -1.
         11   -1    0    0    0    0 -0.00000000000E+00 -0.00000000000E+00 -0.45593999997E+02  0.45594000000E+02  0.51100000000E-03 0.  1.
    9900012    2    1    2    0    0  0.36665588793E+02 -0.42219440334E+01 -0.25824856922E+02  0.46142318209E+02  0.10000004086E+02 0.  0.
         12    1    1    2    0    0 -0.36665588793E+02  0.42219440334E+01  0.25824856922E+02  0.45045681791E+02  0.00000000000E+00 0. -1.
         11    1    3    3    0    0  0.15332898922E+02 -0.48792782766E+01 -0.12952765225E+02  0.20656216331E+02  0.51100000000E-03 0. -1.
        -11    1    3    3    0    0  0.57196673169E+01 -0.19267741868E+01 -0.23236716868E+01  0.64673412893E+01  0.51100000000E-03 0.  1.
         12    1    3    3    0    0  0.15613022553E+02  0.25841084300E+01 -0.10548420010E+02  0.19018760589E+02  0.00000000000E+00 0. -1.
</event>
<event>
 7    1  0.3046295E-009  0.4614232E+02  0.7816164E-02  0.1320468E+00
        -11   -1    0    0    0    0  0.00000000000E+00  0.00000000000E+00  0.45593999997E+02  0.45594000000E+02  0.51100000000E-03 0.  1.
         11   -1    0    0    0    0 -0.00000000000E+00 -0.00000000000E+00 -0.45593999997E+02  0.45594000000E+02  0.51100000000E-03 0. -1.
    9900012    2    1    2    0    0 -0.28570485507E+02 -0.73926024831E+01  0.34032195351E+02  0.46142317255E+02  0.99999953822E+01 0.  0.
         12    1    1    2    0    0  0.28570485507E+02  0.73926024831E+01 -0.34032195351E+02  0.45045682745E+02  0.00000000000E+00 0. -1.
         11    1    3    3    0    0 -0.73241689493E+01 -0.35549807763E+01  0.15168238012E+02  0.17215016229E+02  0.51100000000E-03 0.  1.
        -11    1    3    3    0    0 -0.13087702692E+02 -0.22901758277E+01  0.90721121452E+01  0.16088383577E+02  0.51100000000E-03 0. -1.
        -12    1    3    3    0    0 -0.81586138656E+01 -0.15474458792E+01  0.97918451939E+01  0.12838917449E+02  0.00000000000E+00 0.  1.
</event>
<event>
 7    1  0.3046295E-009  0.4614232E+02  0.7816164E-02  0.1320468E+00
        -11   -1    0    0    0    0  0.00000000000E+00  0.00000000000E+00  0.45593999997E+02  0.45594000000E+02  0.51100000000E-03 0.  1.
         11   -1    0    0    0    0 -0.00000000000E+00 -0.00000000000E+00 -0.45593999997E+02  0.45594000000E+02  0.51100000000E-03 0. -1.
    9900012    2    1    2    0    0 -0.29794907610E+02  0.33891096215E+01  0.33613849587E+02  0.46142317992E+02  0.10000002105E+02 0.  0.
         12    1    1    2    0    0  0.29794907610E+02 -0.33891096215E+01 -0.33613849587E+02  0.45045682008E+02  0.00000000000E+00 0. -1.
         11    1    3    3    0    0 -0.19115419643E+02  0.16615463073E+01  0.23518661603E+02  0.30352717310E+02  0.51100000000E-03 0.  1.
        -11    1    3    3    0    0 -0.16956664868E+01  0.25861293330E+01  0.21570431171E+01  0.37704356554E+01  0.51100000000E-03 0. -1.
         12    1    3    3    0    0 -0.89838214806E+01 -0.85856601885E+00  0.79381448664E+01  0.12019165026E+02  0.00000000000E+00 0. -1.
</event>
<event>
 7    1  0.3046295E-009  0.4614232E+02  0.7816164E-02  0.1320468E+00
        -11   -1    0    0    0    0  0.00000000000E+00  0.00000000000E+00  0.45593999997E+02  0.45594000000E+02  0.51100000000E-03 0.  1.
         11   -1    0    0    0    0 -0.00000000000E+00 -0.00000000000E+00 -0.45593999997E+02  0.45594000000E+02  0.51100000000E-03 0. -1.
    9900012    2    1    2    0    0 -0.39812172829E+01 -0.23139718941E+02  0.38442381865E+02  0.46142318663E+02  0.10000008220E+02 0.  0.
         12    1    1    2    0    0  0.39812172829E+01  0.23139718941E+02 -0.38442381865E+02  0.45045681337E+02  0.00000000000E+00 0. -1.
         11    1    3    3    0    0  0.96805943942E+00 -0.26060957803E+01  0.24101920311E+01  0.36793885610E+01  0.51100000000E-03 0. -1.
        -11    1    3    3    0    0 -0.66373289021E+01 -0.16279827096E+02  0.31166244513E+02  0.35782980627E+02  0.51100000000E-03 0.  1.
        -12    1    3    3    0    0  0.16880521798E+01 -0.42537960653E+01  0.48659453203E+01  0.66799494749E+01  0.00000000000E+00 0.  1.
</event>
<event>
 7    1  0.3046295E-009  0.4614232E+02  0.7816164E-02  0.1320468E+00
        -11   -1    0    0    0    0  0.00000000000E+00  0.00000000000E+00  0.45593999997E+02  0.45594000000E+02  0.51100000000E-03 0. -1.
         11   -1    0    0    0    0 -0.00000000000E+00 -0.00000000000E+00 -0.45593999997E+02  0.45594000000E+02  0.51100000000E-03 0.  1.
    9900012    2    1    2    0    0  0.31518116816E+02 -0.25381597974E+02 -0.19786266686E+02  0.46142317047E+02  0.99999934878E+01 0.  0.
         12    1    1    2    0    0 -0.31518116816E+02  0.25381597974E+02  0.19786266686E+02  0.45045682953E+02  0.00000000000E+00 0. -1.
         11    1    3    3    0    0 -0.53598598849E+00  0.21965671831E+00 -0.64804792663E+00  0.86919297632E+00  0.51100000000E-03 0. -1.
        -11    1    3    3    0    0  0.17716189112E+02 -0.13930159864E+02 -0.10849949744E+02  0.25012679189E+02  0.51100000000E-03 0.  1.
         12    1    3    3    0    0  0.14337913693E+02 -0.11671094828E+02 -0.82882690153E+01  0.20260444882E+02  0.00000000000E+00 0. -1.
</event>
<event>
 7    1  0.3046295E-009  0.4614232E+02  0.7816164E-02  0.1320468E+00
        -11   -1    0    0    0    0  0.00000000000E+00  0.00000000000E+00  0.45593999997E+02  0.45594000000E+02  0.51100000000E-03 0. -1.
         11   -1    0    0    0    0 -0.00000000000E+00 -0.00000000000E+00 -0.45593999997E+02  0.45594000000E+02  0.51100000000E-03 0.  1.
    9900012    2    1    2    0    0 -0.39854913775E+02 -0.18539798968E+02 -0.98475980721E+01  0.46142317792E+02  0.10000000285E+02 0.  0.
         12    1    1    2    0    0  0.39854913775E+02  0.18539798968E+02  0.98475980721E+01  0.45045682208E+02  0.00000000000E+00 0. -1.
         11    1    3    3    0    0 -0.12923894636E+02 -0.80963151230E+01 -0.61234141284E+01  0.16433915297E+02  0.51100000000E-03 0. -1.
        -11    1    3    3    0    0 -0.93138941455E+01 -0.65499688854E+01 -0.63956230146E+00  0.11404374457E+02  0.51100000000E-03 0.  1.
         12    1    3    3    0    0 -0.17617124993E+02 -0.38935149594E+01 -0.30846216422E+01  0.18304028038E+02  0.00000000000E+00 0. -1.
</event>
<event>
 7    1  0.3046295E-009  0.4614232E+02  0.7816164E-02  0.1320468E+00
        -11   -1    0    0    0    0  0.00000000000E+00  0.00000000000E+00  0.45593999997E+02  0.45594000000E+02  0.51100000000E-03 0.  1.
         11   -1    0    0    0    0 -0.00000000000E+00 -0.00000000000E+00 -0.45593999997E+02  0.45594000000E+02  0.51100000000E-03 0. -1.
    9900012    2    1    2    0    0 -0.31626907136E+02 -0.66133438450E+01  0.31386558317E+02  0.46142316358E+02  0.99999872021E+01 0.  0.
         12    1    1    2    0    0  0.31626907136E+02  0.66133438450E+01 -0.31386558317E+02  0.45045683642E+02  0.00000000000E+00 0. -1.
         11    1    3    3    0    0 -0.17248389154E+01 -0.20242167103E+00  0.54990354470E+01  0.57667525459E+01  0.51100000000E-03 0. -1.
        -11    1    3    3    0    0 -0.14404813204E+02 -0.48795633241E+01  0.15097743724E+02  0.21430134098E+02  0.51100000000E-03 0.  1.
         12    1    3    3    0    0 -0.15497255018E+02 -0.15313588500E+01  0.10789779146E+02  0.18945429713E+02  0.00000000000E+00 0. -1.
</event>
<event>
 7    1  0.3046295E-009  0.4614232E+02  0.7816164E-02  0.1320468E+00
        -11   -1    0    0    0    0  0.00000000000E+00  0.00000000000E+00  0.45593999997E+02  0.45594000000E+02  0.51100000000E-03 0.  1.
         11   -1    0    0    0    0 -0.00000000000E+00 -0.00000000000E+00 -0.45593999997E+02  0.45594000000E+02  0.51100000000E-03 0. -1.
    9900012    2    1    2    0    0 -0.84748311944E+01  0.33958651070E+02  0.28356668795E+02  0.46142318615E+02  0.10000007790E+02 0.  0.
         12    1    1    2    0    0  0.84748311944E+01 -0.33958651070E+02 -0.28356668795E+02  0.45045681385E+02  0.00000000000E+00 0. -1.
         11    1    3    3    0    0 -0.27298544024E+00  0.15122344988E+00 -0.28169520634E+00  0.42040698469E+00  0.51100000000E-03 0. -1.
        -11    1    3    3    0    0  0.32752531790E+00  0.13133225426E+02  0.12581497852E+02  0.18190188878E+02  0.51100000000E-03 0.  1.
        -12    1    3    3    0    0 -0.85293710720E+01  0.20674202193E+02  0.16056866149E+02  0.27531722753E+02  0.00000000000E+00 0.  1.
</event>
<event>
 7    1  0.3046295E-009  0.4614232E+02  0.7816164E-02  0.1320468E+00
        -11   -1    0    0    0    0  0.00000000000E+00  0.00000000000E+00  0.45593999997E+02  0.45594000000E+02  0.51100000000E-03 0.  1.
         11   -1    0    0    0    0 -0.00000000000E+00 -0.00000000000E+00 -0.45593999997E+02  0.45594000000E+02  0.51100000000E-03 0. -1.
    9900012    2    1    2    0    0  0.36226514137E+02 -0.24750080213E+01  0.26657597661E+02  0.46142317585E+02  0.99999983931E+01 0.  0.
         12    1    1    2    0    0 -0.36226514137E+02  0.24750080213E+01 -0.26657597661E+02  0.45045682415E+02  0.00000000000E+00 0. -1.
         11    1    3    3    0    0  0.39252588978E+00 -0.13118245279E+00  0.16253400801E+01  0.16772048316E+01  0.51100000000E-03 0. -1.
        -11    1    3    3    0    0  0.60695272292E+01  0.25160597177E+01  0.39160257334E+01  0.76488544956E+01  0.51100000000E-03 0.  1.
         12    1    3    3    0    0  0.29764461018E+02 -0.48598852862E+01  0.21116231847E+02  0.36816258258E+02  0.00000000000E+00 0. -1.
</event>
<event>
 7    1  0.3046295E-009  0.4614232E+02  0.7816164E-02  0.1320468E+00
        -11   -1    0    0    0    0  0.00000000000E+00  0.00000000000E+00  0.45593999997E+02  0.45594000000E+02  0.51100000000E-03 0.  1.
         11   -1    0    0    0    0 -0.00000000000E+00 -0.00000000000E+00 -0.45593999997E+02  0.45594000000E+02  0.51100000000E-03 0. -1.
    9900012    2    1    2    0    0 -0.68244485890E+01 -0.87003680457E+01  0.43667424403E+02  0.46142318113E+02  0.10000003210E+02 0.  0.
         12    1    1    2    0    0  0.68244485890E+01  0.87003680457E+01 -0.43667424403E+02  0.45045681887E+02  0.00000000000E+00 0. -1.
         11    1    3    3    0    0 -0.13390407507E+01 -0.40027492229E+01  0.82728225927E+01  0.92873368295E+01  0.51100000000E-03 0.  1.
        -11    1    3    3    0    0 -0.19405412390E+01 -0.27881293034E+00  0.14436662617E+01  0.24346682498E+01  0.51100000000E-03 0. -1.
        -12    1    3    3    0    0 -0.35448665992E+01 -0.44188058925E+01  0.33950935549E+02  0.34420313034E+02  0.00000000000E+00 0.  1.
</event>
<event>
 7    1  0.3046295E-009  0.4614232E+02  0.7816164E-02  0.1320468E+00
        -11   -1    0    0    0    0  0.00000000000E+00  0.00000000000E+00  0.45593999997E+02  0.45594000000E+02  0.51100000000E-03 0.  1.
         11   -1    0    0    0    0 -0.00000000000E+00 -0.00000000000E+00 -0.45593999997E+02  0.45594000000E+02  0.51100000000E-03 0. -1.
    9900012    2    1    2    0    0 -0.13316309118E+02 -0.41550329826E+02 -0.11196401926E+02  0.46142318595E+02  0.10000007604E+02 0.  0.
         12    1    1    2    0    0  0.13316309118E+02  0.41550329826E+02  0.11196401926E+02  0.45045681405E+02  0.00000000000E+00 0. -1.
         11    1    3    3    0    0 -0.10540311686E+02 -0.20490827073E+02 -0.65543378962E+01  0.23956867702E+02  0.51100000000E-03 0. -1.
        -11    1    3    3    0    0 -0.79113822319E+00 -0.17727442354E+02 -0.31109109503E+01  0.18015712012E+02  0.51100000000E-03 0.  1.
        -12    1    3    3    0    0 -0.19848592089E+01 -0.33320603984E+01 -0.15311530797E+01  0.41697388805E+01  0.00000000000E+00 0.  1.
</event>
<event>
 7    1  0.3046295E-009  0.4614232E+02  0.7816164E-02  0.1320468E+00
        -11   -1    0    0    0    0  0.00000000000E+00  0.00000000000E+00  0.45593999997E+02  0.45594000000E+02  0.51100000000E-03 0.  1.
         11   -1    0    0    0    0 -0.00000000000E+00 -0.00000000000E+00 -0.45593999997E+02  0.45594000000E+02  0.51100000000E-03 0. -1.
    9900012    2    1    2    0    0  0.32812776006E+02 -0.14122015548E+02  0.27440916003E+02  0.46142318038E+02  0.10000002521E+02 0.  0.
         12    1    1    2    0    0 -0.32812776006E+02  0.14122015548E+02 -0.27440916003E+02  0.45045681962E+02  0.00000000000E+00 0. -1.
         11    1    3    3    0    0  0.17350043621E+01 -0.41104660563E+00  0.36677102763E+01  0.40781488914E+01  0.51100000000E-03 0.  1.
        -11    1    3    3    0    0  0.44413829671E+01  0.54235455124E+00  0.35231230382E+01  0.56949475259E+01  0.51100000000E-03 0. -1.
         12    1    3    3    0    0  0.26636388677E+02 -0.14253323494E+02  0.20250082689E+02  0.36369221620E+02  0.00000000000E+00 0. -1.
</event>
<event>
 7    1  0.3046295E-009  0.4614232E+02  0.7816164E-02  0.1320468E+00
        -11   -1    0    0    0    0  0.00000000000E+00  0.00000000000E+00  0.45593999997E+02  0.45594000000E+02  0.51100000000E-03 0.  1.
         11   -1    0    0    0    0 -0.00000000000E+00 -0.00000000000E+00 -0.45593999997E+02  0.45594000000E+02  0.51100000000E-03 0. -1.
    9900012    2    1    2    0    0 -0.25489591577E+02  0.23358825051E+02  0.28874891421E+02  0.46142319396E+02  0.10000014906E+02 0.  0.
         12    1    1    2    0    0  0.25489591577E+02 -0.23358825051E+02 -0.28874891421E+02  0.45045680604E+02  0.00000000000E+00 0. -1.
         11    1    3    3    0    0 -0.15258874391E+01  0.55257811794E+01  0.32478172805E+01  0.65886954299E+01  0.51100000000E-03 0. -1.
        -11    1    3    3    0    0 -0.19708924715E+02  0.13508193663E+02  0.18671257701E+02  0.30323734497E+02  0.51100000000E-03 0.  1.
         12    1    3    3    0    0 -0.42547794232E+01  0.43248502087E+01  0.69558164397E+01  0.92298894690E+01  0.00000000000E+00 0. -1.
</event>
<event>
 7    1  0.3454879E-009  0.4614232E+02  0.7816164E-02  0.1320468E+00
        -11   -1    0    0    0    0  0.00000000000E+00  0.00000000000E+00  0.45593999997E+02  0.45594000000E+02  0.51100000000E-03 0. -1.
         11   -1    0    0    0    0 -0.00000000000E+00 -0.00000000000E+00 -0.45593999997E+02  0.45594000000E+02  0.51100000000E-03 0.  1.
    9900012    2    1    2    0    0  0.30469249927E+02  0.65158809927E+00 -0.33170977475E+02  0.46142317578E+02  0.99999983318E+01 0.  0.
         12    1    1    2    0    0 -0.30469249927E+02 -0.65158809927E+00  0.33170977475E+02  0.45045682422E+02  0.00000000000E+00 0. -1.
         11    1    3    3    0    0  0.70145424163E+00 -0.61449626289E+00 -0.33116912874E+01  0.34404858893E+01  0.51100000000E-03 0. -1.
        -11    1    3    3    0    0  0.10949841204E+02 -0.25553023507E+01 -0.12543360234E+02  0.16845310289E+02  0.51100000000E-03 0.  1.
        -12    1    3    3    0    0  0.18817954482E+02  0.38213867129E+01 -0.17315925953E+02  0.25856521400E+02  0.00000000000E+00 0.  1.
</event>
<event>
 7    1  0.3046295E-009  0.4614232E+02  0.7816164E-02  0.1320468E+00
        -11   -1    0    0    0    0  0.00000000000E+00  0.00000000000E+00  0.45593999997E+02  0.45594000000E+02  0.51100000000E-03 0.  1.
         11   -1    0    0    0    0 -0.00000000000E+00 -0.00000000000E+00 -0.45593999997E+02  0.45594000000E+02  0.51100000000E-03 0. -1.
    9900012    2    1    2    0    0 -0.97977491397E+01  0.33223957594E+02  0.28797330654E+02  0.46142317641E+02  0.99999989041E+01 0.  0.
         12    1    1    2    0    0  0.97977491397E+01 -0.33223957594E+02 -0.28797330654E+02  0.45045682359E+02  0.00000000000E+00 0. -1.
         11    1    3    3    0    0 -0.35247233232E+01  0.81623150810E+01  0.12172330072E+02  0.15073575609E+02  0.51100000000E-03 0. -1.
        -11    1    3    3    0    0 -0.49857544480E+01  0.19792557890E+02  0.15234044184E+02  0.25469181332E+02  0.51100000000E-03 0.  1.
         12    1    3    3    0    0 -0.12872713686E+01  0.52690846224E+01  0.13909563979E+01  0.55995607001E+01  0.00000000000E+00 0. -1.
</event>
<event>
 7    1  0.3046295E-009  0.4614232E+02  0.7816164E-02  0.1320468E+00
        -11   -1    0    0    0    0  0.00000000000E+00  0.00000000000E+00  0.45593999997E+02  0.45594000000E+02  0.51100000000E-03 0.  1.
         11   -1    0    0    0    0 -0.00000000000E+00 -0.00000000000E+00 -0.45593999997E+02  0.45594000000E+02  0.51100000000E-03 0. -1.
    9900012    2    1    2    0    0  0.10910793727E+02 -0.16060468918E+02  0.40646394120E+02  0.46142318336E+02  0.10000005242E+02 0.  0.
         12    1    1    2    0    0 -0.10910793727E+02  0.16060468918E+02 -0.40646394120E+02  0.45045681664E+02  0.00000000000E+00 0. -1.
         11    1    3    3    0    0  0.28145968192E+00 -0.56824331288E+01  0.12746379331E+02  0.13958490324E+02  0.51100000000E-03 0. -1.
        -11    1    3    3    0    0  0.57477779976E+01 -0.84652832126E+01  0.14100460807E+02  0.17421853145E+02  0.51100000000E-03 0.  1.
        -12    1    3    3    0    0  0.48815560477E+01 -0.19127525768E+01  0.13799553982E+02  0.14761974866E+02  0.00000000000E+00 0.  1.
</event>
<event>
 7    1  0.3046295E-009  0.4614232E+02  0.7816164E-02  0.1320468E+00
        -11   -1    0    0    0    0  0.00000000000E+00  0.00000000000E+00  0.45593999997E+02  0.45594000000E+02  0.51100000000E-03 0.  1.
         11   -1    0    0    0    0 -0.00000000000E+00 -0.00000000000E+00 -0.45593999997E+02  0.45594000000E+02  0.51100000000E-03 0. -1.
    9900012    2    1    2    0    0  0.53028601300E+01  0.45306468170E+00  0.44730167762E+02  0.46142317619E+02  0.99999987042E+01 0.  0.
         12    1    1    2    0    0 -0.53028601300E+01 -0.45306468170E+00 -0.44730167762E+02  0.45045682381E+02  0.00000000000E+00 0. -1.
         11    1    3    3    0    0  0.40774528307E+01 -0.32209170528E+01  0.25664767705E+02  0.26185496555E+02  0.51100000000E-03 0. -1.
        -11    1    3    3    0    0  0.17681014126E+01 -0.26913154310E+00  0.79956823821E+01  0.81932625619E+01  0.51100000000E-03 0.  1.
         12    1    3    3    0    0 -0.54269411319E+00  0.39431132776E+01  0.11069717675E+02  0.11763558502E+02  0.00000000000E+00 0. -1.
</event>
<event>
 7    1  0.3046295E-009  0.4614232E+02  0.7816164E-02  0.1320468E+00
        -11   -1    0    0    0    0  0.00000000000E+00  0.00000000000E+00  0.45593999997E+02  0.45594000000E+02  0.51100000000E-03 0. -1.
         11   -1    0    0    0    0 -0.00000000000E+00 -0.00000000000E+00 -0.45593999997E+02  0.45594000000E+02  0.51100000000E-03 0.  1.
    9900012    2    1    2    0    0  0.27041227520E+02 -0.54828432221E+00 -0.36022005460E+02  0.46142317867E+02  0.10000000967E+02 0.  0.
         12    1    1    2    0    0 -0.27041227520E+02  0.54828432221E+00  0.36022005460E+02  0.45045682133E+02  0.00000000000E+00 0. -1.
         11    1    3    3    0    0  0.46963907137E+01 -0.22885429371E+01 -0.31032396289E+01  0.60764801461E+01  0.51100000000E-03 0. -1.
        -11    1    3    3    0    0  0.32774483966E+01 -0.12861545467E+01 -0.46147145881E+01  0.58044338657E+01  0.51100000000E-03 0.  1.
         12    1    3    3    0    0  0.19067388409E+02  0.30264131616E+01 -0.28304051243E+02  0.34261403855E+02  0.00000000000E+00 0. -1.
</event>
<event>
 7    1  0.3046295E-009  0.4614232E+02  0.7816164E-02  0.1320468E+00
        -11   -1    0    0    0    0  0.00000000000E+00  0.00000000000E+00  0.45593999997E+02  0.45594000000E+02  0.51100000000E-03 0.  1.
         11   -1    0    0    0    0 -0.00000000000E+00 -0.00000000000E+00 -0.45593999997E+02  0.45594000000E+02  0.51100000000E-03 0. -1.
    9900012    2    1    2    0    0 -0.24421946915E+02  0.37661405056E+02  0.37816146695E+01  0.46142317284E+02  0.99999956460E+01 0.  0.
         12    1    1    2    0    0  0.24421946915E+02 -0.37661405056E+02 -0.37816146695E+01  0.45045682716E+02  0.00000000000E+00 0. -1.
         11    1    3    3    0    0 -0.10688918048E+02  0.12883166451E+02  0.17207249943E+01  0.16828245351E+02  0.51100000000E-03 0.  1.
        -11    1    3    3    0    0 -0.11694999857E+02  0.15420243769E+02 -0.63710106643E+00  0.19363957177E+02  0.51100000000E-03 0. -1.
        -12    1    3    3    0    0 -0.20380290102E+01  0.93579948358E+01  0.26979907416E+01  0.99501147548E+01  0.00000000000E+00 0.  1.
</event>
<event>
 7    1  0.3046295E-009  0.4614232E+02  0.7816164E-02  0.1320468E+00
        -11   -1    0    0    0    0  0.00000000000E+00  0.00000000000E+00  0.45593999997E+02  0.45594000000E+02  0.51100000000E-03 0.  1.
         11   -1    0    0    0    0 -0.00000000000E+00 -0.00000000000E+00 -0.45593999997E+02  0.45594000000E+02  0.51100000000E-03 0. -1.
    9900012    2    1    2    0    0  0.93139772413E+00 -0.40596808489E+02  0.19497309356E+02  0.46142318372E+02  0.10000005570E+02 0.  0.
         12    1    1    2    0    0 -0.93139772413E+00  0.40596808489E+02 -0.19497309356E+02  0.45045681628E+02  0.00000000000E+00 0. -1.
         11    1    3    3    0    0 -0.87381934174E+00 -0.99824461204E+01  0.37204916361E+01  0.10689005990E+02  0.51100000000E-03 0. -1.
        -11    1    3    3    0    0 -0.22925206989E+01 -0.19328888289E+02  0.12003269100E+02  0.22867882346E+02  0.51100000000E-03 0.  1.
         12    1    3    3    0    0  0.40977377647E+01 -0.11285474080E+02  0.37735486197E+01  0.12585430036E+02  0.00000000000E+00 0. -1.
</event>
<event>
 7    1  0.3046295E-009  0.4614232E+02  0.7816164E-02  0.1320468E+00
        -11   -1    0    0    0    0  0.00000000000E+00  0.00000000000E+00  0.45593999997E+02  0.45594000000E+02  0.51100000000E-03 0. -1.
         11   -1    0    0    0    0 -0.00000000000E+00 -0.00000000000E+00 -0.45593999997E+02  0.45594000000E+02  0.51100000000E-03 0.  1.
    9900012    2    1    2    0    0 -0.26490917460E+02  0.57810007823E+01 -0.35971167548E+02  0.46142316826E+02  0.99999914698E+01 0.  0.
         12    1    1    2    0    0  0.26490917460E+02 -0.57810007823E+01  0.35971167548E+02  0.45045683174E+02  0.00000000000E+00 0. -1.
         11    1    3    3    0    0 -0.74442462363E+01  0.38889630339E+01 -0.70247384039E+01  0.10949328080E+02  0.51100000000E-03 0. -1.
        -11    1    3    3    0    0 -0.14545767925E+02  0.30060979395E+01 -0.18218761359E+02  0.23506153557E+02  0.51100000000E-03 0.  1.
         12    1    3    3    0    0 -0.45009032987E+01 -0.11140601911E+01 -0.10727667785E+02  0.11686835188E+02  0.00000000000E+00 0. -1.
</event>
<event>
 7    1  0.3046295E-009  0.4614232E+02  0.7816164E-02  0.1320468E+00
        -11   -1    0    0    0    0  0.00000000000E+00  0.00000000000E+00  0.45593999997E+02  0.45594000000E+02  0.51100000000E-03 0.  1.
         11   -1    0    0    0    0 -0.00000000000E+00 -0.00000000000E+00 -0.45593999997E+02  0.45594000000E+02  0.51100000000E-03 0. -1.
    9900012    2    1    2    0    0 -0.18973053437E+02  0.20718281007E+02  0.35212065715E+02  0.46142317670E+02  0.99999991723E+01 0.  0.
         12    1    1    2    0    0  0.18973053437E+02 -0.20718281007E+02 -0.35212065715E+02  0.45045682330E+02  0.00000000000E+00 0. -1.
         11    1    3    3    0    0 -0.98983458106E+01  0.13106738692E+02  0.19796994935E+02  0.25723235754E+02  0.51100000000E-03 0. -1.
        -11    1    3    3    0    0 -0.13144538630E+01  0.35035211772E+01  0.83463622146E+01  0.91468143130E+01  0.51100000000E-03 0.  1.
         12    1    3    3    0    0 -0.77602537634E+01  0.41080211379E+01  0.70687085655E+01  0.11272267603E+02  0.00000000000E+00 0. -1.
</event>
<event>
 7    1  0.3046295E-009  0.4614232E+02  0.7816164E-02  0.1320468E+00
        -11   -1    0    0    0    0  0.00000000000E+00  0.00000000000E+00  0.45593999997E+02  0.45594000000E+02  0.51100000000E-03 0. -1.
         11   -1    0    0    0    0 -0.00000000000E+00 -0.00000000000E+00 -0.45593999997E+02  0.45594000000E+02  0.51100000000E-03 0.  1.
    9900012    2    1    2    0    0  0.25831062390E+02 -0.36003146425E+02  0.81020469702E+01  0.46142317612E+02  0.99999986384E+01 0.  0.
         12    1    1    2    0    0 -0.25831062390E+02  0.36003146425E+02 -0.81020469702E+01  0.45045682388E+02  0.00000000000E+00 0. -1.
         11    1    3    3    0    0  0.75668310942E+01 -0.12847244782E+02 -0.25925077652E+00  0.14912271541E+02  0.51100000000E-03 0. -1.
        -11    1    3    3    0    0  0.16186559905E+02 -0.22676055975E+02  0.83936106501E+01  0.29097438653E+02  0.51100000000E-03 0.  1.
        -12    1    3    3    0    0  0.20776713913E+01 -0.47984566810E+00 -0.32312903370E-01  0.21326074180E+01  0.00000000000E+00 0.  1.
</event>
<event>
 7    1  0.3046295E-009  0.4614232E+02  0.7816164E-02  0.1320468E+00
        -11   -1    0    0    0    0  0.00000000000E+00  0.00000000000E+00  0.45593999997E+02  0.45594000000E+02  0.51100000000E-03 0.  1.
         11   -1    0    0    0    0 -0.00000000000E+00 -0.00000000000E+00 -0.45593999997E+02  0.45594000000E+02  0.51100000000E-03 0. -1.
    9900012    2    1    2    0    0  0.17355009496E+02  0.34716267317E+02  0.22862587254E+02  0.46142317999E+02  0.10000002167E+02 0.  0.
         12    1    1    2    0    0 -0.17355009496E+02 -0.34716267317E+02 -0.22862587254E+02  0.45045682001E+02  0.00000000000E+00 0. -1.
         11    1    3    3    0    0  0.15577615317E+02  0.29169425607E+02  0.19542556099E+02  0.38411313286E+02  0.51100000000E-03 0. -1.
        -11    1    3    3    0    0  0.22040555835E+01  0.50751043652E+01  0.13986542976E+01  0.57070815167E+01  0.51100000000E-03 0.  1.
         12    1    3    3    0    0 -0.42666140395E+00  0.47173734405E+00  0.19213768573E+01  0.20239231960E+01  0.00000000000E+00 0. -1.
</event>
<event>
 7    1  0.3046295E-009  0.4614232E+02  0.7816164E-02  0.1320468E+00
        -11   -1    0    0    0    0  0.00000000000E+00  0.00000000000E+00  0.45593999997E+02  0.45594000000E+02  0.51100000000E-03 0.  1.
         11   -1    0    0    0    0 -0.00000000000E+00 -0.00000000000E+00 -0.45593999997E+02  0.45594000000E+02  0.51100000000E-03 0. -1.
    9900012    2    1    2    0    0  0.15739127109E+02 -0.23082387753E+02 -0.35335489478E+02  0.46142316931E+02  0.99999924274E+01 0.  0.
         12    1    1    2    0    0 -0.15739127109E+02  0.23082387753E+02  0.35335489478E+02  0.45045683069E+02  0.00000000000E+00 0. -1.
         11    1    3    3    0    0  0.80525205061E+01 -0.64860674804E+01 -0.11591228514E+02  0.15532827707E+02  0.51100000000E-03 0. -1.
        -11    1    3    3    0    0  0.71455593683E+01 -0.86327311612E+01 -0.12101084191E+02  0.16493007757E+02  0.51100000000E-03 0.  1.
        -12    1    3    3    0    0  0.54104723456E+00 -0.79635891112E+01 -0.11643176773E+02  0.14116481467E+02  0.00000000000E+00 0.  1.
</event>
<event>
 7    1  0.3046295E-009  0.4614232E+02  0.7816164E-02  0.1320468E+00
        -11   -1    0    0    0    0  0.00000000000E+00  0.00000000000E+00  0.45593999997E+02  0.45594000000E+02  0.51100000000E-03 0.  1.
         11   -1    0    0    0    0 -0.00000000000E+00 -0.00000000000E+00 -0.45593999997E+02  0.45594000000E+02  0.51100000000E-03 0. -1.
    9900012    2    1    2    0    0  0.29537674731E+01  0.11734387529E+02  0.43390010018E+02  0.46142316941E+02  0.99999925180E+01 0.  0.
         12    1    1    2    0    0 -0.29537674731E+01 -0.11734387529E+02 -0.43390010018E+02  0.45045683059E+02  0.00000000000E+00 0. -1.
         11    1    3    3    0    0 -0.11942158055E+00  0.66557579011E+00  0.79614821551E+01  0.79901471209E+01  0.51100000000E-03 0. -1.
        -11    1    3    3    0    0 -0.81666222529E+00  0.88518886583E+01  0.16957608285E+02  0.19146366471E+02  0.51100000000E-03 0.  1.
        -12    1    3    3    0    0  0.38898512790E+01  0.22169230803E+01  0.18470919577E+02  0.19005803349E+02  0.00000000000E+00 0.  1.
</event>
<event>
 7    1  0.3046295E-009  0.4614232E+02  0.7816164E-02  0.1320468E+00
        -11   -1    0    0    0    0  0.00000000000E+00  0.00000000000E+00  0.45593999997E+02  0.45594000000E+02  0.51100000000E-03 0.  1.
         11   -1    0    0    0    0 -0.00000000000E+00 -0.00000000000E+00 -0.45593999997E+02  0.45594000000E+02  0.51100000000E-03 0. -1.
    9900012    2    1    2    0    0  0.30342743397E+02 -0.20196116301E+01  0.33231798915E+02  0.46142319107E+02  0.10000012269E+02 0.  0.
         12    1    1    2    0    0 -0.30342743397E+02  0.20196116301E+01 -0.33231798915E+02  0.45045680893E+02  0.00000000000E+00 0. -1.
         11    1    3    3    0    0  0.67934599523E+01  0.32095113966E+00  0.29364634183E+01  0.74078961538E+01  0.51100000000E-03 0. -1.
        -11    1    3    3    0    0  0.16959188176E+02 -0.32141308782E+01  0.24126982062E+02  0.29665737216E+02  0.51100000000E-03 0.  1.
        -12    1    3    3    0    0  0.65900952690E+01  0.87356810843E+00  0.61683534354E+01  0.90686857371E+01  0.00000000000E+00 0.  1.
</event>
<event>
 7    1  0.3046295E-009  0.4614232E+02  0.7816164E-02  0.1320468E+00
        -11   -1    0    0    0    0  0.00000000000E+00  0.00000000000E+00  0.45593999997E+02  0.45594000000E+02  0.51100000000E-03 0.  1.
         11   -1    0    0    0    0 -0.00000000000E+00 -0.00000000000E+00 -0.45593999997E+02  0.45594000000E+02  0.51100000000E-03 0. -1.
    9900012    2    1    2    0    0 -0.99935197319E+01 -0.20141067169E+02  0.39033069159E+02  0.46142317507E+02  0.99999976815E+01 0.  0.
         12    1    1    2    0    0  0.99935197319E+01  0.20141067169E+02 -0.39033069159E+02  0.45045682493E+02  0.00000000000E+00 0. -1.
         11    1    3    3    0    0 -0.84667384769E+01 -0.11236236743E+02  0.24054654300E+02  0.27866917130E+02  0.51100000000E-03 0. -1.
        -11    1    3    3    0    0 -0.28896195252E+01 -0.36127853146E+01  0.93422564361E+01  0.10424963996E+02  0.51100000000E-03 0.  1.
         12    1    3    3    0    0  0.13628382703E+01 -0.52920451114E+01  0.56361584226E+01  0.78504363813E+01  0.00000000000E+00 0. -1.
</event>
<event>
 7    1  0.3046295E-009  0.4614232E+02  0.7816164E-02  0.1320468E+00
        -11   -1    0    0    0    0  0.00000000000E+00  0.00000000000E+00  0.45593999997E+02  0.45594000000E+02  0.51100000000E-03 0.  1.
         11   -1    0    0    0    0 -0.00000000000E+00 -0.00000000000E+00 -0.45593999997E+02  0.45594000000E+02  0.51100000000E-03 0. -1.
    9900012    2    1    2    0    0  0.81710333772E+01 -0.11800779380E+02  0.42697650183E+02  0.46142317504E+02  0.99999976520E+01 0.  0.
         12    1    1    2    0    0 -0.81710333772E+01  0.11800779380E+02 -0.42697650183E+02  0.45045682496E+02  0.00000000000E+00 0. -1.
         11    1    3    3    0    0  0.41456461158E+01 -0.23901599906E+01  0.25713893544E+02  0.26155373597E+02  0.51100000000E-03 0. -1.
        -11    1    3    3    0    0  0.16539641832E+01 -0.60205963036E+01  0.11844539606E+02  0.13389409850E+02  0.51100000000E-03 0.  1.
         12    1    3    3    0    0  0.23714230782E+01 -0.33900230858E+01  0.51392170319E+01  0.65975340575E+01  0.00000000000E+00 0. -1.
</event>
<event>
 7    1  0.3046295E-009  0.4614232E+02  0.7816164E-02  0.1320468E+00
        -11   -1    0    0    0    0  0.00000000000E+00  0.00000000000E+00  0.45593999997E+02  0.45594000000E+02  0.51100000000E-03 0.  1.
         11   -1    0    0    0    0 -0.00000000000E+00 -0.00000000000E+00 -0.45593999997E+02  0.45594000000E+02  0.51100000000E-03 0. -1.
    9900012    2    1    2    0    0 -0.23589777384E+02 -0.32009735936E+02  0.21166309342E+02  0.46142318266E+02  0.10000004603E+02 0.  0.
         12    1    1    2    0    0  0.23589777384E+02  0.32009735936E+02 -0.21166309342E+02  0.45045681734E+02  0.00000000000E+00 0. -1.
         11    1    3    3    0    0 -0.29989218090E+01 -0.22966550514E+01  0.47628247768E+01  0.60788696776E+01  0.51100000000E-03 0. -1.
        -11    1    3    3    0    0 -0.17803995755E+02 -0.21741428868E+02  0.12906204479E+02  0.30923164592E+02  0.51100000000E-03 0.  1.
         12    1    3    3    0    0 -0.27868598201E+01 -0.79716520166E+01  0.34972800866E+01  0.91402839964E+01  0.00000000000E+00 0. -1.
</event>
<event>
 7    1  0.3046295E-009  0.4614232E+02  0.7816164E-02  0.1320468E+00
        -11   -1    0    0    0    0  0.00000000000E+00  0.00000000000E+00  0.45593999997E+02  0.45594000000E+02  0.51100000000E-03 0.  1.
         11   -1    0    0    0    0 -0.00000000000E+00 -0.00000000000E+00 -0.45593999997E+02  0.45594000000E+02  0.51100000000E-03 0. -1.
    9900012    2    1    2    0    0 -0.27997775696E+02 -0.11554276866E+02  0.33342719114E+02  0.46142315681E+02  0.99999810355E+01 0.  0.
         12    1    1    2    0    0  0.27997775696E+02  0.11554276866E+02 -0.33342719114E+02  0.45045684319E+02  0.00000000000E+00 0. -1.
         11    1    3    3    0    0 -0.10147724542E+02 -0.39291638524E+01  0.16908216641E+02  0.20107273117E+02  0.51100000000E-03 0. -1.
        -11    1    3    3    0    0 -0.14330644816E+02 -0.36654907497E+01  0.13218665213E+02  0.19837749710E+02  0.51100000000E-03 0.  1.
         12    1    3    3    0    0 -0.35194063377E+01 -0.39596222635E+01  0.32158372600E+01  0.61972928543E+01  0.00000000000E+00 0. -1.
</event>
<event>
 7    1  0.3046295E-009  0.4614232E+02  0.7816164E-02  0.1320468E+00
        -11   -1    0    0    0    0  0.00000000000E+00  0.00000000000E+00  0.45593999997E+02  0.45594000000E+02  0.51100000000E-03 0.  1.
         11   -1    0    0    0    0 -0.00000000000E+00 -0.00000000000E+00 -0.45593999997E+02  0.45594000000E+02  0.51100000000E-03 0. -1.
    9900012    2    1    2    0    0  0.30546715729E+02 -0.31393670568E+02  0.10509470794E+02  0.46142319075E+02  0.10000011984E+02 0.  0.
         12    1    1    2    0    0 -0.30546715729E+02  0.31393670568E+02 -0.10509470794E+02  0.45045680925E+02  0.00000000000E+00 0. -1.
         11    1    3    3    0    0  0.23277617388E+02 -0.24628471611E+02  0.57519600855E+01  0.34372869101E+02  0.51100000000E-03 0.  1.
        -11    1    3    3    0    0 -0.36626594405E+00 -0.13568773500E+01  0.71346576060E+00  0.15761664054E+01  0.51100000000E-03 0. -1.
        -12    1    3    3    0    0  0.76353642849E+01 -0.54083216076E+01  0.40440449476E+01  0.10193283569E+02  0.00000000000E+00 0.  1.
</event>
<event>
 7    1  0.3046295E-009  0.4614232E+02  0.7816164E-02  0.1320468E+00
        -11   -1    0    0    0    0  0.00000000000E+00  0.00000000000E+00  0.45593999997E+02  0.45594000000E+02  0.51100000000E-03 0. -1.
         11   -1    0    0    0    0 -0.00000000000E+00 -0.00000000000E+00 -0.45593999997E+02  0.45594000000E+02  0.51100000000E-03 0.  1.
    9900012    2    1    2    0    0 -0.62881919415E+01 -0.43914105389E+02  0.78181434994E+01  0.46142318989E+02  0.10000011194E+02 0.  0.
         12    1    1    2    0    0  0.62881919415E+01  0.43914105389E+02 -0.78181434994E+01  0.45045681011E+02  0.00000000000E+00 0. -1.
         11    1    3    3    0    0  0.99138909950E+00 -0.35580243669E+01 -0.11872262928E+01  0.38796773414E+01  0.51100000000E-03 0. -1.
        -11    1    3    3    0    0 -0.34535736128E+01 -0.21228982670E+02  0.22745269807E+01  0.21627999194E+02  0.51100000000E-03 0.  1.
         12    1    3    3    0    0 -0.38260074282E+01 -0.19127098352E+02  0.67308428116E+01  0.20634642453E+02  0.00000000000E+00 0. -1.
</event>
<event>
 7    1  0.3046295E-009  0.4614232E+02  0.7816164E-02  0.1320468E+00
        -11   -1    0    0    0    0  0.00000000000E+00  0.00000000000E+00  0.45593999997E+02  0.45594000000E+02  0.51100000000E-03 0.  1.
         11   -1    0    0    0    0 -0.00000000000E+00 -0.00000000000E+00 -0.45593999997E+02  0.45594000000E+02  0.51100000000E-03 0. -1.
    9900012    2    1    2    0    0 -0.19969709503E+02  0.34867451619E+02  0.20361362351E+02  0.46142317002E+02  0.99999930746E+01 0.  0.
         12    1    1    2    0    0  0.19969709503E+02 -0.34867451619E+02 -0.20361362351E+02  0.45045682998E+02  0.00000000000E+00 0. -1.
         11    1    3    3    0    0 -0.72768460348E+00  0.58764817527E+01  0.52487243118E+01  0.79127536189E+01  0.51100000000E-03 0. -1.
        -11    1    3    3    0    0 -0.14987883371E+02  0.19230229480E+02  0.11741848829E+02  0.27061215567E+02  0.51100000000E-03 0.  1.
        -12    1    3    3    0    0 -0.42541415285E+01  0.97607403863E+01  0.33707892102E+01  0.11168347816E+02  0.00000000000E+00 0.  1.
</event>
<event>
 7    1  0.3046295E-009  0.4614232E+02  0.7816164E-02  0.1320468E+00
        -11   -1    0    0    0    0  0.00000000000E+00  0.00000000000E+00  0.45593999997E+02  0.45594000000E+02  0.51100000000E-03 0.  1.
         11   -1    0    0    0    0 -0.00000000000E+00 -0.00000000000E+00 -0.45593999997E+02  0.45594000000E+02  0.51100000000E-03 0. -1.
    9900012    2    1    2    0    0  0.16073781555E+02 -0.41214924190E+02 -0.84898172041E+01  0.46142318458E+02  0.10000006350E+02 0.  0.
         12    1    1    2    0    0 -0.16073781555E+02  0.41214924190E+02  0.84898172041E+01  0.45045681542E+02  0.00000000000E+00 0. -1.
         11    1    3    3    0    0  0.77314303751E+01 -0.21363044496E+02 -0.45118724728E+01  0.23162721759E+02  0.51100000000E-03 0.  1.
        -11    1    3    3    0    0  0.88226419341E+01 -0.15230579407E+02 -0.13776152103E+01  0.17655236722E+02  0.51100000000E-03 0. -1.
         12    1    3    3    0    0 -0.48029075422E+00 -0.46213002869E+01 -0.26003295209E+01  0.53243599773E+01  0.00000000000E+00 0. -1.
</event>
<event>
 7    1  0.3046295E-009  0.4614232E+02  0.7816164E-02  0.1320468E+00
        -11   -1    0    0    0    0  0.00000000000E+00  0.00000000000E+00  0.45593999997E+02  0.45594000000E+02  0.51100000000E-03 0. -1.
         11   -1    0    0    0    0 -0.00000000000E+00 -0.00000000000E+00 -0.45593999997E+02  0.45594000000E+02  0.51100000000E-03 0.  1.
    9900012    2    1    2    0    0  0.36476533753E+02 -0.12067510005E+02 -0.23514915383E+02  0.46142316990E+02  0.99999929715E+01 0.  0.
         12    1    1    2    0    0 -0.36476533753E+02  0.12067510005E+02  0.23514915383E+02  0.45045683010E+02  0.00000000000E+00 0. -1.
         11    1    3    3    0    0  0.16547701136E+02 -0.55592248423E+01 -0.73931860922E+01  0.18957599916E+02  0.51100000000E-03 0. -1.
        -11    1    3    3    0    0  0.19932466408E+02 -0.54006382786E+01 -0.15880473352E+02  0.26051094892E+02  0.51100000000E-03 0.  1.
         12    1    3    3    0    0 -0.36337908037E-02 -0.11076468841E+01 -0.24125593851E+00  0.11336221823E+01  0.00000000000E+00 0. -1.
</event>
<event>
 7    1  0.3046295E-009  0.4614232E+02  0.7816164E-02  0.1320468E+00
        -11   -1    0    0    0    0  0.00000000000E+00  0.00000000000E+00  0.45593999997E+02  0.45594000000E+02  0.51100000000E-03 0. -1.
         11   -1    0    0    0    0 -0.00000000000E+00 -0.00000000000E+00 -0.45593999997E+02  0.45594000000E+02  0.51100000000E-03 0.  1.
    9900012    2    1    2    0    0  0.20227732665E+02 -0.22286822476E+02 -0.33514919770E+02  0.46142317943E+02  0.10000001656E+02 0.  0.
         12    1    1    2    0    0 -0.20227732665E+02  0.22286822476E+02  0.33514919770E+02  0.45045682057E+02  0.00000000000E+00 0. -1.
         11    1    3    3    0    0  0.55768034565E+01 -0.56413864355E+01 -0.53102858260E+01  0.95459474920E+01  0.51100000000E-03 0. -1.
        -11    1    3    3    0    0  0.72623495445E+01 -0.65902149493E+01 -0.72040070388E+01  0.12168416974E+02  0.51100000000E-03 0.  1.
        -12    1    3    3    0    0  0.73885796638E+01 -0.10055221091E+02 -0.21000626905E+02  0.24427953476E+02  0.00000000000E+00 0.  1.
</event>
<event>
 7    1  0.3046295E-009  0.4614232E+02  0.7816164E-02  0.1320468E+00
        -11   -1    0    0    0    0  0.00000000000E+00  0.00000000000E+00  0.45593999997E+02  0.45594000000E+02  0.51100000000E-03 0. -1.
         11   -1    0    0    0    0 -0.00000000000E+00 -0.00000000000E+00 -0.45593999997E+02  0.45594000000E+02  0.51100000000E-03 0.  1.
    9900012    2    1    2    0    0 -0.38385963513E+02  0.23335682309E+02 -0.33282499001E+01  0.46142317510E+02  0.99999977067E+01 0.  0.
         12    1    1    2    0    0  0.38385963513E+02 -0.23335682309E+02  0.33282499001E+01  0.45045682490E+02  0.00000000000E+00 0. -1.
         11    1    3    3    0    0 -0.94209712218E+01  0.27415317109E+01  0.10983881314E+01  0.98730517892E+01  0.51100000000E-03 0. -1.
        -11    1    3    3    0    0 -0.25112315486E+02  0.18484054586E+02 -0.56945434543E+01  0.31697263107E+02  0.51100000000E-03 0.  1.
        -12    1    3    3    0    0 -0.38526768045E+01  0.21100960120E+01  0.12679054229E+01  0.45720026139E+01  0.00000000000E+00 0.  1.
</event>
<event>
 7    1  0.3046295E-009  0.4614232E+02  0.7816164E-02  0.1320468E+00
        -11   -1    0    0    0    0  0.00000000000E+00  0.00000000000E+00  0.45593999997E+02  0.45594000000E+02  0.51100000000E-03 0.  1.
         11   -1    0    0    0    0 -0.00000000000E+00 -0.00000000000E+00 -0.45593999997E+02  0.45594000000E+02  0.51100000000E-03 0. -1.
    9900012    2    1    2    0    0  0.85910587723E+00  0.80359470283E+01  0.44314771325E+02  0.46142318019E+02  0.10000002348E+02 0.  0.
         12    1    1    2    0    0 -0.85910587723E+00 -0.80359470283E+01 -0.44314771325E+02  0.45045681981E+02  0.00000000000E+00 0. -1.
         11    1    3    3    0    0  0.10782121753E+01  0.17453429122E+01  0.17815861039E+02  0.17933590499E+02  0.51100000000E-03 0.  1.
        -11    1    3    3    0    0  0.99525186564E+00  0.94238225550E+00  0.25030165301E+00  0.13932917032E+01  0.51100000000E-03 0. -1.
         12    1    3    3    0    0 -0.12143581637E+01  0.53482218606E+01  0.26248608634E+02  0.26815435816E+02  0.00000000000E+00 0. -1.
</event>
<event>
 7    1  0.3046295E-009  0.4614232E+02  0.7816164E-02  0.1320468E+00
        -11   -1    0    0    0    0  0.00000000000E+00  0.00000000000E+00  0.45593999997E+02  0.45594000000E+02  0.51100000000E-03 0.  1.
         11   -1    0    0    0    0 -0.00000000000E+00 -0.00000000000E+00 -0.45593999997E+02  0.45594000000E+02  0.51100000000E-03 0. -1.
    9900012    2    1    2    0    0 -0.33851415130E+02 -0.57267496629E+01  0.29161610650E+02  0.46142317591E+02  0.99999984515E+01 0.  0.
         12    1    1    2    0    0  0.33851415130E+02  0.57267496629E+01 -0.29161610650E+02  0.45045682409E+02  0.00000000000E+00 0. -1.
         11    1    3    3    0    0 -0.13872443784E+02  0.72030440341E+00  0.73728014236E+01  0.15726466102E+02  0.51100000000E-03 0. -1.
        -11    1    3    3    0    0 -0.59973647507E+01 -0.34081050851E+01  0.76434946269E+01  0.10295949427E+02  0.51100000000E-03 0.  1.
         12    1    3    3    0    0 -0.13981606595E+02 -0.30389489812E+01  0.14145314599E+02  0.20119902062E+02  0.00000000000E+00 0. -1.
</event>
<event>
 7    1  0.3046295E-009  0.4614232E+02  0.7816164E-02  0.1320468E+00
        -11   -1    0    0    0    0  0.00000000000E+00  0.00000000000E+00  0.45593999997E+02  0.45594000000E+02  0.51100000000E-03 0.  1.
         11   -1    0    0    0    0 -0.00000000000E+00 -0.00000000000E+00 -0.45593999997E+02  0.45594000000E+02  0.51100000000E-03 0. -1.
    9900012    2    1    2    0    0  0.17218242453E+02  0.24010770432E+02  0.34001889987E+02  0.46142317714E+02  0.99999995690E+01 0.  0.
         12    1    1    2    0    0 -0.17218242453E+02 -0.24010770432E+02 -0.34001889987E+02  0.45045682286E+02  0.00000000000E+00 0. -1.
         11    1    3    3    0    0  0.20765303240E+01  0.55023812518E+01  0.72694677650E+01  0.93505796330E+01  0.51100000000E-03 0. -1.
        -11    1    3    3    0    0  0.96432523279E+01  0.10091321363E+02  0.21008431971E+02  0.25222634605E+02  0.51100000000E-03 0.  1.
         12    1    3    3    0    0  0.54984598008E+01  0.84170678173E+01  0.57239902518E+01  0.11569103475E+02  0.00000000000E+00 0. -1.
</event>
<event>
 7    1  0.3046295E-009  0.4614232E+02  0.7816164E-02  0.1320468E+00
        -11   -1    0    0    0    0  0.00000000000E+00  0.00000000000E+00  0.45593999997E+02  0.45594000000E+02  0.51100000000E-03 0.  1.
         11   -1    0    0    0    0 -0.00000000000E+00 -0.00000000000E+00 -0.45593999997E+02  0.45594000000E+02  0.51100000000E-03 0. -1.
    9900012    2    1    2    0    0  0.30617298520E+02 -0.60213396811E+01  0.32487505894E+02  0.46142317195E+02  0.99999948334E+01 0.  0.
         12    1    1    2    0    0 -0.30617298520E+02  0.60213396811E+01 -0.32487505894E+02  0.45045682805E+02  0.00000000000E+00 0. -1.
         11    1    3    3    0    0  0.12529056886E+02 -0.46225466244E+01  0.11508782765E+02  0.17629443688E+02  0.51100000000E-03 0. -1.
        -11    1    3    3    0    0  0.17339497812E+02 -0.29136640072E+01  0.19610873328E+02  0.26338830180E+02  0.51100000000E-03 0.  1.
         12    1    3    3    0    0  0.74874382145E+00  0.15148709504E+01  0.13678498017E+01  0.21740433267E+01  0.00000000000E+00 0. -1.
</event>
<event>
 7    1  0.3046295E-009  0.4614232E+02  0.7816164E-02  0.1320468E+00
        -11   -1    0    0    0    0  0.00000000000E+00  0.00000000000E+00  0.45593999997E+02  0.45594000000E+02  0.51100000000E-03 0.  1.
         11   -1    0    0    0    0 -0.00000000000E+00 -0.00000000000E+00 -0.45593999997E+02  0.45594000000E+02  0.51100000000E-03 0. -1.
    9900012    2    1    2    0    0 -0.68053306046E+01  0.14712300907E+01  0.44504342923E+02  0.46142316726E+02  0.99999905622E+01 0.  0.
         12    1    1    2    0    0  0.68053306046E+01 -0.14712300907E+01 -0.44504342923E+02  0.45045683274E+02  0.00000000000E+00 0. -1.
         11    1    3    3    0    0 -0.20324411695E+01 -0.58517067427E+00  0.26819135762E+01  0.34155383934E+01  0.51100000000E-03 0. -1.
        -11    1    3    3    0    0 -0.39457551361E+01  0.29815835348E+01  0.13503311767E+02  0.14380481665E+02  0.51100000000E-03 0.  1.
        -12    1    3    3    0    0 -0.82713429898E+00 -0.92518276981E+00  0.28319117580E+02  0.28346296668E+02  0.00000000000E+00 0.  1.
</event>
<event>
 7    1  0.3046295E-009  0.4614232E+02  0.7816164E-02  0.1320468E+00
        -11   -1    0    0    0    0  0.00000000000E+00  0.00000000000E+00  0.45593999997E+02  0.45594000000E+02  0.51100000000E-03 0.  1.
         11   -1    0    0    0    0 -0.00000000000E+00 -0.00000000000E+00 -0.45593999997E+02  0.45594000000E+02  0.51100000000E-03 0. -1.
    9900012    2    1    2    0    0  0.22459628850E+02 -0.34009441726E+01  0.38898741770E+02  0.46142318069E+02  0.10000002806E+02 0.  0.
         12    1    1    2    0    0 -0.22459628850E+02  0.34009441726E+01 -0.38898741770E+02  0.45045681931E+02  0.00000000000E+00 0. -1.
         11    1    3    3    0    0  0.43369923931E+00  0.68307226444E+00  0.74799484380E+01  0.75235836970E+01  0.51100000000E-03 0. -1.
        -11    1    3    3    0    0  0.13379632266E+02 -0.25932210975E+01  0.17798541603E+02  0.22417123782E+02  0.51100000000E-03 0.  1.
         12    1    3    3    0    0  0.86462973453E+01 -0.14907953395E+01  0.13620251729E+02  0.16201610590E+02  0.00000000000E+00 0. -1.
</event>
<event>
 7    1  0.3046295E-009  0.4614232E+02  0.7816164E-02  0.1320468E+00
        -11   -1    0    0    0    0  0.00000000000E+00  0.00000000000E+00  0.45593999997E+02  0.45594000000E+02  0.51100000000E-03 0. -1.
         11   -1    0    0    0    0 -0.00000000000E+00 -0.00000000000E+00 -0.45593999997E+02  0.45594000000E+02  0.51100000000E-03 0.  1.
    9900012    2    1    2    0    0  0.21985055711E+02  0.26087318071E+02 -0.29414666750E+02  0.46142318089E+02  0.10000002994E+02 0.  0.
         12    1    1    2    0    0 -0.21985055711E+02 -0.26087318071E+02  0.29414666750E+02  0.45045681911E+02  0.00000000000E+00 0. -1.
         11    1    3    3    0    0  0.78588988336E+01  0.46915750222E+01 -0.99100654799E+01  0.13490091369E+02  0.51100000000E-03 0. -1.
        -11    1    3    3    0    0  0.60936417648E+01  0.11238094493E+02 -0.12714639707E+02  0.18030232969E+02  0.51100000000E-03 0.  1.
         12    1    3    3    0    0  0.80325151126E+01  0.10157648556E+02 -0.67899615630E+01  0.14621993751E+02  0.00000000000E+00 0. -1.
</event>
<event>
 7    1  0.3046295E-009  0.4614232E+02  0.7816164E-02  0.1320468E+00
        -11   -1    0    0    0    0  0.00000000000E+00  0.00000000000E+00  0.45593999997E+02  0.45594000000E+02  0.51100000000E-03 0.  1.
         11   -1    0    0    0    0 -0.00000000000E+00 -0.00000000000E+00 -0.45593999997E+02  0.45594000000E+02  0.51100000000E-03 0. -1.
    9900012    2    1    2    0    0 -0.59609798578E+01  0.20736139412E+02  0.39542290576E+02  0.46142317603E+02  0.99999985614E+01 0.  0.
         12    1    1    2    0    0  0.59609798578E+01 -0.20736139412E+02 -0.39542290576E+02  0.45045682397E+02  0.00000000000E+00 0. -1.
         11    1    3    3    0    0  0.19382445308E+01  0.29604106322E+01  0.90671817232E+01  0.97331704821E+01  0.51100000000E-03 0. -1.
        -11    1    3    3    0    0 -0.14266281703E+01  0.77610280402E+01  0.14013112422E+02  0.16082168516E+02  0.51100000000E-03 0.  1.
         12    1    3    3    0    0 -0.64725962183E+01  0.10014700740E+02  0.16461996431E+02  0.20326978605E+02  0.00000000000E+00 0. -1.
</event>
<event>
 7    1  0.3046295E-009  0.4614232E+02  0.7816164E-02  0.1320468E+00
        -11   -1    0    0    0    0  0.00000000000E+00  0.00000000000E+00  0.45593999997E+02  0.45594000000E+02  0.51100000000E-03 0. -1.
         11   -1    0    0    0    0 -0.00000000000E+00 -0.00000000000E+00 -0.45593999997E+02  0.45594000000E+02  0.51100000000E-03 0.  1.
    9900012    2    1    2    0    0  0.44318760050E+02  0.60643776197E+01 -0.53088882544E+01  0.46142318045E+02  0.10000002588E+02 0.  0.
         12    1    1    2    0    0 -0.44318760050E+02 -0.60643776197E+01  0.53088882544E+01  0.45045681955E+02  0.00000000000E+00 0. -1.
         11    1    3    3    0    0  0.15837412443E+01  0.33101192239E+00 -0.15443211982E+01  0.22366791111E+01  0.51100000000E-03 0. -1.
        -11    1    3    3    0    0  0.33056223532E+01 -0.15357108142E+01 -0.12754708155E+00  0.36471653878E+01  0.51100000000E-03 0.  1.
        -12    1    3    3    0    0  0.39429396453E+02  0.72690765115E+01 -0.36370199747E+01  0.40258473546E+02  0.00000000000E+00 0.  1.
</event>
<event>
 7    1  0.4742954E-009  0.4614232E+02  0.7816164E-02  0.1320468E+00
        -11   -1    0    0    0    0  0.00000000000E+00  0.00000000000E+00  0.45593999997E+02  0.45594000000E+02  0.51100000000E-03 0. -1.
         11   -1    0    0    0    0 -0.00000000000E+00 -0.00000000000E+00 -0.45593999997E+02  0.45594000000E+02  0.51100000000E-03 0.  1.
    9900012    2    1    2    0    0 -0.27934182837E+02  0.34913806964E+02  0.54608589656E+01  0.46142317985E+02  0.10000002043E+02 0.  0.
         12    1    1    2    0    0  0.27934182837E+02 -0.34913806964E+02 -0.54608589656E+01  0.45045682015E+02  0.00000000000E+00 0. -1.
         11    1    3    3    0    0  0.15601933525E+00  0.10854759900E+01 -0.21499544393E-01  0.10968421260E+01  0.51100000000E-03 0.  1.
        -11    1    3    3    0    0 -0.14810943649E+02  0.12343856692E+02  0.41409222431E+00  0.19284872891E+02  0.51100000000E-03 0. -1.
        -12    1    3    3    0    0 -0.13279258524E+02  0.21484474282E+02  0.50682662857E+01  0.25760602968E+02  0.00000000000E+00 0.  1.
</event>
<event>
 7    1  0.3046295E-009  0.4614231E+02  0.7816164E-02  0.1320468E+00
        -11   -1    0    0    0    0  0.00000000000E+00  0.00000000000E+00  0.45593999997E+02  0.45594000000E+02  0.51100000000E-03 0.  1.
         11   -1    0    0    0    0 -0.00000000000E+00 -0.00000000000E+00 -0.45593999997E+02  0.45594000000E+02  0.51100000000E-03 0. -1.
    9900012    2    1    2    0    0 -0.39315299801E+02 -0.21402926276E+02 -0.50334840160E+01  0.46142311938E+02  0.99999468982E+01 0.  0.
         12    1    1    2    0    0  0.39315299801E+02  0.21402926276E+02  0.50334840160E+01  0.45045688062E+02  0.00000000000E+00 0. -1.
         11    1    3    3    0    0 -0.85662649952E+00  0.20371806272E+00 -0.20077176657E+00  0.90311658834E+00  0.51100000000E-03 0. -1.
        -11    1    3    3    0    0 -0.31589862619E+02 -0.18279716082E+02 -0.57974070461E+00  0.36502103226E+02  0.51100000000E-03 0.  1.
        -12    1    3    3    0    0 -0.68688106826E+01 -0.33269282566E+01 -0.42529715448E+01  0.87370921237E+01  0.00000000000E+00 0.  1.
</event>
<event>
 7    1  0.3046295E-009  0.4614232E+02  0.7816164E-02  0.1320468E+00
        -11   -1    0    0    0    0  0.00000000000E+00  0.00000000000E+00  0.45593999997E+02  0.45594000000E+02  0.51100000000E-03 0.  1.
         11   -1    0    0    0    0 -0.00000000000E+00 -0.00000000000E+00 -0.45593999997E+02  0.45594000000E+02  0.51100000000E-03 0. -1.
    9900012    2    1    2    0    0 -0.30494696520E+02 -0.32941662093E+02 -0.37461902818E+01  0.46142316978E+02  0.99999928576E+01 0.  0.
         12    1    1    2    0    0  0.30494696520E+02  0.32941662093E+02  0.37461902818E+01  0.45045683022E+02  0.00000000000E+00 0. -1.
         11    1    3    3    0    0 -0.42679112459E+01 -0.51275107627E+01  0.18466903032E+01  0.69221888418E+01  0.51100000000E-03 0. -1.
        -11    1    3    3    0    0 -0.11493307359E+01 -0.10967551082E+01 -0.17700287373E+01  0.23784101623E+01  0.51100000000E-03 0.  1.
        -12    1    3    3    0    0 -0.25077454538E+02 -0.26717396222E+02 -0.38228518476E+01  0.36841717974E+02  0.00000000000E+00 0.  1.
</event>
<event>
 7    1  0.3046295E-009  0.4614232E+02  0.7816164E-02  0.1320468E+00
        -11   -1    0    0    0    0  0.00000000000E+00  0.00000000000E+00  0.45593999997E+02  0.45594000000E+02  0.51100000000E-03 0.  1.
         11   -1    0    0    0    0 -0.00000000000E+00 -0.00000000000E+00 -0.45593999997E+02  0.45594000000E+02  0.51100000000E-03 0. -1.
    9900012    2    1    2    0    0  0.15918948310E+02 -0.19537430889E+02  0.37336165438E+02  0.46142319068E+02  0.10000011913E+02 0.  0.
         12    1    1    2    0    0 -0.15918948310E+02  0.19537430889E+02 -0.37336165438E+02  0.45045680932E+02  0.00000000000E+00 0. -1.
         11    1    3    3    0    0  0.53247057672E+01 -0.45590795369E+01  0.12998617960E+02  0.14768268919E+02  0.51100000000E-03 0. -1.
        -11    1    3    3    0    0 -0.10814409101E+01 -0.16066972059E+01  0.35009212279E+01  0.40009298993E+01  0.51100000000E-03 0.  1.
        -12    1    3    3    0    0  0.11675683452E+02 -0.13371654146E+02  0.20836626250E+02  0.27373120249E+02  0.00000000000E+00 0.  1.
</event>
<event>
 7    1  0.3046295E-009  0.4614232E+02  0.7816164E-02  0.1320468E+00
        -11   -1    0    0    0    0  0.00000000000E+00  0.00000000000E+00  0.45593999997E+02  0.45594000000E+02  0.51100000000E-03 0. -1.
         11   -1    0    0    0    0 -0.00000000000E+00 -0.00000000000E+00 -0.45593999997E+02  0.45594000000E+02  0.51100000000E-03 0.  1.
    9900012    2    1    2    0    0 -0.17108491455E+02 -0.32933749029E+02 -0.25530004937E+02  0.46142318109E+02  0.10000003170E+02 0.  0.
         12    1    1    2    0    0  0.17108491455E+02  0.32933749029E+02  0.25530004937E+02  0.45045681891E+02  0.00000000000E+00 0. -1.
         11    1    3    3    0    0  0.15599842875E+00  0.12424071777E+00  0.18908134354E+00  0.27481499471E+00  0.51100000000E-03 0. -1.
        -11    1    3    3    0    0 -0.77894988805E+01 -0.20808375754E+02 -0.12419277769E+02  0.25453943799E+02  0.51100000000E-03 0.  1.
        -12    1    3    3    0    0 -0.94749910037E+01 -0.12249613993E+02 -0.13299808511E+02  0.20413559315E+02  0.00000000000E+00 0.  1.
</event>
<event>
 7    1  0.3046295E-009  0.4614232E+02  0.7816164E-02  0.1320468E+00
        -11   -1    0    0    0    0  0.00000000000E+00  0.00000000000E+00  0.45593999997E+02  0.45594000000E+02  0.51100000000E-03 0.  1.
         11   -1    0    0    0    0 -0.00000000000E+00 -0.00000000000E+00 -0.45593999997E+02  0.45594000000E+02  0.51100000000E-03 0. -1.
    9900012    2    1    2    0    0  0.15847258847E+02 -0.17891905769E+02  0.38181901416E+02  0.46142317623E+02  0.99999987408E+01 0.  0.
         12    1    1    2    0    0 -0.15847258847E+02  0.17891905769E+02 -0.38181901416E+02  0.45045682377E+02  0.00000000000E+00 0. -1.
         11    1    3    3    0    0  0.45862349622E+01 -0.80574229068E+00  0.97830372734E+01  0.10834693827E+02  0.51100000000E-03 0. -1.
        -11    1    3    3    0    0  0.77911359781E+01 -0.93900216396E+01  0.13608297731E+02  0.18277310349E+02  0.51100000000E-03 0.  1.
         12    1    3    3    0    0  0.34698879068E+01 -0.76961418391E+01  0.14790566413E+02  0.17030313447E+02  0.00000000000E+00 0. -1.
</event>
<event>
 7    1  0.3046295E-009  0.4614231E+02  0.7816164E-02  0.1320468E+00
        -11   -1    0    0    0    0  0.00000000000E+00  0.00000000000E+00  0.45593999997E+02  0.45594000000E+02  0.51100000000E-03 0.  1.
         11   -1    0    0    0    0 -0.00000000000E+00 -0.00000000000E+00 -0.45593999997E+02  0.45594000000E+02  0.51100000000E-03 0. -1.
    9900012    2    1    2    0    0 -0.19961877174E+02  0.37538561736E+02  0.14882670823E+02  0.46142311546E+02  0.99999433212E+01 0.  0.
         12    1    1    2    0    0  0.19961877174E+02 -0.37538561736E+02 -0.14882670823E+02  0.45045688454E+02  0.00000000000E+00 0. -1.
         11    1    3    3    0    0 -0.42886374854E+01  0.79866147106E+01  0.96181385189E+00  0.91161127770E+01  0.51100000000E-03 0. -1.
        -11    1    3    3    0    0 -0.39849399665E+01  0.10114918959E+02  0.82494831194E+01  0.13647172018E+02  0.51100000000E-03 0.  1.
        -12    1    3    3    0    0 -0.11688299722E+02  0.19437028067E+02  0.56713738516E+01  0.23379026751E+02  0.00000000000E+00 0.  1.
</event>
<event>
 7    1  0.3046295E-009  0.4614232E+02  0.7816164E-02  0.1320468E+00
        -11   -1    0    0    0    0  0.00000000000E+00  0.00000000000E+00  0.45593999997E+02  0.45594000000E+02  0.51100000000E-03 0.  1.
         11   -1    0    0    0    0 -0.00000000000E+00 -0.00000000000E+00 -0.45593999997E+02  0.45594000000E+02  0.51100000000E-03 0. -1.
    9900012    2    1    2    0    0  0.20542618489E+01  0.16977606579E+02  0.41673186413E+02  0.46142316714E+02  0.99999904503E+01 0.  0.
         12    1    1    2    0    0 -0.20542618489E+01 -0.16977606579E+02 -0.41673186413E+02  0.45045683286E+02  0.00000000000E+00 0. -1.
         11    1    3    3    0    0  0.26809135868E+01  0.10358769005E+02  0.29884360762E+02  0.31742186619E+02  0.51100000000E-03 0. -1.
        -11    1    3    3    0    0 -0.30014108061E+00  0.59926731726E+01  0.12190902939E+02  0.13587506436E+02  0.51100000000E-03 0.  1.
         12    1    3    3    0    0 -0.32651065729E+00  0.62616440133E+00 -0.40207728702E+00  0.81262365924E+00  0.00000000000E+00 0. -1.
</event>
<event>
 7    1  0.3046295E-009  0.4614232E+02  0.7816164E-02  0.1320468E+00
        -11   -1    0    0    0    0  0.00000000000E+00  0.00000000000E+00  0.45593999997E+02  0.45594000000E+02  0.51100000000E-03 0.  1.
         11   -1    0    0    0    0 -0.00000000000E+00 -0.00000000000E+00 -0.45593999997E+02  0.45594000000E+02  0.51100000000E-03 0. -1.
    9900012    2    1    2    0    0  0.18162988958E+02  0.28204201855E+02  0.30062307551E+02  0.46142317572E+02  0.99999982729E+01 0.  0.
         12    1    1    2    0    0 -0.18162988958E+02 -0.28204201855E+02 -0.30062307551E+02  0.45045682428E+02  0.00000000000E+00 0. -1.
         11    1    3    3    0    0  0.10600932007E+00  0.19546851386E+01  0.74357363451E+00  0.20940233948E+01  0.51100000000E-03 0. -1.
        -11    1    3    3    0    0  0.50489338357E+01  0.10633657958E+02  0.63364743432E+01  0.13368519806E+02  0.51100000000E-03 0.  1.
        -12    1    3    3    0    0  0.13008045802E+02  0.15615858758E+02  0.22982259573E+02  0.30679774371E+02  0.00000000000E+00 0.  1.
</event>
<event>
 7    1  0.3046295E-009  0.4614232E+02  0.7816164E-02  0.1320468E+00
        -11   -1    0    0    0    0  0.00000000000E+00  0.00000000000E+00  0.45593999997E+02  0.45594000000E+02  0.51100000000E-03 0.  1.
         11   -1    0    0    0    0 -0.00000000000E+00 -0.00000000000E+00 -0.45593999997E+02  0.45594000000E+02  0.51100000000E-03 0. -1.
    9900012    2    1    2    0    0  0.41611878445E+01  0.18470383391E+02  0.40873492582E+02  0.46142323818E+02  0.10000055228E+02 0.  0.
         12    1    1    2    0    0 -0.41611878445E+01 -0.18470383391E+02 -0.40873492582E+02  0.45045676182E+02  0.00000000000E+00 0. -1.
         11    1    3    3    0    0 -0.59279581075E+00 -0.83486346429E-01  0.13181656402E+00  0.61298671352E+00  0.51100000000E-03 0. -1.
        -11    1    3    3    0    0  0.52631635780E+01  0.18651015671E+02  0.37154196221E+02  0.41904600863E+02  0.51100000000E-03 0.  1.
        -12    1    3    3    0    0 -0.50917992273E+00 -0.97145932829E-01  0.35874797963E+01  0.36247362407E+01  0.00000000000E+00 0.  1.
</event>
<event>
 7    1  0.3046295E-009  0.4614232E+02  0.7816164E-02  0.1320468E+00
        -11   -1    0    0    0    0  0.00000000000E+00  0.00000000000E+00  0.45593999997E+02  0.45594000000E+02  0.51100000000E-03 0.  1.
         11   -1    0    0    0    0 -0.00000000000E+00 -0.00000000000E+00 -0.45593999997E+02  0.45594000000E+02  0.51100000000E-03 0. -1.
    9900012    2    1    2    0    0  0.68107288043E+01  0.32718835413E+02  0.30202726846E+02  0.46142323997E+02  0.10000056865E+02 0.  0.
         12    1    1    2    0    0 -0.68107288043E+01 -0.32718835413E+02 -0.30202726846E+02  0.45045676003E+02  0.00000000000E+00 0. -1.
         11    1    3    3    0    0  0.47667790300E+01  0.11990946172E+02  0.13717974688E+02  0.18833156991E+02  0.51100000000E-03 0. -1.
        -11    1    3    3    0    0 -0.13924288850E+01  0.14274563308E+02  0.95403226350E+01  0.17225555784E+02  0.51100000000E-03 0.  1.
        -12    1    3    3    0    0  0.34363786593E+01  0.64533259326E+01  0.69444295222E+01  0.10083611222E+02  0.00000000000E+00 0.  1.
</event>
<event>
 7    1  0.3046295E-009  0.4614232E+02  0.7816164E-02  0.1320468E+00
        -11   -1    0    0    0    0  0.00000000000E+00  0.00000000000E+00  0.45593999997E+02  0.45594000000E+02  0.51100000000E-03 0.  1.
         11   -1    0    0    0    0 -0.00000000000E+00 -0.00000000000E+00 -0.45593999997E+02  0.45594000000E+02  0.51100000000E-03 0. -1.
    9900012    2    1    2    0    0  0.19514584208E+02  0.27130670101E+02  0.30203000511E+02  0.46142317668E+02  0.99999991466E+01 0.  0.
         12    1    1    2    0    0 -0.19514584208E+02 -0.27130670101E+02 -0.30203000511E+02  0.45045682332E+02  0.00000000000E+00 0. -1.
         11    1    3    3    0    0  0.62983634468E+01  0.12225036247E+02  0.16135449177E+02  0.21200792762E+02  0.51100000000E-03 0. -1.
        -11    1    3    3    0    0  0.72493767249E+01  0.66739222116E+01  0.98562349544E+01  0.13937003563E+02  0.51100000000E-03 0.  1.
         12    1    3    3    0    0  0.59668440367E+01  0.82317116420E+01  0.42113163795E+01  0.11004521342E+02  0.00000000000E+00 0. -1.
</event>
<event>
 7    1  0.3046295E-009  0.4614232E+02  0.7816164E-02  0.1320468E+00
        -11   -1    0    0    0    0  0.00000000000E+00  0.00000000000E+00  0.45593999997E+02  0.45594000000E+02  0.51100000000E-03 0.  1.
         11   -1    0    0    0    0 -0.00000000000E+00 -0.00000000000E+00 -0.45593999997E+02  0.45594000000E+02  0.51100000000E-03 0. -1.
    9900012    2    1    2    0    0 -0.29227003181E+02 -0.14678488026E+02  0.30974792754E+02  0.46142317501E+02  0.99999976260E+01 0.  0.
         12    1    1    2    0    0  0.29227003181E+02  0.14678488026E+02 -0.30974792754E+02  0.45045682499E+02  0.00000000000E+00 0. -1.
         11    1    3    3    0    0 -0.17467833524E+02 -0.53421754484E+01  0.16793332433E+02  0.24812901101E+02  0.51100000000E-03 0. -1.
        -11    1    3    3    0    0 -0.48338931945E+01 -0.72233686256E+01  0.77561865504E+01  0.11649120473E+02  0.51100000000E-03 0.  1.
        -12    1    3    3    0    0 -0.69252764627E+01 -0.21129439518E+01  0.64252737701E+01  0.96802959277E+01  0.00000000000E+00 0.  1.
</event>
<event>
 7    1  0.3046295E-009  0.4614232E+02  0.7816164E-02  0.1320468E+00
        -11   -1    0    0    0    0  0.00000000000E+00  0.00000000000E+00  0.45593999997E+02  0.45594000000E+02  0.51100000000E-03 0.  1.
         11   -1    0    0    0    0 -0.00000000000E+00 -0.00000000000E+00 -0.45593999997E+02  0.45594000000E+02  0.51100000000E-03 0. -1.
    9900012    2    1    2    0    0  0.12352549316E+02  0.11919703120E+01  0.43302507386E+02  0.46142318590E+02  0.10000007555E+02 0.  0.
         12    1    1    2    0    0 -0.12352549316E+02 -0.11919703120E+01 -0.43302507386E+02  0.45045681410E+02  0.00000000000E+00 0. -1.
         11    1    3    3    0    0  0.23555884997E+01  0.35918317392E+00  0.20036239347E+02  0.20177430390E+02  0.51100000000E-03 0.  1.
        -11    1    3    3    0    0  0.16905168995E+01  0.24752722768E+01  0.49624580404E+01  0.57974831001E+01  0.51100000000E-03 0. -1.
        -12    1    3    3    0    0  0.83064439170E+01 -0.16424851388E+01  0.18303809998E+02  0.20167405099E+02  0.00000000000E+00 0.  1.
</event>
<event>
 7    1  0.3046295E-009  0.4614232E+02  0.7816164E-02  0.1320468E+00
        -11   -1    0    0    0    0  0.00000000000E+00  0.00000000000E+00  0.45593999997E+02  0.45594000000E+02  0.51100000000E-03 0. -1.
         11   -1    0    0    0    0 -0.00000000000E+00 -0.00000000000E+00 -0.45593999997E+02  0.45594000000E+02  0.51100000000E-03 0.  1.
    9900012    2    1    2    0    0  0.31081725900E+02 -0.13594784750E+02 -0.29634805887E+02  0.46142316774E+02  0.99999909972E+01 0.  0.
         12    1    1    2    0    0 -0.31081725900E+02  0.13594784750E+02  0.29634805887E+02  0.45045683226E+02  0.00000000000E+00 0. -1.
         11    1    3    3    0    0  0.26269562948E+01 -0.32707326637E+01 -0.93681409144E+00  0.42983964958E+01  0.51100000000E-03 0. -1.
        -11    1    3    3    0    0  0.89635575937E+01 -0.46803703713E+01 -0.10672006656E+02  0.14701801178E+02  0.51100000000E-03 0.  1.
        -12    1    3    3    0    0  0.19491212011E+02 -0.56436817154E+01 -0.18025985140E+02  0.27142119100E+02  0.00000000000E+00 0.  1.
</event>
<event>
 7    1  0.3046295E-009  0.4614232E+02  0.7816164E-02  0.1320468E+00
        -11   -1    0    0    0    0  0.00000000000E+00  0.00000000000E+00  0.45593999997E+02  0.45594000000E+02  0.51100000000E-03 0.  1.
         11   -1    0    0    0    0 -0.00000000000E+00 -0.00000000000E+00 -0.45593999997E+02  0.45594000000E+02  0.51100000000E-03 0. -1.
    9900012    2    1    2    0    0 -0.24540756978E+01 -0.38421048069E+02  0.23386195175E+02  0.46142317110E+02  0.99999940649E+01 0.  0.
         12    1    1    2    0    0  0.24540756978E+01  0.38421048069E+02 -0.23386195175E+02  0.45045682890E+02  0.00000000000E+00 0. -1.
         11    1    3    3    0    0  0.82009685829E-01 -0.76475933742E+01  0.87781268662E+01  0.11642504951E+02  0.51100000000E-03 0. -1.
        -11    1    3    3    0    0 -0.39347937590E+01 -0.23998901772E+02  0.11850532619E+02  0.27053003748E+02  0.51100000000E-03 0.  1.
         12    1    3    3    0    0  0.13987083754E+01 -0.67745529232E+01  0.27575356896E+01  0.74468084108E+01  0.00000000000E+00 0. -1.
</event>
<event>
 7    1  0.3046295E-009  0.4614232E+02  0.7816164E-02  0.1320468E+00
        -11   -1    0    0    0    0  0.00000000000E+00  0.00000000000E+00  0.45593999997E+02  0.45594000000E+02  0.51100000000E-03 0.  1.
         11   -1    0    0    0    0 -0.00000000000E+00 -0.00000000000E+00 -0.45593999997E+02  0.45594000000E+02  0.51100000000E-03 0. -1.
    9900012    2    1    2    0    0 -0.12071927066E+02 -0.13615776626E+02  0.41206705052E+02  0.46142319436E+02  0.10000015272E+02 0.  0.
         12    1    1    2    0    0  0.12071927066E+02  0.13615776626E+02 -0.41206705052E+02  0.45045680564E+02  0.00000000000E+00 0. -1.
         11    1    3    3    0    0 -0.53447148526E+01 -0.77520154199E+01  0.24423497756E+02  0.26175694123E+02  0.51100000000E-03 0. -1.
        -11    1    3    3    0    0  0.44762451052E+00 -0.25411515361E+01  0.65117840486E+01  0.70043665373E+01  0.51100000000E-03 0.  1.
         12    1    3    3    0    0 -0.71748367236E+01 -0.33226096698E+01  0.10271423247E+02  0.12962258775E+02  0.00000000000E+00 0. -1.
</event>
<event>
 7    1  0.3046295E-009  0.4614232E+02  0.7816164E-02  0.1320468E+00
        -11   -1    0    0    0    0  0.00000000000E+00  0.00000000000E+00  0.45593999997E+02  0.45594000000E+02  0.51100000000E-03 0.  1.
         11   -1    0    0    0    0 -0.00000000000E+00 -0.00000000000E+00 -0.45593999997E+02  0.45594000000E+02  0.51100000000E-03 0. -1.
    9900012    2    1    2    0    0 -0.19005062781E+02 -0.79122966402E+01  0.40066401406E+02  0.46142319063E+02  0.10000011874E+02 0.  0.
         12    1    1    2    0    0  0.19005062781E+02  0.79122966402E+01 -0.40066401406E+02  0.45045680937E+02  0.00000000000E+00 0. -1.
         11    1    3    3    0    0 -0.42293468824E+01  0.73504189930E-03  0.23719049128E+01  0.48490523578E+01  0.51100000000E-03 0. -1.
        -11    1    3    3    0    0 -0.97185835803E+01 -0.45473754886E+01  0.22426378804E+02  0.24861053018E+02  0.51100000000E-03 0.  1.
         12    1    3    3    0    0 -0.50571323178E+01 -0.33656561935E+01  0.15268117689E+02  0.16432213688E+02  0.00000000000E+00 0. -1.
</event>
<event>
 7    1  0.3046295E-009  0.4614232E+02  0.7816164E-02  0.1320468E+00
        -11   -1    0    0    0    0  0.00000000000E+00  0.00000000000E+00  0.45593999997E+02  0.45594000000E+02  0.51100000000E-03 0.  1.
         11   -1    0    0    0    0 -0.00000000000E+00 -0.00000000000E+00 -0.45593999997E+02  0.45594000000E+02  0.51100000000E-03 0. -1.
    9900012    2    1    2    0    0 -0.29459811140E+02  0.12134211765E+02  0.31843270370E+02  0.46142318349E+02  0.10000005358E+02 0.  0.
         12    1    1    2    0    0  0.29459811140E+02 -0.12134211765E+02 -0.31843270370E+02  0.45045681651E+02  0.00000000000E+00 0. -1.
         11    1    3    3    0    0 -0.45486319809E+01 -0.68130930258E+00  0.19241653421E+01  0.49856441699E+01  0.51100000000E-03 0. -1.
        -11    1    3    3    0    0 -0.14137299524E+02  0.63445593499E+01  0.18917699718E+02  0.24453957432E+02  0.51100000000E-03 0.  1.
        -12    1    3    3    0    0 -0.10773879635E+02  0.64709617180E+01  0.11001405310E+02  0.16702716747E+02  0.00000000000E+00 0.  1.
</event>
<event>
 7    1  0.3046295E-009  0.4614232E+02  0.7816164E-02  0.1320468E+00
        -11   -1    0    0    0    0  0.00000000000E+00  0.00000000000E+00  0.45593999997E+02  0.45594000000E+02  0.51100000000E-03 0.  1.
         11   -1    0    0    0    0 -0.00000000000E+00 -0.00000000000E+00 -0.45593999997E+02  0.45594000000E+02  0.51100000000E-03 0. -1.
    9900012    2    1    2    0    0 -0.43079842928E+02 -0.12937189046E+02  0.24227396305E+01  0.46142318804E+02  0.10000009510E+02 0.  0.
         12    1    1    2    0    0  0.43079842928E+02  0.12937189046E+02 -0.24227396305E+01  0.45045681196E+02  0.00000000000E+00 0. -1.
         11    1    3    3    0    0 -0.23324917591E+02 -0.60201985220E+01  0.52998848341E+01  0.24665428242E+02  0.51100000000E-03 0. -1.
        -11    1    3    3    0    0 -0.92224409866E+01 -0.51490130360E+01 -0.20967989369E+01  0.10768580178E+02  0.51100000000E-03 0.  1.
        -12    1    3    3    0    0 -0.10532484351E+02 -0.17679774882E+01 -0.78034626664E+00  0.10708310384E+02  0.00000000000E+00 0.  1.
</event>
<event>
 7    1  0.3046295E-009  0.4614232E+02  0.7816164E-02  0.1320468E+00
        -11   -1    0    0    0    0  0.00000000000E+00  0.00000000000E+00  0.45593999997E+02  0.45594000000E+02  0.51100000000E-03 0. -1.
         11   -1    0    0    0    0 -0.00000000000E+00 -0.00000000000E+00 -0.45593999997E+02  0.45594000000E+02  0.51100000000E-03 0.  1.
    9900012    2    1    2    0    0 -0.55050097130E+01  0.44175561746E+02 -0.68795469006E+01  0.46142317043E+02  0.99999934499E+01 0.  0.
         12    1    1    2    0    0  0.55050097130E+01 -0.44175561746E+02  0.68795469006E+01  0.45045682957E+02  0.00000000000E+00 0. -1.
         11    1    3    3    0    0 -0.30640789191E+01  0.41244381690E+01  0.10044491199E+01  0.52353116553E+01  0.51100000000E-03 0. -1.
        -11    1    3    3    0    0 -0.16513733958E+01  0.18299949427E+02 -0.35344172320E+01  0.18711154122E+02  0.51100000000E-03 0.  1.
         12    1    3    3    0    0 -0.78955739813E+00  0.21751174150E+02 -0.43495787884E+01  0.22195851266E+02  0.00000000000E+00 0. -1.
</event>
<event>
 7    1  0.3046295E-009  0.4614232E+02  0.7816164E-02  0.1320468E+00
        -11   -1    0    0    0    0  0.00000000000E+00  0.00000000000E+00  0.45593999997E+02  0.45594000000E+02  0.51100000000E-03 0. -1.
         11   -1    0    0    0    0 -0.00000000000E+00 -0.00000000000E+00 -0.45593999997E+02  0.45594000000E+02  0.51100000000E-03 0.  1.
    9900012    2    1    2    0    0  0.29847015841E+02  0.84980139390E+01 -0.32650467269E+02  0.46142316429E+02  0.99999878508E+01 0.  0.
         12    1    1    2    0    0 -0.29847015841E+02 -0.84980139390E+01  0.32650467269E+02  0.45045683571E+02  0.00000000000E+00 0. -1.
         11    1    3    3    0    0  0.90554414261E+01  0.39096020990E+01 -0.12224467944E+02  0.15707438517E+02  0.51100000000E-03 0. -1.
        -11    1    3    3    0    0  0.21317466935E+02  0.39089359595E+01 -0.19317682599E+02  0.29032516910E+02  0.51100000000E-03 0.  1.
        -12    1    3    3    0    0 -0.52589252003E+00  0.67947588045E+00 -0.11083167260E+01  0.14023610019E+01  0.00000000000E+00 0.  1.
</event>
<event>
 7    1  0.3046295E-009  0.4614232E+02  0.7816164E-02  0.1320468E+00
        -11   -1    0    0    0    0  0.00000000000E+00  0.00000000000E+00  0.45593999997E+02  0.45594000000E+02  0.51100000000E-03 0. -1.
         11   -1    0    0    0    0 -0.00000000000E+00 -0.00000000000E+00 -0.45593999997E+02  0.45594000000E+02  0.51100000000E-03 0.  1.
    9900012    2    1    2    0    0 -0.70665709161E-02 -0.34287967172E+02 -0.29213844271E+02  0.46142318300E+02  0.10000004912E+02 0.  0.
         12    1    1    2    0    0  0.70665709161E-02  0.34287967172E+02  0.29213844271E+02  0.45045681700E+02  0.00000000000E+00 0. -1.
         11    1    3    3    0    0  0.20208467971E+01 -0.27571937608E+02 -0.18420714018E+02  0.33220750600E+02  0.51100000000E-03 0. -1.
        -11    1    3    3    0    0 -0.98399468031E+00 -0.49999420633E+01 -0.77132600966E+01  0.92445685538E+01  0.51100000000E-03 0.  1.
         12    1    3    3    0    0 -0.10439186878E+01 -0.17160875008E+01 -0.30798701570E+01  0.36769991462E+01  0.00000000000E+00 0. -1.
</event>
<event>
 7    1  0.3046295E-009  0.4614232E+02  0.7816164E-02  0.1320468E+00
        -11   -1    0    0    0    0  0.00000000000E+00  0.00000000000E+00  0.45593999997E+02  0.45594000000E+02  0.51100000000E-03 0.  1.
         11   -1    0    0    0    0 -0.00000000000E+00 -0.00000000000E+00 -0.45593999997E+02  0.45594000000E+02  0.51100000000E-03 0. -1.
    9900012    2    1    2    0    0  0.32370141598E+02  0.14609146672E+02  0.27710291204E+02  0.46142317941E+02  0.10000001639E+02 0.  0.
         12    1    1    2    0    0 -0.32370141598E+02 -0.14609146672E+02 -0.27710291204E+02  0.45045682059E+02  0.00000000000E+00 0. -1.
         11    1    3    3    0    0  0.21449838492E+02  0.11290068461E+02  0.19851938736E+02  0.31331464840E+02  0.51100000000E-03 0. -1.
        -11    1    3    3    0    0  0.11349967746E+02  0.29828406517E+01  0.80517524128E+01  0.14231999978E+02  0.51100000000E-03 0.  1.
         12    1    3    3    0    0 -0.42966463967E+00  0.33623756008E+00 -0.19339994531E+00  0.57885312320E+00  0.00000000000E+00 0. -1.
</event>
<event>
 7    1  0.3046295E-009  0.4614232E+02  0.7816164E-02  0.1320468E+00
        -11   -1    0    0    0    0  0.00000000000E+00  0.00000000000E+00  0.45593999997E+02  0.45594000000E+02  0.51100000000E-03 0.  1.
         11   -1    0    0    0    0 -0.00000000000E+00 -0.00000000000E+00 -0.45593999997E+02  0.45594000000E+02  0.51100000000E-03 0. -1.
    9900012    2    1    2    0    0 -0.37269150513E+02  0.24946378131E+02  0.42192453878E+01  0.46142318815E+02  0.10000009607E+02 0.  0.
         12    1    1    2    0    0  0.37269150513E+02 -0.24946378131E+02 -0.42192453878E+01  0.45045681185E+02  0.00000000000E+00 0. -1.
         11    1    3    3    0    0 -0.10940485397E+02  0.81405839755E+01  0.29668846202E+01  0.13955849411E+02  0.51100000000E-03 0. -1.
        -11    1    3    3    0    0 -0.11580483196E+02  0.10829700147E+02  0.31358824675E+01  0.16162417995E+02  0.51100000000E-03 0.  1.
         12    1    3    3    0    0 -0.14748181920E+02  0.59760940086E+01 -0.18835216999E+01  0.16024051409E+02  0.00000000000E+00 0. -1.
</event>
<event>
 7    1  0.3046295E-009  0.4614232E+02  0.7816164E-02  0.1320468E+00
        -11   -1    0    0    0    0  0.00000000000E+00  0.00000000000E+00  0.45593999997E+02  0.45594000000E+02  0.51100000000E-03 0.  1.
         11   -1    0    0    0    0 -0.00000000000E+00 -0.00000000000E+00 -0.45593999997E+02  0.45594000000E+02  0.51100000000E-03 0. -1.
    9900012    2    1    2    0    0  0.52020598776E+01 -0.30274819075E+02  0.32946730022E+02  0.46142321893E+02  0.10000037674E+02 0.  0.
         12    1    1    2    0    0 -0.52020598776E+01  0.30274819075E+02 -0.32946730022E+02  0.45045678107E+02  0.00000000000E+00 0. -1.
         11    1    3    3    0    0 -0.20521395657E+01 -0.61519017901E+01  0.38043714715E+01  0.75186710917E+01  0.51100000000E-03 0. -1.
        -11    1    3    3    0    0  0.20252517285E+01 -0.74736290885E+01  0.10984643664E+02  0.13439463270E+02  0.51100000000E-03 0.  1.
         12    1    3    3    0    0  0.52289477148E+01 -0.16649288197E+02  0.18157714887E+02  0.25184187530E+02  0.00000000000E+00 0. -1.
</event>
<event>
 7    1  0.3046295E-009  0.4614232E+02  0.7816164E-02  0.1320468E+00
        -11   -1    0    0    0    0  0.00000000000E+00  0.00000000000E+00  0.45593999997E+02  0.45594000000E+02  0.51100000000E-03 0. -1.
         11   -1    0    0    0    0 -0.00000000000E+00 -0.00000000000E+00 -0.45593999997E+02  0.45594000000E+02  0.51100000000E-03 0.  1.
    9900012    2    1    2    0    0  0.32701038612E+02  0.30726511143E+02 -0.39543391317E+01  0.46142320837E+02  0.10000028047E+02 0.  0.
         12    1    1    2    0    0 -0.32701038612E+02 -0.30726511143E+02  0.39543391317E+01  0.45045679163E+02  0.00000000000E+00 0. -1.
         11    1    3    3    0    0  0.16901288468E+02  0.18897964920E+02  0.18958245308E+01  0.25424019763E+02  0.51100000000E-03 0. -1.
        -11    1    3    3    0    0  0.10007086297E+02  0.75802188240E+01 -0.25378898278E+01  0.12807902975E+02  0.51100000000E-03 0.  1.
        -12    1    3    3    0    0  0.57926638465E+01  0.42483273991E+01 -0.33122738346E+01  0.79103980990E+01  0.00000000000E+00 0.  1.
</event>
<event>
 7    1  0.3046295E-009  0.4614232E+02  0.7816164E-02  0.1320468E+00
        -11   -1    0    0    0    0  0.00000000000E+00  0.00000000000E+00  0.45593999997E+02  0.45594000000E+02  0.51100000000E-03 0. -1.
         11   -1    0    0    0    0 -0.00000000000E+00 -0.00000000000E+00 -0.45593999997E+02  0.45594000000E+02  0.51100000000E-03 0.  1.
    9900012    2    1    2    0    0  0.57992885195E+01 -0.27375509225E+02 -0.35299621560E+02  0.46142317244E+02  0.99999952878E+01 0.  0.
         12    1    1    2    0    0 -0.57992885195E+01  0.27375509225E+02  0.35299621560E+02  0.45045682756E+02  0.00000000000E+00 0. -1.
         11    1    3    3    0    0 -0.19862968903E+01 -0.56981134487E+01 -0.65811216760E+01  0.89288876678E+01  0.51100000000E-03 0. -1.
        -11    1    3    3    0    0  0.42937505399E+01 -0.61596749087E+01 -0.11849906781E+02  0.14028477453E+02  0.51100000000E-03 0.  1.
         12    1    3    3    0    0  0.34918348698E+01 -0.15517720868E+02 -0.16868593103E+02  0.23184952123E+02  0.00000000000E+00 0. -1.
</event>
<event>
 7    1  0.3046295E-009  0.4614232E+02  0.7816164E-02  0.1320468E+00
        -11   -1    0    0    0    0  0.00000000000E+00  0.00000000000E+00  0.45593999997E+02  0.45594000000E+02  0.51100000000E-03 0.  1.
         11   -1    0    0    0    0 -0.00000000000E+00 -0.00000000000E+00 -0.45593999997E+02  0.45594000000E+02  0.51100000000E-03 0. -1.
    9900012    2    1    2    0    0 -0.18059110523E+02 -0.38090027055E+02  0.15878660919E+02  0.46142317559E+02  0.99999981614E+01 0.  0.
         12    1    1    2    0    0  0.18059110523E+02  0.38090027055E+02 -0.15878660919E+02  0.45045682441E+02  0.00000000000E+00 0. -1.
         11    1    3    3    0    0 -0.10322550335E+02 -0.12060937986E+02  0.58238409983E+01  0.16909713030E+02  0.51100000000E-03 0. -1.
        -11    1    3    3    0    0 -0.32014344274E+01 -0.12113767219E+02  0.25561759539E+01  0.12787750952E+02  0.51100000000E-03 0.  1.
         12    1    3    3    0    0 -0.45351257602E+01 -0.13915321850E+02  0.74986439669E+01  0.16444853578E+02  0.00000000000E+00 0. -1.
</event>
<event>
 7    1  0.3046295E-009  0.4614232E+02  0.7816164E-02  0.1320468E+00
        -11   -1    0    0    0    0  0.00000000000E+00  0.00000000000E+00  0.45593999997E+02  0.45594000000E+02  0.51100000000E-03 0.  1.
         11   -1    0    0    0    0 -0.00000000000E+00 -0.00000000000E+00 -0.45593999997E+02  0.45594000000E+02  0.51100000000E-03 0. -1.
    9900012    2    1    2    0    0 -0.12818127289E+02  0.40548714169E+02  0.14852975238E+02  0.46142317838E+02  0.10000000705E+02 0.  0.
         12    1    1    2    0    0  0.12818127289E+02 -0.40548714169E+02 -0.14852975238E+02  0.45045682162E+02  0.00000000000E+00 0. -1.
         11    1    3    3    0    0 -0.63394284678E+01  0.69828863799E+01  0.36794680020E+01  0.10123613018E+02  0.51100000000E-03 0. -1.
        -11    1    3    3    0    0 -0.21307130165E+01  0.69513926345E+01  0.25961832270E+01  0.77202308985E+01  0.51100000000E-03 0.  1.
         12    1    3    3    0    0 -0.43479858050E+01  0.26614435155E+02  0.85773240089E+01  0.28298473922E+02  0.00000000000E+00 0. -1.
</event>
<event>
 7    1  0.3046295E-009  0.4614232E+02  0.7816164E-02  0.1320468E+00
        -11   -1    0    0    0    0  0.00000000000E+00  0.00000000000E+00  0.45593999997E+02  0.45594000000E+02  0.51100000000E-03 0. -1.
         11   -1    0    0    0    0 -0.00000000000E+00 -0.00000000000E+00 -0.45593999997E+02  0.45594000000E+02  0.51100000000E-03 0.  1.
    9900012    2    1    2    0    0  0.29152627003E+02  0.34179068032E+02 -0.33210167183E+01  0.46142317579E+02  0.99999983434E+01 0.  0.
         12    1    1    2    0    0 -0.29152627003E+02 -0.34179068032E+02  0.33210167183E+01  0.45045682421E+02  0.00000000000E+00 0. -1.
         11    1    3    3    0    0  0.19784018029E+02  0.27750098971E+02 -0.47429506214E+01  0.34408878841E+02  0.51100000000E-03 0.  1.
        -11    1    3    3    0    0  0.52848547624E+01  0.42261168580E+01 -0.32715689726E+00  0.67747166327E+01  0.51100000000E-03 0. -1.
         12    1    3    3    0    0  0.40837542122E+01  0.22028522028E+01  0.17490908004E+01  0.49587221057E+01  0.00000000000E+00 0. -1.
</event>
<event>
 7    1  0.4623786E-009  0.4614232E+02  0.7816164E-02  0.1320468E+00
        -11   -1    0    0    0    0  0.00000000000E+00  0.00000000000E+00  0.45593999997E+02  0.45594000000E+02  0.51100000000E-03 0. -1.
         11   -1    0    0    0    0 -0.00000000000E+00 -0.00000000000E+00 -0.45593999997E+02  0.45594000000E+02  0.51100000000E-03 0.  1.
    9900012    2    1    2    0    0  0.20079182626E+02 -0.38407879237E+02 -0.12279036911E+02  0.46142317523E+02  0.99999978276E+01 0.  0.
         12    1    1    2    0    0 -0.20079182626E+02  0.38407879237E+02  0.12279036911E+02  0.45045682477E+02  0.00000000000E+00 0. -1.
         11    1    3    3    0    0 -0.59492950602E-01 -0.30380091844E+01 -0.17820128889E+01  0.35225856147E+01  0.51100000000E-03 0. -1.
        -11    1    3    3    0    0  0.16393389877E+02 -0.29253802451E+02 -0.11338075649E+02  0.35398872145E+02  0.51100000000E-03 0.  1.
        -12    1    3    3    0    0  0.37452856995E+01 -0.61160676015E+01  0.84105162664E+00  0.72208597629E+01  0.00000000000E+00 0.  1.
</event>
<event>
 7    1  0.3046295E-009  0.4614232E+02  0.7816164E-02  0.1320468E+00
        -11   -1    0    0    0    0  0.00000000000E+00  0.00000000000E+00  0.45593999997E+02  0.45594000000E+02  0.51100000000E-03 0.  1.
         11   -1    0    0    0    0 -0.00000000000E+00 -0.00000000000E+00 -0.45593999997E+02  0.45594000000E+02  0.51100000000E-03 0. -1.
    9900012    2    1    2    0    0 -0.22565517820E+02  0.31531430639E+02  0.22927707311E+02  0.46142317908E+02  0.10000001339E+02 0.  0.
         12    1    1    2    0    0  0.22565517820E+02 -0.31531430639E+02 -0.22927707311E+02  0.45045682092E+02  0.00000000000E+00 0. -1.
         11    1    3    3    0    0 -0.10896531635E+02  0.97024330141E+01  0.69090150767E+01  0.16143298847E+02  0.51100000000E-03 0. -1.
        -11    1    3    3    0    0 -0.16507143526E+01  0.36566653657E+01  0.52882693189E+01  0.66379102224E+01  0.51100000000E-03 0.  1.
        -12    1    3    3    0    0 -0.10018271832E+02  0.18172332259E+02  0.10730422915E+02  0.23361108839E+02  0.00000000000E+00 0.  1.
</event>
<event>
 7    1  0.3046295E-009  0.4614232E+02  0.7816164E-02  0.1320468E+00
        -11   -1    0    0    0    0  0.00000000000E+00  0.00000000000E+00  0.45593999997E+02  0.45594000000E+02  0.51100000000E-03 0. -1.
         11   -1    0    0    0    0 -0.00000000000E+00 -0.00000000000E+00 -0.45593999997E+02  0.45594000000E+02  0.51100000000E-03 0.  1.
    9900012    2    1    2    0    0  0.17692704362E+02 -0.41272591860E+02  0.35573666772E+01  0.46142317807E+02  0.10000000422E+02 0.  0.
         12    1    1    2    0    0 -0.17692704362E+02  0.41272591860E+02 -0.35573666772E+01  0.45045682193E+02  0.00000000000E+00 0. -1.
         11    1    3    3    0    0  0.48467835880E+01 -0.10284607211E+02  0.18271009204E+01  0.11515326946E+02  0.51100000000E-03 0. -1.
        -11    1    3    3    0    0  0.40079697230E+01 -0.10994677798E+02  0.46116460616E+01  0.12578316296E+02  0.51100000000E-03 0.  1.
        -12    1    3    3    0    0  0.88379510515E+01 -0.19993306851E+02 -0.28813803048E+01  0.22048674566E+02  0.00000000000E+00 0.  1.
</event>
<event>
 7    1  0.3046295E-009  0.4614232E+02  0.7816164E-02  0.1320468E+00
        -11   -1    0    0    0    0  0.00000000000E+00  0.00000000000E+00  0.45593999997E+02  0.45594000000E+02  0.51100000000E-03 0. -1.
         11   -1    0    0    0    0 -0.00000000000E+00 -0.00000000000E+00 -0.45593999997E+02  0.45594000000E+02  0.51100000000E-03 0.  1.
    9900012    2    1    2    0    0  0.19409158972E+01  0.44993404264E+02  0.96949258067E+00  0.46142317658E+02  0.99999990632E+01 0.  0.
         12    1    1    2    0    0 -0.19409158972E+01 -0.44993404264E+02 -0.96949258067E+00  0.45045682342E+02  0.00000000000E+00 0. -1.
         11    1    3    3    0    0  0.12754368882E+00 -0.15206137008E+00 -0.30161869287E+00  0.36105975937E+00  0.51100000000E-03 0. -1.
        -11    1    3    3    0    0  0.26115575207E+01  0.19106929218E+02 -0.25474694280E+01  0.19452109849E+02  0.51100000000E-03 0.  1.
        -12    1    3    3    0    0 -0.79818531233E+00  0.26038536416E+02  0.38185807016E+01  0.26329148050E+02  0.00000000000E+00 0.  1.
</event>
<event>
 7    1  0.3046295E-009  0.4614232E+02  0.7816164E-02  0.1320468E+00
        -11   -1    0    0    0    0  0.00000000000E+00  0.00000000000E+00  0.45593999997E+02  0.45594000000E+02  0.51100000000E-03 0.  1.
         11   -1    0    0    0    0 -0.00000000000E+00 -0.00000000000E+00 -0.45593999997E+02  0.45594000000E+02  0.51100000000E-03 0. -1.
    9900012    2    1    2    0    0  0.69708946243E+01  0.76483882308E+00  0.44496462972E+02  0.46142316885E+02  0.99999920084E+01 0.  0.
         12    1    1    2    0    0 -0.69708946243E+01 -0.76483882308E+00 -0.44496462972E+02  0.45045683115E+02  0.00000000000E+00 0. -1.
         11    1    3    3    0    0  0.79591857723E+00  0.46592498304E+01  0.17784163060E+02  0.18401591001E+02  0.51100000000E-03 0. -1.
        -11    1    3    3    0    0  0.60582075437E-01 -0.99967680749E-01  0.19632194854E+01  0.19666964010E+01  0.51100000000E-03 0.  1.
         12    1    3    3    0    0  0.61143939717E+01 -0.37944433266E+01  0.24749080427E+02  0.25774029483E+02  0.00000000000E+00 0. -1.
</event>
<event>
 7    1  0.3046295E-009  0.4614232E+02  0.7816164E-02  0.1320468E+00
        -11   -1    0    0    0    0  0.00000000000E+00  0.00000000000E+00  0.45593999997E+02  0.45594000000E+02  0.51100000000E-03 0. -1.
         11   -1    0    0    0    0 -0.00000000000E+00 -0.00000000000E+00 -0.45593999997E+02  0.45594000000E+02  0.51100000000E-03 0.  1.
    9900012    2    1    2    0    0 -0.38788214816E+02  0.12747680177E+02 -0.19028506680E+02  0.46142322904E+02  0.10000046899E+02 0.  0.
         12    1    1    2    0    0  0.38788214816E+02 -0.12747680177E+02  0.19028506680E+02  0.45045677096E+02  0.00000000000E+00 0. -1.
         11    1    3    3    0    0 -0.49057022982E+01 -0.61235984604E+00 -0.10270306905E+01  0.50493258877E+01  0.51100000000E-03 0. -1.
        -11    1    3    3    0    0 -0.22508409996E+02  0.61042357481E+01 -0.97440280257E+01  0.25275211117E+02  0.51100000000E-03 0.  1.
         12    1    3    3    0    0 -0.11374102522E+02  0.72558042752E+01 -0.82574479640E+01  0.15817785899E+02  0.00000000000E+00 0. -1.
</event>
<event>
 7    1  0.3046295E-009  0.4614232E+02  0.7816164E-02  0.1320468E+00
        -11   -1    0    0    0    0  0.00000000000E+00  0.00000000000E+00  0.45593999997E+02  0.45594000000E+02  0.51100000000E-03 0. -1.
         11   -1    0    0    0    0 -0.00000000000E+00 -0.00000000000E+00 -0.45593999997E+02  0.45594000000E+02  0.51100000000E-03 0.  1.
    9900012    2    1    2    0    0  0.10106588954E+02  0.28423143794E+01 -0.43805155535E+02  0.46142317158E+02  0.99999944965E+01 0.  0.
         12    1    1    2    0    0 -0.10106588954E+02 -0.28423143794E+01  0.43805155535E+02  0.45045682842E+02  0.00000000000E+00 0. -1.
         11    1    3    3    0    0  0.74865072200E+01  0.41634810232E+01 -0.18684327528E+02  0.20554475425E+02  0.51100000000E-03 0. -1.
        -11    1    3    3    0    0  0.33000290305E+01 -0.49939111788E+00 -0.22678326746E+02  0.22922610832E+02  0.51100000000E-03 0.  1.
         12    1    3    3    0    0 -0.67994729692E+00 -0.82177552598E+00 -0.24425012613E+01  0.26652309005E+01  0.00000000000E+00 0. -1.
</event>
<event>
 7    1  0.3046295E-009  0.4614232E+02  0.7816164E-02  0.1320468E+00
        -11   -1    0    0    0    0  0.00000000000E+00  0.00000000000E+00  0.45593999997E+02  0.45594000000E+02  0.51100000000E-03 0. -1.
         11   -1    0    0    0    0 -0.00000000000E+00 -0.00000000000E+00 -0.45593999997E+02  0.45594000000E+02  0.51100000000E-03 0.  1.
    9900012    2    1    2    0    0 -0.87868254921E+00 -0.43922311928E+02  0.99585095547E+01  0.46142317847E+02  0.10000000780E+02 0.  0.
         12    1    1    2    0    0  0.87868254921E+00  0.43922311928E+02 -0.99585095547E+01  0.45045682153E+02  0.00000000000E+00 0. -1.
         11    1    3    3    0    0  0.11267729233E+01 -0.45501058026E+00  0.86424001019E+00  0.14911615959E+01  0.51100000000E-03 0. -1.
        -11    1    3    3    0    0 -0.61912699847E+00 -0.11963336296E+02  0.60789974292E+00  0.11994760353E+02  0.51100000000E-03 0.  1.
        -12    1    3    3    0    0 -0.13863284740E+01 -0.31503965052E+02  0.84863698016E+01  0.32656395898E+02  0.00000000000E+00 0.  1.
</event>
<event>
 7    1  0.3046295E-009  0.4614232E+02  0.7816164E-02  0.1320468E+00
        -11   -1    0    0    0    0  0.00000000000E+00  0.00000000000E+00  0.45593999997E+02  0.45594000000E+02  0.51100000000E-03 0.  1.
         11   -1    0    0    0    0 -0.00000000000E+00 -0.00000000000E+00 -0.45593999997E+02  0.45594000000E+02  0.51100000000E-03 0. -1.
    9900012    2    1    2    0    0  0.21994023950E+02  0.38950183059E+02 -0.53159727729E+01  0.46142318560E+02  0.10000007288E+02 0.  0.
         12    1    1    2    0    0 -0.21994023950E+02 -0.38950183059E+02  0.53159727729E+01  0.45045681440E+02  0.00000000000E+00 0. -1.
         11    1    3    3    0    0  0.94699064047E+01  0.12248709240E+02 -0.11432643458E+01  0.15524724119E+02  0.51100000000E-03 0. -1.
        -11    1    3    3    0    0  0.10206202848E+02  0.18508487846E+02 -0.10428354669E-02  0.21136004832E+02  0.51100000000E-03 0.  1.
         12    1    3    3    0    0  0.23179146972E+01  0.81929859728E+01 -0.41716655916E+01  0.94815896084E+01  0.00000000000E+00 0. -1.
</event>
<event>
 7    1  0.3046295E-009  0.4614231E+02  0.7816164E-02  0.1320468E+00
        -11   -1    0    0    0    0  0.00000000000E+00  0.00000000000E+00  0.45593999997E+02  0.45594000000E+02  0.51100000000E-03 0. -1.
         11   -1    0    0    0    0 -0.00000000000E+00 -0.00000000000E+00 -0.45593999997E+02  0.45594000000E+02  0.51100000000E-03 0.  1.
    9900012    2    1    2    0    0  0.29108153430E+02  0.29579503126E+01 -0.34250251711E+02  0.46142314209E+02  0.99999676089E+01 0.  0.
         12    1    1    2    0    0 -0.29108153430E+02 -0.29579503126E+01  0.34250251711E+02  0.45045685791E+02  0.00000000000E+00 0. -1.
         11    1    3    3    0    0  0.15065592557E+02  0.28376566772E+01 -0.11653826234E+02  0.19257103641E+02  0.51100000000E-03 0.  1.
        -11    1    3    3    0    0  0.28364516983E+01  0.15091053035E+01 -0.60976745864E+01  0.68923503013E+01  0.51100000000E-03 0. -1.
         12    1    3    3    0    0  0.11206109174E+02 -0.13888116681E+01 -0.16498750890E+02  0.19992860266E+02  0.00000000000E+00 0. -1.
</event>
<event>
 7    1  0.3046295E-009  0.4614232E+02  0.7816164E-02  0.1320468E+00
        -11   -1    0    0    0    0  0.00000000000E+00  0.00000000000E+00  0.45593999997E+02  0.45594000000E+02  0.51100000000E-03 0.  1.
         11   -1    0    0    0    0 -0.00000000000E+00 -0.00000000000E+00 -0.45593999997E+02  0.45594000000E+02  0.51100000000E-03 0. -1.
    9900012    2    1    2    0    0  0.79865748201E+00  0.24434725693E+02  0.37834111887E+02  0.46142315459E+02  0.99999790045E+01 0.  0.
         12    1    1    2    0    0 -0.79865748201E+00 -0.24434725693E+02 -0.37834111887E+02  0.45045684541E+02  0.00000000000E+00 0. -1.
         11    1    3    3    0    0 -0.27566505728E+01  0.17715681934E+02  0.28112520591E+02  0.33343040099E+02  0.51100000000E-03 0. -1.
        -11    1    3    3    0    0 -0.54076671537E+00  0.19210105055E+01  0.27382847337E+01  0.33883496789E+01  0.51100000000E-03 0.  1.
         12    1    3    3    0    0  0.40960747702E+01  0.47980332535E+01  0.69833065624E+01  0.94109256807E+01  0.00000000000E+00 0. -1.
</event>
<event>
 7    1  0.3046295E-009  0.4614232E+02  0.7816164E-02  0.1320468E+00
        -11   -1    0    0    0    0  0.00000000000E+00  0.00000000000E+00  0.45593999997E+02  0.45594000000E+02  0.51100000000E-03 0.  1.
         11   -1    0    0    0    0 -0.00000000000E+00 -0.00000000000E+00 -0.45593999997E+02  0.45594000000E+02  0.51100000000E-03 0. -1.
    9900012    2    1    2    0    0 -0.33556158097E+02  0.17408244798E+02  0.24495933877E+02  0.46142317525E+02  0.99999978439E+01 0.  0.
         12    1    1    2    0    0  0.33556158097E+02 -0.17408244798E+02 -0.24495933877E+02  0.45045682475E+02  0.00000000000E+00 0. -1.
         11    1    3    3    0    0 -0.52636763886E+01 -0.23784149358E+00  0.23303329843E+01  0.57613635347E+01  0.51100000000E-03 0. -1.
        -11    1    3    3    0    0 -0.13844960689E+02  0.11618880853E+02  0.11102290133E+02  0.21211840449E+02  0.51100000000E-03 0.  1.
        -12    1    3    3    0    0 -0.14447521019E+02  0.60272054385E+01  0.11063310759E+02  0.19169113541E+02  0.00000000000E+00 0.  1.
</event>
<event>
 7    1  0.3046295E-009  0.4614232E+02  0.7816164E-02  0.1320468E+00
        -11   -1    0    0    0    0  0.00000000000E+00  0.00000000000E+00  0.45593999997E+02  0.45594000000E+02  0.51100000000E-03 0.  1.
         11   -1    0    0    0    0 -0.00000000000E+00 -0.00000000000E+00 -0.45593999997E+02  0.45594000000E+02  0.51100000000E-03 0. -1.
    9900012    2    1    2    0    0  0.16790466746E+02  0.33551175863E+02  0.24930149807E+02  0.46142317135E+02  0.99999942943E+01 0.  0.
         12    1    1    2    0    0 -0.16790466746E+02 -0.33551175863E+02 -0.24930149807E+02  0.45045682865E+02  0.00000000000E+00 0. -1.
         11    1    3    3    0    0  0.11395444311E+02  0.15675891570E+02  0.13658659000E+02  0.23709675103E+02  0.51100000000E-03 0. -1.
        -11    1    3    3    0    0 -0.87857327656E+00  0.49120059343E+01  0.27080738161E+01  0.56774428536E+01  0.51100000000E-03 0.  1.
        -12    1    3    3    0    0  0.62735957112E+01  0.12963278359E+02  0.85634169914E+01  0.16755199179E+02  0.00000000000E+00 0.  1.
</event>
<event>
 7    1  0.3046295E-009  0.4614232E+02  0.7816164E-02  0.1320468E+00
        -11   -1    0    0    0    0  0.00000000000E+00  0.00000000000E+00  0.45593999997E+02  0.45594000000E+02  0.51100000000E-03 0. -1.
         11   -1    0    0    0    0 -0.00000000000E+00 -0.00000000000E+00 -0.45593999997E+02  0.45594000000E+02  0.51100000000E-03 0.  1.
    9900012    2    1    2    0    0 -0.88917082639E+01 -0.40546945066E+02 -0.17492748995E+02  0.46142317660E+02  0.99999990811E+01 0.  0.
         12    1    1    2    0    0  0.88917082639E+01  0.40546945066E+02  0.17492748995E+02  0.45045682340E+02  0.00000000000E+00 0. -1.
         11    1    3    3    0    0 -0.57582629011E+01 -0.21583594272E+02 -0.69800798946E+01  0.23403646061E+02  0.51100000000E-03 0.  1.
        -11    1    3    3    0    0  0.60108145933E-01 -0.17790043519E+01  0.76511912314E+00  0.19374924534E+01  0.51100000000E-03 0. -1.
         12    1    3    3    0    0 -0.31935535087E+01 -0.17184346442E+02 -0.11277788224E+02  0.20801179146E+02  0.00000000000E+00 0. -1.
</event>
<event>
 7    1  0.3046295E-009  0.4614232E+02  0.7816164E-02  0.1320468E+00
        -11   -1    0    0    0    0  0.00000000000E+00  0.00000000000E+00  0.45593999997E+02  0.45594000000E+02  0.51100000000E-03 0.  1.
         11   -1    0    0    0    0 -0.00000000000E+00 -0.00000000000E+00 -0.45593999997E+02  0.45594000000E+02  0.51100000000E-03 0. -1.
    9900012    2    1    2    0    0 -0.43058039694E+02  0.21631079814E+01 -0.13055260175E+02  0.46142316115E+02  0.99999849855E+01 0.  0.
         12    1    1    2    0    0  0.43058039694E+02 -0.21631079814E+01  0.13055260175E+02  0.45045683885E+02  0.00000000000E+00 0. -1.
         11    1    3    3    0    0 -0.84869378842E+01 -0.11574865375E+01 -0.28392326955E+01  0.90238091899E+01  0.51100000000E-03 0. -1.
        -11    1    3    3    0    0 -0.13050559855E+02  0.37207220194E+01 -0.72649981070E+01  0.15392890652E+02  0.51100000000E-03 0.  1.
        -12    1    3    3    0    0 -0.21520541955E+02 -0.40012750047E+00 -0.29510293725E+01  0.21725616272E+02  0.00000000000E+00 0.  1.
</event>
<event>
 7    1  0.3046295E-009  0.4614232E+02  0.7816164E-02  0.1320468E+00
        -11   -1    0    0    0    0  0.00000000000E+00  0.00000000000E+00  0.45593999997E+02  0.45594000000E+02  0.51100000000E-03 0. -1.
         11   -1    0    0    0    0 -0.00000000000E+00 -0.00000000000E+00 -0.45593999997E+02  0.45594000000E+02  0.51100000000E-03 0.  1.
    9900012    2    1    2    0    0  0.26490698393E+02 -0.35401530215E+02 -0.86074377255E+01  0.46142318441E+02  0.10000006201E+02 0.  0.
         12    1    1    2    0    0 -0.26490698393E+02  0.35401530215E+02  0.86074377255E+01  0.45045681559E+02  0.00000000000E+00 0. -1.
         11    1    3    3    0    0  0.17142739811E+02 -0.29254755476E+02 -0.73326969552E+01  0.34691248047E+02  0.51100000000E-03 0. -1.
        -11    1    3    3    0    0  0.56717105720E+01 -0.48354572219E+01 -0.11858874187E+01  0.75469382260E+01  0.51100000000E-03 0.  1.
         12    1    3    3    0    0  0.36762480105E+01 -0.13113175167E+01 -0.88853351618E-01  0.39041321676E+01  0.00000000000E+00 0. -1.
</event>
<event>
 7    1  0.3046295E-009  0.4614232E+02  0.7816164E-02  0.1320468E+00
        -11   -1    0    0    0    0  0.00000000000E+00  0.00000000000E+00  0.45593999997E+02  0.45594000000E+02  0.51100000000E-03 0.  1.
         11   -1    0    0    0    0 -0.00000000000E+00 -0.00000000000E+00 -0.45593999997E+02  0.45594000000E+02  0.51100000000E-03 0. -1.
    9900012    2    1    2    0    0 -0.92685152856E+00  0.29084671903E+01  0.44942131326E+02  0.46142318706E+02  0.10000008615E+02 0.  0.
         12    1    1    2    0    0  0.92685152856E+00 -0.29084671903E+01 -0.44942131326E+02  0.45045681294E+02  0.00000000000E+00 0. -1.
         11    1    3    3    0    0 -0.35484556979E+01  0.13875566098E+01  0.28576919248E+02  0.28829796481E+02  0.51100000000E-03 0. -1.
        -11    1    3    3    0    0  0.22717925988E+00 -0.81899496709E+00  0.10687577451E+02  0.10721318725E+02  0.51100000000E-03 0.  1.
         12    1    3    3    0    0  0.23944249094E+01  0.23399055475E+01  0.56776346269E+01  0.65912034997E+01  0.00000000000E+00 0. -1.
</event>
<event>
 7    1  0.3046295E-009  0.4614232E+02  0.7816164E-02  0.1320468E+00
        -11   -1    0    0    0    0  0.00000000000E+00  0.00000000000E+00  0.45593999997E+02  0.45594000000E+02  0.51100000000E-03 0.  1.
         11   -1    0    0    0    0 -0.00000000000E+00 -0.00000000000E+00 -0.45593999997E+02  0.45594000000E+02  0.51100000000E-03 0. -1.
    9900012    2    1    2    0    0 -0.32467408539E+02  0.28017498578E+02  0.13784072210E+02  0.46142317737E+02  0.99999997827E+01 0.  0.
         12    1    1    2    0    0  0.32467408539E+02 -0.28017498578E+02 -0.13784072210E+02  0.45045682263E+02  0.00000000000E+00 0. -1.
         11    1    3    3    0    0 -0.12880677572E+01  0.70135123783E+00  0.19125499983E+01  0.24101576428E+01  0.51100000000E-03 0. -1.
        -11    1    3    3    0    0 -0.18918457559E+02  0.20334865247E+02  0.98997043806E+01  0.29485910671E+02  0.51100000000E-03 0.  1.
         12    1    3    3    0    0 -0.12260883223E+02  0.69812820935E+01  0.19718178311E+01  0.14246249423E+02  0.00000000000E+00 0. -1.
</event>
<event>
 7    1  0.3046295E-009  0.4614232E+02  0.7816164E-02  0.1320468E+00
        -11   -1    0    0    0    0  0.00000000000E+00  0.00000000000E+00  0.45593999997E+02  0.45594000000E+02  0.51100000000E-03 0. -1.
         11   -1    0    0    0    0 -0.00000000000E+00 -0.00000000000E+00 -0.45593999997E+02  0.45594000000E+02  0.51100000000E-03 0.  1.
    9900012    2    1    2    0    0  0.66628509070E+01 -0.16742615309E+02 -0.41284436872E+02  0.46142317883E+02  0.10000001108E+02 0.  0.
         12    1    1    2    0    0 -0.66628509070E+01  0.16742615309E+02  0.41284436872E+02  0.45045682117E+02  0.00000000000E+00 0. -1.
         11    1    3    3    0    0  0.22769276309E+01 -0.11919457544E+02 -0.16418191659E+02  0.20416044798E+02  0.51100000000E-03 0. -1.
        -11    1    3    3    0    0  0.30594643318E+01 -0.39965138961E+01 -0.19057569615E+02  0.19710997063E+02  0.51100000000E-03 0.  1.
         12    1    3    3    0    0  0.13264589443E+01 -0.82664386902E+00 -0.58086755984E+01  0.60152760223E+01  0.00000000000E+00 0. -1.
</event>
<event>
 7    1  0.3046295E-009  0.4614232E+02  0.7816164E-02  0.1320468E+00
        -11   -1    0    0    0    0  0.00000000000E+00  0.00000000000E+00  0.45593999997E+02  0.45594000000E+02  0.51100000000E-03 0.  1.
         11   -1    0    0    0    0 -0.00000000000E+00 -0.00000000000E+00 -0.45593999997E+02  0.45594000000E+02  0.51100000000E-03 0. -1.
    9900012    2    1    2    0    0  0.20360834487E+01  0.29214543132E+02  0.34226865883E+02  0.46142317472E+02  0.99999973641E+01 0.  0.
         12    1    1    2    0    0 -0.20360834487E+01 -0.29214543132E+02 -0.34226865883E+02  0.45045682528E+02  0.00000000000E+00 0. -1.
         11    1    3    3    0    0 -0.34121573107E+00  0.15251515146E+02  0.14318398680E+02  0.20922277206E+02  0.51100000000E-03 0. -1.
        -11    1    3    3    0    0 -0.87382135238E+00  0.10812262759E+02  0.12635518977E+02  0.16653075686E+02  0.51100000000E-03 0.  1.
         12    1    3    3    0    0  0.32511205321E+01  0.31507652267E+01  0.72729482255E+01  0.85669645803E+01  0.00000000000E+00 0. -1.
</event>
<event>
 7    1  0.3046295E-009  0.4614232E+02  0.7816164E-02  0.1320468E+00
        -11   -1    0    0    0    0  0.00000000000E+00  0.00000000000E+00  0.45593999997E+02  0.45594000000E+02  0.51100000000E-03 0.  1.
         11   -1    0    0    0    0 -0.00000000000E+00 -0.00000000000E+00 -0.45593999997E+02  0.45594000000E+02  0.51100000000E-03 0. -1.
    9900012    2    1    2    0    0  0.23353815535E+02  0.12875310835E+02  0.36303430881E+02  0.46142318488E+02  0.10000006631E+02 0.  0.
         12    1    1    2    0    0 -0.23353815535E+02 -0.12875310835E+02 -0.36303430881E+02  0.45045681512E+02  0.00000000000E+00 0. -1.
         11    1    3    3    0    0  0.12814709786E+02  0.88436424455E+01  0.13472279147E+02  0.20589538710E+02  0.51100000000E-03 0. -1.
        -11    1    3    3    0    0  0.28333388207E+01  0.14070815109E+01  0.45563880044E+01  0.55469233958E+01  0.51100000000E-03 0.  1.
         12    1    3    3    0    0  0.77057669275E+01  0.26245868790E+01  0.18274763730E+02  0.20005856383E+02  0.00000000000E+00 0. -1.
</event>
<event>
 7    1  0.3046295E-009  0.4614232E+02  0.7816164E-02  0.1320468E+00
        -11   -1    0    0    0    0  0.00000000000E+00  0.00000000000E+00  0.45593999997E+02  0.45594000000E+02  0.51100000000E-03 0.  1.
         11   -1    0    0    0    0 -0.00000000000E+00 -0.00000000000E+00 -0.45593999997E+02  0.45594000000E+02  0.51100000000E-03 0. -1.
    9900012    2    1    2    0    0  0.30074571908E+02 -0.24776210598E+01  0.33443910867E+02  0.46142315904E+02  0.99999830666E+01 0.  0.
         12    1    1    2    0    0 -0.30074571908E+02  0.24776210598E+01 -0.33443910867E+02  0.45045684096E+02  0.00000000000E+00 0. -1.
         11    1    3    3    0    0  0.83893668696E+01 -0.21657377552E+01  0.63902374296E+01  0.10766012779E+02  0.51100000000E-03 0. -1.
        -11    1    3    3    0    0  0.12450612775E+02 -0.34015852252E+01  0.13391260442E+02  0.18598774073E+02  0.51100000000E-03 0.  1.
        -12    1    3    3    0    0  0.92345922628E+01  0.30897019206E+01  0.13662412996E+02  0.16777529052E+02  0.00000000000E+00 0.  1.
</event>
<event>
 7    1  0.3046295E-009  0.4614232E+02  0.7816164E-02  0.1320468E+00
        -11   -1    0    0    0    0  0.00000000000E+00  0.00000000000E+00  0.45593999997E+02  0.45594000000E+02  0.51100000000E-03 0.  1.
         11   -1    0    0    0    0 -0.00000000000E+00 -0.00000000000E+00 -0.45593999997E+02  0.45594000000E+02  0.51100000000E-03 0. -1.
    9900012    2    1    2    0    0 -0.31199968974E+02 -0.55728633154E+01  0.32009663333E+02  0.46142318562E+02  0.10000007306E+02 0.  0.
         12    1    1    2    0    0  0.31199968974E+02  0.55728633154E+01 -0.32009663333E+02  0.45045681438E+02  0.00000000000E+00 0. -1.
         11    1    3    3    0    0 -0.10565182049E+02  0.10161461518E+01  0.71304020212E+01  0.12786643734E+02  0.51100000000E-03 0. -1.
        -11    1    3    3    0    0 -0.15832379988E+02 -0.27502944662E+01  0.18033299701E+02  0.24154259958E+02  0.51100000000E-03 0.  1.
         12    1    3    3    0    0 -0.48024069361E+01 -0.38387150010E+01  0.68459616106E+01  0.92014148701E+01  0.00000000000E+00 0. -1.
</event>
<event>
 7    1  0.3046295E-009  0.4614232E+02  0.7816164E-02  0.1320468E+00
        -11   -1    0    0    0    0  0.00000000000E+00  0.00000000000E+00  0.45593999997E+02  0.45594000000E+02  0.51100000000E-03 0. -1.
         11   -1    0    0    0    0 -0.00000000000E+00 -0.00000000000E+00 -0.45593999997E+02  0.45594000000E+02  0.51100000000E-03 0.  1.
    9900012    2    1    2    0    0  0.38422695361E+01  0.44784849726E+02 -0.29440668935E+01  0.46142319519E+02  0.10000016025E+02 0.  0.
         12    1    1    2    0    0 -0.38422695361E+01 -0.44784849726E+02  0.29440668935E+01  0.45045680481E+02  0.00000000000E+00 0. -1.
         11    1    3    3    0    0  0.39976194486E+01  0.57726900012E+01 -0.67131462957E+00  0.70537631587E+01  0.51100000000E-03 0. -1.
        -11    1    3    3    0    0 -0.31250956036E+00  0.11615512112E+02 -0.37379062409E+00  0.11625725936E+02  0.51100000000E-03 0.  1.
         12    1    3    3    0    0  0.15715964782E+00  0.27396647613E+02 -0.18989616399E+01  0.27462830424E+02  0.00000000000E+00 0. -1.
</event>
<event>
 7    1  0.3046295E-009  0.4614232E+02  0.7816164E-02  0.1320468E+00
        -11   -1    0    0    0    0  0.00000000000E+00  0.00000000000E+00  0.45593999997E+02  0.45594000000E+02  0.51100000000E-03 0. -1.
         11   -1    0    0    0    0 -0.00000000000E+00 -0.00000000000E+00 -0.45593999997E+02  0.45594000000E+02  0.51100000000E-03 0.  1.
    9900012    2    1    2    0    0  0.30403377752E+02 -0.18171962272E+02 -0.27830340254E+02  0.46142318407E+02  0.10000005886E+02 0.  0.
         12    1    1    2    0    0 -0.30403377752E+02  0.18171962272E+02  0.27830340254E+02  0.45045681593E+02  0.00000000000E+00 0. -1.
         11    1    3    3    0    0  0.18242608087E+02 -0.11470312210E+02 -0.11406296317E+02  0.24381640796E+02  0.51100000000E-03 0. -1.
        -11    1    3    3    0    0  0.36626646650E+01 -0.77005021749E+00 -0.59266290517E+01  0.70094951290E+01  0.51100000000E-03 0.  1.
         12    1    3    3    0    0  0.84981050008E+01 -0.59315998448E+01 -0.10497414885E+02  0.14751182481E+02  0.00000000000E+00 0. -1.
</event>
<event>
 7    1  0.3046295E-009  0.4614231E+02  0.7816164E-02  0.1320468E+00
        -11   -1    0    0    0    0  0.00000000000E+00  0.00000000000E+00  0.45593999997E+02  0.45594000000E+02  0.51100000000E-03 0.  1.
         11   -1    0    0    0    0 -0.00000000000E+00 -0.00000000000E+00 -0.45593999997E+02  0.45594000000E+02  0.51100000000E-03 0. -1.
    9900012    2    1    2    0    0 -0.36189764609E+02 -0.11957796170E+02  0.24008871036E+02  0.46142313857E+02  0.99999643979E+01 0.  0.
         12    1    1    2    0    0  0.36189764609E+02  0.11957796170E+02 -0.24008871036E+02  0.45045686143E+02  0.00000000000E+00 0. -1.
         11    1    3    3    0    0 -0.15297305046E+02 -0.74754831482E+01  0.12845032780E+02  0.21328039229E+02  0.51100000000E-03 0.  1.
        -11    1    3    3    0    0 -0.58374500537E+01  0.72748109523E+00  0.50415873099E+01  0.77474289115E+01  0.51100000000E-03 0. -1.
         12    1    3    3    0    0 -0.15055009509E+02 -0.52097941174E+01  0.61222509458E+01  0.17066845717E+02  0.00000000000E+00 0. -1.
</event>
<event>
 7    1  0.3046295E-009  0.4614232E+02  0.7816164E-02  0.1320468E+00
        -11   -1    0    0    0    0  0.00000000000E+00  0.00000000000E+00  0.45593999997E+02  0.45594000000E+02  0.51100000000E-03 0. -1.
         11   -1    0    0    0    0 -0.00000000000E+00 -0.00000000000E+00 -0.45593999997E+02  0.45594000000E+02  0.51100000000E-03 0.  1.
    9900012    2    1    2    0    0 -0.25036296441E+02 -0.31643878952E+02 -0.20024042539E+02  0.46142317696E+02  0.99999994018E+01 0.  0.
         12    1    1    2    0    0  0.25036296441E+02  0.31643878952E+02  0.20024042539E+02  0.45045682304E+02  0.00000000000E+00 0. -1.
         11    1    3    3    0    0 -0.33256499799E+01 -0.75818543781E+01 -0.11308858221E+01  0.83560377335E+01  0.51100000000E-03 0. -1.
        -11    1    3    3    0    0 -0.66641589471E+01 -0.44868636012E+01 -0.47028261042E+01  0.93091102193E+01  0.51100000000E-03 0.  1.
        -12    1    3    3    0    0 -0.15046487514E+02 -0.19575160973E+02 -0.14190330613E+02  0.28477169743E+02  0.00000000000E+00 0.  1.
</event>
<event>
 7    1  0.3046295E-009  0.4614232E+02  0.7816164E-02  0.1320468E+00
        -11   -1    0    0    0    0  0.00000000000E+00  0.00000000000E+00  0.45593999997E+02  0.45594000000E+02  0.51100000000E-03 0. -1.
         11   -1    0    0    0    0 -0.00000000000E+00 -0.00000000000E+00 -0.45593999997E+02  0.45594000000E+02  0.51100000000E-03 0.  1.
    9900012    2    1    2    0    0  0.20231200340E+02 -0.20603480358E+02 -0.34573237126E+02  0.46142316573E+02  0.99999891695E+01 0.  0.
         12    1    1    2    0    0 -0.20231200340E+02  0.20603480358E+02  0.34573237126E+02  0.45045683427E+02  0.00000000000E+00 0. -1.
         11    1    3    3    0    0  0.90508056293E+01 -0.12264536533E+02 -0.12917853546E+02  0.19980162147E+02  0.51100000000E-03 0. -1.
        -11    1    3    3    0    0  0.74234773685E+01 -0.30010535013E+01 -0.10080942153E+02  0.12873994458E+02  0.51100000000E-03 0.  1.
         12    1    3    3    0    0  0.37569173419E+01 -0.53378903239E+01 -0.11574441426E+02  0.13288159968E+02  0.00000000000E+00 0. -1.
</event>
<event>
 7    1  0.3046295E-009  0.4614232E+02  0.7816164E-02  0.1320468E+00
        -11   -1    0    0    0    0  0.00000000000E+00  0.00000000000E+00  0.45593999997E+02  0.45594000000E+02  0.51100000000E-03 0.  1.
         11   -1    0    0    0    0 -0.00000000000E+00 -0.00000000000E+00 -0.45593999997E+02  0.45594000000E+02  0.51100000000E-03 0. -1.
    9900012    2    1    2    0    0  0.71388070431E+01  0.34378945299E+02  0.28217707331E+02  0.46142318155E+02  0.10000003594E+02 0.  0.
         12    1    1    2    0    0 -0.71388070431E+01 -0.34378945299E+02 -0.28217707331E+02  0.45045681845E+02  0.00000000000E+00 0. -1.
         11    1    3    3    0    0  0.66378556181E+00  0.78708934598E+01  0.10363066935E+02  0.13030147032E+02  0.51100000000E-03 0. -1.
        -11    1    3    3    0    0 -0.70353060150E+00  0.26549937610E+01  0.60397709330E+00  0.28122474586E+01  0.51100000000E-03 0.  1.
         12    1    3    3    0    0  0.71785520828E+01  0.23853058078E+02  0.17250663302E+02  0.30299923664E+02  0.00000000000E+00 0. -1.
</event>
<event>
 7    1  0.3046295E-009  0.4614232E+02  0.7816164E-02  0.1320468E+00
        -11   -1    0    0    0    0  0.00000000000E+00  0.00000000000E+00  0.45593999997E+02  0.45594000000E+02  0.51100000000E-03 0.  1.
         11   -1    0    0    0    0 -0.00000000000E+00 -0.00000000000E+00 -0.45593999997E+02  0.45594000000E+02  0.51100000000E-03 0. -1.
    9900012    2    1    2    0    0  0.31055859811E+02 -0.21636283737E+02 -0.24423723901E+02  0.46142317724E+02  0.99999996612E+01 0.  0.
         12    1    1    2    0    0 -0.31055859811E+02  0.21636283737E+02  0.24423723901E+02  0.45045682276E+02  0.00000000000E+00 0. -1.
         11    1    3    3    0    0  0.37418000438E+01 -0.44014553333E+01 -0.77162528404E+00  0.58283172923E+01  0.51100000000E-03 0. -1.
        -11    1    3    3    0    0  0.14257115343E+01 -0.12611045811E+01 -0.22081248851E+00  0.19161932470E+01  0.51100000000E-03 0.  1.
        -12    1    3    3    0    0  0.25888348233E+02 -0.15973723823E+02 -0.23431286128E+02  0.38397807185E+02  0.00000000000E+00 0.  1.
</event>
<event>
 7    1  0.3046295E-009  0.4614232E+02  0.7816164E-02  0.1320468E+00
        -11   -1    0    0    0    0  0.00000000000E+00  0.00000000000E+00  0.45593999997E+02  0.45594000000E+02  0.51100000000E-03 0.  1.
         11   -1    0    0    0    0 -0.00000000000E+00 -0.00000000000E+00 -0.45593999997E+02  0.45594000000E+02  0.51100000000E-03 0. -1.
    9900012    2    1    2    0    0  0.17117208708E+02 -0.40981638489E+02  0.75246194544E+01  0.46142318463E+02  0.10000006402E+02 0.  0.
         12    1    1    2    0    0 -0.17117208708E+02  0.40981638489E+02 -0.75246194544E+01  0.45045681537E+02  0.00000000000E+00 0. -1.
         11    1    3    3    0    0  0.31767617802E+01 -0.35553900627E+01  0.35845579862E+01  0.59650373111E+01  0.51100000000E-03 0. -1.
        -11    1    3    3    0    0  0.53404551497E+01 -0.16689768032E+02  0.21982621232E+01  0.17660724073E+02  0.51100000000E-03 0.  1.
         12    1    3    3    0    0  0.85999917781E+01 -0.20736480394E+02  0.17417993450E+01  0.22516557079E+02  0.00000000000E+00 0. -1.
</event>
<event>
 7    1  0.3046295E-009  0.4614232E+02  0.7816164E-02  0.1320468E+00
        -11   -1    0    0    0    0  0.00000000000E+00  0.00000000000E+00  0.45593999997E+02  0.45594000000E+02  0.51100000000E-03 0.  1.
         11   -1    0    0    0    0 -0.00000000000E+00 -0.00000000000E+00 -0.45593999997E+02  0.45594000000E+02  0.51100000000E-03 0. -1.
    9900012    2    1    2    0    0  0.23486025940E+01  0.10430898602E+02  0.43758358051E+02  0.46142317864E+02  0.10000000934E+02 0.  0.
         12    1    1    2    0    0 -0.23486025940E+01 -0.10430898602E+02 -0.43758358051E+02  0.45045682136E+02  0.00000000000E+00 0. -1.
         11    1    3    3    0    0 -0.22267554886E+01  0.24885012105E+01  0.15148793808E+02  0.15512479891E+02  0.51100000000E-03 0. -1.
        -11    1    3    3    0    0  0.15241298646E+01  0.49742419031E+01  0.77093725622E+01  0.93005634194E+01  0.51100000000E-03 0.  1.
         12    1    3    3    0    0  0.30512282180E+01  0.29681554886E+01  0.20900191681E+02  0.21329274553E+02  0.00000000000E+00 0. -1.
</event>
<event>
 7    1  0.3046295E-009  0.4614232E+02  0.7816164E-02  0.1320468E+00
        -11   -1    0    0    0    0  0.00000000000E+00  0.00000000000E+00  0.45593999997E+02  0.45594000000E+02  0.51100000000E-03 0.  1.
         11   -1    0    0    0    0 -0.00000000000E+00 -0.00000000000E+00 -0.45593999997E+02  0.45594000000E+02  0.51100000000E-03 0. -1.
    9900012    2    1    2    0    0 -0.22506312286E+02  0.21431236848E+01  0.38961345492E+02  0.46142317472E+02  0.99999973607E+01 0.  0.
         12    1    1    2    0    0  0.22506312286E+02 -0.21431236848E+01 -0.38961345492E+02  0.45045682528E+02  0.00000000000E+00 0. -1.
         11    1    3    3    0    0 -0.10316452060E+01 -0.65029570035E+00  0.91199858711E+01  0.92011585617E+01  0.51100000000E-03 0. -1.
        -11    1    3    3    0    0 -0.48812598884E+01  0.86505909662E+00  0.84905632351E+01  0.98318202612E+01  0.51100000000E-03 0.  1.
        -12    1    3    3    0    0 -0.16593407192E+02  0.19283602885E+01  0.21350796386E+02  0.27109338649E+02  0.00000000000E+00 0.  1.
</event>
<event>
 7    1  0.3046295E-009  0.4614232E+02  0.7816164E-02  0.1320468E+00
        -11   -1    0    0    0    0  0.00000000000E+00  0.00000000000E+00  0.45593999997E+02  0.45594000000E+02  0.51100000000E-03 0.  1.
         11   -1    0    0    0    0 -0.00000000000E+00 -0.00000000000E+00 -0.45593999997E+02  0.45594000000E+02  0.51100000000E-03 0. -1.
    9900012    2    1    2    0    0 -0.10000267218E+02 -0.11327033943E+00  0.43921468582E+02  0.46142316777E+02  0.99999910277E+01 0.  0.
         12    1    1    2    0    0  0.10000267218E+02  0.11327033943E+00 -0.43921468582E+02  0.45045683223E+02  0.00000000000E+00 0. -1.
         11    1    3    3    0    0 -0.19676054813E+01  0.17000450475E+01  0.77345507582E+01  0.81599571191E+01  0.51100000000E-03 0. -1.
        -11    1    3    3    0    0 -0.44821637797E+01  0.30529509472E+01  0.14758505612E+02  0.15723351736E+02  0.51100000000E-03 0.  1.
        -12    1    3    3    0    0 -0.35504979571E+01 -0.48662663342E+01  0.21428412212E+02  0.22259007922E+02  0.00000000000E+00 0.  1.
</event>
<event>
 7    1  0.3046295E-009  0.4614232E+02  0.7816164E-02  0.1320468E+00
        -11   -1    0    0    0    0  0.00000000000E+00  0.00000000000E+00  0.45593999997E+02  0.45594000000E+02  0.51100000000E-03 0. -1.
         11   -1    0    0    0    0 -0.00000000000E+00 -0.00000000000E+00 -0.45593999997E+02  0.45594000000E+02  0.51100000000E-03 0.  1.
    9900012    2    1    2    0    0  0.40474147884E+02  0.43449257312E+01 -0.19289337014E+02  0.46142317088E+02  0.99999938644E+01 0.  0.
         12    1    1    2    0    0 -0.40474147884E+02 -0.43449257312E+01  0.19289337014E+02  0.45045682912E+02  0.00000000000E+00 0. -1.
         11    1    3    3    0    0  0.24713618701E+02  0.51868536136E+01 -0.14862992775E+02  0.29301449695E+02  0.51100000000E-03 0. -1.
        -11    1    3    3    0    0  0.15170228154E+02 -0.59847506981E+00 -0.49982806072E+01  0.15983641761E+02  0.51100000000E-03 0.  1.
         12    1    3    3    0    0  0.59030102857E+00 -0.24345281261E+00  0.57193636786E+00  0.85722563260E+00  0.00000000000E+00 0. -1.
</event>
<event>
 7    1  0.3046295E-009  0.4614232E+02  0.7816164E-02  0.1320468E+00
        -11   -1    0    0    0    0  0.00000000000E+00  0.00000000000E+00  0.45593999997E+02  0.45594000000E+02  0.51100000000E-03 0. -1.
         11   -1    0    0    0    0 -0.00000000000E+00 -0.00000000000E+00 -0.45593999997E+02  0.45594000000E+02  0.51100000000E-03 0.  1.
    9900012    2    1    2    0    0  0.94176216379E+01 -0.28695949471E+02 -0.33421018612E+02  0.46142316540E+02  0.99999888610E+01 0.  0.
         12    1    1    2    0    0 -0.94176216379E+01  0.28695949471E+02  0.33421018612E+02  0.45045683460E+02  0.00000000000E+00 0. -1.
         11    1    3    3    0    0  0.58011209253E+00 -0.94831918574E+01 -0.12392558067E+02  0.15615471608E+02  0.51100000000E-03 0. -1.
        -11    1    3    3    0    0 -0.75315676465E+00 -0.31036448894E+01 -0.17767168195E+01  0.36546654607E+01  0.51100000000E-03 0.  1.
        -12    1    3    3    0    0  0.95906663100E+01 -0.16109112724E+02 -0.19251743725E+02  0.26872179471E+02  0.00000000000E+00 0.  1.
</event>
<event>
 7    1  0.3046295E-009  0.4614231E+02  0.7816164E-02  0.1320468E+00
        -11   -1    0    0    0    0  0.00000000000E+00  0.00000000000E+00  0.45593999997E+02  0.45594000000E+02  0.51100000000E-03 0.  1.
         11   -1    0    0    0    0 -0.00000000000E+00 -0.00000000000E+00 -0.45593999997E+02  0.45594000000E+02  0.51100000000E-03 0. -1.
    9900012    2    1    2    0    0 -0.39459208865E+02 -0.11115482565E+02  0.18668975838E+02  0.46142314571E+02  0.99999709074E+01 0.  0.
         12    1    1    2    0    0  0.39459208865E+02  0.11115482565E+02 -0.18668975838E+02  0.45045685429E+02  0.00000000000E+00 0. -1.
         11    1    3    3    0    0 -0.39774120703E+01  0.14576024960E+00  0.49700230657E+01  0.63672743275E+01  0.51100000000E-03 0. -1.
        -11    1    3    3    0    0 -0.27543197104E+02 -0.95257113140E+01  0.11714589050E+02  0.31410165228E+02  0.51100000000E-03 0.  1.
         12    1    3    3    0    0 -0.79385996906E+01 -0.17355315010E+01  0.19843637228E+01  0.83648750154E+01  0.00000000000E+00 0. -1.
</event>
<event>
 7    1  0.3046295E-009  0.4614232E+02  0.7816164E-02  0.1320468E+00
        -11   -1    0    0    0    0  0.00000000000E+00  0.00000000000E+00  0.45593999997E+02  0.45594000000E+02  0.51100000000E-03 0.  1.
         11   -1    0    0    0    0 -0.00000000000E+00 -0.00000000000E+00 -0.45593999997E+02  0.45594000000E+02  0.51100000000E-03 0. -1.
    9900012    2    1    2    0    0  0.35775497057E+02 -0.81888888199E+01  0.26118372431E+02  0.46142317985E+02  0.10000002040E+02 0.  0.
         12    1    1    2    0    0 -0.35775497057E+02  0.81888888199E+01 -0.26118372431E+02  0.45045682015E+02  0.00000000000E+00 0. -1.
         11    1    3    3    0    0  0.34104244930E+01 -0.85437615532E+00  0.34554735704E+00  0.35327548846E+01  0.51100000000E-03 0. -1.
        -11    1    3    3    0    0  0.30019936030E+02 -0.65658672122E+01  0.20948590494E+02  0.37190732925E+02  0.51100000000E-03 0.  1.
         12    1    3    3    0    0  0.23451365335E+01 -0.76864545233E+00  0.48242345798E+01  0.54188301757E+01  0.00000000000E+00 0. -1.
</event>
<event>
 7    1  0.3046295E-009  0.4614232E+02  0.7816164E-02  0.1320468E+00
        -11   -1    0    0    0    0  0.00000000000E+00  0.00000000000E+00  0.45593999997E+02  0.45594000000E+02  0.51100000000E-03 0.  1.
         11   -1    0    0    0    0 -0.00000000000E+00 -0.00000000000E+00 -0.45593999997E+02  0.45594000000E+02  0.51100000000E-03 0. -1.
    9900012    2    1    2    0    0  0.41038535670E+02 -0.16224220385E+02 -0.90402826634E+01  0.46142318213E+02  0.10000004121E+02 0.  0.
         12    1    1    2    0    0 -0.41038535670E+02  0.16224220385E+02  0.90402826634E+01  0.45045681787E+02  0.00000000000E+00 0. -1.
         11    1    3    3    0    0  0.17323264323E+02 -0.44846954101E+01 -0.12263065009E+01  0.17936326481E+02  0.51100000000E-03 0. -1.
        -11    1    3    3    0    0  0.22031590425E+02 -0.88550436150E+01 -0.71808561706E+01  0.24806601333E+02  0.51100000000E-03 0.  1.
         12    1    3    3    0    0  0.16836809209E+01 -0.28844813598E+01 -0.63311999191E+00  0.33993903987E+01  0.00000000000E+00 0. -1.
</event>
<event>
 7    1  0.3046295E-009  0.4614232E+02  0.7816164E-02  0.1320468E+00
        -11   -1    0    0    0    0  0.00000000000E+00  0.00000000000E+00  0.45593999997E+02  0.45594000000E+02  0.51100000000E-03 0. -1.
         11   -1    0    0    0    0 -0.00000000000E+00 -0.00000000000E+00 -0.45593999997E+02  0.45594000000E+02  0.51100000000E-03 0.  1.
    9900012    2    1    2    0    0 -0.27739030703E+02 -0.26695867254E+02 -0.23387825641E+02  0.46142317177E+02  0.99999946763E+01 0.  0.
         12    1    1    2    0    0  0.27739030703E+02  0.26695867254E+02  0.23387825641E+02  0.45045682823E+02  0.00000000000E+00 0. -1.
         11    1    3    3    0    0 -0.15315993014E+02 -0.99826282696E+01 -0.10703630198E+02  0.21184905212E+02  0.51100000000E-03 0. -1.
        -11    1    3    3    0    0 -0.11305864149E+02 -0.11660433675E+02 -0.10502832991E+02  0.19341607449E+02  0.51100000000E-03 0.  1.
         12    1    3    3    0    0 -0.11171735403E+01 -0.50528053093E+01 -0.21813624519E+01  0.56158045158E+01  0.00000000000E+00 0. -1.
</event>
<event>
 7    1  0.3046295E-009  0.4614232E+02  0.7816164E-02  0.1320468E+00
        -11   -1    0    0    0    0  0.00000000000E+00  0.00000000000E+00  0.45593999997E+02  0.45594000000E+02  0.51100000000E-03 0. -1.
         11   -1    0    0    0    0 -0.00000000000E+00 -0.00000000000E+00 -0.45593999997E+02  0.45594000000E+02  0.51100000000E-03 0.  1.
    9900012    2    1    2    0    0 -0.38033803437E+02  0.22941886607E+02  0.74975419449E+01  0.46142317630E+02  0.99999988075E+01 0.  0.
         12    1    1    2    0    0  0.38033803437E+02 -0.22941886607E+02 -0.74975419449E+01  0.45045682370E+02  0.00000000000E+00 0. -1.
         11    1    3    3    0    0 -0.38260728734E+01  0.37682123192E+01  0.37819555231E+01  0.65682147921E+01  0.51100000000E-03 0. -1.
        -11    1    3    3    0    0 -0.28844026321E+02  0.15688710694E+02  0.44533611886E+01  0.33135267069E+02  0.51100000000E-03 0.  1.
        -12    1    3    3    0    0 -0.53637042428E+01  0.34849635938E+01 -0.73777476687E+00  0.64388357691E+01  0.00000000000E+00 0.  1.
</event>
<event>
 7    1  0.3046295E-009  0.4614232E+02  0.7816164E-02  0.1320468E+00
        -11   -1    0    0    0    0  0.00000000000E+00  0.00000000000E+00  0.45593999997E+02  0.45594000000E+02  0.51100000000E-03 0. -1.
         11   -1    0    0    0    0 -0.00000000000E+00 -0.00000000000E+00 -0.45593999997E+02  0.45594000000E+02  0.51100000000E-03 0.  1.
    9900012    2    1    2    0    0 -0.42926904584E+02  0.18246934042E+01 -0.13530145711E+02  0.46142317786E+02  0.10000000224E+02 0.  0.
         12    1    1    2    0    0  0.42926904584E+02 -0.18246934042E+01  0.13530145711E+02  0.45045682214E+02  0.00000000000E+00 0. -1.
         11    1    3    3    0    0 -0.78102878771E+01  0.12530146513E+01  0.11421703778E+01  0.79921959356E+01  0.51100000000E-03 0. -1.
        -11    1    3    3    0    0 -0.65686067004E+01  0.11051169993E+01 -0.26198924240E+01  0.71576332779E+01  0.51100000000E-03 0.  1.
         12    1    3    3    0    0 -0.28548010007E+02 -0.53343824637E+00 -0.12052423665E+02  0.30992488572E+02  0.00000000000E+00 0. -1.
</event>
<event>
 7    1  0.3046295E-009  0.4614232E+02  0.7816164E-02  0.1320468E+00
        -11   -1    0    0    0    0  0.00000000000E+00  0.00000000000E+00  0.45593999997E+02  0.45594000000E+02  0.51100000000E-03 0.  1.
         11   -1    0    0    0    0 -0.00000000000E+00 -0.00000000000E+00 -0.45593999997E+02  0.45594000000E+02  0.51100000000E-03 0. -1.
    9900012    2    1    2    0    0  0.41732310113E+02  0.15228124167E+02 -0.74586706115E+01  0.46142320515E+02  0.10000025111E+02 0.  0.
         12    1    1    2    0    0 -0.41732310113E+02 -0.15228124167E+02  0.74586706115E+01  0.45045679485E+02  0.00000000000E+00 0. -1.
         11    1    3    3    0    0  0.18175431573E+02  0.28611796843E+01 -0.10225432801E+01  0.18427649256E+02  0.51100000000E-03 0. -1.
        -11    1    3    3    0    0  0.78473080049E+01  0.64643825912E+01 -0.27579180124E+01  0.10534448122E+02  0.51100000000E-03 0.  1.
        -12    1    3    3    0    0  0.15709570534E+02  0.59025618916E+01 -0.36782093189E+01  0.17180223137E+02  0.00000000000E+00 0.  1.
</event>
<event>
 7    1  0.3046295E-009  0.4614232E+02  0.7816164E-02  0.1320468E+00
        -11   -1    0    0    0    0  0.00000000000E+00  0.00000000000E+00  0.45593999997E+02  0.45594000000E+02  0.51100000000E-03 0.  1.
         11   -1    0    0    0    0 -0.00000000000E+00 -0.00000000000E+00 -0.45593999997E+02  0.45594000000E+02  0.51100000000E-03 0. -1.
    9900012    2    1    2    0    0  0.31190131365E+02  0.27856081473E+02  0.16742999142E+02  0.46142316635E+02  0.99999897274E+01 0.  0.
         12    1    1    2    0    0 -0.31190131365E+02 -0.27856081473E+02 -0.16742999142E+02  0.45045683365E+02  0.00000000000E+00 0. -1.
         11    1    3    3    0    0 -0.31217215309E+00  0.69684413597E+00  0.71305007742E+00  0.10447410574E+01  0.51100000000E-03 0. -1.
        -11    1    3    3    0    0  0.14561174224E+02  0.81389440132E+01  0.63661471178E+01  0.17854916236E+02  0.51100000000E-03 0.  1.
        -12    1    3    3    0    0  0.16941129294E+02  0.19020293324E+02  0.96638019466E+01  0.27242659341E+02  0.00000000000E+00 0.  1.
</event>
<event>
 7    1  0.3046295E-009  0.4614232E+02  0.7816164E-02  0.1320468E+00
        -11   -1    0    0    0    0  0.00000000000E+00  0.00000000000E+00  0.45593999997E+02  0.45594000000E+02  0.51100000000E-03 0.  1.
         11   -1    0    0    0    0 -0.00000000000E+00 -0.00000000000E+00 -0.45593999997E+02  0.45594000000E+02  0.51100000000E-03 0. -1.
    9900012    2    1    2    0    0  0.19554777186E+02 -0.96338170514E+01  0.39419715219E+02  0.46142315526E+02  0.99999796171E+01 0.  0.
         12    1    1    2    0    0 -0.19554777186E+02  0.96338170514E+01 -0.39419715219E+02  0.45045684474E+02  0.00000000000E+00 0. -1.
         11    1    3    3    0    0  0.42577769055E+00  0.10176931308E+01  0.40063353497E+01  0.41554433152E+01  0.51100000000E-03 0. -1.
        -11    1    3    3    0    0  0.17393852566E+02 -0.92091617853E+01  0.27909217086E+02  0.34150829661E+02  0.51100000000E-03 0.  1.
        -12    1    3    3    0    0  0.17351469288E+01 -0.14423483969E+01  0.75041627837E+01  0.78360425501E+01  0.00000000000E+00 0.  1.
</event>
<event>
 7    1  0.3046295E-009  0.4614232E+02  0.7816164E-02  0.1320468E+00
        -11   -1    0    0    0    0  0.00000000000E+00  0.00000000000E+00  0.45593999997E+02  0.45594000000E+02  0.51100000000E-03 0.  1.
         11   -1    0    0    0    0 -0.00000000000E+00 -0.00000000000E+00 -0.45593999997E+02  0.45594000000E+02  0.51100000000E-03 0. -1.
    9900012    2    1    2    0    0 -0.38322787070E+01 -0.34676127318E+02  0.28495497225E+02  0.46142317322E+02  0.99999959919E+01 0.  0.
         12    1    1    2    0    0  0.38322787070E+01  0.34676127318E+02 -0.28495497225E+02  0.45045682678E+02  0.00000000000E+00 0. -1.
         11    1    3    3    0    0 -0.14726823887E+01 -0.54919356317E+01  0.80025660659E+00  0.57419997648E+01  0.51100000000E-03 0. -1.
        -11    1    3    3    0    0 -0.21758571403E+01 -0.13837506107E+02  0.11948294602E+02  0.18411210544E+02  0.51100000000E-03 0.  1.
         12    1    3    3    0    0 -0.18373917799E+00 -0.15346685580E+02  0.15746946017E+02  0.21989107013E+02  0.00000000000E+00 0. -1.
</event>
<event>
 7    1  0.3046295E-009  0.4614232E+02  0.7816164E-02  0.1320468E+00
        -11   -1    0    0    0    0  0.00000000000E+00  0.00000000000E+00  0.45593999997E+02  0.45594000000E+02  0.51100000000E-03 0. -1.
         11   -1    0    0    0    0 -0.00000000000E+00 -0.00000000000E+00 -0.45593999997E+02  0.45594000000E+02  0.51100000000E-03 0.  1.
    9900012    2    1    2    0    0  0.33770778346E+02 -0.27921410158E+02 -0.10442356770E+02  0.46142318407E+02  0.10000005888E+02 0.  0.
         12    1    1    2    0    0 -0.33770778346E+02  0.27921410158E+02  0.10442356770E+02  0.45045681593E+02  0.00000000000E+00 0. -1.
         11    1    3    3    0    0 -0.29488524702E+00 -0.79439125486E-01  0.33039540536E+00  0.44992140266E+00  0.51100000000E-03 0. -1.
        -11    1    3    3    0    0  0.58102786229E+01 -0.45246749661E+01  0.44932356266E+00  0.73779342061E+01  0.51100000000E-03 0.  1.
        -12    1    3    3    0    0  0.28255384970E+02 -0.23317296067E+02 -0.11222075738E+02  0.38314462798E+02  0.00000000000E+00 0.  1.
</event>
<event>
 7    1  0.3046295E-009  0.4614232E+02  0.7816164E-02  0.1320468E+00
        -11   -1    0    0    0    0  0.00000000000E+00  0.00000000000E+00  0.45593999997E+02  0.45594000000E+02  0.51100000000E-03 0.  1.
         11   -1    0    0    0    0 -0.00000000000E+00 -0.00000000000E+00 -0.45593999997E+02  0.45594000000E+02  0.51100000000E-03 0. -1.
    9900012    2    1    2    0    0  0.42276669968E+02 -0.31076033700E+01  0.15236124068E+02  0.46142317645E+02  0.99999989386E+01 0.  0.
         12    1    1    2    0    0 -0.42276669968E+02  0.31076033700E+01 -0.15236124068E+02  0.45045682355E+02  0.00000000000E+00 0. -1.
         11    1    3    3    0    0  0.24668095019E+02  0.38977995692E-01  0.86999155901E+01  0.26157311840E+02  0.51100000000E-03 0.  1.
        -11    1    3    3    0    0  0.10957408779E+02  0.12551193693E+00  0.61420754940E+01  0.12562071964E+02  0.51100000000E-03 0. -1.
         12    1    3    3    0    0  0.66511661695E+01 -0.32720933026E+01  0.39413298360E+00  0.74229338407E+01  0.00000000000E+00 0. -1.
</event>
<event>
 7    1  0.3046295E-009  0.4614232E+02  0.7816164E-02  0.1320468E+00
        -11   -1    0    0    0    0  0.00000000000E+00  0.00000000000E+00  0.45593999997E+02  0.45594000000E+02  0.51100000000E-03 0.  1.
         11   -1    0    0    0    0 -0.00000000000E+00 -0.00000000000E+00 -0.45593999997E+02  0.45594000000E+02  0.51100000000E-03 0. -1.
    9900012    2    1    2    0    0 -0.32206979438E+02  0.14503102236E+02  0.27955036833E+02  0.46142316707E+02  0.99999903884E+01 0.  0.
         12    1    1    2    0    0  0.32206979438E+02 -0.14503102236E+02 -0.27955036833E+02  0.45045683293E+02  0.00000000000E+00 0. -1.
         11    1    3    3    0    0 -0.28943193426E+01  0.31433552489E+01  0.70352429595E+01  0.82311852390E+01  0.51100000000E-03 0. -1.
        -11    1    3    3    0    0 -0.11382029799E+02  0.51206291947E+01  0.65089448870E+01  0.14076143275E+02  0.51100000000E-03 0.  1.
         12    1    3    3    0    0 -0.17930630296E+02  0.62391177928E+01  0.14410848987E+02  0.23834988193E+02  0.00000000000E+00 0. -1.
</event>
<event>
 7    1  0.3046295E-009  0.4614232E+02  0.7816164E-02  0.1320468E+00
        -11   -1    0    0    0    0  0.00000000000E+00  0.00000000000E+00  0.45593999997E+02  0.45594000000E+02  0.51100000000E-03 0.  1.
         11   -1    0    0    0    0 -0.00000000000E+00 -0.00000000000E+00 -0.45593999997E+02  0.45594000000E+02  0.51100000000E-03 0. -1.
    9900012    2    1    2    0    0 -0.34460809185E+02 -0.49333842022E+01  0.28587197661E+02  0.46142317416E+02  0.99999968502E+01 0.  0.
         12    1    1    2    0    0  0.34460809185E+02  0.49333842022E+01 -0.28587197661E+02  0.45045682584E+02  0.00000000000E+00 0. -1.
         11    1    3    3    0    0 -0.42154642728E+01  0.14614793501E+01  0.16416364734E+01  0.47540542170E+01  0.51100000000E-03 0. -1.
        -11    1    3    3    0    0 -0.10276096307E+02 -0.45993992625E+01  0.11354592277E+02  0.15989977953E+02  0.51100000000E-03 0.  1.
         12    1    3    3    0    0 -0.19969248605E+02 -0.17954642898E+01  0.15590968910E+02  0.25398285246E+02  0.00000000000E+00 0. -1.
</event>
<event>
 7    1  0.3046295E-009  0.4614232E+02  0.7816164E-02  0.1320468E+00
        -11   -1    0    0    0    0  0.00000000000E+00  0.00000000000E+00  0.45593999997E+02  0.45594000000E+02  0.51100000000E-03 0.  1.
         11   -1    0    0    0    0 -0.00000000000E+00 -0.00000000000E+00 -0.45593999997E+02  0.45594000000E+02  0.51100000000E-03 0. -1.
    9900012    2    1    2    0    0  0.25952697788E+02  0.56100541941E+00  0.36813804792E+02  0.46142317934E+02  0.10000001579E+02 0.  0.
         12    1    1    2    0    0 -0.25952697788E+02 -0.56100541941E+00 -0.36813804792E+02  0.45045682066E+02  0.00000000000E+00 0. -1.
         11    1    3    3    0    0  0.56042184879E+01  0.27017587835E+01  0.63443813742E+01  0.88858280800E+01  0.51100000000E-03 0. -1.
        -11    1    3    3    0    0  0.10670069354E+02  0.20946395905E+01  0.15666673566E+02  0.19070462918E+02  0.51100000000E-03 0.  1.
         12    1    3    3    0    0  0.96784099459E+01 -0.42353929546E+01  0.14802749852E+02  0.18186026936E+02  0.00000000000E+00 0. -1.
</event>
<event>
 7    1  0.3046295E-009  0.4614232E+02  0.7816164E-02  0.1320468E+00
        -11   -1    0    0    0    0  0.00000000000E+00  0.00000000000E+00  0.45593999997E+02  0.45594000000E+02  0.51100000000E-03 0.  1.
         11   -1    0    0    0    0 -0.00000000000E+00 -0.00000000000E+00 -0.45593999997E+02  0.45594000000E+02  0.51100000000E-03 0. -1.
    9900012    2    1    2    0    0  0.19927240489E+02  0.40373986891E+02  0.13999175051E+01  0.46142317632E+02  0.99999988214E+01 0.  0.
         12    1    1    2    0    0 -0.19927240489E+02 -0.40373986891E+02 -0.13999175051E+01  0.45045682368E+02  0.00000000000E+00 0. -1.
         11    1    3    3    0    0  0.89717304696E+01  0.19575871026E+02 -0.14715288609E+01  0.21584069855E+02  0.51100000000E-03 0. -1.
        -11    1    3    3    0    0  0.11178159043E+02  0.15664379830E+02  0.20184960812E+01  0.19349376263E+02  0.51100000000E-03 0.  1.
         12    1    3    3    0    0 -0.22264902420E+00  0.51337360352E+01  0.85295028480E+00  0.52088715146E+01  0.00000000000E+00 0. -1.
</event>
<event>
 7    1  0.3046295E-009  0.4614232E+02  0.7816164E-02  0.1320468E+00
        -11   -1    0    0    0    0  0.00000000000E+00  0.00000000000E+00  0.45593999997E+02  0.45594000000E+02  0.51100000000E-03 0. -1.
         11   -1    0    0    0    0 -0.00000000000E+00 -0.00000000000E+00 -0.45593999997E+02  0.45594000000E+02  0.51100000000E-03 0.  1.
    9900012    2    1    2    0    0  0.41348267090E+02 -0.16770432844E+02  0.61795504624E+01  0.46142318153E+02  0.10000003576E+02 0.  0.
         12    1    1    2    0    0 -0.41348267090E+02  0.16770432844E+02 -0.61795504624E+01  0.45045681847E+02  0.00000000000E+00 0. -1.
         11    1    3    3    0    0  0.13394230938E+02 -0.75126935005E+01  0.30522478941E+01  0.15657656386E+02  0.51100000000E-03 0. -1.
        -11    1    3    3    0    0  0.27152600232E+02 -0.77786107133E+01  0.41008455776E+01  0.28540977886E+02  0.51100000000E-03 0.  1.
         12    1    3    3    0    0  0.80143592103E+00 -0.14791286298E+01 -0.97354300927E+00  0.19436838812E+01  0.00000000000E+00 0. -1.
</event>
<event>
 7    1  0.3046295E-009  0.4614232E+02  0.7816164E-02  0.1320468E+00
        -11   -1    0    0    0    0  0.00000000000E+00  0.00000000000E+00  0.45593999997E+02  0.45594000000E+02  0.51100000000E-03 0.  1.
         11   -1    0    0    0    0 -0.00000000000E+00 -0.00000000000E+00 -0.45593999997E+02  0.45594000000E+02  0.51100000000E-03 0. -1.
    9900012    2    1    2    0    0  0.12386046107E+02 -0.13485411564E+02  0.41156320186E+02  0.46142321468E+02  0.10000033798E+02 0.  0.
         12    1    1    2    0    0 -0.12386046107E+02  0.13485411564E+02 -0.41156320186E+02  0.45045678532E+02  0.00000000000E+00 0. -1.
         11    1    3    3    0    0  0.27272996528E+01  0.12842675481E+00  0.55222306207E+01  0.61603318187E+01  0.51100000000E-03 0. -1.
        -11    1    3    3    0    0  0.17356373924E+01 -0.93114256951E+00  0.89994225018E+00  0.21654930057E+01  0.51100000000E-03 0.  1.
        -12    1    3    3    0    0  0.79231090619E+01 -0.12682695750E+02  0.34734147315E+02  0.37816496643E+02  0.00000000000E+00 0.  1.
</event>
<event>
 7    1  0.3046295E-009  0.4614232E+02  0.7816164E-02  0.1320468E+00
        -11   -1    0    0    0    0  0.00000000000E+00  0.00000000000E+00  0.45593999997E+02  0.45594000000E+02  0.51100000000E-03 0. -1.
         11   -1    0    0    0    0 -0.00000000000E+00 -0.00000000000E+00 -0.45593999997E+02  0.45594000000E+02  0.51100000000E-03 0.  1.
    9900012    2    1    2    0    0 -0.22104128109E+02 -0.11743200463E+02 -0.37451545547E+02  0.46142317628E+02  0.99999987851E+01 0.  0.
         12    1    1    2    0    0  0.22104128109E+02  0.11743200463E+02  0.37451545547E+02  0.45045682372E+02  0.00000000000E+00 0. -1.
         11    1    3    3    0    0 -0.11689108327E+01  0.36118257378E+00 -0.12106413185E+01  0.17211792613E+01  0.51100000000E-03 0. -1.
        -11    1    3    3    0    0 -0.11186485264E+02 -0.15878368387E+01 -0.14622605549E+02  0.18479157765E+02  0.51100000000E-03 0.  1.
        -12    1    3    3    0    0 -0.97487320113E+01 -0.10516546198E+02 -0.21618298679E+02  0.25941980601E+02  0.00000000000E+00 0.  1.
</event>
<event>
 7    1  0.3046295E-009  0.4614232E+02  0.7816164E-02  0.1320468E+00
        -11   -1    0    0    0    0  0.00000000000E+00  0.00000000000E+00  0.45593999997E+02  0.45594000000E+02  0.51100000000E-03 0.  1.
         11   -1    0    0    0    0 -0.00000000000E+00 -0.00000000000E+00 -0.45593999997E+02  0.45594000000E+02  0.51100000000E-03 0. -1.
    9900012    2    1    2    0    0  0.86765603297E+01  0.13907348377E+02  0.41957317036E+02  0.46142317733E+02  0.99999997443E+01 0.  0.
         12    1    1    2    0    0 -0.86765603297E+01 -0.13907348377E+02 -0.41957317036E+02  0.45045682267E+02  0.00000000000E+00 0. -1.
         11    1    3    3    0    0  0.77722208402E+01  0.51195000182E+01  0.21990204109E+02  0.23878563069E+02  0.51100000000E-03 0. -1.
        -11    1    3    3    0    0 -0.72451884070E-01  0.91381580992E+00  0.70143976003E+01  0.70740428728E+01  0.51100000000E-03 0.  1.
         12    1    3    3    0    0  0.97679137359E+00  0.78740325487E+01  0.12952715327E+02  0.15189711791E+02  0.00000000000E+00 0. -1.
</event>
<event>
 7    1  0.3046295E-009  0.4614232E+02  0.7816164E-02  0.1320468E+00
        -11   -1    0    0    0    0  0.00000000000E+00  0.00000000000E+00  0.45593999997E+02  0.45594000000E+02  0.51100000000E-03 0.  1.
         11   -1    0    0    0    0 -0.00000000000E+00 -0.00000000000E+00 -0.45593999997E+02  0.45594000000E+02  0.51100000000E-03 0. -1.
    9900012    2    1    2    0    0  0.26274151720E+02  0.21469427510E+02  0.29628465185E+02  0.46142319680E+02  0.10000017501E+02 0.  0.
         12    1    1    2    0    0 -0.26274151720E+02 -0.21469427510E+02 -0.29628465185E+02  0.45045680320E+02  0.00000000000E+00 0. -1.
         11    1    3    3    0    0  0.89368184055E+01  0.50942956235E+01  0.65270768628E+01  0.12182828233E+02  0.51100000000E-03 0. -1.
        -11    1    3    3    0    0  0.20391819237E+01  0.59489317520E+01  0.46466515899E+01  0.78191702352E+01  0.51100000000E-03 0.  1.
        -12    1    3    3    0    0  0.15298151391E+02  0.10426200135E+02  0.18454736733E+02  0.26140321213E+02  0.00000000000E+00 0.  1.
</event>
<event>
 7    1  0.3046295E-009  0.4614232E+02  0.7816164E-02  0.1320468E+00
        -11   -1    0    0    0    0  0.00000000000E+00  0.00000000000E+00  0.45593999997E+02  0.45594000000E+02  0.51100000000E-03 0. -1.
         11   -1    0    0    0    0 -0.00000000000E+00 -0.00000000000E+00 -0.45593999997E+02  0.45594000000E+02  0.51100000000E-03 0.  1.
    9900012    2    1    2    0    0 -0.10457585665E+02  0.36321293146E+02 -0.24505425793E+02  0.46142319552E+02  0.10000016328E+02 0.  0.
         12    1    1    2    0    0  0.10457585665E+02 -0.36321293146E+02  0.24505425793E+02  0.45045680448E+02  0.00000000000E+00 0. -1.
         11    1    3    3    0    0 -0.53561497712E+01  0.30849534514E+02 -0.19155712844E+02  0.36705904905E+02  0.51100000000E-03 0. -1.
        -11    1    3    3    0    0 -0.84239926944E+00  0.74224260831E-01 -0.95863860299E+00  0.12783325085E+01  0.51100000000E-03 0.  1.
         12    1    3    3    0    0 -0.42590366241E+01  0.53975343716E+01 -0.43910743462E+01  0.81580821381E+01  0.00000000000E+00 0. -1.
</event>
<event>
 7    1  0.3046295E-009  0.4614232E+02  0.7816164E-02  0.1320468E+00
        -11   -1    0    0    0    0  0.00000000000E+00  0.00000000000E+00  0.45593999997E+02  0.45594000000E+02  0.51100000000E-03 0.  1.
         11   -1    0    0    0    0 -0.00000000000E+00 -0.00000000000E+00 -0.45593999997E+02  0.45594000000E+02  0.51100000000E-03 0. -1.
    9900012    2    1    2    0    0 -0.15256692721E+00  0.18303039332E+02  0.41159311309E+02  0.46142318377E+02  0.10000005615E+02 0.  0.
         12    1    1    2    0    0  0.15256692721E+00 -0.18303039332E+02 -0.41159311309E+02  0.45045681623E+02  0.00000000000E+00 0. -1.
         11    1    3    3    0    0  0.32133209844E+01  0.12306834419E+02  0.25851814400E+02  0.28811454548E+02  0.51100000000E-03 0. -1.
        -11    1    3    3    0    0 -0.24932690981E+01  0.48125900460E+01  0.14822568604E+02  0.15782457161E+02  0.51100000000E-03 0.  1.
         12    1    3    3    0    0 -0.87261881350E+00  0.11836148671E+01  0.48492830490E+00  0.15484066676E+01  0.00000000000E+00 0. -1.
</event>
<event>
 7    1  0.3046295E-009  0.4614232E+02  0.7816164E-02  0.1320468E+00
        -11   -1    0    0    0    0  0.00000000000E+00  0.00000000000E+00  0.45593999997E+02  0.45594000000E+02  0.51100000000E-03 0.  1.
         11   -1    0    0    0    0 -0.00000000000E+00 -0.00000000000E+00 -0.45593999997E+02  0.45594000000E+02  0.51100000000E-03 0. -1.
    9900012    2    1    2    0    0  0.40964118890E+02 -0.18204137674E+02  0.44343839902E+01  0.46142318450E+02  0.10000006285E+02 0.  0.
         12    1    1    2    0    0 -0.40964118890E+02  0.18204137674E+02 -0.44343839902E+01  0.45045681550E+02  0.00000000000E+00 0. -1.
         11    1    3    3    0    0  0.34048334596E+01 -0.10208892658E+01 -0.23028790387E+01  0.42353698668E+01  0.51100000000E-03 0. -1.
        -11    1    3    3    0    0  0.60012213135E+01 -0.22621890497E+01  0.37684621787E+00  0.64244976366E+01  0.51100000000E-03 0.  1.
         12    1    3    3    0    0  0.31558064117E+02 -0.14921059358E+02  0.63604168110E+01  0.35482450947E+02  0.00000000000E+00 0. -1.
</event>
<event>
 7    1  0.3046295E-009  0.4614232E+02  0.7816164E-02  0.1320468E+00
        -11   -1    0    0    0    0  0.00000000000E+00  0.00000000000E+00  0.45593999997E+02  0.45594000000E+02  0.51100000000E-03 0. -1.
         11   -1    0    0    0    0 -0.00000000000E+00 -0.00000000000E+00 -0.45593999997E+02  0.45594000000E+02  0.51100000000E-03 0.  1.
    9900012    2    1    2    0    0 -0.12876630354E+02  0.41321482349E+02 -0.12483632213E+02  0.46142316677E+02  0.99999901167E+01 0.  0.
         12    1    1    2    0    0  0.12876630354E+02 -0.41321482349E+02  0.12483632213E+02  0.45045683323E+02  0.00000000000E+00 0. -1.
         11    1    3    3    0    0 -0.15316402795E+01  0.11167443083E+01 -0.90879883873E+00  0.21021311535E+01  0.51100000000E-03 0.  1.
        -11    1    3    3    0    0  0.14065974384E+00  0.11720101190E+02 -0.21766983974E+01  0.11921349473E+02  0.51100000000E-03 0. -1.
        -12    1    3    3    0    0 -0.11485649818E+02  0.28484636851E+02 -0.93981349767E+01  0.32118836051E+02  0.00000000000E+00 0.  1.
</event>
<event>
 7    1  0.3046295E-009  0.4614232E+02  0.7816164E-02  0.1320468E+00
        -11   -1    0    0    0    0  0.00000000000E+00  0.00000000000E+00  0.45593999997E+02  0.45594000000E+02  0.51100000000E-03 0.  1.
         11   -1    0    0    0    0 -0.00000000000E+00 -0.00000000000E+00 -0.45593999997E+02  0.45594000000E+02  0.51100000000E-03 0. -1.
    9900012    2    1    2    0    0  0.27350538902E+01 -0.44855501275E+02  0.31011285007E+01  0.46142317494E+02  0.99999975648E+01 0.  0.
         12    1    1    2    0    0 -0.27350538902E+01  0.44855501275E+02 -0.31011285007E+01  0.45045682506E+02  0.00000000000E+00 0. -1.
         11    1    3    3    0    0  0.14059471780E+01 -0.22123771221E+02 -0.64354426100E+00  0.22177738613E+02  0.51100000000E-03 0. -1.
        -11    1    3    3    0    0 -0.30158017664E+00 -0.21312151254E+02  0.24754974372E+01  0.21457558797E+02  0.51100000000E-03 0.  1.
        -12    1    3    3    0    0  0.16306868888E+01 -0.14195787998E+01  0.12691753246E+01  0.25070200842E+01  0.00000000000E+00 0.  1.
</event>
<event>
 7    1  0.3046295E-009  0.4614232E+02  0.7816164E-02  0.1320468E+00
        -11   -1    0    0    0    0  0.00000000000E+00  0.00000000000E+00  0.45593999997E+02  0.45594000000E+02  0.51100000000E-03 0.  1.
         11   -1    0    0    0    0 -0.00000000000E+00 -0.00000000000E+00 -0.45593999997E+02  0.45594000000E+02  0.51100000000E-03 0. -1.
    9900012    2    1    2    0    0 -0.26041254002E+02  0.34629802111E+02  0.12318415697E+02  0.46142317970E+02  0.10000001908E+02 0.  0.
         12    1    1    2    0    0  0.26041254002E+02 -0.34629802111E+02 -0.12318415697E+02  0.45045682030E+02  0.00000000000E+00 0. -1.
         11    1    3    3    0    0 -0.64071562526E+01  0.59483654155E+01  0.42276117596E+01  0.97111999162E+01  0.51100000000E-03 0. -1.
        -11    1    3    3    0    0 -0.44852658993E+01  0.12675448616E+02  0.38808596546E+01  0.13994487477E+02  0.51100000000E-03 0.  1.
        -12    1    3    3    0    0 -0.15148831851E+02  0.16005988079E+02  0.42099442824E+01  0.22436630578E+02  0.00000000000E+00 0.  1.
</event>
<event>
 7    1  0.3046295E-009  0.4614232E+02  0.7816164E-02  0.1320468E+00
        -11   -1    0    0    0    0  0.00000000000E+00  0.00000000000E+00  0.45593999997E+02  0.45594000000E+02  0.51100000000E-03 0. -1.
         11   -1    0    0    0    0 -0.00000000000E+00 -0.00000000000E+00 -0.45593999997E+02  0.45594000000E+02  0.51100000000E-03 0.  1.
    9900012    2    1    2    0    0 -0.27880925399E+02  0.20741938132E+02 -0.28662502923E+02  0.46142322378E+02  0.10000042104E+02 0.  0.
         12    1    1    2    0    0  0.27880925399E+02 -0.20741938132E+02  0.28662502923E+02  0.45045677622E+02  0.00000000000E+00 0. -1.
         11    1    3    3    0    0 -0.20677079484E+02  0.13995538548E+02 -0.21133414542E+02  0.32711434174E+02  0.51100000000E-03 0. -1.
        -11    1    3    3    0    0 -0.77361278511E+01  0.59528795630E+01 -0.55392761635E+01  0.11223548008E+02  0.51100000000E-03 0.  1.
         12    1    3    3    0    0  0.53228193578E+00  0.79352002103E+00 -0.19898122169E+01  0.22073401962E+01  0.00000000000E+00 0. -1.
</event>
<event>
 7    1  0.3046295E-009  0.4614232E+02  0.7816164E-02  0.1320468E+00
        -11   -1    0    0    0    0  0.00000000000E+00  0.00000000000E+00  0.45593999997E+02  0.45594000000E+02  0.51100000000E-03 0.  1.
         11   -1    0    0    0    0 -0.00000000000E+00 -0.00000000000E+00 -0.45593999997E+02  0.45594000000E+02  0.51100000000E-03 0. -1.
    9900012    2    1    2    0    0 -0.13924624938E+02  0.36058380567E+02  0.23130314966E+02  0.46142318085E+02  0.10000002952E+02 0.  0.
         12    1    1    2    0    0  0.13924624938E+02 -0.36058380567E+02 -0.23130314966E+02  0.45045681915E+02  0.00000000000E+00 0. -1.
         11    1    3    3    0    0  0.78412458572E+00  0.12822846857E+01  0.21815401921E+01  0.26491929435E+01  0.51100000000E-03 0. -1.
        -11    1    3    3    0    0 -0.77229716535E+01  0.19059064830E+02  0.14326306060E+02  0.25062627336E+02  0.51100000000E-03 0.  1.
        -12    1    3    3    0    0 -0.69857778704E+01  0.15717031051E+02  0.66224687142E+01  0.18430497806E+02  0.00000000000E+00 0.  1.
</event>
<event>
 7    1  0.3046295E-009  0.4614232E+02  0.7816164E-02  0.1320468E+00
        -11   -1    0    0    0    0  0.00000000000E+00  0.00000000000E+00  0.45593999997E+02  0.45594000000E+02  0.51100000000E-03 0. -1.
         11   -1    0    0    0    0 -0.00000000000E+00 -0.00000000000E+00 -0.45593999997E+02  0.45594000000E+02  0.51100000000E-03 0.  1.
    9900012    2    1    2    0    0  0.94268098450E+01  0.43978329022E+02  0.24809950726E+01  0.46142317588E+02  0.99999984232E+01 0.  0.
         12    1    1    2    0    0 -0.94268098450E+01 -0.43978329022E+02 -0.24809950726E+01  0.45045682412E+02  0.00000000000E+00 0. -1.
         11    1    3    3    0    0  0.71522165381E+01  0.15480140753E+02  0.76586295293E+00  0.17069724821E+02  0.51100000000E-03 0.  1.
        -11    1    3    3    0    0  0.26918495235E+01  0.70523484029E+01  0.95984945644E+00  0.76094009681E+01  0.51100000000E-03 0. -1.
         12    1    3    3    0    0 -0.41725621671E+00  0.21445839866E+02  0.75528266323E+00  0.21463191800E+02  0.00000000000E+00 0. -1.
</event>
<event>
 7    1  0.3046295E-009  0.4614232E+02  0.7816164E-02  0.1320468E+00
        -11   -1    0    0    0    0  0.00000000000E+00  0.00000000000E+00  0.45593999997E+02  0.45594000000E+02  0.51100000000E-03 0. -1.
         11   -1    0    0    0    0 -0.00000000000E+00 -0.00000000000E+00 -0.45593999997E+02  0.45594000000E+02  0.51100000000E-03 0.  1.
    9900012    2    1    2    0    0  0.15006183154E+01 -0.29313939973E+01 -0.44925143856E+02  0.46142317892E+02  0.10000001192E+02 0.  0.
         12    1    1    2    0    0 -0.15006183154E+01  0.29313939973E+01  0.44925143856E+02  0.45045682108E+02  0.00000000000E+00 0. -1.
         11    1    3    3    0    0 -0.16060340956E+01  0.10819177178E+01 -0.68777883376E+01  0.71451986775E+01  0.51100000000E-03 0. -1.
        -11    1    3    3    0    0  0.77917862552E-01 -0.27791209771E+01 -0.44920958436E+01  0.52828505494E+01  0.51100000000E-03 0.  1.
        -12    1    3    3    0    0  0.30287345484E+01 -0.12341907380E+01 -0.33555259675E+02  0.33714268665E+02  0.00000000000E+00 0.  1.
</event>
<event>
 7    1  0.3046295E-009  0.4614232E+02  0.7816164E-02  0.1320468E+00
        -11   -1    0    0    0    0  0.00000000000E+00  0.00000000000E+00  0.45593999997E+02  0.45594000000E+02  0.51100000000E-03 0.  1.
         11   -1    0    0    0    0 -0.00000000000E+00 -0.00000000000E+00 -0.45593999997E+02  0.45594000000E+02  0.51100000000E-03 0. -1.
    9900012    2    1    2    0    0 -0.13792673665E+01  0.21923779687E+02  0.39326311658E+02  0.46142320043E+02  0.10000020805E+02 0.  0.
         12    1    1    2    0    0  0.13792673665E+01 -0.21923779687E+02 -0.39326311658E+02  0.45045679957E+02  0.00000000000E+00 0. -1.
         11    1    3    3    0    0  0.29246343152E+01  0.82771971854E+01  0.16281973619E+02  0.18497787552E+02  0.51100000000E-03 0.  1.
        -11    1    3    3    0    0 -0.10690621473E+01  0.10659784025E+02  0.18019162956E+02  0.20963399611E+02  0.51100000000E-03 0. -1.
         12    1    3    3    0    0 -0.32348395344E+01  0.29867984767E+01  0.50251750826E+01  0.66811328803E+01  0.00000000000E+00 0. -1.
</event>
<event>
 7    1  0.5476844E-009  0.4614232E+02  0.7816164E-02  0.1320468E+00
        -11   -1    0    0    0    0  0.00000000000E+00  0.00000000000E+00  0.45593999997E+02  0.45594000000E+02  0.51100000000E-03 0. -1.
         11   -1    0    0    0    0 -0.00000000000E+00 -0.00000000000E+00 -0.45593999997E+02  0.45594000000E+02  0.51100000000E-03 0.  1.
    9900012    2    1    2    0    0  0.39606229444E+02 -0.95472671305E+01 -0.19217439732E+02  0.46142315298E+02  0.99999775357E+01 0.  0.
         12    1    1    2    0    0 -0.39606229444E+02  0.95472671305E+01  0.19217439732E+02  0.45045684702E+02  0.00000000000E+00 0. -1.
         11    1    3    3    0    0  0.14024498960E+02 -0.31371193354E+01 -0.27635130472E+01  0.14634380528E+02  0.51100000000E-03 0. -1.
        -11    1    3    3    0    0  0.25818950730E+02 -0.64745436997E+01 -0.16364560837E+02  0.31246388344E+02  0.51100000000E-03 0.  1.
        -12    1    3    3    0    0 -0.23722024628E+00  0.64395904593E-01 -0.89365848402E-01  0.26154642539E+00  0.00000000000E+00 0.  1.
</event>
<event>
 7    1  0.3046295E-009  0.4614232E+02  0.7816164E-02  0.1320468E+00
        -11   -1    0    0    0    0  0.00000000000E+00  0.00000000000E+00  0.45593999997E+02  0.45594000000E+02  0.51100000000E-03 0.  1.
         11   -1    0    0    0    0 -0.00000000000E+00 -0.00000000000E+00 -0.45593999997E+02  0.45594000000E+02  0.51100000000E-03 0. -1.
    9900012    2    1    2    0    0 -0.15612712178E+02  0.12978420777E+02  0.40210911291E+02  0.46142316808E+02  0.99999913052E+01 0.  0.
         12    1    1    2    0    0  0.15612712178E+02 -0.12978420777E+02 -0.40210911291E+02  0.45045683192E+02  0.00000000000E+00 0. -1.
         11    1    3    3    0    0  0.27597552163E+00  0.58063323382E+00  0.89711429941E+00  0.11036810083E+01  0.51100000000E-03 0. -1.
        -11    1    3    3    0    0 -0.33569195872E+01  0.37754408972E+01  0.35508923183E+01  0.61750870116E+01  0.51100000000E-03 0.  1.
        -12    1    3    3    0    0 -0.12531768113E+02  0.86223466455E+01  0.35762904673E+02  0.38863548788E+02  0.00000000000E+00 0.  1.
</event>
<event>
 7    1  0.3046295E-009  0.4614232E+02  0.7816164E-02  0.1320468E+00
        -11   -1    0    0    0    0  0.00000000000E+00  0.00000000000E+00  0.45593999997E+02  0.45594000000E+02  0.51100000000E-03 0.  1.
         11   -1    0    0    0    0 -0.00000000000E+00 -0.00000000000E+00 -0.45593999997E+02  0.45594000000E+02  0.51100000000E-03 0. -1.
    9900012    2    1    2    0    0  0.14374187177E+01 -0.24078528470E+02  0.38043025287E+02  0.46142317867E+02  0.10000000969E+02 0.  0.
         12    1    1    2    0    0 -0.14374187177E+01  0.24078528470E+02 -0.38043025287E+02  0.45045682133E+02  0.00000000000E+00 0. -1.
         11    1    3    3    0    0  0.70916253404E+00  0.42946983499E-02  0.34167585323E+00  0.78719285688E+00  0.51100000000E-03 0. -1.
        -11    1    3    3    0    0 -0.11786343211E+01 -0.20704899264E+02  0.34801348820E+02  0.40511923089E+02  0.51100000000E-03 0.  1.
        -12    1    3    3    0    0  0.19068905048E+01 -0.33779239040E+01  0.29000006135E+01  0.48432019220E+01  0.00000000000E+00 0.  1.
</event>
<event>
 7    1  0.3046295E-009  0.4614232E+02  0.7816164E-02  0.1320468E+00
        -11   -1    0    0    0    0  0.00000000000E+00  0.00000000000E+00  0.45593999997E+02  0.45594000000E+02  0.51100000000E-03 0. -1.
         11   -1    0    0    0    0 -0.00000000000E+00 -0.00000000000E+00 -0.45593999997E+02  0.45594000000E+02  0.51100000000E-03 0.  1.
    9900012    2    1    2    0    0 -0.29024718688E+02 -0.29538324539E+02 -0.17724744300E+02  0.46142317943E+02  0.10000001658E+02 0.  0.
         12    1    1    2    0    0  0.29024718688E+02  0.29538324539E+02  0.17724744300E+02  0.45045682057E+02  0.00000000000E+00 0. -1.
         11    1    3    3    0    0 -0.36755882497E+01 -0.37790685768E+00 -0.19171619368E+01  0.41627241954E+01  0.51100000000E-03 0. -1.
        -11    1    3    3    0    0 -0.46879177758E+01 -0.51002613566E+01 -0.47230664099E+01  0.83843065039E+01  0.51100000000E-03 0.  1.
         12    1    3    3    0    0 -0.20661212662E+02 -0.24060156325E+02 -0.11084515953E+02  0.33595287244E+02  0.00000000000E+00 0. -1.
</event>
<event>
 7    1  0.3046295E-009  0.4614232E+02  0.7816164E-02  0.1320468E+00
        -11   -1    0    0    0    0  0.00000000000E+00  0.00000000000E+00  0.45593999997E+02  0.45594000000E+02  0.51100000000E-03 0. -1.
         11   -1    0    0    0    0 -0.00000000000E+00 -0.00000000000E+00 -0.45593999997E+02  0.45594000000E+02  0.51100000000E-03 0.  1.
    9900012    2    1    2    0    0 -0.35616969874E+02  0.23253045747E+02  0.14827027941E+02  0.46142318330E+02  0.10000005190E+02 0.  0.
         12    1    1    2    0    0  0.35616969874E+02 -0.23253045747E+02 -0.14827027941E+02  0.45045681670E+02  0.00000000000E+00 0. -1.
         11    1    3    3    0    0 -0.37386820946E+01  0.46620043464E+01  0.23368418555E+01  0.64166080174E+01  0.51100000000E-03 0. -1.
        -11    1    3    3    0    0 -0.11710553565E+02  0.81035219575E+01  0.86779538717E+01  0.16676660834E+02  0.51100000000E-03 0.  1.
        -12    1    3    3    0    0 -0.20167734215E+02  0.10487519443E+02  0.38122322133E+01  0.23049049479E+02  0.00000000000E+00 0.  1.
</event>
<event>
 7    1  0.3046295E-009  0.4614232E+02  0.7816164E-02  0.1320468E+00
        -11   -1    0    0    0    0  0.00000000000E+00  0.00000000000E+00  0.45593999997E+02  0.45594000000E+02  0.51100000000E-03 0.  1.
         11   -1    0    0    0    0 -0.00000000000E+00 -0.00000000000E+00 -0.45593999997E+02  0.45594000000E+02  0.51100000000E-03 0. -1.
    9900012    2    1    2    0    0  0.34084212818E+02 -0.16265033962E+02  0.24552567584E+02  0.46142317985E+02  0.10000002042E+02 0.  0.
         12    1    1    2    0    0 -0.34084212818E+02  0.16265033962E+02 -0.24552567584E+02  0.45045682015E+02  0.00000000000E+00 0. -1.
         11    1    3    3    0    0  0.17192812944E+02 -0.12616404246E+02  0.15986125955E+02  0.26651879790E+02  0.51100000000E-03 0. -1.
        -11    1    3    3    0    0  0.73210365264E+01 -0.29506342206E+01  0.43054636684E+01  0.89911531955E+01  0.51100000000E-03 0.  1.
         12    1    3    3    0    0  0.95703633475E+01 -0.69799549513E+00  0.42609779608E+01  0.10499284999E+02  0.00000000000E+00 0. -1.
</event>
<event>
 7    1  0.3046295E-009  0.4614232E+02  0.7816164E-02  0.1320468E+00
        -11   -1    0    0    0    0  0.00000000000E+00  0.00000000000E+00  0.45593999997E+02  0.45594000000E+02  0.51100000000E-03 0. -1.
         11   -1    0    0    0    0 -0.00000000000E+00 -0.00000000000E+00 -0.45593999997E+02  0.45594000000E+02  0.51100000000E-03 0.  1.
    9900012    2    1    2    0    0  0.17452330572E+02  0.40803669760E+02 -0.77194640375E+01  0.46142318373E+02  0.10000005578E+02 0.  0.
         12    1    1    2    0    0 -0.17452330572E+02 -0.40803669760E+02  0.77194640375E+01  0.45045681627E+02  0.00000000000E+00 0. -1.
         11    1    3    3    0    0  0.57768803727E+01  0.21262306310E+02 -0.57395575436E+01  0.22768410957E+02  0.51100000000E-03 0. -1.
        -11    1    3    3    0    0  0.93020020861E+01  0.18164536555E+02 -0.25649638046E+01  0.20568341466E+02  0.51100000000E-03 0.  1.
        -12    1    3    3    0    0  0.23734481130E+01  0.13768268947E+01  0.58505731060E+00  0.28055659500E+01  0.00000000000E+00 0.  1.
</event>
<event>
 7    1  0.3046295E-009  0.4614231E+02  0.7816164E-02  0.1320468E+00
        -11   -1    0    0    0    0  0.00000000000E+00  0.00000000000E+00  0.45593999997E+02  0.45594000000E+02  0.51100000000E-03 0.  1.
         11   -1    0    0    0    0 -0.00000000000E+00 -0.00000000000E+00 -0.45593999997E+02  0.45594000000E+02  0.51100000000E-03 0. -1.
    9900012    2    1    2    0    0  0.20589222739E+01 -0.17489526149E+02  0.41460717292E+02  0.46142314700E+02  0.99999720837E+01 0.  0.
         12    1    1    2    0    0 -0.20589222739E+01  0.17489526149E+02 -0.41460717292E+02  0.45045685300E+02  0.00000000000E+00 0. -1.
         11    1    3    3    0    0 -0.78285512777E+00 -0.42935979729E+01  0.11722037873E+02  0.12508158052E+02  0.51100000000E-03 0. -1.
        -11    1    3    3    0    0  0.22984699536E+01 -0.51374062971E+00  0.91378873791E+01  0.94365184033E+01  0.51100000000E-03 0.  1.
         12    1    3    3    0    0  0.54330744807E+00 -0.12682187546E+02  0.20600792040E+02  0.24197638244E+02  0.00000000000E+00 0. -1.
</event>
<event>
 7    1  0.3046295E-009  0.4614232E+02  0.7816164E-02  0.1320468E+00
        -11   -1    0    0    0    0  0.00000000000E+00  0.00000000000E+00  0.45593999997E+02  0.45594000000E+02  0.51100000000E-03 0.  1.
         11   -1    0    0    0    0 -0.00000000000E+00 -0.00000000000E+00 -0.45593999997E+02  0.45594000000E+02  0.51100000000E-03 0. -1.
    9900012    2    1    2    0    0 -0.24422255256E+02 -0.37831330024E+02  0.12072254712E+01  0.46142317893E+02  0.10000001201E+02 0.  0.
         12    1    1    2    0    0  0.24422255256E+02  0.37831330024E+02 -0.12072254712E+01  0.45045682107E+02  0.00000000000E+00 0. -1.
         11    1    3    3    0    0 -0.10263640505E+02 -0.12289140439E+02 -0.74380950140E+00  0.16028678735E+02  0.51100000000E-03 0. -1.
        -11    1    3    3    0    0 -0.38479371578E+01 -0.11498206077E+02 -0.18936479105E+01  0.12271970747E+02  0.51100000000E-03 0.  1.
        -12    1    3    3    0    0 -0.10310677593E+02 -0.14043983508E+02  0.38446828830E+01  0.17841668411E+02  0.00000000000E+00 0.  1.
</event>
<event>
 7    1  0.3046295E-009  0.4614231E+02  0.7816164E-02  0.1320468E+00
        -11   -1    0    0    0    0  0.00000000000E+00  0.00000000000E+00  0.45593999997E+02  0.45594000000E+02  0.51100000000E-03 0. -1.
         11   -1    0    0    0    0 -0.00000000000E+00 -0.00000000000E+00 -0.45593999997E+02  0.45594000000E+02  0.51100000000E-03 0.  1.
    9900012    2    1    2    0    0  0.35292555978E+02 -0.26555119696E+02  0.88529775327E+01  0.46142310964E+02  0.99999380152E+01 0.  0.
         12    1    1    2    0    0 -0.35292555978E+02  0.26555119696E+02 -0.88529775327E+01  0.45045689036E+02  0.00000000000E+00 0. -1.
         11    1    3    3    0    0  0.15470489390E+02 -0.10682106589E+02  0.70214456276E+01  0.20068486294E+02  0.51100000000E-03 0. -1.
        -11    1    3    3    0    0  0.20183266815E+02 -0.15645413698E+02  0.19990254228E+01  0.25615216805E+02  0.51100000000E-03 0.  1.
         12    1    3    3    0    0 -0.36120022671E+00 -0.22759940911E+00 -0.16749351772E+00  0.45860786439E+00  0.00000000000E+00 0. -1.
</event>
<event>
 7    1  0.3046295E-009  0.4614232E+02  0.7816164E-02  0.1320468E+00
        -11   -1    0    0    0    0  0.00000000000E+00  0.00000000000E+00  0.45593999997E+02  0.45594000000E+02  0.51100000000E-03 0.  1.
         11   -1    0    0    0    0 -0.00000000000E+00 -0.00000000000E+00 -0.45593999997E+02  0.45594000000E+02  0.51100000000E-03 0. -1.
    9900012    2    1    2    0    0  0.13648188221E+02 -0.19105624600E+01  0.42885780331E+02  0.46142318240E+02  0.10000004368E+02 0.  0.
         12    1    1    2    0    0 -0.13648188221E+02  0.19105624600E+01 -0.42885780331E+02  0.45045681760E+02  0.00000000000E+00 0. -1.
         11    1    3    3    0    0 -0.57363050173E+00 -0.22388918082E+01  0.32814984229E+01  0.40137165623E+01  0.51100000000E-03 0. -1.
        -11    1    3    3    0    0  0.54778472282E+01 -0.75833661330E+00  0.16433607560E+02  0.17339127497E+02  0.51100000000E-03 0.  1.
         12    1    3    3    0    0  0.87439714946E+01  0.10866659616E+01  0.23170674348E+02  0.24789474181E+02  0.00000000000E+00 0. -1.
</event>
<event>
 7    1  0.3046295E-009  0.4614232E+02  0.7816164E-02  0.1320468E+00
        -11   -1    0    0    0    0  0.00000000000E+00  0.00000000000E+00  0.45593999997E+02  0.45594000000E+02  0.51100000000E-03 0.  1.
         11   -1    0    0    0    0 -0.00000000000E+00 -0.00000000000E+00 -0.45593999997E+02  0.45594000000E+02  0.51100000000E-03 0. -1.
    9900012    2    1    2    0    0 -0.32022057866E+02 -0.80572059412E+01  0.30639561517E+02  0.46142317771E+02  0.10000000090E+02 0.  0.
         12    1    1    2    0    0  0.32022057866E+02  0.80572059412E+01 -0.30639561517E+02  0.45045682229E+02  0.00000000000E+00 0. -1.
         11    1    3    3    0    0 -0.47426115506E+01 -0.18800365420E+01  0.96882404065E+01  0.10949379168E+02  0.51100000000E-03 0. -1.
        -11    1    3    3    0    0 -0.24015719519E+01 -0.30162243825E+00  0.34464335294E+01  0.42114639105E+01  0.51100000000E-03 0.  1.
         12    1    3    3    0    0 -0.24877874363E+02 -0.58755469610E+01  0.17504887581E+02  0.30981474693E+02  0.00000000000E+00 0. -1.
</event>
<event>
 7    1  0.3046295E-009  0.4614232E+02  0.7816164E-02  0.1320468E+00
        -11   -1    0    0    0    0  0.00000000000E+00  0.00000000000E+00  0.45593999997E+02  0.45594000000E+02  0.51100000000E-03 0.  1.
         11   -1    0    0    0    0 -0.00000000000E+00 -0.00000000000E+00 -0.45593999997E+02  0.45594000000E+02  0.51100000000E-03 0. -1.
    9900012    2    1    2    0    0 -0.19125298823E+02 -0.19159138585E+01  0.40738993439E+02  0.46142319104E+02  0.10000012242E+02 0.  0.
         12    1    1    2    0    0  0.19125298823E+02  0.19159138585E+01 -0.40738993439E+02  0.45045680896E+02  0.00000000000E+00 0. -1.
         11    1    3    3    0    0 -0.17250841330E+02 -0.41393267215E+01  0.35830253879E+02  0.39981653863E+02  0.51100000000E-03 0. -1.
        -11    1    3    3    0    0 -0.23511032247E+01  0.13089098988E+01  0.35927405879E+01  0.44887321917E+01  0.51100000000E-03 0.  1.
         12    1    3    3    0    0  0.47664573205E+00  0.91450296412E+00  0.13159989723E+01  0.16719330490E+01  0.00000000000E+00 0. -1.
</event>
<event>
 7    1  0.3046295E-009  0.4614232E+02  0.7816164E-02  0.1320468E+00
        -11   -1    0    0    0    0  0.00000000000E+00  0.00000000000E+00  0.45593999997E+02  0.45594000000E+02  0.51100000000E-03 0.  1.
         11   -1    0    0    0    0 -0.00000000000E+00 -0.00000000000E+00 -0.45593999997E+02  0.45594000000E+02  0.51100000000E-03 0. -1.
    9900012    2    1    2    0    0  0.19539392546E+02  0.40583645330E+02 -0.54157555452E+00  0.46142318371E+02  0.10000005563E+02 0.  0.
         12    1    1    2    0    0 -0.19539392546E+02 -0.40583645330E+02  0.54157555452E+00  0.45045681629E+02  0.00000000000E+00 0. -1.
         11    1    3    3    0    0  0.12385654958E+01  0.61844438447E+01  0.79363884864E+00  0.63569845870E+01  0.51100000000E-03 0. -1.
        -11    1    3    3    0    0  0.21405530926E-01  0.65742543750E+00 -0.12473737765E+01  0.14101801311E+01  0.51100000000E-03 0.  1.
        -12    1    3    3    0    0  0.18279421519E+02  0.33741776048E+02 -0.87840626644E-01  0.38375153653E+02  0.00000000000E+00 0.  1.
</event>
<event>
 7    1  0.3046295E-009  0.4614232E+02  0.7816164E-02  0.1320468E+00
        -11   -1    0    0    0    0  0.00000000000E+00  0.00000000000E+00  0.45593999997E+02  0.45594000000E+02  0.51100000000E-03 0.  1.
         11   -1    0    0    0    0 -0.00000000000E+00 -0.00000000000E+00 -0.45593999997E+02  0.45594000000E+02  0.51100000000E-03 0. -1.
    9900012    2    1    2    0    0 -0.59007566449E+01 -0.33138580815E+02  0.29935413980E+02  0.46142317881E+02  0.10000001093E+02 0.  0.
         12    1    1    2    0    0  0.59007566449E+01  0.33138580815E+02 -0.29935413980E+02  0.45045682119E+02  0.00000000000E+00 0. -1.
         11    1    3    3    0    0 -0.57493914781E+01 -0.26305732292E+02  0.18014491767E+02  0.32397051837E+02  0.51100000000E-03 0. -1.
        -11    1    3    3    0    0 -0.21906622105E+00 -0.25536086478E+01  0.44876817534E+01  0.51679971862E+01  0.51100000000E-03 0.  1.
         12    1    3    3    0    0  0.67701054232E-01 -0.42792398748E+01  0.74332404593E+01  0.85772688582E+01  0.00000000000E+00 0. -1.
</event>
<event>
 7    1  0.3046295E-009  0.4614232E+02  0.7816164E-02  0.1320468E+00
        -11   -1    0    0    0    0  0.00000000000E+00  0.00000000000E+00  0.45593999997E+02  0.45594000000E+02  0.51100000000E-03 0. -1.
         11   -1    0    0    0    0 -0.00000000000E+00 -0.00000000000E+00 -0.45593999997E+02  0.45594000000E+02  0.51100000000E-03 0.  1.
    9900012    2    1    2    0    0  0.21931711490E+00 -0.32231926234E+02 -0.31466941794E+02  0.46142316582E+02  0.99999892460E+01 0.  0.
         12    1    1    2    0    0 -0.21931711490E+00  0.32231926234E+02  0.31466941794E+02  0.45045683418E+02  0.00000000000E+00 0. -1.
         11    1    3    3    0    0 -0.65321942953E+00 -0.20588437212E+02 -0.13562547068E+02  0.24662788279E+02  0.51100000000E-03 0. -1.
        -11    1    3    3    0    0  0.74048308228E+00 -0.50867514530E+01 -0.96835485688E+01  0.10963323797E+02  0.51100000000E-03 0.  1.
         12    1    3    3    0    0  0.13205346216E+00 -0.65567375691E+01 -0.82208461572E+01  0.10516204506E+02  0.00000000000E+00 0. -1.
</event>
<event>
 7    1  0.3046295E-009  0.4614232E+02  0.7816164E-02  0.1320468E+00
        -11   -1    0    0    0    0  0.00000000000E+00  0.00000000000E+00  0.45593999997E+02  0.45594000000E+02  0.51100000000E-03 0.  1.
         11   -1    0    0    0    0 -0.00000000000E+00 -0.00000000000E+00 -0.45593999997E+02  0.45594000000E+02  0.51100000000E-03 0. -1.
    9900012    2    1    2    0    0  0.97048871759E+01  0.12978808225E+02  0.42029503846E+02  0.46142317725E+02  0.99999996719E+01 0.  0.
         12    1    1    2    0    0 -0.97048871759E+01 -0.12978808225E+02 -0.42029503846E+02  0.45045682275E+02  0.00000000000E+00 0. -1.
         11    1    3    3    0    0  0.81608516636E+01  0.51983862865E+01  0.22325196628E+02  0.24331813015E+02  0.51100000000E-03 0. -1.
        -11    1    3    3    0    0  0.31205746506E+01  0.59918961086E+01  0.16390003071E+02  0.17727746784E+02  0.51100000000E-03 0.  1.
         12    1    3    3    0    0 -0.15765391383E+01  0.17885258296E+01  0.33143041483E+01  0.40827579264E+01  0.00000000000E+00 0. -1.
</event>
<event>
 7    1  0.3046295E-009  0.4614232E+02  0.7816164E-02  0.1320468E+00
        -11   -1    0    0    0    0  0.00000000000E+00  0.00000000000E+00  0.45593999997E+02  0.45594000000E+02  0.51100000000E-03 0. -1.
         11   -1    0    0    0    0 -0.00000000000E+00 -0.00000000000E+00 -0.45593999997E+02  0.45594000000E+02  0.51100000000E-03 0.  1.
    9900012    2    1    2    0    0  0.31080933204E+02 -0.20934280028E+02 -0.24996902081E+02  0.46142316492E+02  0.99999884262E+01 0.  0.
         12    1    1    2    0    0 -0.31080933204E+02  0.20934280028E+02  0.24996902081E+02  0.45045683508E+02  0.00000000000E+00 0. -1.
         11    1    3    3    0    0  0.13695593672E+02 -0.94445687951E+01 -0.16493638345E+02  0.23426678635E+02  0.51100000000E-03 0.  1.
        -11    1    3    3    0    0  0.16847499951E+02 -0.11532088606E+02 -0.86235693942E+01  0.22162880489E+02  0.51100000000E-03 0. -1.
        -12    1    3    3    0    0  0.53783958073E+00  0.42377373525E-01  0.12030565840E+00  0.55275736796E+00  0.00000000000E+00 0.  1.
</event>
<event>
 7    1  0.3046295E-009  0.4614232E+02  0.7816164E-02  0.1320468E+00
        -11   -1    0    0    0    0  0.00000000000E+00  0.00000000000E+00  0.45593999997E+02  0.45594000000E+02  0.51100000000E-03 0. -1.
         11   -1    0    0    0    0 -0.00000000000E+00 -0.00000000000E+00 -0.45593999997E+02  0.45594000000E+02  0.51100000000E-03 0.  1.
    9900012    2    1    2    0    0  0.45011610384E+02 -0.17479963922E+01 -0.11267030651E+00  0.46142320348E+02  0.10000023586E+02 0.  0.
         12    1    1    2    0    0 -0.45011610384E+02  0.17479963922E+01  0.11267030651E+00  0.45045679652E+02  0.00000000000E+00 0. -1.
         11    1    3    3    0    0  0.45118094600E+01 -0.13053864976E+01  0.26704081671E+00  0.47044414727E+01  0.51100000000E-03 0. -1.
        -11    1    3    3    0    0  0.14682966086E+01  0.92022935110E+00 -0.16070208218E+01  0.23633097918E+01  0.51100000000E-03 0.  1.
        -12    1    3    3    0    0  0.39031504315E+02 -0.13628392457E+01  0.12273096986E+01  0.39074569083E+02  0.00000000000E+00 0.  1.
</event>
<event>
 7    1  0.3147631E-009  0.4614232E+02  0.7816164E-02  0.1320468E+00
        -11   -1    0    0    0    0  0.00000000000E+00  0.00000000000E+00  0.45593999997E+02  0.45594000000E+02  0.51100000000E-03 0. -1.
         11   -1    0    0    0    0 -0.00000000000E+00 -0.00000000000E+00 -0.45593999997E+02  0.45594000000E+02  0.51100000000E-03 0.  1.
    9900012    2    1    2    0    0 -0.14488026860E+02 -0.26898466735E+02 -0.33101104107E+02  0.46142317321E+02  0.99999959825E+01 0.  0.
         12    1    1    2    0    0  0.14488026860E+02  0.26898466735E+02  0.33101104107E+02  0.45045682679E+02  0.00000000000E+00 0. -1.
         11    1    3    3    0    0 -0.19500938902E+01 -0.69315191593E+00 -0.86010833300E+00  0.22412301008E+01  0.51100000000E-03 0. -1.
        -11    1    3    3    0    0 -0.91761729443E+01 -0.21327689219E+02 -0.28997425887E+02  0.37147317341E+02  0.51100000000E-03 0.  1.
        -12    1    3    3    0    0 -0.33617600252E+01 -0.48776256000E+01 -0.32435698867E+01  0.67537698784E+01  0.00000000000E+00 0.  1.
</event>
<event>
 7    1  0.3046295E-009  0.4614231E+02  0.7816164E-02  0.1320468E+00
        -11   -1    0    0    0    0  0.00000000000E+00  0.00000000000E+00  0.45593999997E+02  0.45594000000E+02  0.51100000000E-03 0. -1.
         11   -1    0    0    0    0 -0.00000000000E+00 -0.00000000000E+00 -0.45593999997E+02  0.45594000000E+02  0.51100000000E-03 0.  1.
    9900012    2    1    2    0    0 -0.39023968248E+02  0.21895289693E+02 -0.51807604166E+01  0.46142311116E+02  0.99999394038E+01 0.  0.
         12    1    1    2    0    0  0.39023968248E+02 -0.21895289693E+02  0.51807604166E+01  0.45045688884E+02  0.00000000000E+00 0. -1.
         11    1    3    3    0    0 -0.27372632342E+01  0.12970187172E+01  0.16686535156E+01  0.34582180935E+01  0.51100000000E-03 0. -1.
        -11    1    3    3    0    0 -0.33737686554E+02  0.17601242697E+02 -0.72211096123E+01  0.38732152829E+02  0.51100000000E-03 0.  1.
        -12    1    3    3    0    0 -0.25490184596E+01  0.29970282790E+01  0.37169568009E+00  0.39519401933E+01  0.00000000000E+00 0.  1.
</event>
<event>
 7    1  0.3046295E-009  0.4614232E+02  0.7816164E-02  0.1320468E+00
        -11   -1    0    0    0    0  0.00000000000E+00  0.00000000000E+00  0.45593999997E+02  0.45594000000E+02  0.51100000000E-03 0. -1.
         11   -1    0    0    0    0 -0.00000000000E+00 -0.00000000000E+00 -0.45593999997E+02  0.45594000000E+02  0.51100000000E-03 0.  1.
    9900012    2    1    2    0    0  0.21903000897E+02 -0.38429042319E+02 -0.85194288507E+01  0.46142318633E+02  0.10000007954E+02 0.  0.
         12    1    1    2    0    0 -0.21903000897E+02  0.38429042319E+02  0.85194288507E+01  0.45045681367E+02  0.00000000000E+00 0. -1.
         11    1    3    3    0    0  0.44462864634E+01 -0.49975074140E+01  0.12317904585E+01  0.68016065501E+01  0.51100000000E-03 0. -1.
        -11    1    3    3    0    0  0.16162283573E+02 -0.26912921036E+02 -0.89676333495E+01  0.32648785233E+02  0.51100000000E-03 0.  1.
         12    1    3    3    0    0  0.12944308605E+01 -0.65186138683E+01 -0.78358595977E+00  0.66919268506E+01  0.00000000000E+00 0. -1.
</event>
<event>
 7    1  0.3046295E-009  0.4614232E+02  0.7816164E-02  0.1320468E+00
        -11   -1    0    0    0    0  0.00000000000E+00  0.00000000000E+00  0.45593999997E+02  0.45594000000E+02  0.51100000000E-03 0.  1.
         11   -1    0    0    0    0 -0.00000000000E+00 -0.00000000000E+00 -0.45593999997E+02  0.45594000000E+02  0.51100000000E-03 0. -1.
    9900012    2    1    2    0    0  0.37208005293E+02 -0.12190815002E+02  0.22272441951E+02  0.46142319865E+02  0.10000019188E+02 0.  0.
         12    1    1    2    0    0 -0.37208005293E+02  0.12190815002E+02 -0.22272441951E+02  0.45045680135E+02  0.00000000000E+00 0. -1.
         11    1    3    3    0    0  0.20518373832E+02 -0.55535801172E+01  0.16314457770E+02  0.26795661018E+02  0.51100000000E-03 0. -1.
        -11    1    3    3    0    0  0.16498646860E+02 -0.68725283439E+01  0.62418818541E+01  0.18931404686E+02  0.51100000000E-03 0.  1.
         12    1    3    3    0    0  0.19098460163E+00  0.23529345903E+00 -0.28389767243E+00  0.41525416113E+00  0.00000000000E+00 0. -1.
</event>
<event>
 7    1  0.3046295E-009  0.4614232E+02  0.7816164E-02  0.1320468E+00
        -11   -1    0    0    0    0  0.00000000000E+00  0.00000000000E+00  0.45593999997E+02  0.45594000000E+02  0.51100000000E-03 0. -1.
         11   -1    0    0    0    0 -0.00000000000E+00 -0.00000000000E+00 -0.45593999997E+02  0.45594000000E+02  0.51100000000E-03 0.  1.
    9900012    2    1    2    0    0  0.34015671985E+02 -0.91740770045E+01  0.28069272143E+02  0.46142315765E+02  0.99999818024E+01 0.  0.
         12    1    1    2    0    0 -0.34015671985E+02  0.91740770045E+01 -0.28069272143E+02  0.45045684235E+02  0.00000000000E+00 0. -1.
         11    1    3    3    0    0  0.66774643784E+01 -0.13266980953E+01  0.16337947222E+01  0.70012815838E+01  0.51100000000E-03 0. -1.
        -11    1    3    3    0    0  0.15594191009E+02 -0.51833217943E+01  0.12034247796E+02  0.20368326841E+02  0.51100000000E-03 0.  1.
         12    1    3    3    0    0  0.11744016598E+02 -0.26640571149E+01  0.14401229625E+02  0.18772707340E+02  0.00000000000E+00 0. -1.
</event>
<event>
 7    1  0.3046295E-009  0.4614233E+02  0.7816164E-02  0.1320468E+00
        -11   -1    0    0    0    0  0.00000000000E+00  0.00000000000E+00  0.45593999997E+02  0.45594000000E+02  0.51100000000E-03 0.  1.
         11   -1    0    0    0    0 -0.00000000000E+00 -0.00000000000E+00 -0.45593999997E+02  0.45594000000E+02  0.51100000000E-03 0. -1.
    9900012    2    1    2    0    0 -0.10964132890E+02  0.39165487487E+02  0.19364013374E+02  0.46142327244E+02  0.10000086469E+02 0.  0.
         12    1    1    2    0    0  0.10964132890E+02 -0.39165487487E+02 -0.19364013374E+02  0.45045672756E+02  0.00000000000E+00 0. -1.
         11    1    3    3    0    0 -0.25656942213E+01  0.18463659700E+02  0.68890829050E+01  0.19873323322E+02  0.51100000000E-03 0. -1.
        -11    1    3    3    0    0 -0.68356768849E+01  0.12372289801E+02  0.50762227293E+01  0.15018923758E+02  0.51100000000E-03 0.  1.
         12    1    3    3    0    0 -0.15627617843E+01  0.83295379860E+01  0.73987077398E+01  0.11250080163E+02  0.00000000000E+00 0. -1.
</event>
<event>
 7    1  0.3046295E-009  0.4614232E+02  0.7816164E-02  0.1320468E+00
        -11   -1    0    0    0    0  0.00000000000E+00  0.00000000000E+00  0.45593999997E+02  0.45594000000E+02  0.51100000000E-03 0.  1.
         11   -1    0    0    0    0 -0.00000000000E+00 -0.00000000000E+00 -0.45593999997E+02  0.45594000000E+02  0.51100000000E-03 0. -1.
    9900012    2    1    2    0    0  0.75785353690E+01  0.23435120468E+02  0.37715705037E+02  0.46142317897E+02  0.10000001236E+02 0.  0.
         12    1    1    2    0    0 -0.75785353690E+01 -0.23435120468E+02 -0.37715705037E+02  0.45045682103E+02  0.00000000000E+00 0. -1.
         11    1    3    3    0    0 -0.10884165395E+00  0.39919518329E+01  0.38392086183E+01  0.55395892463E+01  0.51100000000E-03 0. -1.
        -11    1    3    3    0    0  0.76370061468E+01  0.18104984338E+02  0.33987565926E+02  0.39258998441E+02  0.51100000000E-03 0.  1.
        -12    1    3    3    0    0  0.50370876177E-01  0.13381842977E+01 -0.11106950719E+00  0.13437302092E+01  0.00000000000E+00 0.  1.
</event>
<event>
 7    1  0.3046295E-009  0.4614231E+02  0.7816164E-02  0.1320468E+00
        -11   -1    0    0    0    0  0.00000000000E+00  0.00000000000E+00  0.45593999997E+02  0.45594000000E+02  0.51100000000E-03 0. -1.
         11   -1    0    0    0    0 -0.00000000000E+00 -0.00000000000E+00 -0.45593999997E+02  0.45594000000E+02  0.51100000000E-03 0.  1.
    9900012    2    1    2    0    0 -0.93395715816E+00  0.16371481092E+02 -0.41954930555E+02  0.46142313558E+02  0.99999616736E+01 0.  0.
         12    1    1    2    0    0  0.93395715816E+00 -0.16371481092E+02  0.41954930555E+02  0.45045686442E+02  0.00000000000E+00 0. -1.
         11    1    3    3    0    0 -0.33592872976E+01  0.24338600153E+01 -0.14057168964E+02  0.14656482704E+02  0.51100000000E-03 0. -1.
        -11    1    3    3    0    0  0.10668912851E+01  0.21612504145E+01 -0.76761684933E+01  0.80456710949E+01  0.51100000000E-03 0.  1.
         12    1    3    3    0    0  0.13584388544E+01  0.11776370662E+02 -0.20221593098E+02  0.23440159759E+02  0.00000000000E+00 0. -1.
</event>
<event>
 7    1  0.3046295E-009  0.4614232E+02  0.7816164E-02  0.1320468E+00
        -11   -1    0    0    0    0  0.00000000000E+00  0.00000000000E+00  0.45593999997E+02  0.45594000000E+02  0.51100000000E-03 0.  1.
         11   -1    0    0    0    0 -0.00000000000E+00 -0.00000000000E+00 -0.45593999997E+02  0.45594000000E+02  0.51100000000E-03 0. -1.
    9900012    2    1    2    0    0  0.31898817151E+02  0.31278146455E+02  0.57668410318E+01  0.46142318334E+02  0.10000005223E+02 0.  0.
         12    1    1    2    0    0 -0.31898817151E+02 -0.31278146455E+02 -0.57668410318E+01  0.45045681666E+02  0.00000000000E+00 0. -1.
         11    1    3    3    0    0  0.62396755863E+01  0.97939267724E+01  0.90585956703E+00  0.11647966984E+02  0.51100000000E-03 0. -1.
        -11    1    3    3    0    0  0.17000385896E+02  0.16078108503E+02  0.52833542825E+00  0.23405081334E+02  0.51100000000E-03 0.  1.
        -12    1    3    3    0    0  0.86587556680E+01  0.54061111794E+01  0.43326460365E+01  0.11089270016E+02  0.00000000000E+00 0.  1.
</event>
<event>
 7    1  0.3046295E-009  0.4614232E+02  0.7816164E-02  0.1320468E+00
        -11   -1    0    0    0    0  0.00000000000E+00  0.00000000000E+00  0.45593999997E+02  0.45594000000E+02  0.51100000000E-03 0.  1.
         11   -1    0    0    0    0 -0.00000000000E+00 -0.00000000000E+00 -0.45593999997E+02  0.45594000000E+02  0.51100000000E-03 0. -1.
    9900012    2    1    2    0    0 -0.34362545347E+02  0.29039182327E+02 -0.22482776806E+01  0.46142318903E+02  0.10000010410E+02 0.  0.
         12    1    1    2    0    0  0.34362545347E+02 -0.29039182327E+02  0.22482776806E+01  0.45045681097E+02  0.00000000000E+00 0. -1.
         11    1    3    3    0    0 -0.21812810578E+02  0.12520804181E+02 -0.13134361879E+01  0.25185201161E+02  0.51100000000E-03 0. -1.
        -11    1    3    3    0    0 -0.17137368895E+01  0.41357316114E+01 -0.10858749341E-01  0.44767497430E+01  0.51100000000E-03 0.  1.
         12    1    3    3    0    0 -0.10835997880E+02  0.12382646535E+02 -0.92398274335E+00  0.16480367999E+02  0.00000000000E+00 0. -1.
</event>
<event>
 7    1  0.3046295E-009  0.4614232E+02  0.7816164E-02  0.1320468E+00
        -11   -1    0    0    0    0  0.00000000000E+00  0.00000000000E+00  0.45593999997E+02  0.45594000000E+02  0.51100000000E-03 0.  1.
         11   -1    0    0    0    0 -0.00000000000E+00 -0.00000000000E+00 -0.45593999997E+02  0.45594000000E+02  0.51100000000E-03 0. -1.
    9900012    2    1    2    0    0 -0.15727520188E+02 -0.22106346799E+02  0.35959252563E+02  0.46142319797E+02  0.10000018566E+02 0.  0.
         12    1    1    2    0    0  0.15727520188E+02  0.22106346799E+02 -0.35959252563E+02  0.45045680203E+02  0.00000000000E+00 0. -1.
         11    1    3    3    0    0 -0.89722434518E+01 -0.16528924591E+02  0.21896345168E+02  0.28864449287E+02  0.51100000000E-03 0. -1.
        -11    1    3    3    0    0 -0.36682412942E+01 -0.31349274466E+00  0.72525053706E+01  0.81334559878E+01  0.51100000000E-03 0.  1.
        -12    1    3    3    0    0 -0.30870354418E+01 -0.52639294626E+01  0.68104020249E+01  0.91444145218E+01  0.00000000000E+00 0.  1.
</event>
<event>
 7    1  0.3046295E-009  0.4614232E+02  0.7816164E-02  0.1320468E+00
        -11   -1    0    0    0    0  0.00000000000E+00  0.00000000000E+00  0.45593999997E+02  0.45594000000E+02  0.51100000000E-03 0.  1.
         11   -1    0    0    0    0 -0.00000000000E+00 -0.00000000000E+00 -0.45593999997E+02  0.45594000000E+02  0.51100000000E-03 0. -1.
    9900012    2    1    2    0    0  0.79654679239E+01 -0.43954469273E+02  0.58025360794E+01  0.46142317928E+02  0.10000001526E+02 0.  0.
         12    1    1    2    0    0 -0.79654679239E+01  0.43954469273E+02 -0.58025360794E+01  0.45045682072E+02  0.00000000000E+00 0. -1.
         11    1    3    3    0    0  0.57037266386E+01 -0.23581390399E+02  0.22610137246E+01  0.24366506808E+02  0.51100000000E-03 0.  1.
        -11    1    3    3    0    0 -0.74311143127E+00 -0.29704563758E+01 -0.15006823609E+01  0.34099667871E+01  0.51100000000E-03 0. -1.
        -12    1    3    3    0    0  0.30048527165E+01 -0.17402622499E+02  0.50422047157E+01  0.18365844333E+02  0.00000000000E+00 0.  1.
</event>
<event>
 7    1  0.3046295E-009  0.4614232E+02  0.7816164E-02  0.1320468E+00
        -11   -1    0    0    0    0  0.00000000000E+00  0.00000000000E+00  0.45593999997E+02  0.45594000000E+02  0.51100000000E-03 0.  1.
         11   -1    0    0    0    0 -0.00000000000E+00 -0.00000000000E+00 -0.45593999997E+02  0.45594000000E+02  0.51100000000E-03 0. -1.
    9900012    2    1    2    0    0 -0.26151240709E+02 -0.22710984993E+02 -0.28799952613E+02  0.46142317627E+02  0.99999987727E+01 0.  0.
         12    1    1    2    0    0  0.26151240709E+02  0.22710984993E+02  0.28799952613E+02  0.45045682373E+02  0.00000000000E+00 0. -1.
         11    1    3    3    0    0 -0.13829403004E+02 -0.74415763086E+01 -0.12737382933E+02  0.20220543258E+02  0.51100000000E-03 0. -1.
        -11    1    3    3    0    0 -0.93153546423E+01 -0.11540495385E+02 -0.88727602472E+01  0.17282498098E+02  0.51100000000E-03 0.  1.
        -12    1    3    3    0    0 -0.30064830632E+01 -0.37289132999E+01 -0.71898094330E+01  0.86392762712E+01  0.00000000000E+00 0.  1.
</event>
<event>
 7    1  0.3046295E-009  0.4614232E+02  0.7816164E-02  0.1320468E+00
        -11   -1    0    0    0    0  0.00000000000E+00  0.00000000000E+00  0.45593999997E+02  0.45594000000E+02  0.51100000000E-03 0. -1.
         11   -1    0    0    0    0 -0.00000000000E+00 -0.00000000000E+00 -0.45593999997E+02  0.45594000000E+02  0.51100000000E-03 0.  1.
    9900012    2    1    2    0    0 -0.24914818927E+02  0.31925395598E+02 -0.19726490308E+02  0.46142317564E+02  0.99999982035E+01 0.  0.
         12    1    1    2    0    0  0.24914818927E+02 -0.31925395598E+02  0.19726490308E+02  0.45045682436E+02  0.00000000000E+00 0. -1.
         11    1    3    3    0    0 -0.10759733727E+02  0.16592827817E+02 -0.10387277148E+02  0.22338069112E+02  0.51100000000E-03 0. -1.
        -11    1    3    3    0    0 -0.14213997682E+02  0.14260272811E+02 -0.71507238494E+01  0.21366468182E+02  0.51100000000E-03 0.  1.
        -12    1    3    3    0    0  0.58912481903E-01  0.10722949701E+01 -0.21884893106E+01  0.24377802702E+01  0.00000000000E+00 0.  1.
</event>
<event>
 7    1  0.3046295E-009  0.4614232E+02  0.7816164E-02  0.1320468E+00
        -11   -1    0    0    0    0  0.00000000000E+00  0.00000000000E+00  0.45593999997E+02  0.45594000000E+02  0.51100000000E-03 0.  1.
         11   -1    0    0    0    0 -0.00000000000E+00 -0.00000000000E+00 -0.45593999997E+02  0.45594000000E+02  0.51100000000E-03 0. -1.
    9900012    2    1    2    0    0  0.44325220127E+01 -0.38200889771E+02  0.23455452214E+02  0.46142317973E+02  0.10000001936E+02 0.  0.
         12    1    1    2    0    0 -0.44325220127E+01  0.38200889771E+02 -0.23455452214E+02  0.45045682027E+02  0.00000000000E+00 0. -1.
         11    1    3    3    0    0  0.69728411504E+01 -0.26499307137E+02  0.17179028255E+02  0.32341193615E+02  0.51100000000E-03 0. -1.
        -11    1    3    3    0    0 -0.10349006323E+00 -0.52229693399E+00  0.11421800238E+01  0.12601903619E+01  0.51100000000E-03 0.  1.
         12    1    3    3    0    0 -0.24368290745E+01 -0.11179285700E+02  0.51342439352E+01  0.12540933996E+02  0.00000000000E+00 0. -1.
</event>
<event>
 7    1  0.3046295E-009  0.4614232E+02  0.7816164E-02  0.1320468E+00
        -11   -1    0    0    0    0  0.00000000000E+00  0.00000000000E+00  0.45593999997E+02  0.45594000000E+02  0.51100000000E-03 0. -1.
         11   -1    0    0    0    0 -0.00000000000E+00 -0.00000000000E+00 -0.45593999997E+02  0.45594000000E+02  0.51100000000E-03 0.  1.
    9900012    2    1    2    0    0 -0.13589311766E+02  0.37973445118E+02 -0.20061446128E+02  0.46142317086E+02  0.99999938475E+01 0.  0.
         12    1    1    2    0    0  0.13589311766E+02 -0.37973445118E+02  0.20061446128E+02  0.45045682914E+02  0.00000000000E+00 0. -1.
         11    1    3    3    0    0 -0.46420457118E+01  0.55881696619E+01 -0.54390793670E+01  0.90752307509E+01  0.51100000000E-03 0. -1.
        -11    1    3    3    0    0 -0.78306721596E+01  0.23757354586E+02 -0.13092395313E+02  0.28233705720E+02  0.51100000000E-03 0.  1.
         12    1    3    3    0    0 -0.11165938948E+01  0.86279208697E+01 -0.15299714481E+01  0.88333806151E+01  0.00000000000E+00 0. -1.
</event>
<event>
 7    1  0.3046295E-009  0.4614232E+02  0.7816164E-02  0.1320468E+00
        -11   -1    0    0    0    0  0.00000000000E+00  0.00000000000E+00  0.45593999997E+02  0.45594000000E+02  0.51100000000E-03 0. -1.
         11   -1    0    0    0    0 -0.00000000000E+00 -0.00000000000E+00 -0.45593999997E+02  0.45594000000E+02  0.51100000000E-03 0.  1.
    9900012    2    1    2    0    0 -0.25660670248E+02  0.28782156342E+02 -0.23285854389E+02  0.46142317234E+02  0.99999951889E+01 0.  0.
         12    1    1    2    0    0  0.25660670248E+02 -0.28782156342E+02  0.23285854389E+02  0.45045682766E+02  0.00000000000E+00 0. -1.
         11    1    3    3    0    0 -0.19792568583E+02  0.22982920836E+02 -0.21236742711E+02  0.37026472456E+02  0.51100000000E-03 0. -1.
        -11    1    3    3    0    0  0.37638102068E+00  0.24594370832E-01 -0.79476594103E-01  0.38546640052E+00  0.51100000000E-03 0.  1.
         12    1    3    3    0    0 -0.62444826856E+01  0.57746411348E+01 -0.19696350843E+01  0.87303783773E+01  0.00000000000E+00 0. -1.
</event>
<event>
 7    1  0.3046295E-009  0.4614232E+02  0.7816164E-02  0.1320468E+00
        -11   -1    0    0    0    0  0.00000000000E+00  0.00000000000E+00  0.45593999997E+02  0.45594000000E+02  0.51100000000E-03 0. -1.
         11   -1    0    0    0    0 -0.00000000000E+00 -0.00000000000E+00 -0.45593999997E+02  0.45594000000E+02  0.51100000000E-03 0.  1.
    9900012    2    1    2    0    0 -0.13472194127E+02  0.24810300383E+02 -0.35100747629E+02  0.46142317589E+02  0.99999984302E+01 0.  0.
         12    1    1    2    0    0  0.13472194127E+02 -0.24810300383E+02  0.35100747629E+02  0.45045682411E+02  0.00000000000E+00 0. -1.
         11    1    3    3    0    0 -0.80221094415E+01  0.15730239186E+02 -0.22689027095E+02  0.28750419397E+02  0.51100000000E-03 0.  1.
        -11    1    3    3    0    0  0.20825368692E+00  0.23212386525E+01 -0.61576811920E+01  0.65839620597E+01  0.51100000000E-03 0. -1.
        -12    1    3    3    0    0 -0.56583383729E+01  0.67588225449E+01 -0.62540393427E+01  0.10807936132E+02  0.00000000000E+00 0.  1.
</event>
<event>
 7    1  0.3046295E-009  0.4614232E+02  0.7816164E-02  0.1320468E+00
        -11   -1    0    0    0    0  0.00000000000E+00  0.00000000000E+00  0.45593999997E+02  0.45594000000E+02  0.51100000000E-03 0.  1.
         11   -1    0    0    0    0 -0.00000000000E+00 -0.00000000000E+00 -0.45593999997E+02  0.45594000000E+02  0.51100000000E-03 0. -1.
    9900012    2    1    2    0    0 -0.42319809259E+02  0.26741693523E+00  0.15429695091E+02  0.46142320317E+02  0.10000023305E+02 0.  0.
         12    1    1    2    0    0  0.42319809259E+02 -0.26741693523E+00 -0.15429695091E+02  0.45045679683E+02  0.00000000000E+00 0. -1.
         11    1    3    3    0    0 -0.13373441429E+02 -0.18265637907E+01  0.29573994573E+01  0.13817795872E+02  0.51100000000E-03 0. -1.
        -11    1    3    3    0    0 -0.56817094523E+01  0.13211265270E+01  0.55198643385E+01  0.80309464061E+01  0.51100000000E-03 0.  1.
        -12    1    3    3    0    0 -0.23264658377E+02  0.77285419889E+00  0.69524312955E+01  0.24293578039E+02  0.00000000000E+00 0.  1.
</event>
<event>
 7    1  0.3046295E-009  0.4614232E+02  0.7816164E-02  0.1320468E+00
        -11   -1    0    0    0    0  0.00000000000E+00  0.00000000000E+00  0.45593999997E+02  0.45594000000E+02  0.51100000000E-03 0.  1.
         11   -1    0    0    0    0 -0.00000000000E+00 -0.00000000000E+00 -0.45593999997E+02  0.45594000000E+02  0.51100000000E-03 0. -1.
    9900012    2    1    2    0    0 -0.30837268019E+01 -0.43604146814E+02  0.10875775275E+02  0.46142317874E+02  0.10000001031E+02 0.  0.
         12    1    1    2    0    0  0.30837268019E+01  0.43604146814E+02 -0.10875775275E+02  0.45045682126E+02  0.00000000000E+00 0. -1.
         11    1    3    3    0    0 -0.60758701994E+01 -0.20819376151E+02  0.48332308471E+01  0.22219872697E+02  0.51100000000E-03 0. -1.
        -11    1    3    3    0    0  0.13850701806E+01 -0.96637207108E+01  0.11629983339E+01  0.98315046035E+01  0.51100000000E-03 0.  1.
         12    1    3    3    0    0  0.16070732169E+01 -0.13121049952E+02  0.48795460936E+01  0.14090940574E+02  0.00000000000E+00 0. -1.
</event>
<event>
 7    1  0.3046295E-009  0.4614232E+02  0.7816164E-02  0.1320468E+00
        -11   -1    0    0    0    0  0.00000000000E+00  0.00000000000E+00  0.45593999997E+02  0.45594000000E+02  0.51100000000E-03 0.  1.
         11   -1    0    0    0    0 -0.00000000000E+00 -0.00000000000E+00 -0.45593999997E+02  0.45594000000E+02  0.51100000000E-03 0. -1.
    9900012    2    1    2    0    0  0.13293917378E+02  0.35255367847E+02  0.24686924117E+02  0.46142318479E+02  0.10000006551E+02 0.  0.
         12    1    1    2    0    0 -0.13293917378E+02 -0.35255367847E+02 -0.24686924117E+02  0.45045681521E+02  0.00000000000E+00 0. -1.
         11    1    3    3    0    0  0.40859789821E+01  0.17675167419E+02  0.77337680343E+01  0.19721002403E+02  0.51100000000E-03 0. -1.
        -11    1    3    3    0    0  0.86810242428E+01  0.13166727478E+02  0.12438228879E+02  0.20085627505E+02  0.51100000000E-03 0.  1.
         12    1    3    3    0    0  0.52691415314E+00  0.44134729509E+01  0.45149272038E+01  0.63356885711E+01  0.00000000000E+00 0. -1.
</event>
<event>
 7    1  0.3046295E-009  0.4614232E+02  0.7816164E-02  0.1320468E+00
        -11   -1    0    0    0    0  0.00000000000E+00  0.00000000000E+00  0.45593999997E+02  0.45594000000E+02  0.51100000000E-03 0.  1.
         11   -1    0    0    0    0 -0.00000000000E+00 -0.00000000000E+00 -0.45593999997E+02  0.45594000000E+02  0.51100000000E-03 0. -1.
    9900012    2    1    2    0    0  0.27906364657E+02  0.11644031475E+02  0.33388092738E+02  0.46142318808E+02  0.10000009546E+02 0.  0.
         12    1    1    2    0    0 -0.27906364657E+02 -0.11644031475E+02 -0.33388092738E+02  0.45045681192E+02  0.00000000000E+00 0. -1.
         11    1    3    3    0    0  0.73819056058E+01  0.53045069804E+01  0.51443974249E+01  0.10444862364E+02  0.51100000000E-03 0. -1.
        -11    1    3    3    0    0  0.79862169540E+01  0.37492562656E+01  0.13974735519E+02  0.16526639612E+02  0.51100000000E-03 0.  1.
         12    1    3    3    0    0  0.12538242098E+02  0.25902682288E+01  0.14268959794E+02  0.19170816832E+02  0.00000000000E+00 0. -1.
</event>
<event>
 7    1  0.3046295E-009  0.4614232E+02  0.7816164E-02  0.1320468E+00
        -11   -1    0    0    0    0  0.00000000000E+00  0.00000000000E+00  0.45593999997E+02  0.45594000000E+02  0.51100000000E-03 0.  1.
         11   -1    0    0    0    0 -0.00000000000E+00 -0.00000000000E+00 -0.45593999997E+02  0.45594000000E+02  0.51100000000E-03 0. -1.
    9900012    2    1    2    0    0  0.25330953962E+02 -0.27096052006E+02  0.25558956491E+02  0.46142317411E+02  0.99999968107E+01 0.  0.
         12    1    1    2    0    0 -0.25330953962E+02  0.27096052006E+02 -0.25558956491E+02  0.45045682589E+02  0.00000000000E+00 0. -1.
         11    1    3    3    0    0  0.10404202000E+02 -0.12668125417E+02  0.97233190891E+01  0.19059689274E+02  0.51100000000E-03 0. -1.
        -11    1    3    3    0    0  0.15048696106E+02 -0.14325478339E+02  0.16416781613E+02  0.26480054813E+02  0.51100000000E-03 0.  1.
         12    1    3    3    0    0 -0.12194414349E+00 -0.10244825062E+00 -0.58114421070E+00  0.60257332484E+00  0.00000000000E+00 0. -1.
</event>
<event>
 7    1  0.3046295E-009  0.4614232E+02  0.7816164E-02  0.1320468E+00
        -11   -1    0    0    0    0  0.00000000000E+00  0.00000000000E+00  0.45593999997E+02  0.45594000000E+02  0.51100000000E-03 0.  1.
         11   -1    0    0    0    0 -0.00000000000E+00 -0.00000000000E+00 -0.45593999997E+02  0.45594000000E+02  0.51100000000E-03 0. -1.
    9900012    2    1    2    0    0  0.24497112726E+02  0.31170981005E+02  0.21386328513E+02  0.46142316122E+02  0.99999850540E+01 0.  0.
         12    1    1    2    0    0 -0.24497112726E+02 -0.31170981005E+02 -0.21386328513E+02  0.45045683878E+02  0.00000000000E+00 0. -1.
         11    1    3    3    0    0  0.80716690254E+01  0.79601415195E+01  0.53758598677E+01  0.12546535914E+02  0.51100000000E-03 0. -1.
        -11    1    3    3    0    0  0.12480917945E+02  0.10782375845E+02  0.87198641638E+01  0.18656606682E+02  0.51100000000E-03 0.  1.
        -12    1    3    3    0    0  0.39445257558E+01  0.12428463641E+02  0.72906044819E+01  0.14939173526E+02  0.00000000000E+00 0.  1.
</event>
<event>
 7    1  0.3046295E-009  0.4614232E+02  0.7816164E-02  0.1320468E+00
        -11   -1    0    0    0    0  0.00000000000E+00  0.00000000000E+00  0.45593999997E+02  0.45594000000E+02  0.51100000000E-03 0.  1.
         11   -1    0    0    0    0 -0.00000000000E+00 -0.00000000000E+00 -0.45593999997E+02  0.45594000000E+02  0.51100000000E-03 0. -1.
    9900012    2    1    2    0    0 -0.16811155498E+02 -0.21123815967E+02  0.36059435698E+02  0.46142318153E+02  0.10000003577E+02 0.  0.
         12    1    1    2    0    0  0.16811155498E+02  0.21123815967E+02 -0.36059435698E+02  0.45045681847E+02  0.00000000000E+00 0. -1.
         11    1    3    3    0    0  0.65599317923E+00 -0.38638698365E+01  0.43533704457E+01  0.58576148442E+01  0.51100000000E-03 0. -1.
        -11    1    3    3    0    0 -0.89574652943E+01 -0.11459526736E+02  0.18067345832E+02  0.23194523560E+02  0.51100000000E-03 0.  1.
         12    1    3    3    0    0 -0.85096833833E+01 -0.58004193938E+01  0.13638719420E+02  0.17090179749E+02  0.00000000000E+00 0. -1.
</event>
<event>
 7    1  0.3046295E-009  0.4614232E+02  0.7816164E-02  0.1320468E+00
        -11   -1    0    0    0    0  0.00000000000E+00  0.00000000000E+00  0.45593999997E+02  0.45594000000E+02  0.51100000000E-03 0. -1.
         11   -1    0    0    0    0 -0.00000000000E+00 -0.00000000000E+00 -0.45593999997E+02  0.45594000000E+02  0.51100000000E-03 0.  1.
    9900012    2    1    2    0    0  0.27842247056E+02 -0.34149203800E+02 -0.93677433799E+01  0.46142318106E+02  0.10000003146E+02 0.  0.
         12    1    1    2    0    0 -0.27842247056E+02  0.34149203800E+02  0.93677433799E+01  0.45045681894E+02  0.00000000000E+00 0. -1.
         11    1    3    3    0    0  0.16165027353E+02 -0.18149859298E+02 -0.16045314484E+01  0.24357750785E+02  0.51100000000E-03 0. -1.
        -11    1    3    3    0    0  0.40872469298E+01 -0.95141431409E+01 -0.35184186691E+01  0.10936351191E+02  0.51100000000E-03 0.  1.
         12    1    3    3    0    0  0.75899727730E+01 -0.64852013602E+01 -0.42447932623E+01  0.10848216131E+02  0.00000000000E+00 0. -1.
</event>
<event>
 7    1  0.3046295E-009  0.4614232E+02  0.7816164E-02  0.1320468E+00
        -11   -1    0    0    0    0  0.00000000000E+00  0.00000000000E+00  0.45593999997E+02  0.45594000000E+02  0.51100000000E-03 0.  1.
         11   -1    0    0    0    0 -0.00000000000E+00 -0.00000000000E+00 -0.45593999997E+02  0.45594000000E+02  0.51100000000E-03 0. -1.
    9900012    2    1    2    0    0  0.11440768510E+02 -0.65118590959E+01  0.43079206460E+02  0.46142317386E+02  0.99999965782E+01 0.  0.
         12    1    1    2    0    0 -0.11440768510E+02  0.65118590959E+01 -0.43079206460E+02  0.45045682614E+02  0.00000000000E+00 0. -1.
         11    1    3    3    0    0  0.23527099678E+00 -0.12598675564E+01  0.13014227486E+01  0.18265596441E+01  0.51100000000E-03 0. -1.
        -11    1    3    3    0    0  0.77384029472E+01 -0.73639376892E+01  0.28767446021E+02  0.30686746476E+02  0.51100000000E-03 0.  1.
        -12    1    3    3    0    0  0.34670945663E+01  0.21119461497E+01  0.13010337690E+02  0.13629011266E+02  0.00000000000E+00 0.  1.
</event>
<event>
 7    1  0.3046295E-009  0.4614232E+02  0.7816164E-02  0.1320468E+00
        -11   -1    0    0    0    0  0.00000000000E+00  0.00000000000E+00  0.45593999997E+02  0.45594000000E+02  0.51100000000E-03 0.  1.
         11   -1    0    0    0    0 -0.00000000000E+00 -0.00000000000E+00 -0.45593999997E+02  0.45594000000E+02  0.51100000000E-03 0. -1.
    9900012    2    1    2    0    0  0.40276550606E+02 -0.20166800853E+02 -0.46158793698E+00  0.46142318200E+02  0.10000004005E+02 0.  0.
         12    1    1    2    0    0 -0.40276550606E+02  0.20166800853E+02  0.46158793698E+00  0.45045681800E+02  0.00000000000E+00 0. -1.
         11    1    3    3    0    0  0.27716725687E+01 -0.75093224134E+00  0.22019701379E+01  0.36186656115E+01  0.51100000000E-03 0. -1.
        -11    1    3    3    0    0  0.12090338883E+02 -0.51283577907E+01 -0.24946560489E+01  0.13367859103E+02  0.51100000000E-03 0.  1.
         12    1    3    3    0    0  0.25414539154E+02 -0.14287510821E+02 -0.16890202595E+00  0.29155793486E+02  0.00000000000E+00 0. -1.
</event>
<event>
 7    1  0.3046295E-009  0.4614232E+02  0.7816164E-02  0.1320468E+00
        -11   -1    0    0    0    0  0.00000000000E+00  0.00000000000E+00  0.45593999997E+02  0.45594000000E+02  0.51100000000E-03 0. -1.
         11   -1    0    0    0    0 -0.00000000000E+00 -0.00000000000E+00 -0.45593999997E+02  0.45594000000E+02  0.51100000000E-03 0.  1.
    9900012    2    1    2    0    0  0.16356056252E+02  0.13101459696E+02 -0.39874109586E+02  0.46142318325E+02  0.10000005138E+02 0.  0.
         12    1    1    2    0    0 -0.16356056252E+02 -0.13101459696E+02  0.39874109586E+02  0.45045681675E+02  0.00000000000E+00 0. -1.
         11    1    3    3    0    0  0.17052077141E+01  0.19079380314E+01 -0.29727761174E+01  0.39224174925E+01  0.51100000000E-03 0. -1.
        -11    1    3    3    0    0  0.10382436650E+01  0.84766980016E+00 -0.11635786940E+02  0.11712729484E+02  0.51100000000E-03 0.  1.
        -12    1    3    3    0    0  0.13612604873E+02  0.10345851864E+02 -0.25265546529E+02  0.30507171348E+02  0.00000000000E+00 0.  1.
</event>
<event>
 7    1  0.3356714E-009  0.4614232E+02  0.7816164E-02  0.1320468E+00
        -11   -1    0    0    0    0  0.00000000000E+00  0.00000000000E+00  0.45593999997E+02  0.45594000000E+02  0.51100000000E-03 0. -1.
         11   -1    0    0    0    0 -0.00000000000E+00 -0.00000000000E+00 -0.45593999997E+02  0.45594000000E+02  0.51100000000E-03 0.  1.
    9900012    2    1    2    0    0 -0.41965749807E+02 -0.31060081328E+01 -0.16073021340E+02  0.46142318094E+02  0.10000003038E+02 0.  0.
         12    1    1    2    0    0  0.41965749807E+02  0.31060081328E+01  0.16073021340E+02  0.45045681906E+02  0.00000000000E+00 0. -1.
         11    1    3    3    0    0 -0.93917099818E-01  0.43897467737E+00 -0.82744639197E+00  0.94137504838E+00  0.51100000000E-03 0. -1.
        -11    1    3    3    0    0 -0.37437347304E+02 -0.33287235606E+01 -0.15711519998E+02  0.40736804423E+02  0.51100000000E-03 0.  1.
        -12    1    3    3    0    0 -0.44344854033E+01 -0.21625924961E+00  0.46594505055E+00  0.44641386230E+01  0.00000000000E+00 0.  1.
</event>
<event>
 7    1  0.3046295E-009  0.4614232E+02  0.7816164E-02  0.1320468E+00
        -11   -1    0    0    0    0  0.00000000000E+00  0.00000000000E+00  0.45593999997E+02  0.45594000000E+02  0.51100000000E-03 0. -1.
         11   -1    0    0    0    0 -0.00000000000E+00 -0.00000000000E+00 -0.45593999997E+02  0.45594000000E+02  0.51100000000E-03 0.  1.
    9900012    2    1    2    0    0 -0.43989820425E+02  0.74432216162E+01 -0.62135116845E+01  0.46142316783E+02  0.99999910813E+01 0.  0.
         12    1    1    2    0    0  0.43989820425E+02 -0.74432216162E+01  0.62135116845E+01  0.45045683217E+02  0.00000000000E+00 0. -1.
         11    1    3    3    0    0 -0.31052979358E+02  0.65978998343E+01 -0.63263644339E+01  0.32370398460E+02  0.51100000000E-03 0. -1.
        -11    1    3    3    0    0 -0.64979339998E+01 -0.17648903705E+01 -0.73139429836E+00  0.67729552018E+01  0.51100000000E-03 0.  1.
        -12    1    3    3    0    0 -0.64389070667E+01  0.26102121525E+01  0.84424704774E+00  0.69989631212E+01  0.00000000000E+00 0.  1.
</event>
<event>
 7    1  0.3046295E-009  0.4614232E+02  0.7816164E-02  0.1320468E+00
        -11   -1    0    0    0    0  0.00000000000E+00  0.00000000000E+00  0.45593999997E+02  0.45594000000E+02  0.51100000000E-03 0. -1.
         11   -1    0    0    0    0 -0.00000000000E+00 -0.00000000000E+00 -0.45593999997E+02  0.45594000000E+02  0.51100000000E-03 0.  1.
    9900012    2    1    2    0    0  0.20954261703E+02 -0.24493847046E+02 -0.31465599649E+02  0.46142316657E+02  0.99999899279E+01 0.  0.
         12    1    1    2    0    0 -0.20954261703E+02  0.24493847046E+02  0.31465599649E+02  0.45045683343E+02  0.00000000000E+00 0. -1.
         11    1    3    3    0    0  0.73849273044E+00 -0.46741964197E+01 -0.77762418325E+01  0.91029347455E+01  0.51100000000E-03 0. -1.
        -11    1    3    3    0    0  0.16608184417E+02 -0.16020431405E+02 -0.20744320643E+02  0.31029225759E+02  0.51100000000E-03 0.  1.
         12    1    3    3    0    0  0.36075845554E+01 -0.37992192214E+01 -0.29450371737E+01  0.60101561520E+01  0.00000000000E+00 0. -1.
</event>
<event>
 7    1  0.3046295E-009  0.4614231E+02  0.7816164E-02  0.1320468E+00
        -11   -1    0    0    0    0  0.00000000000E+00  0.00000000000E+00  0.45593999997E+02  0.45594000000E+02  0.51100000000E-03 0.  1.
         11   -1    0    0    0    0 -0.00000000000E+00 -0.00000000000E+00 -0.45593999997E+02  0.45594000000E+02  0.51100000000E-03 0. -1.
    9900012    2    1    2    0    0 -0.42879179709E+02  0.69533982625E+01  0.11922253117E+02  0.46142312978E+02  0.99999563812E+01 0.  0.
         12    1    1    2    0    0  0.42879179709E+02 -0.69533982625E+01 -0.11922253117E+02  0.45045687022E+02  0.00000000000E+00 0. -1.
         11    1    3    3    0    0 -0.56764584212E+01  0.37206624034E+01  0.68900814380E+00  0.68220408538E+01  0.51100000000E-03 0. -1.
        -11    1    3    3    0    0 -0.21226541453E+02  0.30141956120E+01  0.41247724487E+01  0.21832663265E+02  0.51100000000E-03 0.  1.
         12    1    3    3    0    0 -0.15976179835E+02  0.21854024709E+00  0.71084725250E+01  0.17487608859E+02  0.00000000000E+00 0. -1.
</event>
<event>
 7    1  0.3046295E-009  0.4614232E+02  0.7816164E-02  0.1320468E+00
        -11   -1    0    0    0    0  0.00000000000E+00  0.00000000000E+00  0.45593999997E+02  0.45594000000E+02  0.51100000000E-03 0.  1.
         11   -1    0    0    0    0 -0.00000000000E+00 -0.00000000000E+00 -0.45593999997E+02  0.45594000000E+02  0.51100000000E-03 0. -1.
    9900012    2    1    2    0    0 -0.15923767712E+02 -0.16404173642E+02  0.38813015960E+02  0.46142317644E+02  0.99999989296E+01 0.  0.
         12    1    1    2    0    0  0.15923767712E+02  0.16404173642E+02 -0.38813015960E+02  0.45045682356E+02  0.00000000000E+00 0. -1.
         11    1    3    3    0    0 -0.24094607032E+00  0.36102200330E+00  0.46324649735E+01  0.46527544409E+01  0.51100000000E-03 0. -1.
        -11    1    3    3    0    0 -0.72076401654E+01 -0.47401708014E+01  0.10232371843E+02  0.13383599283E+02  0.51100000000E-03 0.  1.
         12    1    3    3    0    0 -0.84751814766E+01 -0.12025024844E+02  0.23948179144E+02  0.28105963920E+02  0.00000000000E+00 0. -1.
</event>
<event>
 7    1  0.3046295E-009  0.4614232E+02  0.7816164E-02  0.1320468E+00
        -11   -1    0    0    0    0  0.00000000000E+00  0.00000000000E+00  0.45593999997E+02  0.45594000000E+02  0.51100000000E-03 0.  1.
         11   -1    0    0    0    0 -0.00000000000E+00 -0.00000000000E+00 -0.45593999997E+02  0.45594000000E+02  0.51100000000E-03 0. -1.
    9900012    2    1    2    0    0 -0.85110737894E+01 -0.28319012457E+02  0.33981004059E+02  0.46142317849E+02  0.10000000803E+02 0.  0.
         12    1    1    2    0    0  0.85110737894E+01  0.28319012457E+02 -0.33981004059E+02  0.45045682151E+02  0.00000000000E+00 0. -1.
         11    1    3    3    0    0  0.50139155003E+00 -0.27220021431E+01  0.30899139652E+01  0.41482837086E+01  0.51100000000E-03 0. -1.
        -11    1    3    3    0    0 -0.47319592063E+01 -0.22899680031E+02  0.25117777087E+02  0.34317481107E+02  0.51100000000E-03 0.  1.
        -12    1    3    3    0    0 -0.42805061331E+01 -0.26973302830E+01  0.57733130063E+01  0.76765530338E+01  0.00000000000E+00 0.  1.
</event>
<event>
 7    1  0.3046295E-009  0.4614232E+02  0.7816164E-02  0.1320468E+00
        -11   -1    0    0    0    0  0.00000000000E+00  0.00000000000E+00  0.45593999997E+02  0.45594000000E+02  0.51100000000E-03 0. -1.
         11   -1    0    0    0    0 -0.00000000000E+00 -0.00000000000E+00 -0.45593999997E+02  0.45594000000E+02  0.51100000000E-03 0.  1.
    9900012    2    1    2    0    0 -0.13932383784E+02 -0.42189175937E+02 -0.74212967596E+01  0.46142317302E+02  0.99999958131E+01 0.  0.
         12    1    1    2    0    0  0.13932383784E+02  0.42189175937E+02  0.74212967596E+01  0.45045682698E+02  0.00000000000E+00 0. -1.
         11    1    3    3    0    0 -0.13692502816E+01 -0.12998258690E+01  0.92282714497E+00  0.21014289957E+01  0.51100000000E-03 0. -1.
        -11    1    3    3    0    0 -0.28299345609E+01 -0.67249919177E+01  0.85298159643E+00  0.73458575930E+01  0.51100000000E-03 0.  1.
        -12    1    3    3    0    0 -0.97331989420E+01 -0.34164358150E+02 -0.91971055011E+01  0.36695030713E+02  0.00000000000E+00 0.  1.
</event>
<event>
 7    1  0.3046295E-009  0.4614232E+02  0.7816164E-02  0.1320468E+00
        -11   -1    0    0    0    0  0.00000000000E+00  0.00000000000E+00  0.45593999997E+02  0.45594000000E+02  0.51100000000E-03 0.  1.
         11   -1    0    0    0    0 -0.00000000000E+00 -0.00000000000E+00 -0.45593999997E+02  0.45594000000E+02  0.51100000000E-03 0. -1.
    9900012    2    1    2    0    0  0.18202287978E+02 -0.37168030802E+02  0.17785603967E+02  0.46142317523E+02  0.99999978255E+01 0.  0.
         12    1    1    2    0    0 -0.18202287978E+02  0.37168030802E+02 -0.17785603967E+02  0.45045682477E+02  0.00000000000E+00 0. -1.
         11    1    3    3    0    0  0.50794140807E+01 -0.17399970045E+02  0.58851602600E+01  0.19057662934E+02  0.51100000000E-03 0. -1.
        -11    1    3    3    0    0  0.27753563642E+01 -0.14948529668E+01  0.50523020190E+00  0.31925610658E+01  0.51100000000E-03 0.  1.
         12    1    3    3    0    0  0.10347517534E+02 -0.18273207791E+02  0.11395213505E+02  0.23892093523E+02  0.00000000000E+00 0. -1.
</event>
<event>
 7    1  0.3046295E-009  0.4614232E+02  0.7816164E-02  0.1320468E+00
        -11   -1    0    0    0    0  0.00000000000E+00  0.00000000000E+00  0.45593999997E+02  0.45594000000E+02  0.51100000000E-03 0. -1.
         11   -1    0    0    0    0 -0.00000000000E+00 -0.00000000000E+00 -0.45593999997E+02  0.45594000000E+02  0.51100000000E-03 0.  1.
    9900012    2    1    2    0    0  0.58311514053E+01  0.47140278374E+01 -0.44417215752E+02  0.46142318294E+02  0.10000004864E+02 0.  0.
         12    1    1    2    0    0 -0.58311514053E+01 -0.47140278374E+01  0.44417215752E+02  0.45045681706E+02  0.00000000000E+00 0. -1.
         11    1    3    3    0    0 -0.40629647631E+00 -0.26570421429E+00 -0.12806955786E+02  0.12816153570E+02  0.51100000000E-03 0. -1.
        -11    1    3    3    0    0  0.10072977651E+01  0.64765859485E+00 -0.18702876561E+02  0.18741176653E+02  0.51100000000E-03 0.  1.
         12    1    3    3    0    0  0.52301501165E+01  0.43320734569E+01 -0.12907383405E+02  0.14584988071E+02  0.00000000000E+00 0. -1.
</event>
<event>
 7    1  0.3046295E-009  0.4614232E+02  0.7816164E-02  0.1320468E+00
        -11   -1    0    0    0    0  0.00000000000E+00  0.00000000000E+00  0.45593999997E+02  0.45594000000E+02  0.51100000000E-03 0.  1.
         11   -1    0    0    0    0 -0.00000000000E+00 -0.00000000000E+00 -0.45593999997E+02  0.45594000000E+02  0.51100000000E-03 0. -1.
    9900012    2    1    2    0    0  0.40794456256E+02 -0.58442377760E+01  0.18187103485E+02  0.46142317526E+02  0.99999978525E+01 0.  0.
         12    1    1    2    0    0 -0.40794456256E+02  0.58442377760E+01 -0.18187103485E+02  0.45045682474E+02  0.00000000000E+00 0. -1.
         11    1    3    3    0    0  0.27345853395E+02 -0.80370892732E+01  0.11102237434E+02  0.30588399405E+02  0.51100000000E-03 0. -1.
        -11    1    3    3    0    0  0.11693291151E+02  0.10458293138E+01  0.62177552510E+01  0.13284852183E+02  0.51100000000E-03 0.  1.
         12    1    3    3    0    0  0.17553117098E+01  0.11470221834E+01  0.86711080027E+00  0.22690659373E+01  0.00000000000E+00 0. -1.
</event>
<event>
 7    1  0.3046295E-009  0.4614232E+02  0.7816164E-02  0.1320468E+00
        -11   -1    0    0    0    0  0.00000000000E+00  0.00000000000E+00  0.45593999997E+02  0.45594000000E+02  0.51100000000E-03 0. -1.
         11   -1    0    0    0    0 -0.00000000000E+00 -0.00000000000E+00 -0.45593999997E+02  0.45594000000E+02  0.51100000000E-03 0.  1.
    9900012    2    1    2    0    0 -0.16809372546E+02  0.14786559047E+02 -0.39088566559E+02  0.46142319081E+02  0.10000012033E+02 0.  0.
         12    1    1    2    0    0  0.16809372546E+02 -0.14786559047E+02  0.39088566559E+02  0.45045680919E+02  0.00000000000E+00 0. -1.
         11    1    3    3    0    0 -0.10881393520E+02  0.10152761159E+02 -0.17361058699E+02  0.22866780348E+02  0.51100000000E-03 0. -1.
        -11    1    3    3    0    0 -0.62668801553E+01  0.36804699688E+01 -0.19915994228E+02  0.21200624340E+02  0.51100000000E-03 0.  1.
        -12    1    3    3    0    0  0.33890112842E+00  0.95332791937E+00 -0.18115136323E+01  0.20749143926E+01  0.00000000000E+00 0.  1.
</event>
<event>
 7    1  0.3046295E-009  0.4614232E+02  0.7816164E-02  0.1320468E+00
        -11   -1    0    0    0    0  0.00000000000E+00  0.00000000000E+00  0.45593999997E+02  0.45594000000E+02  0.51100000000E-03 0. -1.
         11   -1    0    0    0    0 -0.00000000000E+00 -0.00000000000E+00 -0.45593999997E+02  0.45594000000E+02  0.51100000000E-03 0.  1.
    9900012    2    1    2    0    0  0.21767471141E+02  0.14565766958E+02 -0.36648726303E+02  0.46142317559E+02  0.99999981546E+01 0.  0.
         12    1    1    2    0    0 -0.21767471141E+02 -0.14565766958E+02  0.36648726303E+02  0.45045682441E+02  0.00000000000E+00 0. -1.
         11    1    3    3    0    0  0.19305279732E+01  0.14238835131E+01 -0.51188274647E+00  0.24528364645E+01  0.51100000000E-03 0. -1.
        -11    1    3    3    0    0  0.17887790156E+02  0.13484022689E+02 -0.34432112290E+02  0.41077515280E+02  0.51100000000E-03 0.  1.
         12    1    3    3    0    0  0.19491530117E+01 -0.34213924350E+00 -0.17047312667E+01  0.26119658146E+01  0.00000000000E+00 0. -1.
</event>
<event>
 7    1  0.3046295E-009  0.4614232E+02  0.7816164E-02  0.1320468E+00
        -11   -1    0    0    0    0  0.00000000000E+00  0.00000000000E+00  0.45593999997E+02  0.45594000000E+02  0.51100000000E-03 0.  1.
         11   -1    0    0    0    0 -0.00000000000E+00 -0.00000000000E+00 -0.45593999997E+02  0.45594000000E+02  0.51100000000E-03 0. -1.
    9900012    2    1    2    0    0 -0.45420406922E+01  0.28497800718E+01  0.44725409991E+02  0.46142315646E+02  0.99999807117E+01 0.  0.
         12    1    1    2    0    0  0.45420406922E+01 -0.28497800718E+01 -0.44725409991E+02  0.45045684354E+02  0.00000000000E+00 0. -1.
         11    1    3    3    0    0 -0.34001938224E+01 -0.33556049857E+00  0.65033895424E+01  0.73462912194E+01  0.51100000000E-03 0. -1.
        -11    1    3    3    0    0 -0.54612287919E+00  0.25250820743E+01  0.56584924562E+01  0.62203558434E+01  0.51100000000E-03 0.  1.
         12    1    3    3    0    0 -0.59572399056E+00  0.66025849613E+00  0.32563527992E+02  0.32575668583E+02  0.00000000000E+00 0. -1.
</event>
<event>
 7    1  0.3046295E-009  0.4614232E+02  0.7816164E-02  0.1320468E+00
        -11   -1    0    0    0    0  0.00000000000E+00  0.00000000000E+00  0.45593999997E+02  0.45594000000E+02  0.51100000000E-03 0. -1.
         11   -1    0    0    0    0 -0.00000000000E+00 -0.00000000000E+00 -0.45593999997E+02  0.45594000000E+02  0.51100000000E-03 0.  1.
    9900012    2    1    2    0    0  0.37314803550E+02 -0.58508356111E+01 -0.24545600783E+02  0.46142319196E+02  0.10000013082E+02 0.  0.
         12    1    1    2    0    0 -0.37314803550E+02  0.58508356111E+01  0.24545600783E+02  0.45045680804E+02  0.00000000000E+00 0. -1.
         11    1    3    3    0    0  0.11092940622E+02 -0.35765307230E+01 -0.10944703513E+02  0.15988478318E+02  0.51100000000E-03 0. -1.
        -11    1    3    3    0    0  0.12435515810E+02 -0.88399393684E+00 -0.33239546417E+01  0.12902409599E+02  0.51100000000E-03 0.  1.
        -12    1    3    3    0    0  0.13786347118E+02 -0.13903109513E+01 -0.10276942628E+02  0.17251431279E+02  0.00000000000E+00 0.  1.
</event>
<event>
 7    1  0.3046295E-009  0.4614232E+02  0.7816164E-02  0.1320468E+00
        -11   -1    0    0    0    0  0.00000000000E+00  0.00000000000E+00  0.45593999997E+02  0.45594000000E+02  0.51100000000E-03 0.  1.
         11   -1    0    0    0    0 -0.00000000000E+00 -0.00000000000E+00 -0.45593999997E+02  0.45594000000E+02  0.51100000000E-03 0. -1.
    9900012    2    1    2    0    0 -0.37576295058E+02 -0.96560581248E+01  0.22888774148E+02  0.46142318844E+02  0.10000009874E+02 0.  0.
         12    1    1    2    0    0  0.37576295058E+02  0.96560581248E+01 -0.22888774148E+02  0.45045681156E+02  0.00000000000E+00 0. -1.
         11    1    3    3    0    0 -0.13198893666E+02 -0.79353642710E+01  0.70374198421E+01  0.16932397303E+02  0.51100000000E-03 0. -1.
        -11    1    3    3    0    0 -0.35776983201E+01 -0.80909462280E+00  0.30420133624E+01  0.47653336648E+01  0.51100000000E-03 0.  1.
         12    1    3    3    0    0 -0.20799703072E+02 -0.91159923104E+00  0.12809340944E+02  0.24444587876E+02  0.00000000000E+00 0. -1.
</event>
<event>
 7    1  0.3046295E-009  0.4614232E+02  0.7816164E-02  0.1320468E+00
        -11   -1    0    0    0    0  0.00000000000E+00  0.00000000000E+00  0.45593999997E+02  0.45594000000E+02  0.51100000000E-03 0.  1.
         11   -1    0    0    0    0 -0.00000000000E+00 -0.00000000000E+00 -0.45593999997E+02  0.45594000000E+02  0.51100000000E-03 0. -1.
    9900012    2    1    2    0    0  0.22681317773E+02  0.38613682835E+02  0.48636270403E+01  0.46142317122E+02  0.99999941698E+01 0.  0.
         12    1    1    2    0    0 -0.22681317773E+02 -0.38613682835E+02 -0.48636270403E+01  0.45045682878E+02  0.00000000000E+00 0. -1.
         11    1    3    3    0    0  0.15209946046E+01  0.14235845261E+01 -0.52820896341E+00  0.21491911177E+01  0.51100000000E-03 0. -1.
        -11    1    3    3    0    0 -0.24488899085E+00  0.35640216543E+00  0.10925857665E+01  0.11750476755E+01  0.51100000000E-03 0.  1.
        -12    1    3    3    0    0  0.21405212159E+02  0.36833696143E+02  0.42992502372E+01  0.42818078329E+02  0.00000000000E+00 0.  1.
</event>
<event>
 7    1  0.3046295E-009  0.4614232E+02  0.7816164E-02  0.1320468E+00
        -11   -1    0    0    0    0  0.00000000000E+00  0.00000000000E+00  0.45593999997E+02  0.45594000000E+02  0.51100000000E-03 0. -1.
         11   -1    0    0    0    0 -0.00000000000E+00 -0.00000000000E+00 -0.45593999997E+02  0.45594000000E+02  0.51100000000E-03 0.  1.
    9900012    2    1    2    0    0  0.42324256724E+02 -0.14985368933E+02  0.36344816239E+01  0.46142318232E+02  0.10000004294E+02 0.  0.
         12    1    1    2    0    0 -0.42324256724E+02  0.14985368933E+02 -0.36344816239E+01  0.45045681768E+02  0.00000000000E+00 0. -1.
         11    1    3    3    0    0  0.17498665982E+02 -0.67168429299E+01  0.32305281802E+01  0.19019873887E+02  0.51100000000E-03 0. -1.
        -11    1    3    3    0    0  0.18942426266E+02 -0.87981597920E+01 -0.14368061584E+01  0.20935318024E+02  0.51100000000E-03 0.  1.
        -12    1    3    3    0    0  0.58831644756E+01  0.52963378913E+00  0.18407596022E+01  0.61871263209E+01  0.00000000000E+00 0.  1.
</event>
<event>
 7    1  0.3046295E-009  0.4614232E+02  0.7816164E-02  0.1320468E+00
        -11   -1    0    0    0    0  0.00000000000E+00  0.00000000000E+00  0.45593999997E+02  0.45594000000E+02  0.51100000000E-03 0.  1.
         11   -1    0    0    0    0 -0.00000000000E+00 -0.00000000000E+00 -0.45593999997E+02  0.45594000000E+02  0.51100000000E-03 0. -1.
    9900012    2    1    2    0    0 -0.36914292751E+02 -0.20462641225E+02  0.15739400869E+02  0.46142318354E+02  0.10000005410E+02 0.  0.
         12    1    1    2    0    0  0.36914292751E+02  0.20462641225E+02 -0.15739400869E+02  0.45045681646E+02  0.00000000000E+00 0. -1.
         11    1    3    3    0    0 -0.27685285371E+02 -0.15535620105E+02  0.70820015420E+01  0.32526685418E+02  0.51100000000E-03 0. -1.
        -11    1    3    3    0    0 -0.28391834121E+01 -0.18365550739E+01  0.32785068609E+01  0.47098306217E+01  0.51100000000E-03 0.  1.
         12    1    3    3    0    0 -0.63898239673E+01 -0.30904660461E+01  0.53788924660E+01  0.89058023151E+01  0.00000000000E+00 0. -1.
</event>
<event>
 7    1  0.3046295E-009  0.4614232E+02  0.7816164E-02  0.1320468E+00
        -11   -1    0    0    0    0  0.00000000000E+00  0.00000000000E+00  0.45593999997E+02  0.45594000000E+02  0.51100000000E-03 0. -1.
         11   -1    0    0    0    0 -0.00000000000E+00 -0.00000000000E+00 -0.45593999997E+02  0.45594000000E+02  0.51100000000E-03 0.  1.
    9900012    2    1    2    0    0  0.43005182488E+02  0.11090777090E+02  0.75274287548E+01  0.46142320507E+02  0.10000025041E+02 0.  0.
         12    1    1    2    0    0 -0.43005182488E+02 -0.11090777090E+02 -0.75274287548E+01  0.45045679493E+02  0.00000000000E+00 0. -1.
         11    1    3    3    0    0  0.13410864194E+02  0.71376366989E+01  0.50257721469E+01  0.16001734969E+02  0.51100000000E-03 0. -1.
        -11    1    3    3    0    0  0.57769849433E+01  0.59293615870E+00 -0.79877532559E+00  0.58620107988E+01  0.51100000000E-03 0.  1.
         12    1    3    3    0    0  0.23817333351E+02  0.33602042322E+01  0.33004319334E+01  0.24278574740E+02  0.00000000000E+00 0. -1.
</event>
<event>
 7    1  0.3046295E-009  0.4614232E+02  0.7816164E-02  0.1320468E+00
        -11   -1    0    0    0    0  0.00000000000E+00  0.00000000000E+00  0.45593999997E+02  0.45594000000E+02  0.51100000000E-03 0. -1.
         11   -1    0    0    0    0 -0.00000000000E+00 -0.00000000000E+00 -0.45593999997E+02  0.45594000000E+02  0.51100000000E-03 0.  1.
    9900012    2    1    2    0    0  0.37558458818E+02  0.13899537572E+02 -0.20622280033E+02  0.46142318662E+02  0.10000008211E+02 0.  0.
         12    1    1    2    0    0 -0.37558458818E+02 -0.13899537572E+02  0.20622280033E+02  0.45045681338E+02  0.00000000000E+00 0. -1.
         11    1    3    3    0    0  0.31844749048E+01  0.37683263901E+01 -0.31759368162E+01  0.58675155836E+01  0.51100000000E-03 0. -1.
        -11    1    3    3    0    0  0.78911040990E+01  0.18411041093E+01 -0.67084214972E+01  0.10519605862E+02  0.51100000000E-03 0.  1.
        -12    1    3    3    0    0  0.26482879814E+02  0.82901070728E+01 -0.10737921720E+02  0.29755197216E+02  0.00000000000E+00 0.  1.
</event>
<event>
 7    1  0.3046295E-009  0.4614232E+02  0.7816164E-02  0.1320468E+00
        -11   -1    0    0    0    0  0.00000000000E+00  0.00000000000E+00  0.45593999997E+02  0.45594000000E+02  0.51100000000E-03 0.  1.
         11   -1    0    0    0    0 -0.00000000000E+00 -0.00000000000E+00 -0.45593999997E+02  0.45594000000E+02  0.51100000000E-03 0. -1.
    9900012    2    1    2    0    0 -0.43048839260E+02 -0.10443199435E+02 -0.81762187005E+01  0.46142317318E+02  0.99999959570E+01 0.  0.
         12    1    1    2    0    0  0.43048839260E+02  0.10443199435E+02  0.81762187005E+01  0.45045682682E+02  0.00000000000E+00 0. -1.
         11    1    3    3    0    0 -0.12997953484E+02 -0.62572291156E+01 -0.52356279130E+01  0.15346384294E+02  0.51100000000E-03 0. -1.
        -11    1    3    3    0    0 -0.29880520515E+01 -0.14750222509E+01  0.54033335669E+00  0.33758119173E+01  0.51100000000E-03 0.  1.
         12    1    3    3    0    0 -0.27062833724E+02 -0.27109480682E+01 -0.34809241442E+01  0.27420121107E+02  0.00000000000E+00 0. -1.
</event>
<event>
 7    1  0.3046295E-009  0.4614232E+02  0.7816164E-02  0.1320468E+00
        -11   -1    0    0    0    0  0.00000000000E+00  0.00000000000E+00  0.45593999997E+02  0.45594000000E+02  0.51100000000E-03 0.  1.
         11   -1    0    0    0    0 -0.00000000000E+00 -0.00000000000E+00 -0.45593999997E+02  0.45594000000E+02  0.51100000000E-03 0. -1.
    9900012    2    1    2    0    0  0.14013059351E+02  0.25956367390E+01  0.42731841968E+02  0.46142317850E+02  0.10000000807E+02 0.  0.
         12    1    1    2    0    0 -0.14013059351E+02 -0.25956367390E+01 -0.42731841968E+02  0.45045682150E+02  0.00000000000E+00 0. -1.
         11    1    3    3    0    0  0.36190791434E+01 -0.18708876596E+01  0.42228452135E+01  0.58677403180E+01  0.51100000000E-03 0. -1.
        -11    1    3    3    0    0  0.61875769503E+01  0.87381418167E+00  0.21374224157E+02  0.22268972098E+02  0.51100000000E-03 0.  1.
         12    1    3    3    0    0  0.42064032571E+01  0.35927102170E+01  0.17134772597E+02  0.18005605434E+02  0.00000000000E+00 0. -1.
</event>
<event>
 7    1  0.3046295E-009  0.4614232E+02  0.7816164E-02  0.1320468E+00
        -11   -1    0    0    0    0  0.00000000000E+00  0.00000000000E+00  0.45593999997E+02  0.45594000000E+02  0.51100000000E-03 0.  1.
         11   -1    0    0    0    0 -0.00000000000E+00 -0.00000000000E+00 -0.45593999997E+02  0.45594000000E+02  0.51100000000E-03 0. -1.
    9900012    2    1    2    0    0  0.52028586012E+01 -0.18338637335E+02  0.40813453459E+02  0.46142319406E+02  0.10000014997E+02 0.  0.
         12    1    1    2    0    0 -0.52028586012E+01  0.18338637335E+02 -0.40813453459E+02  0.45045680594E+02  0.00000000000E+00 0. -1.
         11    1    3    3    0    0  0.21981959486E+01 -0.12642884364E+01  0.10018671644E+02  0.10334615254E+02  0.51100000000E-03 0. -1.
        -11    1    3    3    0    0 -0.59231500564E+00 -0.44092192628E+00  0.14818563185E+00  0.75313242766E+00  0.51100000000E-03 0.  1.
        -12    1    3    3    0    0  0.35969776583E+01 -0.16633426972E+02  0.30646596183E+02  0.35054571724E+02  0.00000000000E+00 0.  1.
</event>
<event>
 7    1  0.3046295E-009  0.4614232E+02  0.7816164E-02  0.1320468E+00
        -11   -1    0    0    0    0  0.00000000000E+00  0.00000000000E+00  0.45593999997E+02  0.45594000000E+02  0.51100000000E-03 0. -1.
         11   -1    0    0    0    0 -0.00000000000E+00 -0.00000000000E+00 -0.45593999997E+02  0.45594000000E+02  0.51100000000E-03 0.  1.
    9900012    2    1    2    0    0  0.30872242981E+01  0.38954931647E+02 -0.22407495287E+02  0.46142317648E+02  0.99999989730E+01 0.  0.
         12    1    1    2    0    0 -0.30872242981E+01 -0.38954931647E+02  0.22407495287E+02  0.45045682352E+02  0.00000000000E+00 0. -1.
         11    1    3    3    0    0  0.14451192778E+01  0.37696853536E+01 -0.58335155848E+01  0.70942795075E+01  0.51100000000E-03 0. -1.
        -11    1    3    3    0    0  0.24105835623E+01  0.24268943663E+02 -0.12106807647E+02  0.27228061468E+02  0.51100000000E-03 0.  1.
         12    1    3    3    0    0 -0.76847854202E+00  0.10916302630E+02 -0.44671720553E+01  0.11819976673E+02  0.00000000000E+00 0. -1.
</event>
<event>
 7    1  0.3046295E-009  0.4614232E+02  0.7816164E-02  0.1320468E+00
        -11   -1    0    0    0    0  0.00000000000E+00  0.00000000000E+00  0.45593999997E+02  0.45594000000E+02  0.51100000000E-03 0.  1.
         11   -1    0    0    0    0 -0.00000000000E+00 -0.00000000000E+00 -0.45593999997E+02  0.45594000000E+02  0.51100000000E-03 0. -1.
    9900012    2    1    2    0    0  0.39642717358E+02  0.16968235173E+02  0.13024877445E+02  0.46142317889E+02  0.10000001166E+02 0.  0.
         12    1    1    2    0    0 -0.39642717358E+02 -0.16968235173E+02 -0.13024877445E+02  0.45045682111E+02  0.00000000000E+00 0. -1.
         11    1    3    3    0    0  0.63169321328E+01  0.16841822516E+01  0.51984961493E+01  0.83525124305E+01  0.51100000000E-03 0.  1.
        -11    1    3    3    0    0  0.29657967584E+01  0.11391192231E+01 -0.64464553833E+00  0.32417759249E+01  0.51100000000E-03 0. -1.
        -12    1    3    3    0    0  0.30359988467E+02  0.14144933698E+02  0.84710268343E+01  0.34548029533E+02  0.00000000000E+00 0.  1.
</event>
<event>
 7    1  0.3046295E-009  0.4614232E+02  0.7816164E-02  0.1320468E+00
        -11   -1    0    0    0    0  0.00000000000E+00  0.00000000000E+00  0.45593999997E+02  0.45594000000E+02  0.51100000000E-03 0. -1.
         11   -1    0    0    0    0 -0.00000000000E+00 -0.00000000000E+00 -0.45593999997E+02  0.45594000000E+02  0.51100000000E-03 0.  1.
    9900012    2    1    2    0    0 -0.39023596447E+02 -0.12804012295E+02 -0.18502155686E+02  0.46142316794E+02  0.99999911811E+01 0.  0.
         12    1    1    2    0    0  0.39023596447E+02  0.12804012295E+02  0.18502155686E+02  0.45045683206E+02  0.00000000000E+00 0. -1.
         11    1    3    3    0    0 -0.16483891008E+02 -0.65181505681E+01 -0.49928128318E+01  0.18415567595E+02  0.51100000000E-03 0. -1.
        -11    1    3    3    0    0 -0.34586086914E+00 -0.48477905759E+00 -0.19510635521E+01  0.20399214988E+01  0.51100000000E-03 0.  1.
        -12    1    3    3    0    0 -0.22193844569E+02 -0.58010826692E+01 -0.11558279302E+02  0.25686827701E+02  0.00000000000E+00 0.  1.
</event>
<event>
 7    1  0.3046295E-009  0.4614232E+02  0.7816164E-02  0.1320468E+00
        -11   -1    0    0    0    0  0.00000000000E+00  0.00000000000E+00  0.45593999997E+02  0.45594000000E+02  0.51100000000E-03 0. -1.
         11   -1    0    0    0    0 -0.00000000000E+00 -0.00000000000E+00 -0.45593999997E+02  0.45594000000E+02  0.51100000000E-03 0.  1.
    9900012    2    1    2    0    0  0.93859622404E+01  0.43396972736E+02  0.75973433719E+01  0.46142321448E+02  0.10000033624E+02 0.  0.
         12    1    1    2    0    0 -0.93859622404E+01 -0.43396972736E+02 -0.75973433719E+01  0.45045678552E+02  0.00000000000E+00 0. -1.
         11    1    3    3    0    0  0.28158507584E+01  0.19616746013E+02  0.60460671577E+01  0.20719572100E+02  0.51100000000E-03 0. -1.
        -11    1    3    3    0    0  0.63449255524E+01  0.18270217596E+02  0.33366869363E+01  0.19626319351E+02  0.51100000000E-03 0.  1.
        -12    1    3    3    0    0  0.22518592959E+00  0.55100091265E+01 -0.17854107220E+01  0.57964299981E+01  0.00000000000E+00 0.  1.
</event>
<event>
 7    1  0.3046295E-009  0.4614232E+02  0.7816164E-02  0.1320468E+00
        -11   -1    0    0    0    0  0.00000000000E+00  0.00000000000E+00  0.45593999997E+02  0.45594000000E+02  0.51100000000E-03 0.  1.
         11   -1    0    0    0    0 -0.00000000000E+00 -0.00000000000E+00 -0.45593999997E+02  0.45594000000E+02  0.51100000000E-03 0. -1.
    9900012    2    1    2    0    0  0.34953456010E+02  0.27964222796E+02 -0.50370304075E+01  0.46142317422E+02  0.99999969076E+01 0.  0.
         12    1    1    2    0    0 -0.34953456010E+02 -0.27964222796E+02  0.50370304075E+01  0.45045682578E+02  0.00000000000E+00 0. -1.
         11    1    3    3    0    0  0.15668548712E+02  0.76708246458E+01 -0.30578751128E+01  0.17711453073E+02  0.51100000000E-03 0. -1.
        -11    1    3    3    0    0  0.70674454685E+01  0.55837109199E+01 -0.23388166804E+01  0.93057335451E+01  0.51100000000E-03 0.  1.
         12    1    3    3    0    0  0.12217461829E+02  0.14709687230E+02  0.35966138570E+00  0.19125130804E+02  0.00000000000E+00 0. -1.
</event>
<event>
 7    1  0.3046295E-009  0.4614232E+02  0.7816164E-02  0.1320468E+00
        -11   -1    0    0    0    0  0.00000000000E+00  0.00000000000E+00  0.45593999997E+02  0.45594000000E+02  0.51100000000E-03 0.  1.
         11   -1    0    0    0    0 -0.00000000000E+00 -0.00000000000E+00 -0.45593999997E+02  0.45594000000E+02  0.51100000000E-03 0. -1.
    9900012    2    1    2    0    0 -0.92386213033E+01 -0.25606143986E+02  0.35889925234E+02  0.46142318002E+02  0.10000002193E+02 0.  0.
         12    1    1    2    0    0  0.92386213033E+01  0.25606143986E+02 -0.35889925234E+02  0.45045681998E+02  0.00000000000E+00 0. -1.
         11    1    3    3    0    0  0.15957461880E+01 -0.24650933628E+01  0.56742305398E+01  0.63890518595E+01  0.51100000000E-03 0. -1.
        -11    1    3    3    0    0 -0.84634244366E+01 -0.14706491608E+02  0.18203229275E+02  0.24885096040E+02  0.51100000000E-03 0.  1.
         12    1    3    3    0    0 -0.23709430547E+01 -0.84345590150E+01  0.12012465419E+02  0.14868170102E+02  0.00000000000E+00 0. -1.
</event>
<event>
 7    1  0.3046295E-009  0.4614232E+02  0.7816164E-02  0.1320468E+00
        -11   -1    0    0    0    0  0.00000000000E+00  0.00000000000E+00  0.45593999997E+02  0.45594000000E+02  0.51100000000E-03 0.  1.
         11   -1    0    0    0    0 -0.00000000000E+00 -0.00000000000E+00 -0.45593999997E+02  0.45594000000E+02  0.51100000000E-03 0. -1.
    9900012    2    1    2    0    0  0.85814181792E+01  0.30138073200E+02  0.32359994505E+02  0.46142318315E+02  0.10000005048E+02 0.  0.
         12    1    1    2    0    0 -0.85814181792E+01 -0.30138073200E+02 -0.32359994505E+02  0.45045681685E+02  0.00000000000E+00 0. -1.
         11    1    3    3    0    0  0.45456586454E+01  0.44728737614E+01  0.73336472971E+01  0.97186416307E+01  0.51100000000E-03 0. -1.
        -11    1    3    3    0    0  0.50192390848E+01  0.22763011080E+02  0.21085009142E+02  0.31431274953E+02  0.51100000000E-03 0.  1.
         12    1    3    3    0    0 -0.98347955094E+00  0.29021883587E+01  0.39413380651E+01  0.49924017306E+01  0.00000000000E+00 0. -1.
</event>
<event>
 7    1  0.3046295E-009  0.4614232E+02  0.7816164E-02  0.1320468E+00
        -11   -1    0    0    0    0  0.00000000000E+00  0.00000000000E+00  0.45593999997E+02  0.45594000000E+02  0.51100000000E-03 0. -1.
         11   -1    0    0    0    0 -0.00000000000E+00 -0.00000000000E+00 -0.45593999997E+02  0.45594000000E+02  0.51100000000E-03 0.  1.
    9900012    2    1    2    0    0 -0.25669635795E+02 -0.82422420931E+01 -0.36086686754E+02  0.46142315218E+02  0.99999768106E+01 0.  0.
         12    1    1    2    0    0  0.25669635795E+02  0.82422420931E+01  0.36086686754E+02  0.45045684782E+02  0.00000000000E+00 0. -1.
         11    1    3    3    0    0 -0.20410394037E+01 -0.31966585653E+01 -0.65306526006E+01  0.75520786199E+01  0.51100000000E-03 0. -1.
        -11    1    3    3    0    0 -0.65693462925E+01 -0.40616395054E+01 -0.90338823269E+01  0.11885464078E+02  0.51100000000E-03 0.  1.
         12    1    3    3    0    0 -0.17059250099E+02 -0.98394402252E+00 -0.20522151827E+02  0.26704772521E+02  0.00000000000E+00 0. -1.
</event>
<event>
 7    1  0.3046295E-009  0.4614232E+02  0.7816164E-02  0.1320468E+00
        -11   -1    0    0    0    0  0.00000000000E+00  0.00000000000E+00  0.45593999997E+02  0.45594000000E+02  0.51100000000E-03 0.  1.
         11   -1    0    0    0    0 -0.00000000000E+00 -0.00000000000E+00 -0.45593999997E+02  0.45594000000E+02  0.51100000000E-03 0. -1.
    9900012    2    1    2    0    0 -0.34627610695E+02  0.19068951269E+02  0.21596695057E+02  0.46142316940E+02  0.99999925150E+01 0.  0.
         12    1    1    2    0    0  0.34627610695E+02 -0.19068951269E+02 -0.21596695057E+02  0.45045683060E+02  0.00000000000E+00 0. -1.
         11    1    3    3    0    0 -0.48713036159E+01  0.48470584758E+01  0.71113944467E+01  0.98891610374E+01  0.51100000000E-03 0. -1.
        -11    1    3    3    0    0 -0.26828789580E+02  0.13045240295E+02  0.14326652384E+02  0.33094035920E+02  0.51100000000E-03 0.  1.
        -12    1    3    3    0    0 -0.29275174987E+01  0.11766524983E+01  0.15864822682E+00  0.31591199830E+01  0.00000000000E+00 0.  1.
</event>
<event>
 7    1  0.3046295E-009  0.4614232E+02  0.7816164E-02  0.1320468E+00
        -11   -1    0    0    0    0  0.00000000000E+00  0.00000000000E+00  0.45593999997E+02  0.45594000000E+02  0.51100000000E-03 0.  1.
         11   -1    0    0    0    0 -0.00000000000E+00 -0.00000000000E+00 -0.45593999997E+02  0.45594000000E+02  0.51100000000E-03 0. -1.
    9900012    2    1    2    0    0  0.21356701049E+02  0.25439622204E+02  0.30427462840E+02  0.46142317050E+02  0.99999935151E+01 0.  0.
         12    1    1    2    0    0 -0.21356701049E+02 -0.25439622204E+02 -0.30427462840E+02  0.45045682950E+02  0.00000000000E+00 0. -1.
         11    1    3    3    0    0  0.40638778855E+01  0.29534469431E+01  0.71767973249E+01  0.87603865450E+01  0.51100000000E-03 0. -1.
        -11    1    3    3    0    0  0.75071420892E+01  0.66024633183E+01  0.46102452545E+01  0.11009271810E+02  0.51100000000E-03 0.  1.
        -12    1    3    3    0    0  0.97856810740E+01  0.15883711943E+02  0.18640420260E+02  0.26372658695E+02  0.00000000000E+00 0.  1.
</event>
<event>
 7    1  0.3046295E-009  0.4614232E+02  0.7816164E-02  0.1320468E+00
        -11   -1    0    0    0    0  0.00000000000E+00  0.00000000000E+00  0.45593999997E+02  0.45594000000E+02  0.51100000000E-03 0.  1.
         11   -1    0    0    0    0 -0.00000000000E+00 -0.00000000000E+00 -0.45593999997E+02  0.45594000000E+02  0.51100000000E-03 0. -1.
    9900012    2    1    2    0    0 -0.29511362552E+02 -0.33905740042E+02  0.29315205553E+01  0.46142317185E+02  0.99999947490E+01 0.  0.
         12    1    1    2    0    0  0.29511362552E+02  0.33905740042E+02 -0.29315205553E+01  0.45045682815E+02  0.00000000000E+00 0. -1.
         11    1    3    3    0    0 -0.19831890917E+02 -0.21524409146E+02  0.54433003143E+01  0.29769675930E+02  0.51100000000E-03 0.  1.
        -11    1    3    3    0    0 -0.62182582156E+00 -0.30552547264E+01 -0.10506359528E+01  0.32901496869E+01  0.51100000000E-03 0. -1.
         12    1    3    3    0    0 -0.90576458130E+01 -0.93260761703E+01 -0.14611438062E+01  0.13082491568E+02  0.00000000000E+00 0. -1.
</event>
<event>
 7    1  0.3046295E-009  0.4614232E+02  0.7816164E-02  0.1320468E+00
        -11   -1    0    0    0    0  0.00000000000E+00  0.00000000000E+00  0.45593999997E+02  0.45594000000E+02  0.51100000000E-03 0.  1.
         11   -1    0    0    0    0 -0.00000000000E+00 -0.00000000000E+00 -0.45593999997E+02  0.45594000000E+02  0.51100000000E-03 0. -1.
    9900012    2    1    2    0    0  0.27087016979E+02 -0.22149903224E+02  0.28368798725E+02  0.46142318268E+02  0.10000004621E+02 0.  0.
         12    1    1    2    0    0 -0.27087016979E+02  0.22149903224E+02 -0.28368798725E+02  0.45045681732E+02  0.00000000000E+00 0. -1.
         11    1    3    3    0    0  0.40753913452E+01 -0.43429127797E+01  0.26385673812E+01  0.65139653142E+01  0.51100000000E-03 0. -1.
        -11    1    3    3    0    0  0.16282992404E+02 -0.99596820023E+01  0.20615891232E+02  0.28095303500E+02  0.51100000000E-03 0.  1.
        -12    1    3    3    0    0  0.67286332294E+01 -0.78473084419E+01  0.51143401112E+01  0.11533049453E+02  0.00000000000E+00 0.  1.
</event>
<event>
 7    1  0.3868159E-009  0.4614232E+02  0.7816164E-02  0.1320468E+00
        -11   -1    0    0    0    0  0.00000000000E+00  0.00000000000E+00  0.45593999997E+02  0.45594000000E+02  0.51100000000E-03 0. -1.
         11   -1    0    0    0    0 -0.00000000000E+00 -0.00000000000E+00 -0.45593999997E+02  0.45594000000E+02  0.51100000000E-03 0.  1.
    9900012    2    1    2    0    0  0.62099463377E-01 -0.40036051546E+02 -0.20645197766E+02  0.46142317959E+02  0.10000001804E+02 0.  0.
         12    1    1    2    0    0 -0.62099463377E-01  0.40036051546E+02  0.20645197766E+02  0.45045682041E+02  0.00000000000E+00 0. -1.
         11    1    3    3    0    0 -0.34101961974E+01 -0.83943114401E+01 -0.46670344678E+01  0.10191914130E+02  0.51100000000E-03 0. -1.
        -11    1    3    3    0    0  0.36334711604E+01 -0.19945822987E+02 -0.80192212464E+01  0.21802428236E+02  0.51100000000E-03 0.  1.
        -12    1    3    3    0    0 -0.16117549964E+00 -0.11695917119E+02 -0.79589420513E+01  0.14147975593E+02  0.00000000000E+00 0.  1.
</event>
<event>
 7    1  0.3063352E-009  0.4614232E+02  0.7816164E-02  0.1320468E+00
        -11   -1    0    0    0    0  0.00000000000E+00  0.00000000000E+00  0.45593999997E+02  0.45594000000E+02  0.51100000000E-03 0.  1.
         11   -1    0    0    0    0 -0.00000000000E+00 -0.00000000000E+00 -0.45593999997E+02  0.45594000000E+02  0.51100000000E-03 0. -1.
    9900012    2    1    2    0    0  0.42758668698E+02 -0.12960091175E+02 -0.57311124743E+01  0.46142319161E+02  0.10000012764E+02 0.  0.
         12    1    1    2    0    0 -0.42758668698E+02  0.12960091175E+02  0.57311124743E+01  0.45045680839E+02  0.00000000000E+00 0. -1.
         11    1    3    3    0    0  0.15597502978E+01 -0.13933636323E+01  0.10389797233E+01  0.23353291695E+01  0.51100000000E-03 0. -1.
        -11    1    3    3    0    0  0.34467023124E+02 -0.71850089779E+01 -0.62452344050E+01  0.35757558502E+02  0.51100000000E-03 0.  1.
        -12    1    3    3    0    0  0.67318952764E+01 -0.43817185648E+01 -0.52485779265E+00  0.80494314890E+01  0.00000000000E+00 0.  1.
</event>
<event>
 7    1  0.3046295E-009  0.4614232E+02  0.7816164E-02  0.1320468E+00
        -11   -1    0    0    0    0  0.00000000000E+00  0.00000000000E+00  0.45593999997E+02  0.45594000000E+02  0.51100000000E-03 0. -1.
         11   -1    0    0    0    0 -0.00000000000E+00 -0.00000000000E+00 -0.45593999997E+02  0.45594000000E+02  0.51100000000E-03 0.  1.
    9900012    2    1    2    0    0  0.83528311013E+01 -0.60855052972E+01 -0.43844161065E+02  0.46142316282E+02  0.99999865118E+01 0.  0.
         12    1    1    2    0    0 -0.83528311013E+01  0.60855052972E+01  0.43844161065E+02  0.45045683718E+02  0.00000000000E+00 0. -1.
         11    1    3    3    0    0 -0.17864781549E+01  0.48834295971E-02 -0.27610588641E+01  0.32886128319E+01  0.51100000000E-03 0. -1.
        -11    1    3    3    0    0  0.48467111947E+01 -0.13380847095E+01 -0.15136208785E+02  0.15949479513E+02  0.51100000000E-03 0.  1.
         12    1    3    3    0    0  0.52925980615E+01 -0.47523040173E+01 -0.25946893416E+02  0.26904223937E+02  0.00000000000E+00 0. -1.
</event>
<event>
 7    1  0.3046295E-009  0.4614232E+02  0.7816164E-02  0.1320468E+00
        -11   -1    0    0    0    0  0.00000000000E+00  0.00000000000E+00  0.45593999997E+02  0.45594000000E+02  0.51100000000E-03 0. -1.
         11   -1    0    0    0    0 -0.00000000000E+00 -0.00000000000E+00 -0.45593999997E+02  0.45594000000E+02  0.51100000000E-03 0.  1.
    9900012    2    1    2    0    0 -0.50016259256E+01  0.43689501301E+02 -0.97634379680E+01  0.46142317556E+02  0.99999981326E+01 0.  0.
         12    1    1    2    0    0  0.50016259256E+01 -0.43689501301E+02  0.97634379680E+01  0.45045682444E+02  0.00000000000E+00 0. -1.
         11    1    3    3    0    0 -0.53514194624E+01  0.26604354640E+02 -0.47441786282E+01  0.27548804098E+02  0.51100000000E-03 0. -1.
        -11    1    3    3    0    0  0.19370946248E+01  0.15433933220E+02 -0.48643088511E+01  0.16297856641E+02  0.51100000000E-03 0.  1.
         12    1    3    3    0    0 -0.15873010880E+01  0.16512134413E+01 -0.15495048863E+00  0.22956568181E+01  0.00000000000E+00 0. -1.
</event>
