<event>
 7    1  0.1265344E-009  0.4778727E+02  0.7816164E-02  0.1312668E+00
        -11   -1    0    0    0    0  0.00000000000E+00  0.00000000000E+00  0.45593999997E+02  0.45594000000E+02  0.51100000000E-03 0.  1.
         11   -1    0    0    0    0 -0.00000000000E+00 -0.00000000000E+00 -0.45593999997E+02  0.45594000000E+02  0.51100000000E-03 0. -1.
    9900012    2    1    2    0    0  0.16169447138E+01 -0.43354835484E+02 -0.11691605768E+01  0.47787271821E+02  0.20000003539E+02 0.  0.
         12    1    1    2    0    0 -0.16169447138E+01  0.43354835484E+02  0.11691605768E+01  0.43400728179E+02  0.00000000000E+00 0. -1.
         11    1    3    3    0    0  0.44889887045E+01 -0.24130637841E+02 -0.91341554797E+00  0.24561617016E+02  0.51100000000E-03 0. -1.
        -11    1    3    3    0    0  0.22280458950E+01 -0.17785708738E+02 -0.13648422159E+00  0.17925240641E+02  0.51100000000E-03 0.  1.
         12    1    3    3    0    0 -0.51000898857E+01 -0.14384889047E+01 -0.11926080724E+00  0.53004141641E+01  0.00000000000E+00 0. -1.
</event>
<event>
 7    1  0.1265344E-009  0.4778727E+02  0.7816164E-02  0.1312668E+00
        -11   -1    0    0    0    0  0.00000000000E+00  0.00000000000E+00  0.45593999997E+02  0.45594000000E+02  0.51100000000E-03 0.  1.
         11   -1    0    0    0    0 -0.00000000000E+00 -0.00000000000E+00 -0.45593999997E+02  0.45594000000E+02  0.51100000000E-03 0. -1.
    9900012    2    1    2    0    0 -0.94370965394E+00 -0.32880822277E+02  0.28312260859E+02  0.47787272166E+02  0.20000005116E+02 0.  0.
         12    1    1    2    0    0  0.94370965394E+00  0.32880822277E+02 -0.28312260859E+02  0.43400727834E+02  0.00000000000E+00 0. -1.
         11    1    3    3    0    0  0.56120139080E+00  0.74342658510E+00 -0.50155686005E+00  0.10579175929E+01  0.51100000000E-03 0. -1.
        -11    1    3    3    0    0  0.48084839668E+01 -0.22560616031E+02  0.23492939412E+02  0.32924475945E+02  0.51100000000E-03 0.  1.
        -12    1    3    3    0    0 -0.63133950116E+01 -0.11063632831E+02  0.53208783068E+01  0.13804878628E+02  0.00000000000E+00 0.  1.
</event>
<event>
 7    1  0.1265344E-009  0.4778727E+02  0.7816164E-02  0.1312668E+00
        -11   -1    0    0    0    0  0.00000000000E+00  0.00000000000E+00  0.45593999997E+02  0.45594000000E+02  0.51100000000E-03 0. -1.
         11   -1    0    0    0    0 -0.00000000000E+00 -0.00000000000E+00 -0.45593999997E+02  0.45594000000E+02  0.51100000000E-03 0.  1.
    9900012    2    1    2    0    0  0.31869833668E+02 -0.29188416339E+02  0.39966350088E+01  0.47787273764E+02  0.20000012400E+02 0.  0.
         12    1    1    2    0    0 -0.31869833668E+02  0.29188416339E+02 -0.39966350088E+01  0.43400726236E+02  0.00000000000E+00 0. -1.
         11    1    3    3    0    0  0.13496427861E+02 -0.97648100857E+01 -0.25622078013E+01  0.16854375992E+02  0.51100000000E-03 0.  1.
        -11    1    3    3    0    0  0.14143543404E+02 -0.21293372308E+02  0.61372196148E+01  0.26289027923E+02  0.51100000000E-03 0. -1.
         12    1    3    3    0    0  0.42298624035E+01  0.18697660553E+01  0.42162319534E+00  0.46438698488E+01  0.00000000000E+00 0. -1.
</event>
<event>
 7    1  0.1265344E-009  0.4778727E+02  0.7816164E-02  0.1312668E+00
        -11   -1    0    0    0    0  0.00000000000E+00  0.00000000000E+00  0.45593999997E+02  0.45594000000E+02  0.51100000000E-03 0.  1.
         11   -1    0    0    0    0 -0.00000000000E+00 -0.00000000000E+00 -0.45593999997E+02  0.45594000000E+02  0.51100000000E-03 0. -1.
    9900012    2    1    2    0    0  0.42168765032E+01  0.20390231835E+02  0.38079911296E+02  0.47787271365E+02  0.20000001461E+02 0.  0.
         12    1    1    2    0    0 -0.42168765032E+01 -0.20390231835E+02 -0.38079911296E+02  0.43400728635E+02  0.00000000000E+00 0. -1.
         11    1    3    3    0    0 -0.66812672622E+00  0.38366303101E+01  0.16857192718E+01  0.42435569023E+01  0.51100000000E-03 0. -1.
        -11    1    3    3    0    0 -0.51841328212E+01  0.75774708380E+01  0.21884554292E+02  0.23732404307E+02  0.51100000000E-03 0.  1.
         12    1    3    3    0    0  0.10069136051E+02  0.89761306874E+01  0.14509637733E+02  0.19811310155E+02  0.00000000000E+00 0. -1.
</event>
<event>
 7    1  0.1265344E-009  0.4778727E+02  0.7816164E-02  0.1312668E+00
        -11   -1    0    0    0    0  0.00000000000E+00  0.00000000000E+00  0.45593999997E+02  0.45594000000E+02  0.51100000000E-03 0.  1.
         11   -1    0    0    0    0 -0.00000000000E+00 -0.00000000000E+00 -0.45593999997E+02  0.45594000000E+02  0.51100000000E-03 0. -1.
    9900012    2    1    2    0    0  0.25272630374E+02  0.86925754206E+01  0.34195852291E+02  0.47787273884E+02  0.20000012948E+02 0.  0.
         12    1    1    2    0    0 -0.25272630374E+02 -0.86925754206E+01 -0.34195852291E+02  0.43400726116E+02  0.00000000000E+00 0. -1.
         11    1    3    3    0    0 -0.18176515187E+01 -0.19282197000E+01  0.37159047975E+01  0.45639716235E+01  0.51100000000E-03 0. -1.
        -11    1    3    3    0    0  0.15111369114E+02  0.25566064687E+01  0.20808179479E+02  0.25843181821E+02  0.51100000000E-03 0.  1.
        -12    1    3    3    0    0  0.11978912779E+02  0.80641886520E+01  0.96717680146E+01  0.17380120440E+02  0.00000000000E+00 0.  1.
</event>
<event>
 7    1  0.1265344E-009  0.4778727E+02  0.7816164E-02  0.1312668E+00
        -11   -1    0    0    0    0  0.00000000000E+00  0.00000000000E+00  0.45593999997E+02  0.45594000000E+02  0.51100000000E-03 0.  1.
         11   -1    0    0    0    0 -0.00000000000E+00 -0.00000000000E+00 -0.45593999997E+02  0.45594000000E+02  0.51100000000E-03 0. -1.
    9900012    2    1    2    0    0  0.32782704889E+02 -0.66140668356E+01  0.27661736566E+02  0.47787270861E+02  0.19999999161E+02 0.  0.
         12    1    1    2    0    0 -0.32782704889E+02  0.66140668356E+01 -0.27661736566E+02  0.43400729139E+02  0.00000000000E+00 0. -1.
         11    1    3    3    0    0  0.18853667774E+02 -0.63382456643E+00  0.50143573061E+01  0.19519382715E+02  0.51100000000E-03 0. -1.
        -11    1    3    3    0    0  0.86757969985E+01  0.15866651674E+00  0.13655153409E+02  0.16178932088E+02  0.51100000000E-03 0.  1.
        -12    1    3    3    0    0  0.52532401171E+01 -0.61389087859E+01  0.89922258516E+01  0.12088956058E+02  0.00000000000E+00 0.  1.
</event>
<event>
 7    1  0.1265344E-009  0.4778727E+02  0.7816164E-02  0.1312668E+00
        -11   -1    0    0    0    0  0.00000000000E+00  0.00000000000E+00  0.45593999997E+02  0.45594000000E+02  0.51100000000E-03 0.  1.
         11   -1    0    0    0    0 -0.00000000000E+00 -0.00000000000E+00 -0.45593999997E+02  0.45594000000E+02  0.51100000000E-03 0. -1.
    9900012    2    1    2    0    0  0.45291172031E+01 -0.29378862161E+02  0.31622662118E+02  0.47787271850E+02  0.20000003672E+02 0.  0.
         12    1    1    2    0    0 -0.45291172031E+01  0.29378862161E+02 -0.31622662118E+02  0.43400728150E+02  0.00000000000E+00 0. -1.
         11    1    3    3    0    0  0.29173605357E+01 -0.14524686286E+02  0.78112418320E+01  0.16747925347E+02  0.51100000000E-03 0. -1.
        -11    1    3    3    0    0  0.64686993210E+01 -0.30934170218E+01  0.91983522518E+01  0.11662889187E+02  0.51100000000E-03 0.  1.
        -12    1    3    3    0    0 -0.48569426536E+01 -0.11760758854E+02  0.14613068034E+02  0.19376457316E+02  0.00000000000E+00 0.  1.
</event>
<event>
 7    1  0.1265344E-009  0.4778729E+02  0.7816164E-02  0.1312668E+00
        -11   -1    0    0    0    0  0.00000000000E+00  0.00000000000E+00  0.45593999997E+02  0.45594000000E+02  0.51100000000E-03 0.  1.
         11   -1    0    0    0    0 -0.00000000000E+00 -0.00000000000E+00 -0.45593999997E+02  0.45594000000E+02  0.51100000000E-03 0. -1.
    9900012    2    1    2    0    0 -0.20186161991E+02 -0.35098822320E+02  0.15627322023E+02  0.47787289663E+02  0.20000084890E+02 0.  0.
         12    1    1    2    0    0  0.20186161991E+02  0.35098822320E+02 -0.15627322023E+02  0.43400710337E+02  0.00000000000E+00 0. -1.
         11    1    3    3    0    0 -0.48453060082E+01 -0.65184675688E+01 -0.28481067115E+01  0.86069229031E+01  0.51100000000E-03 0. -1.
        -11    1    3    3    0    0  0.13002534683E+01 -0.52654677920E+01  0.55321187591E+01  0.77472671553E+01  0.51100000000E-03 0.  1.
         12    1    3    3    0    0 -0.16641109451E+02 -0.23314886959E+02  0.12943309975E+02  0.31433099605E+02  0.00000000000E+00 0. -1.
</event>
<event>
 7    1  0.1265344E-009  0.4778727E+02  0.7816164E-02  0.1312668E+00
        -11   -1    0    0    0    0  0.00000000000E+00  0.00000000000E+00  0.45593999997E+02  0.45594000000E+02  0.51100000000E-03 0.  1.
         11   -1    0    0    0    0 -0.00000000000E+00 -0.00000000000E+00 -0.45593999997E+02  0.45594000000E+02  0.51100000000E-03 0. -1.
    9900012    2    1    2    0    0 -0.16690847510E+02  0.98332519297E+01  0.38837431157E+02  0.47787270824E+02  0.19999998995E+02 0.  0.
         12    1    1    2    0    0  0.16690847510E+02 -0.98332519297E+01 -0.38837431157E+02  0.43400729176E+02  0.00000000000E+00 0. -1.
         11    1    3    3    0    0 -0.31655409562E+00  0.54060268186E+01  0.19052113460E+02  0.19806775609E+02  0.51100000000E-03 0. -1.
        -11    1    3    3    0    0 -0.12989520317E+02  0.13301016943E+01  0.19388543287E+02  0.23375466191E+02  0.51100000000E-03 0.  1.
        -12    1    3    3    0    0 -0.33847730978E+01  0.30971234169E+01  0.39677440966E+00  0.46050290243E+01  0.00000000000E+00 0.  1.
</event>
<event>
 7    1  0.1265344E-009  0.4778728E+02  0.7816164E-02  0.1312668E+00
        -11   -1    0    0    0    0  0.00000000000E+00  0.00000000000E+00  0.45593999997E+02  0.45594000000E+02  0.51100000000E-03 0.  1.
         11   -1    0    0    0    0 -0.00000000000E+00 -0.00000000000E+00 -0.45593999997E+02  0.45594000000E+02  0.51100000000E-03 0. -1.
    9900012    2    1    2    0    0 -0.64885832616E+01  0.32626009450E+00  0.42911704693E+02  0.47787279291E+02  0.20000037598E+02 0.  0.
         12    1    1    2    0    0  0.64885832616E+01 -0.32626009450E+00 -0.42911704693E+02  0.43400720709E+02  0.00000000000E+00 0. -1.
         11    1    3    3    0    0 -0.31392928624E+01  0.37950674325E+01  0.50500386918E+01  0.70541184809E+01  0.51100000000E-03 0. -1.
        -11    1    3    3    0    0 -0.71470012164E+01 -0.63953689012E+01  0.30281575926E+02  0.31764039582E+02  0.51100000000E-03 0.  1.
        -12    1    3    3    0    0  0.37977108172E+01  0.29265615632E+01  0.75800900757E+01  0.89691212273E+01  0.00000000000E+00 0.  1.
</event>
<event>
 7    1  0.1265344E-009  0.4778727E+02  0.7816164E-02  0.1312668E+00
        -11   -1    0    0    0    0  0.00000000000E+00  0.00000000000E+00  0.45593999997E+02  0.45594000000E+02  0.51100000000E-03 0.  1.
         11   -1    0    0    0    0 -0.00000000000E+00 -0.00000000000E+00 -0.45593999997E+02  0.45594000000E+02  0.51100000000E-03 0. -1.
    9900012    2    1    2    0    0 -0.38173782566E+02  0.39917647704E+01  0.20259605345E+02  0.47787268784E+02  0.19999989692E+02 0.  0.
         12    1    1    2    0    0  0.38173782566E+02 -0.39917647704E+01 -0.20259605345E+02  0.43400731216E+02  0.00000000000E+00 0. -1.
         11    1    3    3    0    0  0.56005819071E+00 -0.10013023256E+01  0.28510498163E+01  0.30732323115E+01  0.51100000000E-03 0. -1.
        -11    1    3    3    0    0 -0.19529416076E+02 -0.30403976311E+01  0.46704281509E+01  0.20308988389E+02  0.51100000000E-03 0.  1.
         12    1    3    3    0    0 -0.19204424681E+02  0.80334647271E+01  0.12738127378E+02  0.24405048083E+02  0.00000000000E+00 0. -1.
</event>
<event>
 7    1  0.1583068E-009  0.4778727E+02  0.7816164E-02  0.1312668E+00
        -11   -1    0    0    0    0  0.00000000000E+00  0.00000000000E+00  0.45593999997E+02  0.45594000000E+02  0.51100000000E-03 0. -1.
         11   -1    0    0    0    0 -0.00000000000E+00 -0.00000000000E+00 -0.45593999997E+02  0.45594000000E+02  0.51100000000E-03 0.  1.
    9900012    2    1    2    0    0  0.42538643692E+02 -0.46942996966E+01 -0.72146207140E+01  0.47787269490E+02  0.19999992912E+02 0.  0.
         12    1    1    2    0    0 -0.42538643692E+02  0.46942996966E+01  0.72146207140E+01  0.43400730510E+02  0.00000000000E+00 0. -1.
         11    1    3    3    0    0  0.53281731707E+01 -0.35468057413E+01  0.33133981819E+01  0.72074869459E+01  0.51100000000E-03 0. -1.
        -11    1    3    3    0    0  0.13782719172E+02  0.54810497883E+01 -0.35350855627E+01  0.15248019044E+02  0.51100000000E-03 0.  1.
        -12    1    3    3    0    0  0.23427751349E+02 -0.66285437437E+01 -0.69929333332E+01  0.25331763500E+02  0.00000000000E+00 0.  1.
</event>
<event>
 7    1  0.1265344E-009  0.4778727E+02  0.7816164E-02  0.1312668E+00
        -11   -1    0    0    0    0  0.00000000000E+00  0.00000000000E+00  0.45593999997E+02  0.45594000000E+02  0.51100000000E-03 0.  1.
         11   -1    0    0    0    0 -0.00000000000E+00 -0.00000000000E+00 -0.45593999997E+02  0.45594000000E+02  0.51100000000E-03 0. -1.
    9900012    2    1    2    0    0 -0.14576759298E+01 -0.42296363657E+02  0.96185121737E+01  0.47787274497E+02  0.20000015741E+02 0.  0.
         12    1    1    2    0    0  0.14576759298E+01  0.42296363657E+02 -0.96185121737E+01  0.43400725503E+02  0.00000000000E+00 0. -1.
         11    1    3    3    0    0 -0.45468948438E+00 -0.90584998379E+00 -0.19666104087E+01  0.22124338365E+01  0.51100000000E-03 0. -1.
        -11    1    3    3    0    0  0.59800891177E+00 -0.52599695064E+01 -0.35453665915E+01  0.63713827696E+01  0.51100000000E-03 0.  1.
        -12    1    3    3    0    0 -0.16009953572E+01 -0.36130544167E+02  0.15130489174E+02  0.39203457891E+02  0.00000000000E+00 0.  1.
</event>
<event>
 7    1  0.1265344E-009  0.4778732E+02  0.7816164E-02  0.1312668E+00
        -11   -1    0    0    0    0  0.00000000000E+00  0.00000000000E+00  0.45593999997E+02  0.45594000000E+02  0.51100000000E-03 0.  1.
         11   -1    0    0    0    0 -0.00000000000E+00 -0.00000000000E+00 -0.45593999997E+02  0.45594000000E+02  0.51100000000E-03 0. -1.
    9900012    2    1    2    0    0  0.28214064981E+02 -0.55477286197E+01  0.32508588826E+02  0.47787319095E+02  0.20000219079E+02 0.  0.
         12    1    1    2    0    0 -0.28214064981E+02  0.55477286197E+01 -0.32508588826E+02  0.43400680905E+02  0.00000000000E+00 0. -1.
         11    1    3    3    0    0  0.80615675030E+01 -0.64672409736E+01  0.16328020236E+02  0.19324034814E+02  0.51100000000E-03 0. -1.
        -11    1    3    3    0    0  0.19186389349E+02  0.17589309015E+00  0.17976497476E+02  0.26292640347E+02  0.51100000000E-03 0.  1.
         12    1    3    3    0    0  0.96610812867E+00  0.74361926373E+00 -0.17959288856E+01  0.21706439339E+01  0.00000000000E+00 0. -1.
</event>
<event>
 7    1  0.1265344E-009  0.4778727E+02  0.7816164E-02  0.1312668E+00
        -11   -1    0    0    0    0  0.00000000000E+00  0.00000000000E+00  0.45593999997E+02  0.45594000000E+02  0.51100000000E-03 0. -1.
         11   -1    0    0    0    0 -0.00000000000E+00 -0.00000000000E+00 -0.45593999997E+02  0.45594000000E+02  0.51100000000E-03 0.  1.
    9900012    2    1    2    0    0 -0.12763924889E+01 -0.35741891382E+02  0.24586818015E+02  0.47787267316E+02  0.19999983001E+02 0.  0.
         12    1    1    2    0    0  0.12763924889E+01  0.35741891382E+02 -0.24586818015E+02  0.43400732684E+02  0.00000000000E+00 0. -1.
         11    1    3    3    0    0 -0.27503721283E+01 -0.14136466785E+02  0.66085179053E+01  0.15845401515E+02  0.51100000000E-03 0. -1.
        -11    1    3    3    0    0  0.38242193738E+01 -0.11682516745E+02  0.17936291624E+02  0.21744341995E+02  0.51100000000E-03 0.  1.
         12    1    3    3    0    0 -0.23502397344E+01 -0.99229078531E+01  0.42008486294E-01  0.10197523806E+02  0.00000000000E+00 0. -1.
</event>
<event>
 7    1  0.1265344E-009  0.4778727E+02  0.7816164E-02  0.1312668E+00
        -11   -1    0    0    0    0  0.00000000000E+00  0.00000000000E+00  0.45593999997E+02  0.45594000000E+02  0.51100000000E-03 0.  1.
         11   -1    0    0    0    0 -0.00000000000E+00 -0.00000000000E+00 -0.45593999997E+02  0.45594000000E+02  0.51100000000E-03 0. -1.
    9900012    2    1    2    0    0  0.17348668369E+02 -0.32397793606E+02  0.23087436110E+02  0.47787273844E+02  0.20000012764E+02 0.  0.
         12    1    1    2    0    0 -0.17348668369E+02  0.32397793606E+02 -0.23087436110E+02  0.43400726156E+02  0.00000000000E+00 0. -1.
         11    1    3    3    0    0  0.51560610572E+00  0.10003947578E+01  0.18742600017E+01  0.21862045061E+01  0.51100000000E-03 0. -1.
        -11    1    3    3    0    0  0.10893639706E+01  0.39825676803E+00  0.46703746869E+01  0.48122471144E+01  0.51100000000E-03 0.  1.
        -12    1    3    3    0    0  0.15743698293E+02 -0.33796445132E+02  0.16542801422E+02  0.40788822223E+02  0.00000000000E+00 0.  1.
</event>
<event>
 7    1  0.1265344E-009  0.4778726E+02  0.7816164E-02  0.1312668E+00
        -11   -1    0    0    0    0  0.00000000000E+00  0.00000000000E+00  0.45593999997E+02  0.45594000000E+02  0.51100000000E-03 0. -1.
         11   -1    0    0    0    0 -0.00000000000E+00 -0.00000000000E+00 -0.45593999997E+02  0.45594000000E+02  0.51100000000E-03 0.  1.
    9900012    2    1    2    0    0  0.60810495328E+01 -0.27467154959E+02 -0.33048452354E+02  0.47787263048E+02  0.19999963540E+02 0.  0.
         12    1    1    2    0    0 -0.60810495328E+01  0.27467154959E+02  0.33048452354E+02  0.43400736952E+02  0.00000000000E+00 0. -1.
         11    1    3    3    0    0  0.16441535716E+01 -0.11120320530E+02 -0.18691830270E+02  0.21811677807E+02  0.51100000000E-03 0. -1.
        -11    1    3    3    0    0  0.83763299526E+01 -0.15263569932E+02 -0.10359111362E+02  0.20259581906E+02  0.51100000000E-03 0.  1.
         12    1    3    3    0    0 -0.39394339915E+01 -0.10832644978E+01 -0.39975107221E+01  0.57160033343E+01  0.00000000000E+00 0. -1.
</event>
<event>
 7    1  0.1265344E-009  0.4778727E+02  0.7816164E-02  0.1312668E+00
        -11   -1    0    0    0    0  0.00000000000E+00  0.00000000000E+00  0.45593999997E+02  0.45594000000E+02  0.51100000000E-03 0.  1.
         11   -1    0    0    0    0 -0.00000000000E+00 -0.00000000000E+00 -0.45593999997E+02  0.45594000000E+02  0.51100000000E-03 0. -1.
    9900012    2    1    2    0    0 -0.29556421345E+02  0.11376969887E+02  0.29675004155E+02  0.47787270073E+02  0.19999995572E+02 0.  0.
         12    1    1    2    0    0  0.29556421345E+02 -0.11376969887E+02 -0.29675004155E+02  0.43400729927E+02  0.00000000000E+00 0. -1.
         11    1    3    3    0    0 -0.10176515992E+02  0.73904586154E+00  0.11123809845E+02  0.15094595465E+02  0.51100000000E-03 0. -1.
        -11    1    3    3    0    0 -0.61823114612E+01  0.37118155237E+01  0.16028775120E+02  0.17576125330E+02  0.51100000000E-03 0.  1.
         12    1    3    3    0    0 -0.13197593892E+02  0.69261085021E+01  0.25224191900E+01  0.15116549279E+02  0.00000000000E+00 0. -1.
</event>
<event>
 7    1  0.1265344E-009  0.4778729E+02  0.7816164E-02  0.1312668E+00
        -11   -1    0    0    0    0  0.00000000000E+00  0.00000000000E+00  0.45593999997E+02  0.45594000000E+02  0.51100000000E-03 0.  1.
         11   -1    0    0    0    0 -0.00000000000E+00 -0.00000000000E+00 -0.45593999997E+02  0.45594000000E+02  0.51100000000E-03 0. -1.
    9900012    2    1    2    0    0  0.70187685141E+01  0.38927612615E+02  0.17860567601E+02  0.47787285601E+02  0.20000066368E+02 0.  0.
         12    1    1    2    0    0 -0.70187685141E+01 -0.38927612615E+02 -0.17860567601E+02  0.43400714399E+02  0.00000000000E+00 0. -1.
         11    1    3    3    0    0 -0.44763084257E+01  0.15414609371E+01  0.19959250433E+01  0.51378162659E+01  0.51100000000E-03 0. -1.
        -11    1    3    3    0    0  0.24270982726E+01  0.14688461349E+02  0.83953256943E+01  0.17091611879E+02  0.51100000000E-03 0.  1.
         12    1    3    3    0    0  0.90679786673E+01  0.22697690328E+02  0.74693168632E+01  0.25557857456E+02  0.00000000000E+00 0. -1.
</event>
<event>
 7    1  0.1265344E-009  0.4778727E+02  0.7816164E-02  0.1312668E+00
        -11   -1    0    0    0    0  0.00000000000E+00  0.00000000000E+00  0.45593999997E+02  0.45594000000E+02  0.51100000000E-03 0. -1.
         11   -1    0    0    0    0 -0.00000000000E+00 -0.00000000000E+00 -0.45593999997E+02  0.45594000000E+02  0.51100000000E-03 0.  1.
    9900012    2    1    2    0    0  0.37333704476E+02 -0.13909864358E+02 -0.17214341380E+02  0.47787269989E+02  0.19999995187E+02 0.  0.
         12    1    1    2    0    0 -0.37333704476E+02  0.13909864358E+02  0.17214341380E+02  0.43400730011E+02  0.00000000000E+00 0. -1.
         11    1    3    3    0    0  0.39601582699E+01 -0.11955131955E+01 -0.22833865401E+01  0.47250354153E+01  0.51100000000E-03 0. -1.
        -11    1    3    3    0    0  0.32912005871E+02 -0.12025178077E+02 -0.18342970829E+02  0.39550848503E+02  0.51100000000E-03 0.  1.
         12    1    3    3    0    0  0.46154033545E+00 -0.68917308568E+00  0.34120159896E+01  0.35113860705E+01  0.00000000000E+00 0. -1.
</event>
<event>
 7    1  0.1265344E-009  0.4778727E+02  0.7816164E-02  0.1312668E+00
        -11   -1    0    0    0    0  0.00000000000E+00  0.00000000000E+00  0.45593999997E+02  0.45594000000E+02  0.51100000000E-03 0.  1.
         11   -1    0    0    0    0 -0.00000000000E+00 -0.00000000000E+00 -0.45593999997E+02  0.45594000000E+02  0.51100000000E-03 0. -1.
    9900012    2    1    2    0    0  0.24250318708E+02 -0.13587078905E+01  0.35968028861E+02  0.47787272532E+02  0.20000006783E+02 0.  0.
         12    1    1    2    0    0 -0.24250318708E+02  0.13587078905E+01 -0.35968028861E+02  0.43400727468E+02  0.00000000000E+00 0. -1.
         11    1    3    3    0    0 -0.22416500804E+01  0.45902161583E+00  0.28863045740E+01  0.36832662519E+01  0.51100000000E-03 0. -1.
        -11    1    3    3    0    0  0.11719388002E+02 -0.16285556424E+01  0.24010620858E+02  0.26767632747E+02  0.51100000000E-03 0.  1.
        -12    1    3    3    0    0  0.14772580787E+02 -0.18917386398E+00  0.90711034286E+01  0.17336373533E+02  0.00000000000E+00 0.  1.
</event>
<event>
 7    1  0.1265344E-009  0.4778728E+02  0.7816164E-02  0.1312668E+00
        -11   -1    0    0    0    0  0.00000000000E+00  0.00000000000E+00  0.45593999997E+02  0.45594000000E+02  0.51100000000E-03 0.  1.
         11   -1    0    0    0    0 -0.00000000000E+00 -0.00000000000E+00 -0.45593999997E+02  0.45594000000E+02  0.51100000000E-03 0. -1.
    9900012    2    1    2    0    0 -0.24343432760E+02 -0.15224905397E+02  0.32545696855E+02  0.47787275966E+02  0.20000022441E+02 0.  0.
         12    1    1    2    0    0  0.24343432760E+02  0.15224905397E+02 -0.32545696855E+02  0.43400724034E+02  0.00000000000E+00 0. -1.
         11    1    3    3    0    0 -0.19703701366E+01 -0.23760429504E+01  0.80591168254E+01  0.86300233397E+01  0.51100000000E-03 0. -1.
        -11    1    3    3    0    0  0.26704511098E+01 -0.13713265624E+01  0.21761766550E+01  0.37077743682E+01  0.51100000000E-03 0.  1.
        -12    1    3    3    0    0 -0.25043513733E+02 -0.11477535884E+02  0.22310403374E+02  0.35449478259E+02  0.00000000000E+00 0.  1.
</event>
<event>
 7    1  0.1265344E-009  0.4778725E+02  0.7816164E-02  0.1312668E+00
        -11   -1    0    0    0    0  0.00000000000E+00  0.00000000000E+00  0.45593999997E+02  0.45594000000E+02  0.51100000000E-03 0.  1.
         11   -1    0    0    0    0 -0.00000000000E+00 -0.00000000000E+00 -0.45593999997E+02  0.45594000000E+02  0.51100000000E-03 0. -1.
    9900012    2    1    2    0    0 -0.13351105760E+02 -0.99519895108E+01  0.40079057261E+02  0.47787251721E+02  0.19999911898E+02 0.  0.
         12    1    1    2    0    0  0.13351105760E+02  0.99519895108E+01 -0.40079057261E+02  0.43400748279E+02  0.00000000000E+00 0. -1.
         11    1    3    3    0    0 -0.61567307048E+01 -0.30278122202E+01  0.57066579887E+01  0.89240644033E+01  0.51100000000E-03 0. -1.
        -11    1    3    3    0    0  0.20535100849E+01  0.29803641262E+01  0.13508608567E+02  0.13985062734E+02  0.51100000000E-03 0.  1.
        -12    1    3    3    0    0 -0.92478851396E+01 -0.99045414168E+01  0.20863790706E+02  0.24878124584E+02  0.00000000000E+00 0.  1.
</event>
<event>
 7    1  0.1265344E-009  0.4778730E+02  0.7816164E-02  0.1312668E+00
        -11   -1    0    0    0    0  0.00000000000E+00  0.00000000000E+00  0.45593999997E+02  0.45594000000E+02  0.51100000000E-03 0. -1.
         11   -1    0    0    0    0 -0.00000000000E+00 -0.00000000000E+00 -0.45593999997E+02  0.45594000000E+02  0.51100000000E-03 0.  1.
    9900012    2    1    2    0    0  0.42314921379E+02 -0.41884413124E+01  0.86905342342E+01  0.47787297273E+02  0.20000119587E+02 0.  0.
         12    1    1    2    0    0 -0.42314921379E+02  0.41884413124E+01 -0.86905342342E+01  0.43400702727E+02  0.00000000000E+00 0. -1.
         11    1    3    3    0    0  0.16001547096E+02  0.69315058103E+00  0.55927790308E-01  0.16016650567E+02  0.51100000000E-03 0. -1.
        -11    1    3    3    0    0  0.17535064227E+02  0.15578366993E+01 -0.42199429801E+00  0.17609185446E+02  0.51100000000E-03 0.  1.
         12    1    3    3    0    0  0.87783100555E+01 -0.64394285927E+01  0.90566007419E+01  0.14161461260E+02  0.00000000000E+00 0. -1.
</event>
<event>
 7    1  0.1265344E-009  0.4778728E+02  0.7816164E-02  0.1312668E+00
        -11   -1    0    0    0    0  0.00000000000E+00  0.00000000000E+00  0.45593999997E+02  0.45594000000E+02  0.51100000000E-03 0.  1.
         11   -1    0    0    0    0 -0.00000000000E+00 -0.00000000000E+00 -0.45593999997E+02  0.45594000000E+02  0.51100000000E-03 0. -1.
    9900012    2    1    2    0    0  0.29257127496E+00 -0.16803569819E+02  0.40014707955E+02  0.47787281005E+02  0.20000045413E+02 0.  0.
         12    1    1    2    0    0 -0.29257127496E+00  0.16803569819E+02 -0.40014707955E+02  0.43400718995E+02  0.00000000000E+00 0. -1.
         11    1    3    3    0    0 -0.17515965439E+01 -0.47878307594E+01  0.89603660159E+00  0.51763206707E+01  0.51100000000E-03 0. -1.
        -11    1    3    3    0    0  0.63515476266E+01 -0.33307402366E+01  0.15428672513E+02  0.17014109543E+02  0.51100000000E-03 0.  1.
        -12    1    3    3    0    0 -0.43073798077E+01 -0.86849988230E+01  0.23689998840E+02  0.25596850791E+02  0.00000000000E+00 0.  1.
</event>
<event>
 7    1  0.1265344E-009  0.4778726E+02  0.7816164E-02  0.1312668E+00
        -11   -1    0    0    0    0  0.00000000000E+00  0.00000000000E+00  0.45593999997E+02  0.45594000000E+02  0.51100000000E-03 0.  1.
         11   -1    0    0    0    0 -0.00000000000E+00 -0.00000000000E+00 -0.45593999997E+02  0.45594000000E+02  0.51100000000E-03 0. -1.
    9900012    2    1    2    0    0  0.21003037459E+02  0.28366964881E+02  0.25254932847E+02  0.47787263691E+02  0.19999966472E+02 0.  0.
         12    1    1    2    0    0 -0.21003037459E+02 -0.28366964881E+02 -0.25254932847E+02  0.43400736309E+02  0.00000000000E+00 0. -1.
         11    1    3    3    0    0  0.58424339474E+01  0.14089689781E+02  0.30731575815E+01  0.15559488756E+02  0.51100000000E-03 0. -1.
        -11    1    3    3    0    0  0.43290622633E+01  0.11035434371E+02  0.13548107548E+02  0.18002022393E+02  0.51100000000E-03 0.  1.
         12    1    3    3    0    0  0.10831541249E+02  0.32418407281E+01  0.86336677167E+01  0.14225752542E+02  0.00000000000E+00 0. -1.
</event>
<event>
 7    1  0.1265344E-009  0.4778727E+02  0.7816164E-02  0.1312668E+00
        -11   -1    0    0    0    0  0.00000000000E+00  0.00000000000E+00  0.45593999997E+02  0.45594000000E+02  0.51100000000E-03 0. -1.
         11   -1    0    0    0    0 -0.00000000000E+00 -0.00000000000E+00 -0.45593999997E+02  0.45594000000E+02  0.51100000000E-03 0.  1.
    9900012    2    1    2    0    0  0.30112455450E+02 -0.31193342010E+02  0.19592347210E+01  0.47787272360E+02  0.20000005998E+02 0.  0.
         12    1    1    2    0    0 -0.30112455450E+02  0.31193342010E+02 -0.19592347210E+01  0.43400727640E+02  0.00000000000E+00 0. -1.
         11    1    3    3    0    0  0.30721807809E+01 -0.20870194956E+01 -0.17988490246E+01  0.41267182119E+01  0.51100000000E-03 0. -1.
        -11    1    3    3    0    0  0.88264934062E+01 -0.82336383400E+01 -0.69875758841E+01  0.13947257908E+02  0.51100000000E-03 0.  1.
         12    1    3    3    0    0  0.18213781263E+02 -0.20872684174E+02  0.10745659630E+02  0.29713296240E+02  0.00000000000E+00 0. -1.
</event>
<event>
 7    1  0.1265344E-009  0.4778727E+02  0.7816164E-02  0.1312668E+00
        -11   -1    0    0    0    0  0.00000000000E+00  0.00000000000E+00  0.45593999997E+02  0.45594000000E+02  0.51100000000E-03 0.  1.
         11   -1    0    0    0    0 -0.00000000000E+00 -0.00000000000E+00 -0.45593999997E+02  0.45594000000E+02  0.51100000000E-03 0. -1.
    9900012    2    1    2    0    0 -0.28170533106E+00 -0.21706052923E+02  0.37581793742E+02  0.47787270602E+02  0.19999997984E+02 0.  0.
         12    1    1    2    0    0  0.28170533106E+00  0.21706052923E+02 -0.37581793742E+02  0.43400729398E+02  0.00000000000E+00 0. -1.
         11    1    3    3    0    0 -0.21978457435E+01  0.22053728107E+01  0.12550940586E+02  0.12931369031E+02  0.51100000000E-03 0. -1.
        -11    1    3    3    0    0  0.21031574543E+01 -0.67560037528E+01  0.66069170116E+01  0.96808166311E+01  0.51100000000E-03 0.  1.
         12    1    3    3    0    0 -0.18701704190E+00 -0.17155421981E+02  0.18423936144E+02  0.25175084941E+02  0.00000000000E+00 0. -1.
</event>
<event>
 7    1  0.1265344E-009  0.4778727E+02  0.7816164E-02  0.1312668E+00
        -11   -1    0    0    0    0  0.00000000000E+00  0.00000000000E+00  0.45593999997E+02  0.45594000000E+02  0.51100000000E-03 0.  1.
         11   -1    0    0    0    0 -0.00000000000E+00 -0.00000000000E+00 -0.45593999997E+02  0.45594000000E+02  0.51100000000E-03 0. -1.
    9900012    2    1    2    0    0  0.13293179884E+02  0.36687044775E+02  0.18999358814E+02  0.47787268196E+02  0.19999987013E+02 0.  0.
         12    1    1    2    0    0 -0.13293179884E+02 -0.36687044775E+02 -0.18999358814E+02  0.43400731804E+02  0.00000000000E+00 0. -1.
         11    1    3    3    0    0 -0.18488407867E+01  0.13051285358E+01  0.36110460366E+01  0.42615990530E+01  0.51100000000E-03 0. -1.
        -11    1    3    3    0    0  0.11527312960E+02  0.11431396513E+02  0.37933971338E+01  0.16671701545E+02  0.51100000000E-03 0.  1.
        -12    1    3    3    0    0  0.36147077110E+01  0.23950519726E+02  0.11594915644E+02  0.26853967598E+02  0.00000000000E+00 0.  1.
</event>
<event>
 7    1  0.1265344E-009  0.4778727E+02  0.7816164E-02  0.1312668E+00
        -11   -1    0    0    0    0  0.00000000000E+00  0.00000000000E+00  0.45593999997E+02  0.45594000000E+02  0.51100000000E-03 0. -1.
         11   -1    0    0    0    0 -0.00000000000E+00 -0.00000000000E+00 -0.45593999997E+02  0.45594000000E+02  0.51100000000E-03 0.  1.
    9900012    2    1    2    0    0 -0.16168441433E+02 -0.34248105721E+02 -0.21196040240E+02  0.47787269987E+02  0.19999995178E+02 0.  0.
         12    1    1    2    0    0  0.16168441433E+02  0.34248105721E+02  0.21196040240E+02  0.43400730013E+02  0.00000000000E+00 0. -1.
         11    1    3    3    0    0 -0.75342405499E+00 -0.95026495529E+01 -0.22189060662E+01  0.97873152971E+01  0.51100000000E-03 0. -1.
        -11    1    3    3    0    0 -0.16649726752E+02 -0.25243164334E+02 -0.20056361355E+02  0.36286200925E+02  0.51100000000E-03 0.  1.
         12    1    3    3    0    0  0.12347093738E+01  0.49770816607E+00  0.10792271818E+01  0.17137537648E+01  0.00000000000E+00 0. -1.
</event>
<event>
 7    1  0.1265344E-009  0.4778727E+02  0.7816164E-02  0.1312668E+00
        -11   -1    0    0    0    0  0.00000000000E+00  0.00000000000E+00  0.45593999997E+02  0.45594000000E+02  0.51100000000E-03 0.  1.
         11   -1    0    0    0    0 -0.00000000000E+00 -0.00000000000E+00 -0.45593999997E+02  0.45594000000E+02  0.51100000000E-03 0. -1.
    9900012    2    1    2    0    0 -0.18332867337E+02  0.37795106110E+02  0.10911421717E+02  0.47787271959E+02  0.20000004170E+02 0.  0.
         12    1    1    2    0    0  0.18332867337E+02 -0.37795106110E+02 -0.10911421717E+02  0.43400728041E+02  0.00000000000E+00 0. -1.
         11    1    3    3    0    0 -0.84959537063E+01  0.12572330289E+02  0.29720378414E+00  0.15176727204E+02  0.51100000000E-03 0. -1.
        -11    1    3    3    0    0 -0.77868964534E+01  0.21960411657E+02  0.22585719091E+01  0.23409326856E+02  0.51100000000E-03 0.  1.
         12    1    3    3    0    0 -0.20500171769E+01  0.32623641639E+01  0.83556460232E+01  0.92012178992E+01  0.00000000000E+00 0. -1.
</event>
<event>
 7    1  0.1265344E-009  0.4778727E+02  0.7816164E-02  0.1312668E+00
        -11   -1    0    0    0    0  0.00000000000E+00  0.00000000000E+00  0.45593999997E+02  0.45594000000E+02  0.51100000000E-03 0.  1.
         11   -1    0    0    0    0 -0.00000000000E+00 -0.00000000000E+00 -0.45593999997E+02  0.45594000000E+02  0.51100000000E-03 0. -1.
    9900012    2    1    2    0    0  0.21592408185E+02  0.28422671611E+02  0.24688919679E+02  0.47787272960E+02  0.20000008733E+02 0.  0.
         12    1    1    2    0    0 -0.21592408185E+02 -0.28422671611E+02 -0.24688919679E+02  0.43400727040E+02  0.00000000000E+00 0. -1.
         11    1    3    3    0    0  0.11667886715E+02  0.12902040905E+02  0.15496694177E+02  0.23296990591E+02  0.51100000000E-03 0. -1.
        -11    1    3    3    0    0  0.92883110291E+01  0.16847492576E+02  0.10998666516E+02  0.22160356343E+02  0.51100000000E-03 0.  1.
         12    1    3    3    0    0  0.63621044126E+00 -0.13268618702E+01 -0.18064410143E+01  0.23299260260E+01  0.00000000000E+00 0. -1.
</event>
<event>
 7    1  0.1265344E-009  0.4778727E+02  0.7816164E-02  0.1312668E+00
        -11   -1    0    0    0    0  0.00000000000E+00  0.00000000000E+00  0.45593999997E+02  0.45594000000E+02  0.51100000000E-03 0. -1.
         11   -1    0    0    0    0 -0.00000000000E+00 -0.00000000000E+00 -0.45593999997E+02  0.45594000000E+02  0.51100000000E-03 0.  1.
    9900012    2    1    2    0    0  0.76298261984E+01  0.32290109254E+02 -0.27977811511E+02  0.47787270278E+02  0.19999996505E+02 0.  0.
         12    1    1    2    0    0 -0.76298261984E+01 -0.32290109254E+02  0.27977811511E+02  0.43400729722E+02  0.00000000000E+00 0. -1.
         11    1    3    3    0    0  0.79207885644E+01  0.12523521774E+02 -0.22344791833E+02  0.26811699152E+02  0.51100000000E-03 0.  1.
        -11    1    3    3    0    0  0.49963863527E+00  0.13912240655E+02 -0.57623241466E+01  0.15066667138E+02  0.51100000000E-03 0. -1.
        -12    1    3    3    0    0 -0.79060100120E+00  0.58543468255E+01  0.12930446874E+00  0.59089039882E+01  0.00000000000E+00 0.  1.
</event>
<event>
 7    1  0.1265344E-009  0.4778727E+02  0.7816164E-02  0.1312668E+00
        -11   -1    0    0    0    0  0.00000000000E+00  0.00000000000E+00  0.45593999997E+02  0.45594000000E+02  0.51100000000E-03 0.  1.
         11   -1    0    0    0    0 -0.00000000000E+00 -0.00000000000E+00 -0.45593999997E+02  0.45594000000E+02  0.51100000000E-03 0. -1.
    9900012    2    1    2    0    0  0.18133284690E+02 -0.31133934863E+02 -0.24196810474E+02  0.47787267854E+02  0.19999985452E+02 0.  0.
         12    1    1    2    0    0 -0.18133284690E+02  0.31133934863E+02  0.24196810474E+02  0.43400732146E+02  0.00000000000E+00 0. -1.
         11    1    3    3    0    0 -0.26362818521E+00 -0.58499378380E+01 -0.12009151182E+02  0.13360800310E+02  0.51100000000E-03 0. -1.
        -11    1    3    3    0    0  0.72717290980E+01 -0.14530445800E+02 -0.91854701159E+01  0.18665067927E+02  0.51100000000E-03 0.  1.
        -12    1    3    3    0    0  0.11125183778E+02 -0.10753551225E+02 -0.30021891758E+01  0.15761399617E+02  0.00000000000E+00 0.  1.
</event>
<event>
 7    1  0.1265344E-009  0.4778728E+02  0.7816164E-02  0.1312668E+00
        -11   -1    0    0    0    0  0.00000000000E+00  0.00000000000E+00  0.45593999997E+02  0.45594000000E+02  0.51100000000E-03 0. -1.
         11   -1    0    0    0    0 -0.00000000000E+00 -0.00000000000E+00 -0.45593999997E+02  0.45594000000E+02  0.51100000000E-03 0.  1.
    9900012    2    1    2    0    0 -0.12613534501E+02 -0.20896041710E+02  0.35886997482E+02  0.47787281111E+02  0.20000045899E+02 0.  0.
         12    1    1    2    0    0  0.12613534501E+02  0.20896041710E+02 -0.35886997482E+02  0.43400718889E+02  0.00000000000E+00 0. -1.
         11    1    3    3    0    0 -0.50726607639E+01 -0.12680877991E+02  0.19907091609E+02  0.24141848530E+02  0.51100000000E-03 0. -1.
        -11    1    3    3    0    0 -0.11019449773E+02 -0.63232204248E+01  0.88289494115E+01  0.15471319847E+02  0.51100000000E-03 0.  1.
         12    1    3    3    0    0  0.34785760364E+01 -0.18919432941E+01  0.71509564613E+01  0.81741127335E+01  0.00000000000E+00 0. -1.
</event>
<event>
 7    1  0.1265344E-009  0.4778727E+02  0.7816164E-02  0.1312668E+00
        -11   -1    0    0    0    0  0.00000000000E+00  0.00000000000E+00  0.45593999997E+02  0.45594000000E+02  0.51100000000E-03 0.  1.
         11   -1    0    0    0    0 -0.00000000000E+00 -0.00000000000E+00 -0.45593999997E+02  0.45594000000E+02  0.51100000000E-03 0. -1.
    9900012    2    1    2    0    0 -0.86594581145E+01 -0.29570455426E+02  0.30565097354E+02  0.47787271605E+02  0.20000002558E+02 0.  0.
         12    1    1    2    0    0  0.86594581145E+01  0.29570455426E+02 -0.30565097354E+02  0.43400728395E+02  0.00000000000E+00 0. -1.
         11    1    3    3    0    0  0.21299759437E+01 -0.67921593019E+01  0.57789268360E+01  0.91687633375E+01  0.51100000000E-03 0. -1.
        -11    1    3    3    0    0 -0.10854762054E+02 -0.82020054293E+01  0.60752121461E+01  0.14899897825E+02  0.51100000000E-03 0.  1.
        -12    1    3    3    0    0  0.65327995690E-01 -0.14576290694E+02  0.18710958372E+02  0.23718610443E+02  0.00000000000E+00 0.  1.
</event>
<event>
 7    1  0.1265344E-009  0.4778728E+02  0.7816164E-02  0.1312668E+00
        -11   -1    0    0    0    0  0.00000000000E+00  0.00000000000E+00  0.45593999997E+02  0.45594000000E+02  0.51100000000E-03 0.  1.
         11   -1    0    0    0    0 -0.00000000000E+00 -0.00000000000E+00 -0.45593999997E+02  0.45594000000E+02  0.51100000000E-03 0. -1.
    9900012    2    1    2    0    0 -0.56963347503E+01  0.43020812155E+02 -0.61938192845E+00  0.47787284084E+02  0.20000059453E+02 0.  0.
         12    1    1    2    0    0  0.56963347503E+01 -0.43020812155E+02  0.61938192845E+00  0.43400715916E+02  0.00000000000E+00 0. -1.
         11    1    3    3    0    0 -0.61682657841E+01  0.12194164685E+02  0.53723743743E+01  0.14683581370E+02  0.51100000000E-03 0.  1.
        -11    1    3    3    0    0  0.44831593654E+00  0.13374001779E+01 -0.31823241778E+01  0.34809214080E+01  0.51100000000E-03 0. -1.
        -12    1    3    3    0    0  0.23615097275E-01  0.29489247291E+02 -0.28094321249E+01  0.29622781307E+02  0.00000000000E+00 0.  1.
</event>
<event>
 7    1  0.1265344E-009  0.4778726E+02  0.7816164E-02  0.1312668E+00
        -11   -1    0    0    0    0  0.00000000000E+00  0.00000000000E+00  0.45593999997E+02  0.45594000000E+02  0.51100000000E-03 0.  1.
         11   -1    0    0    0    0 -0.00000000000E+00 -0.00000000000E+00 -0.45593999997E+02  0.45594000000E+02  0.51100000000E-03 0. -1.
    9900012    2    1    2    0    0  0.42031874100E+02  0.37200387340E+01  0.10154151185E+02  0.47787263660E+02  0.19999966331E+02 0.  0.
         12    1    1    2    0    0 -0.42031874100E+02 -0.37200387340E+01 -0.10154151185E+02  0.43400736340E+02  0.00000000000E+00 0. -1.
         11    1    3    3    0    0  0.91487026174E+01  0.69638000030E+01 -0.26998559144E+01  0.11810270627E+02  0.51100000000E-03 0. -1.
        -11    1    3    3    0    0  0.79080330506E+01 -0.67356203789E+00  0.60053360517E+01  0.99526244731E+01  0.51100000000E-03 0.  1.
         12    1    3    3    0    0  0.24975138432E+02 -0.25701992311E+01  0.68486710480E+01  0.26024368560E+02  0.00000000000E+00 0. -1.
</event>
<event>
 7    1  0.1265344E-009  0.4778724E+02  0.7816164E-02  0.1312668E+00
        -11   -1    0    0    0    0  0.00000000000E+00  0.00000000000E+00  0.45593999997E+02  0.45594000000E+02  0.51100000000E-03 0.  1.
         11   -1    0    0    0    0 -0.00000000000E+00 -0.00000000000E+00 -0.45593999997E+02  0.45594000000E+02  0.51100000000E-03 0. -1.
    9900012    2    1    2    0    0 -0.17230933997E+02  0.39827470369E+02 -0.70222018719E+00  0.47787244296E+02  0.19999878045E+02 0.  0.
         12    1    1    2    0    0  0.17230933997E+02 -0.39827470369E+02  0.70222018719E+00  0.43400755704E+02  0.00000000000E+00 0. -1.
         11    1    3    3    0    0 -0.17497806123E+02  0.19848087298E+02  0.36341406647E+01  0.26708177908E+02  0.51100000000E-03 0. -1.
        -11    1    3    3    0    0 -0.23770418527E+01  0.11621523111E+02 -0.24985292174E+01  0.12122408007E+02  0.51100000000E-03 0.  1.
         12    1    3    3    0    0  0.26439139785E+01  0.83578599603E+01 -0.18378316345E+01  0.89566583812E+01  0.00000000000E+00 0. -1.
</event>
<event>
 7    1  0.1265344E-009  0.4778727E+02  0.7816164E-02  0.1312668E+00
        -11   -1    0    0    0    0  0.00000000000E+00  0.00000000000E+00  0.45593999997E+02  0.45594000000E+02  0.51100000000E-03 0.  1.
         11   -1    0    0    0    0 -0.00000000000E+00 -0.00000000000E+00 -0.45593999997E+02  0.45594000000E+02  0.51100000000E-03 0. -1.
    9900012    2    1    2    0    0 -0.16916166643E+02  0.21404893765E+01  0.39910958964E+02  0.47787273807E+02  0.20000012594E+02 0.  0.
         12    1    1    2    0    0  0.16916166643E+02 -0.21404893765E+01 -0.39910958964E+02  0.43400726193E+02  0.00000000000E+00 0. -1.
         11    1    3    3    0    0 -0.45441277497E+01  0.65957196322E+01  0.17701408010E+02  0.19429165197E+02  0.51100000000E-03 0. -1.
        -11    1    3    3    0    0 -0.12777355680E+02  0.19417277155E-01  0.13689762672E+02  0.18726206169E+02  0.51100000000E-03 0.  1.
         12    1    3    3    0    0  0.40531678682E+00 -0.44746475329E+01  0.85197882825E+01  0.96319024403E+01  0.00000000000E+00 0. -1.
</event>
<event>
 7    1  0.1265344E-009  0.4778727E+02  0.7816164E-02  0.1312668E+00
        -11   -1    0    0    0    0  0.00000000000E+00  0.00000000000E+00  0.45593999997E+02  0.45594000000E+02  0.51100000000E-03 0. -1.
         11   -1    0    0    0    0 -0.00000000000E+00 -0.00000000000E+00 -0.45593999997E+02  0.45594000000E+02  0.51100000000E-03 0.  1.
    9900012    2    1    2    0    0  0.82085386879E+01 -0.34989174975E+02 -0.24331067864E+02  0.47787270326E+02  0.19999996727E+02 0.  0.
         12    1    1    2    0    0 -0.82085386879E+01  0.34989174975E+02  0.24331067864E+02  0.43400729674E+02  0.00000000000E+00 0. -1.
         11    1    3    3    0    0  0.47668660122E+01 -0.98281815994E+01 -0.25353961039E+01  0.11213580998E+02  0.51100000000E-03 0. -1.
        -11    1    3    3    0    0  0.37172478769E+01 -0.14827896623E+02 -0.36911117674E+01  0.15726053426E+02  0.51100000000E-03 0.  1.
         12    1    3    3    0    0 -0.27557520118E+00 -0.10333096753E+02 -0.18104559993E+02  0.20847635902E+02  0.00000000000E+00 0. -1.
</event>
<event>
 7    1  0.1265344E-009  0.4778727E+02  0.7816164E-02  0.1312668E+00
        -11   -1    0    0    0    0  0.00000000000E+00  0.00000000000E+00  0.45593999997E+02  0.45594000000E+02  0.51100000000E-03 0.  1.
         11   -1    0    0    0    0 -0.00000000000E+00 -0.00000000000E+00 -0.45593999997E+02  0.45594000000E+02  0.51100000000E-03 0. -1.
    9900012    2    1    2    0    0  0.24396083707E+02 -0.35656728947E+02 -0.41293992731E+01  0.47787272382E+02  0.20000006098E+02 0.  0.
         12    1    1    2    0    0 -0.24396083707E+02  0.35656728947E+02  0.41293992731E+01  0.43400727618E+02  0.00000000000E+00 0. -1.
         11    1    3    3    0    0  0.38475500912E+00 -0.78966632726E+01 -0.28752868850E+01  0.84126453741E+01  0.51100000000E-03 0. -1.
        -11    1    3    3    0    0  0.21669057041E+02 -0.21272244985E+02  0.41025238756E+01  0.30641265348E+02  0.51100000000E-03 0.  1.
        -12    1    3    3    0    0  0.23422716573E+01 -0.64878206895E+01 -0.53566362636E+01  0.87333616595E+01  0.00000000000E+00 0.  1.
</event>
<event>
 7    1  0.1265344E-009  0.4778727E+02  0.7816164E-02  0.1312668E+00
        -11   -1    0    0    0    0  0.00000000000E+00  0.00000000000E+00  0.45593999997E+02  0.45594000000E+02  0.51100000000E-03 0.  1.
         11   -1    0    0    0    0 -0.00000000000E+00 -0.00000000000E+00 -0.45593999997E+02  0.45594000000E+02  0.51100000000E-03 0. -1.
    9900012    2    1    2    0    0 -0.29087512133E+02 -0.43632251345E+01  0.31913987550E+02  0.47787266170E+02  0.19999977775E+02 0.  0.
         12    1    1    2    0    0  0.29087512133E+02  0.43632251345E+01 -0.31913987550E+02  0.43400733830E+02  0.00000000000E+00 0. -1.
         11    1    3    3    0    0 -0.10249820088E+02 -0.17554949909E+01  0.16175049104E+01  0.10524110266E+02  0.51100000000E-03 0. -1.
        -11    1    3    3    0    0 -0.12104739686E+02 -0.60097840779E+01  0.14887465107E+02  0.20106686577E+02  0.51100000000E-03 0.  1.
         12    1    3    3    0    0 -0.67329523586E+01  0.34020539343E+01  0.15409017532E+02  0.17156469326E+02  0.00000000000E+00 0. -1.
</event>
<event>
 7    1  0.1265344E-009  0.4778727E+02  0.7816164E-02  0.1312668E+00
        -11   -1    0    0    0    0  0.00000000000E+00  0.00000000000E+00  0.45593999997E+02  0.45594000000E+02  0.51100000000E-03 0. -1.
         11   -1    0    0    0    0 -0.00000000000E+00 -0.00000000000E+00 -0.45593999997E+02  0.45594000000E+02  0.51100000000E-03 0.  1.
    9900012    2    1    2    0    0 -0.53194015870E+01 -0.96546239016E+01 -0.41977558947E+02  0.47787271307E+02  0.20000001197E+02 0.  0.
         12    1    1    2    0    0  0.53194015870E+01  0.96546239016E+01  0.41977558947E+02  0.43400728693E+02  0.00000000000E+00 0. -1.
         11    1    3    3    0    0  0.39413755435E+01  0.15357335374E+01 -0.21407721111E+02  0.21821627852E+02  0.51100000000E-03 0. -1.
        -11    1    3    3    0    0 -0.49270808001E+01 -0.85333553371E+01 -0.17336438002E+02  0.19941072222E+02  0.51100000000E-03 0.  1.
        -12    1    3    3    0    0 -0.43336963303E+01 -0.26570021020E+01 -0.32333998343E+01  0.60245712330E+01  0.00000000000E+00 0.  1.
</event>
<event>
 7    1  0.1265344E-009  0.4778727E+02  0.7816164E-02  0.1312668E+00
        -11   -1    0    0    0    0  0.00000000000E+00  0.00000000000E+00  0.45593999997E+02  0.45594000000E+02  0.51100000000E-03 0.  1.
         11   -1    0    0    0    0 -0.00000000000E+00 -0.00000000000E+00 -0.45593999997E+02  0.45594000000E+02  0.51100000000E-03 0. -1.
    9900012    2    1    2    0    0 -0.30561305289E+02 -0.22484877947E+02  0.21072733761E+02  0.47787271603E+02  0.20000002545E+02 0.  0.
         12    1    1    2    0    0  0.30561305289E+02  0.22484877947E+02 -0.21072733761E+02  0.43400728397E+02  0.00000000000E+00 0. -1.
         11    1    3    3    0    0 -0.10653920448E+02  0.96882024811E+00  0.66186905919E+01  0.12579813155E+02  0.51100000000E-03 0. -1.
        -11    1    3    3    0    0 -0.79365127970E+00 -0.51388123363E+01  0.34738023489E+00  0.52113288008E+01  0.51100000000E-03 0.  1.
        -12    1    3    3    0    0 -0.19113733561E+02 -0.18314885858E+02  0.14106662934E+02  0.29996129647E+02  0.00000000000E+00 0.  1.
</event>
<event>
 7    1  0.1265344E-009  0.4778727E+02  0.7816164E-02  0.1312668E+00
        -11   -1    0    0    0    0  0.00000000000E+00  0.00000000000E+00  0.45593999997E+02  0.45594000000E+02  0.51100000000E-03 0.  1.
         11   -1    0    0    0    0 -0.00000000000E+00 -0.00000000000E+00 -0.45593999997E+02  0.45594000000E+02  0.51100000000E-03 0. -1.
    9900012    2    1    2    0    0 -0.10183913282E+00  0.18088644279E+01  0.43362896902E+02  0.47787272017E+02  0.20000004433E+02 0.  0.
         12    1    1    2    0    0  0.10183913282E+00 -0.18088644279E+01 -0.43362896902E+02  0.43400727983E+02  0.00000000000E+00 0. -1.
         11    1    3    3    0    0 -0.22737128303E+01 -0.23065630777E+01  0.98618654869E+01  0.10380096069E+02  0.51100000000E-03 0. -1.
        -11    1    3    3    0    0 -0.13692786933E+01  0.76938169000E+01  0.71909421823E+01  0.10619764233E+02  0.51100000000E-03 0.  1.
        -12    1    3    3    0    0  0.35411523908E+01 -0.35783893944E+01  0.26310089233E+02  0.26787411715E+02  0.00000000000E+00 0.  1.
</event>
<event>
 7    1  0.1265344E-009  0.4778726E+02  0.7816164E-02  0.1312668E+00
        -11   -1    0    0    0    0  0.00000000000E+00  0.00000000000E+00  0.45593999997E+02  0.45594000000E+02  0.51100000000E-03 0.  1.
         11   -1    0    0    0    0 -0.00000000000E+00 -0.00000000000E+00 -0.45593999997E+02  0.45594000000E+02  0.51100000000E-03 0. -1.
    9900012    2    1    2    0    0 -0.31582284777E+02 -0.26659016408E+02  0.13246912925E+02  0.47787256117E+02  0.19999931940E+02 0.  0.
         12    1    1    2    0    0  0.31582284777E+02  0.26659016408E+02 -0.13246912925E+02  0.43400743883E+02  0.00000000000E+00 0. -1.
         11    1    3    3    0    0  0.48695532134E+00 -0.37388586217E+01  0.33330409792E+00  0.37851395166E+01  0.51100000000E-03 0. -1.
        -11    1    3    3    0    0 -0.27707369693E+02 -0.24788720705E+02  0.10269667996E+02  0.38570002469E+02  0.51100000000E-03 0.  1.
        -12    1    3    3    0    0 -0.43618704057E+01  0.18685629188E+01  0.26439408306E+01  0.54321141311E+01  0.00000000000E+00 0.  1.
</event>
<event>
 7    1  0.1265344E-009  0.4778727E+02  0.7816164E-02  0.1312668E+00
        -11   -1    0    0    0    0  0.00000000000E+00  0.00000000000E+00  0.45593999997E+02  0.45594000000E+02  0.51100000000E-03 0.  1.
         11   -1    0    0    0    0 -0.00000000000E+00 -0.00000000000E+00 -0.45593999997E+02  0.45594000000E+02  0.51100000000E-03 0. -1.
    9900012    2    1    2    0    0 -0.26351623387E+02 -0.33474974646E+02  0.82850008815E+01  0.47787271639E+02  0.20000002712E+02 0.  0.
         12    1    1    2    0    0  0.26351623387E+02  0.33474974646E+02 -0.82850008815E+01  0.43400728361E+02  0.00000000000E+00 0. -1.
         11    1    3    3    0    0 -0.11402933413E+02 -0.19092854229E+02  0.49184671955E+01  0.22776200141E+02  0.51100000000E-03 0. -1.
        -11    1    3    3    0    0 -0.13811496829E+02 -0.16986116880E+02  0.34793572318E+01  0.22167352985E+02  0.51100000000E-03 0.  1.
         12    1    3    3    0    0 -0.11371931438E+01  0.26039964641E+01 -0.11282354582E+00  0.28437185134E+01  0.00000000000E+00 0. -1.
</event>
<event>
 7    1  0.1265344E-009  0.4778726E+02  0.7816164E-02  0.1312668E+00
        -11   -1    0    0    0    0  0.00000000000E+00  0.00000000000E+00  0.45593999997E+02  0.45594000000E+02  0.51100000000E-03 0.  1.
         11   -1    0    0    0    0 -0.00000000000E+00 -0.00000000000E+00 -0.45593999997E+02  0.45594000000E+02  0.51100000000E-03 0. -1.
    9900012    2    1    2    0    0  0.24425940925E+02  0.20002664647E+02  0.29780720686E+02  0.47787256831E+02  0.19999935193E+02 0.  0.
         12    1    1    2    0    0 -0.24425940925E+02 -0.20002664647E+02 -0.29780720686E+02  0.43400743169E+02  0.00000000000E+00 0. -1.
         11    1    3    3    0    0  0.83187098005E+01  0.98931913507E+01  0.84712259614E+01  0.15454379230E+02  0.51100000000E-03 0. -1.
        -11    1    3    3    0    0  0.81581950695E+01  0.64228230869E+01  0.21158935988E+02  0.23569246394E+02  0.51100000000E-03 0.  1.
        -12    1    3    3    0    0  0.79490360553E+01  0.36866502097E+01  0.15055873683E+00  0.87636312057E+01  0.00000000000E+00 0.  1.
</event>
<event>
 7    1  0.1265344E-009  0.4778727E+02  0.7816164E-02  0.1312668E+00
        -11   -1    0    0    0    0  0.00000000000E+00  0.00000000000E+00  0.45593999997E+02  0.45594000000E+02  0.51100000000E-03 0. -1.
         11   -1    0    0    0    0 -0.00000000000E+00 -0.00000000000E+00 -0.45593999997E+02  0.45594000000E+02  0.51100000000E-03 0.  1.
    9900012    2    1    2    0    0  0.12859132068E+02 -0.41341521101E+02 -0.30240341438E+01  0.47787269280E+02  0.19999991956E+02 0.  0.
         12    1    1    2    0    0 -0.12859132068E+02  0.41341521101E+02  0.30240341438E+01  0.43400730720E+02  0.00000000000E+00 0. -1.
         11    1    3    3    0    0  0.35811384943E+01 -0.28956519959E+02 -0.48533499457E+01  0.29578025745E+02  0.51100000000E-03 0. -1.
        -11    1    3    3    0    0  0.21265744957E+01 -0.65194421348E+01  0.49393333178E+01  0.84511809068E+01  0.51100000000E-03 0.  1.
        -12    1    3    3    0    0  0.71514190778E+01 -0.58655590077E+01 -0.31100175159E+01  0.97580626279E+01  0.00000000000E+00 0.  1.
</event>
<event>
 7    1  0.1265344E-009  0.4778727E+02  0.7816164E-02  0.1312668E+00
        -11   -1    0    0    0    0  0.00000000000E+00  0.00000000000E+00  0.45593999997E+02  0.45594000000E+02  0.51100000000E-03 0.  1.
         11   -1    0    0    0    0 -0.00000000000E+00 -0.00000000000E+00 -0.45593999997E+02  0.45594000000E+02  0.51100000000E-03 0. -1.
    9900012    2    1    2    0    0 -0.27743426287E+01 -0.28251174740E+01  0.43219728733E+02  0.47787271694E+02  0.20000002962E+02 0.  0.
         12    1    1    2    0    0  0.27743426287E+01  0.28251174740E+01 -0.43219728733E+02  0.43400728306E+02  0.00000000000E+00 0. -1.
         11    1    3    3    0    0  0.41942971597E+01 -0.49096615686E+01  0.11591720004E+02  0.13268944129E+02  0.51100000000E-03 0. -1.
        -11    1    3    3    0    0 -0.32420684824E+01  0.29422566876E+01  0.23065067109E+01  0.49485205798E+01  0.51100000000E-03 0.  1.
        -12    1    3    3    0    0 -0.37265713059E+01 -0.85771259300E+00  0.29321502018E+02  0.29569806986E+02  0.00000000000E+00 0.  1.
</event>
<event>
 7    1  0.1265344E-009  0.4778727E+02  0.7816164E-02  0.1312668E+00
        -11   -1    0    0    0    0  0.00000000000E+00  0.00000000000E+00  0.45593999997E+02  0.45594000000E+02  0.51100000000E-03 0. -1.
         11   -1    0    0    0    0 -0.00000000000E+00 -0.00000000000E+00 -0.45593999997E+02  0.45594000000E+02  0.51100000000E-03 0.  1.
    9900012    2    1    2    0    0  0.29564894843E+02  0.10867706299E+02  0.29856879524E+02  0.47787270718E+02  0.19999998511E+02 0.  0.
         12    1    1    2    0    0 -0.29564894843E+02 -0.10867706299E+02 -0.29856879524E+02  0.43400729282E+02  0.00000000000E+00 0. -1.
         11    1    3    3    0    0  0.64806013952E+01  0.30871431306E+01  0.11045340951E+02  0.13173010443E+02  0.51100000000E-03 0. -1.
        -11    1    3    3    0    0  0.74793259868E+01  0.15799548933E+01 -0.19723645112E+01  0.78947322125E+01  0.51100000000E-03 0.  1.
        -12    1    3    3    0    0  0.15604967461E+02  0.62006082749E+01  0.20783903084E+02  0.26719528062E+02  0.00000000000E+00 0.  1.
</event>
<event>
 7    1  0.1265344E-009  0.4778727E+02  0.7816164E-02  0.1312668E+00
        -11   -1    0    0    0    0  0.00000000000E+00  0.00000000000E+00  0.45593999997E+02  0.45594000000E+02  0.51100000000E-03 0.  1.
         11   -1    0    0    0    0 -0.00000000000E+00 -0.00000000000E+00 -0.45593999997E+02  0.45594000000E+02  0.51100000000E-03 0. -1.
    9900012    2    1    2    0    0  0.11336947301E+02 -0.18127467755E+02  0.37768927959E+02  0.47787269816E+02  0.19999994400E+02 0.  0.
         12    1    1    2    0    0 -0.11336947301E+02  0.18127467755E+02 -0.37768927959E+02  0.43400730184E+02  0.00000000000E+00 0. -1.
         11    1    3    3    0    0 -0.28685199911E+01 -0.44100131226E+01  0.10971058468E+02  0.12167199631E+02  0.51100000000E-03 0. -1.
        -11    1    3    3    0    0  0.12865712384E+02 -0.14504752197E+02  0.27709014554E+02  0.33818691270E+02  0.51100000000E-03 0.  1.
         12    1    3    3    0    0  0.13397549084E+01  0.78729756421E+00 -0.91114506334E+00  0.18013789151E+01  0.00000000000E+00 0. -1.
</event>
<event>
 7    1  0.1265344E-009  0.4778727E+02  0.7816164E-02  0.1312668E+00
        -11   -1    0    0    0    0  0.00000000000E+00  0.00000000000E+00  0.45593999997E+02  0.45594000000E+02  0.51100000000E-03 0.  1.
         11   -1    0    0    0    0 -0.00000000000E+00 -0.00000000000E+00 -0.45593999997E+02  0.45594000000E+02  0.51100000000E-03 0. -1.
    9900012    2    1    2    0    0 -0.37603269045E+02 -0.17784125728E+02  0.12383137610E+02  0.47787273418E+02  0.20000010820E+02 0.  0.
         12    1    1    2    0    0  0.37603269045E+02  0.17784125728E+02 -0.12383137610E+02  0.43400726582E+02  0.00000000000E+00 0. -1.
         11    1    3    3    0    0 -0.58532250578E+01  0.15506422469E+01 -0.35674826664E+00  0.60656413134E+01  0.51100000000E-03 0. -1.
        -11    1    3    3    0    0 -0.28511593235E+02 -0.20237587151E+02  0.79276386520E+01  0.35851336619E+02  0.51100000000E-03 0.  1.
         12    1    3    3    0    0 -0.32384507519E+01  0.90281917520E+00  0.48122472247E+01  0.58702954855E+01  0.00000000000E+00 0. -1.
</event>
<event>
 7    1  0.1265344E-009  0.4778731E+02  0.7816164E-02  0.1312668E+00
        -11   -1    0    0    0    0  0.00000000000E+00  0.00000000000E+00  0.45593999997E+02  0.45594000000E+02  0.51100000000E-03 0. -1.
         11   -1    0    0    0    0 -0.00000000000E+00 -0.00000000000E+00 -0.45593999997E+02  0.45594000000E+02  0.51100000000E-03 0.  1.
    9900012    2    1    2    0    0 -0.15733213854E+02  0.40443152691E+02  0.66094073292E+00  0.47787314977E+02  0.20000200306E+02 0.  0.
         12    1    1    2    0    0  0.15733213854E+02 -0.40443152691E+02 -0.66094073292E+00  0.43400685023E+02  0.00000000000E+00 0. -1.
         11    1    3    3    0    0  0.19667105350E-01 -0.48772854724E+00 -0.14004823010E+01  0.14831105378E+01  0.51100000000E-03 0.  1.
        -11    1    3    3    0    0 -0.17015349486E+02  0.24875832730E+02  0.77804989988E+00  0.30148541160E+02  0.51100000000E-03 0. -1.
         12    1    3    3    0    0  0.12624685268E+01  0.16055048509E+02  0.12833731340E+01  0.16155663280E+02  0.00000000000E+00 0. -1.
</event>
<event>
 7    1  0.1265344E-009  0.4778727E+02  0.7816164E-02  0.1312668E+00
        -11   -1    0    0    0    0  0.00000000000E+00  0.00000000000E+00  0.45593999997E+02  0.45594000000E+02  0.51100000000E-03 0.  1.
         11   -1    0    0    0    0 -0.00000000000E+00 -0.00000000000E+00 -0.45593999997E+02  0.45594000000E+02  0.51100000000E-03 0. -1.
    9900012    2    1    2    0    0 -0.39996199466E+02  0.82201218691E+00  0.16830081550E+02  0.47787270504E+02  0.19999997538E+02 0.  0.
         12    1    1    2    0    0  0.39996199466E+02 -0.82201218691E+00 -0.16830081550E+02  0.43400729496E+02  0.00000000000E+00 0. -1.
         11    1    3    3    0    0 -0.70226366621E+01  0.40778947065E+01  0.82439812417E+01  0.11571943566E+02  0.51100000000E-03 0. -1.
        -11    1    3    3    0    0  0.40823780819E+00  0.11500596698E+01  0.12642097812E+01  0.17571345948E+01  0.51100000000E-03 0.  1.
        -12    1    3    3    0    0 -0.33381800612E+02 -0.44059421894E+01  0.73218905272E+01  0.34458192343E+02  0.00000000000E+00 0.  1.
</event>
<event>
 7    1  0.1265344E-009  0.4778727E+02  0.7816164E-02  0.1312668E+00
        -11   -1    0    0    0    0  0.00000000000E+00  0.00000000000E+00  0.45593999997E+02  0.45594000000E+02  0.51100000000E-03 0.  1.
         11   -1    0    0    0    0 -0.00000000000E+00 -0.00000000000E+00 -0.45593999997E+02  0.45594000000E+02  0.51100000000E-03 0. -1.
    9900012    2    1    2    0    0 -0.36652726119E+02  0.12453292601E+02  0.19624386238E+02  0.47787270008E+02  0.19999995276E+02 0.  0.
         12    1    1    2    0    0  0.36652726119E+02 -0.12453292601E+02 -0.19624386238E+02  0.43400729992E+02  0.00000000000E+00 0. -1.
         11    1    3    3    0    0 -0.85908749614E+01 -0.12914617020E+01  0.75827598911E+01  0.11531229499E+02  0.51100000000E-03 0. -1.
        -11    1    3    3    0    0 -0.17510579426E+02  0.37522654269E+01  0.87544473433E+00  0.17929481069E+02  0.51100000000E-03 0.  1.
        -12    1    3    3    0    0 -0.10551271732E+02  0.99924888764E+01  0.11166181613E+02  0.18326559440E+02  0.00000000000E+00 0.  1.
</event>
<event>
 7    1  0.1265344E-009  0.4778727E+02  0.7816164E-02  0.1312668E+00
        -11   -1    0    0    0    0  0.00000000000E+00  0.00000000000E+00  0.45593999997E+02  0.45594000000E+02  0.51100000000E-03 0. -1.
         11   -1    0    0    0    0 -0.00000000000E+00 -0.00000000000E+00 -0.45593999997E+02  0.45594000000E+02  0.51100000000E-03 0.  1.
    9900012    2    1    2    0    0  0.27770721273E+02 -0.30557306646E+02 -0.13366424333E+02  0.47787271331E+02  0.20000001309E+02 0.  0.
         12    1    1    2    0    0 -0.27770721273E+02  0.30557306646E+02  0.13366424333E+02  0.43400728669E+02  0.00000000000E+00 0. -1.
         11    1    3    3    0    0  0.10862261222E+02 -0.15857805098E+02 -0.69773638641E+01  0.20448528263E+02  0.51100000000E-03 0.  1.
        -11    1    3    3    0    0 -0.15708651494E+01  0.11352115774E+01 -0.16513181255E+01  0.25462078579E+01  0.51100000000E-03 0. -1.
         12    1    3    3    0    0  0.18479325201E+02 -0.15834713126E+02 -0.47377423437E+01  0.24792535210E+02  0.00000000000E+00 0. -1.
</event>
<event>
 7    1  0.1265344E-009  0.4778727E+02  0.7816164E-02  0.1312668E+00
        -11   -1    0    0    0    0  0.00000000000E+00  0.00000000000E+00  0.45593999997E+02  0.45594000000E+02  0.51100000000E-03 0.  1.
         11   -1    0    0    0    0 -0.00000000000E+00 -0.00000000000E+00 -0.45593999997E+02  0.45594000000E+02  0.51100000000E-03 0. -1.
    9900012    2    1    2    0    0 -0.24631163900E+02  0.12038160265E+02  0.33645379510E+02  0.47787273048E+02  0.20000009134E+02 0.  0.
         12    1    1    2    0    0  0.24631163900E+02 -0.12038160265E+02 -0.33645379510E+02  0.43400726952E+02  0.00000000000E+00 0. -1.
         11    1    3    3    0    0 -0.43188552398E+01  0.87221082146E+00  0.66865485283E+01  0.80076959096E+01  0.51100000000E-03 0.  1.
        -11    1    3    3    0    0 -0.71036846402E+01 -0.10494316494E+01 -0.22158954309E+00  0.71842010301E+01  0.51100000000E-03 0. -1.
         12    1    3    3    0    0 -0.13208624020E+02  0.12215381093E+02  0.27180420525E+02  0.32595376108E+02  0.00000000000E+00 0. -1.
</event>
<event>
 7    1  0.1265344E-009  0.4778727E+02  0.7816164E-02  0.1312668E+00
        -11   -1    0    0    0    0  0.00000000000E+00  0.00000000000E+00  0.45593999997E+02  0.45594000000E+02  0.51100000000E-03 0. -1.
         11   -1    0    0    0    0 -0.00000000000E+00 -0.00000000000E+00 -0.45593999997E+02  0.45594000000E+02  0.51100000000E-03 0.  1.
    9900012    2    1    2    0    0  0.42969331651E+02 -0.27814357611E+01 -0.54335874583E+01  0.47787265903E+02  0.19999976560E+02 0.  0.
         12    1    1    2    0    0 -0.42969331651E+02  0.27814357611E+01  0.54335874583E+01  0.43400734097E+02  0.00000000000E+00 0. -1.
         11    1    3    3    0    0  0.12020750000E+02 -0.50775134830E+01 -0.20344312891E+00  0.13050707380E+02  0.51100000000E-03 0. -1.
        -11    1    3    3    0    0  0.31956449685E+02  0.28318570760E+01 -0.68011634503E+01  0.32794662912E+02  0.51100000000E-03 0.  1.
         12    1    3    3    0    0 -0.10078680337E+01 -0.53577935413E+00  0.15710191209E+01  0.19418956120E+01  0.00000000000E+00 0. -1.
</event>
<event>
 7    1  0.1265344E-009  0.4778727E+02  0.7816164E-02  0.1312668E+00
        -11   -1    0    0    0    0  0.00000000000E+00  0.00000000000E+00  0.45593999997E+02  0.45594000000E+02  0.51100000000E-03 0. -1.
         11   -1    0    0    0    0 -0.00000000000E+00 -0.00000000000E+00 -0.45593999997E+02  0.45594000000E+02  0.51100000000E-03 0.  1.
    9900012    2    1    2    0    0  0.37695363233E+01  0.30661372796E+02 -0.30484328110E+02  0.47787269060E+02  0.19999990953E+02 0.  0.
         12    1    1    2    0    0 -0.37695363233E+01 -0.30661372796E+02  0.30484328110E+02  0.43400730940E+02  0.00000000000E+00 0. -1.
         11    1    3    3    0    0  0.88352202796E+01  0.10294220113E+02 -0.13609821400E+02  0.19216121459E+02  0.51100000000E-03 0. -1.
        -11    1    3    3    0    0 -0.10560347972E+00  0.17133790524E+02 -0.12450306386E+02  0.21179897525E+02  0.51100000000E-03 0.  1.
        -12    1    3    3    0    0 -0.49600804767E+01  0.32333621588E+01 -0.44242003240E+01  0.73912500764E+01  0.00000000000E+00 0.  1.
</event>
<event>
 7    1  0.1265344E-009  0.4778727E+02  0.7816164E-02  0.1312668E+00
        -11   -1    0    0    0    0  0.00000000000E+00  0.00000000000E+00  0.45593999997E+02  0.45594000000E+02  0.51100000000E-03 0. -1.
         11   -1    0    0    0    0 -0.00000000000E+00 -0.00000000000E+00 -0.45593999997E+02  0.45594000000E+02  0.51100000000E-03 0.  1.
    9900012    2    1    2    0    0  0.17398690044E+02  0.23092412904E+02 -0.32367414764E+02  0.47787268584E+02  0.19999988780E+02 0.  0.
         12    1    1    2    0    0 -0.17398690044E+02 -0.23092412904E+02  0.32367414764E+02  0.43400731416E+02  0.00000000000E+00 0. -1.
         11    1    3    3    0    0  0.45589062914E+01 -0.10444733966E+01 -0.70068931814E+01  0.84244349108E+01  0.51100000000E-03 0. -1.
        -11    1    3    3    0    0  0.15148074374E+02  0.21304742656E+02 -0.20182683753E+02  0.33025701213E+02  0.51100000000E-03 0.  1.
         12    1    3    3    0    0 -0.23082906219E+01  0.28321436438E+01 -0.51778378304E+01  0.63371324597E+01  0.00000000000E+00 0. -1.
</event>
<event>
 7    1  0.1265344E-009  0.4778727E+02  0.7816164E-02  0.1312668E+00
        -11   -1    0    0    0    0  0.00000000000E+00  0.00000000000E+00  0.45593999997E+02  0.45594000000E+02  0.51100000000E-03 0.  1.
         11   -1    0    0    0    0 -0.00000000000E+00 -0.00000000000E+00 -0.45593999997E+02  0.45594000000E+02  0.51100000000E-03 0. -1.
    9900012    2    1    2    0    0  0.23976088378E+02  0.23066459188E+02  0.27869500008E+02  0.47787269775E+02  0.19999994211E+02 0.  0.
         12    1    1    2    0    0 -0.23976088378E+02 -0.23066459188E+02 -0.27869500008E+02  0.43400730225E+02  0.00000000000E+00 0. -1.
         11    1    3    3    0    0  0.16068276597E+01  0.73013341830E+00  0.51175129914E+01  0.54133103933E+01  0.51100000000E-03 0. -1.
        -11    1    3    3    0    0  0.59249784873E+01  0.13335781582E+02  0.17736977844E+02  0.22968431026E+02  0.51100000000E-03 0.  1.
         12    1    3    3    0    0  0.16444282231E+02  0.90005441882E+01  0.50150091726E+01  0.19405528356E+02  0.00000000000E+00 0. -1.
</event>
<event>
 7    1  0.1265344E-009  0.4778727E+02  0.7816164E-02  0.1312668E+00
        -11   -1    0    0    0    0  0.00000000000E+00  0.00000000000E+00  0.45593999997E+02  0.45594000000E+02  0.51100000000E-03 0.  1.
         11   -1    0    0    0    0 -0.00000000000E+00 -0.00000000000E+00 -0.45593999997E+02  0.45594000000E+02  0.51100000000E-03 0. -1.
    9900012    2    1    2    0    0  0.21727639646E+02  0.27308671054E+02  0.25802503034E+02  0.47787274175E+02  0.20000014273E+02 0.  0.
         12    1    1    2    0    0 -0.21727639646E+02 -0.27308671054E+02 -0.25802503034E+02  0.43400725825E+02  0.00000000000E+00 0. -1.
         11    1    3    3    0    0 -0.92711851785E+00  0.34386662925E+01  0.38551211289E+00  0.35822610831E+01  0.51100000000E-03 0. -1.
        -11    1    3    3    0    0  0.17408128798E+02  0.23086399169E+02  0.25978712158E+02  0.38870532032E+02  0.51100000000E-03 0.  1.
        -12    1    3    3    0    0  0.52466293659E+01  0.78360559263E+00 -0.56172123650E+00  0.53344810596E+01  0.00000000000E+00 0.  1.
</event>
<event>
 7    1  0.1265344E-009  0.4778727E+02  0.7816164E-02  0.1312668E+00
        -11   -1    0    0    0    0  0.00000000000E+00  0.00000000000E+00  0.45593999997E+02  0.45594000000E+02  0.51100000000E-03 0.  1.
         11   -1    0    0    0    0 -0.00000000000E+00 -0.00000000000E+00 -0.45593999997E+02  0.45594000000E+02  0.51100000000E-03 0. -1.
    9900012    2    1    2    0    0  0.13840767093E+02 -0.31958506778E+01  0.41010283087E+02  0.47787267124E+02  0.19999982127E+02 0.  0.
         12    1    1    2    0    0 -0.13840767093E+02  0.31958506778E+01 -0.41010283087E+02  0.43400732876E+02  0.00000000000E+00 0. -1.
         11    1    3    3    0    0  0.97955836620E+01 -0.78707275463E+00  0.51967828042E+01  0.11116631440E+02  0.51100000000E-03 0. -1.
        -11    1    3    3    0    0  0.36362044907E+01 -0.41646384027E+01  0.19846593562E+02  0.20602268622E+02  0.51100000000E-03 0.  1.
        -12    1    3    3    0    0  0.40897894048E+00  0.17558604796E+01  0.15966906721E+02  0.16068367062E+02  0.00000000000E+00 0.  1.
</event>
<event>
 7    1  0.1265344E-009  0.4778727E+02  0.7816164E-02  0.1312668E+00
        -11   -1    0    0    0    0  0.00000000000E+00  0.00000000000E+00  0.45593999997E+02  0.45594000000E+02  0.51100000000E-03 0.  1.
         11   -1    0    0    0    0 -0.00000000000E+00 -0.00000000000E+00 -0.45593999997E+02  0.45594000000E+02  0.51100000000E-03 0. -1.
    9900012    2    1    2    0    0  0.37762440423E+02 -0.14250357621E+02  0.15954578913E+02  0.47787272042E+02  0.20000004546E+02 0.  0.
         12    1    1    2    0    0 -0.37762440423E+02  0.14250357621E+02 -0.15954578913E+02  0.43400727958E+02  0.00000000000E+00 0. -1.
         11    1    3    3    0    0  0.37903732505E+02 -0.16320103697E+02  0.13011942961E+02  0.43270652669E+02  0.51100000000E-03 0.  1.
        -11    1    3    3    0    0  0.51127446408E+00  0.19332458516E+01  0.61014843342E+00  0.20907229544E+01  0.51100000000E-03 0. -1.
        -12    1    3    3    0    0 -0.65256654614E+00  0.13650022441E+00  0.23324875186E+01  0.24258964184E+01  0.00000000000E+00 0.  1.
</event>
<event>
 7    1  0.1265344E-009  0.4778727E+02  0.7816164E-02  0.1312668E+00
        -11   -1    0    0    0    0  0.00000000000E+00  0.00000000000E+00  0.45593999997E+02  0.45594000000E+02  0.51100000000E-03 0.  1.
         11   -1    0    0    0    0 -0.00000000000E+00 -0.00000000000E+00 -0.45593999997E+02  0.45594000000E+02  0.51100000000E-03 0. -1.
    9900012    2    1    2    0    0  0.94316473660E+01 -0.26707973041E+02  0.32883914884E+02  0.47787266664E+02  0.19999980028E+02 0.  0.
         12    1    1    2    0    0 -0.94316473660E+01  0.26707973041E+02 -0.32883914884E+02  0.43400733336E+02  0.00000000000E+00 0. -1.
         11    1    3    3    0    0  0.88299802668E+01 -0.15518998321E+02  0.16304371404E+02  0.24179338029E+02  0.51100000000E-03 0. -1.
        -11    1    3    3    0    0  0.33905137917E+01 -0.93604474307E+01  0.42315879204E+01  0.10817573502E+02  0.51100000000E-03 0.  1.
        -12    1    3    3    0    0 -0.27888466924E+01 -0.18285272895E+01  0.12347955560E+02  0.12790355133E+02  0.00000000000E+00 0.  1.
</event>
<event>
 7    1  0.1265344E-009  0.4778727E+02  0.7816164E-02  0.1312668E+00
        -11   -1    0    0    0    0  0.00000000000E+00  0.00000000000E+00  0.45593999997E+02  0.45594000000E+02  0.51100000000E-03 0. -1.
         11   -1    0    0    0    0 -0.00000000000E+00 -0.00000000000E+00 -0.45593999997E+02  0.45594000000E+02  0.51100000000E-03 0.  1.
    9900012    2    1    2    0    0  0.31568530495E+00 -0.38179062070E+02 -0.20636920881E+02  0.47787274877E+02  0.20000017476E+02 0.  0.
         12    1    1    2    0    0 -0.31568530495E+00  0.38179062070E+02  0.20636920881E+02  0.43400725123E+02  0.00000000000E+00 0. -1.
         11    1    3    3    0    0  0.18094910139E+01  0.97926564057E+00 -0.46827820400E+01  0.51148476829E+01  0.51100000000E-03 0. -1.
        -11    1    3    3    0    0  0.14372741714E+01 -0.15603705267E+02 -0.44144521894E+01  0.16279704036E+02  0.51100000000E-03 0.  1.
        -12    1    3    3    0    0 -0.29310798804E+01 -0.23554622443E+02 -0.11539686651E+02  0.26392723158E+02  0.00000000000E+00 0.  1.
</event>
<event>
 7    1  0.1265344E-009  0.4778727E+02  0.7816164E-02  0.1312668E+00
        -11   -1    0    0    0    0  0.00000000000E+00  0.00000000000E+00  0.45593999997E+02  0.45594000000E+02  0.51100000000E-03 0.  1.
         11   -1    0    0    0    0 -0.00000000000E+00 -0.00000000000E+00 -0.45593999997E+02  0.45594000000E+02  0.51100000000E-03 0. -1.
    9900012    2    1    2    0    0 -0.20497162544E+02  0.37536670778E+02  0.73815748228E+01  0.47787274518E+02  0.20000015839E+02 0.  0.
         12    1    1    2    0    0  0.20497162544E+02 -0.37536670778E+02 -0.73815748228E+01  0.43400725482E+02  0.00000000000E+00 0. -1.
         11    1    3    3    0    0 -0.35829385149E+01  0.62521824954E+01 -0.49681226669E+01  0.87526840142E+01  0.51100000000E-03 0. -1.
        -11    1    3    3    0    0 -0.37466682075E+00  0.69304532398E+01  0.53796817555E+01  0.87813742312E+01  0.51100000000E-03 0.  1.
        -12    1    3    3    0    0 -0.16539557209E+02  0.24354035043E+02  0.69700157343E+01  0.30253216273E+02  0.00000000000E+00 0.  1.
</event>
<event>
 7    1  0.1265344E-009  0.4778727E+02  0.7816164E-02  0.1312668E+00
        -11   -1    0    0    0    0  0.00000000000E+00  0.00000000000E+00  0.45593999997E+02  0.45594000000E+02  0.51100000000E-03 0.  1.
         11   -1    0    0    0    0 -0.00000000000E+00 -0.00000000000E+00 -0.45593999997E+02  0.45594000000E+02  0.51100000000E-03 0. -1.
    9900012    2    1    2    0    0 -0.21143647086E+02 -0.71222454153E+01  0.37226911129E+02  0.47787273001E+02  0.20000008921E+02 0.  0.
         12    1    1    2    0    0  0.21143647086E+02  0.71222454153E+01 -0.37226911129E+02  0.43400726999E+02  0.00000000000E+00 0. -1.
         11    1    3    3    0    0 -0.14073053955E+02 -0.60556225409E+00  0.24093908731E+02  0.27909388948E+02  0.51100000000E-03 0. -1.
        -11    1    3    3    0    0 -0.93544227651E+01 -0.56245372176E+01  0.13540750570E+02  0.17392313545E+02  0.51100000000E-03 0.  1.
         12    1    3    3    0    0  0.22838296339E+01 -0.89214594364E+00 -0.40774817167E+00  0.24855705085E+01  0.00000000000E+00 0. -1.
</event>
<event>
 7    1  0.1265344E-009  0.4778727E+02  0.7816164E-02  0.1312668E+00
        -11   -1    0    0    0    0  0.00000000000E+00  0.00000000000E+00  0.45593999997E+02  0.45594000000E+02  0.51100000000E-03 0. -1.
         11   -1    0    0    0    0 -0.00000000000E+00 -0.00000000000E+00 -0.45593999997E+02  0.45594000000E+02  0.51100000000E-03 0.  1.
    9900012    2    1    2    0    0 -0.35034930503E+02 -0.24360540211E+02 -0.79209371484E+01  0.47787268208E+02  0.19999987069E+02 0.  0.
         12    1    1    2    0    0  0.35034930503E+02  0.24360540211E+02  0.79209371484E+01  0.43400731792E+02  0.00000000000E+00 0. -1.
         11    1    3    3    0    0 -0.50608645911E+00 -0.34904102603E+01  0.17970693625E+01  0.39583514048E+01  0.51100000000E-03 0. -1.
        -11    1    3    3    0    0 -0.27607485806E+02 -0.18622527517E+02 -0.22123352604E+01  0.33374634548E+02  0.51100000000E-03 0.  1.
         12    1    3    3    0    0 -0.69213582385E+01 -0.22476024339E+01 -0.75056712506E+01  0.10454282256E+02  0.00000000000E+00 0. -1.
</event>
<event>
 7    1  0.1265344E-009  0.4778723E+02  0.7816164E-02  0.1312668E+00
        -11   -1    0    0    0    0  0.00000000000E+00  0.00000000000E+00  0.45593999997E+02  0.45594000000E+02  0.51100000000E-03 0. -1.
         11   -1    0    0    0    0 -0.00000000000E+00 -0.00000000000E+00 -0.45593999997E+02  0.45594000000E+02  0.51100000000E-03 0.  1.
    9900012    2    1    2    0    0 -0.23073783919E+02 -0.11097629996E+02 -0.35043824218E+02  0.47787233744E+02  0.19999829930E+02 0.  0.
         12    1    1    2    0    0  0.23073783919E+02  0.11097629996E+02  0.35043824218E+02  0.43400766256E+02  0.00000000000E+00 0. -1.
         11    1    3    3    0    0 -0.14008114358E+01 -0.33646510190E+01  0.27027548934E+00  0.36546132846E+01  0.51100000000E-03 0. -1.
        -11    1    3    3    0    0 -0.17699170023E+02 -0.13879899492E+01 -0.18063089553E+02  0.25327106824E+02  0.51100000000E-03 0.  1.
        -12    1    3    3    0    0 -0.39738024599E+01 -0.63449890272E+01 -0.17251010154E+02  0.18805513635E+02  0.00000000000E+00 0.  1.
</event>
<event>
 7    1  0.1265344E-009  0.4778727E+02  0.7816164E-02  0.1312668E+00
        -11   -1    0    0    0    0  0.00000000000E+00  0.00000000000E+00  0.45593999997E+02  0.45594000000E+02  0.51100000000E-03 0.  1.
         11   -1    0    0    0    0 -0.00000000000E+00 -0.00000000000E+00 -0.45593999997E+02  0.45594000000E+02  0.51100000000E-03 0. -1.
    9900012    2    1    2    0    0 -0.12635067338E+02  0.12144966814E+02  0.39704892350E+02  0.47787267033E+02  0.19999981710E+02 0.  0.
         12    1    1    2    0    0  0.12635067338E+02 -0.12144966814E+02 -0.39704892350E+02  0.43400732967E+02  0.00000000000E+00 0. -1.
         11    1    3    3    0    0  0.32451759372E+01  0.16917259631E+01  0.11713330400E+02  0.12271724121E+02  0.51100000000E-03 0. -1.
        -11    1    3    3    0    0 -0.95960148334E+01  0.83282901718E+01  0.25386313756E+02  0.28388533675E+02  0.51100000000E-03 0.  1.
         12    1    3    3    0    0 -0.62842284419E+01  0.21249506788E+01  0.26052481951E+01  0.71270092364E+01  0.00000000000E+00 0. -1.
</event>
<event>
 7    1  0.1265344E-009  0.4778728E+02  0.7816164E-02  0.1312668E+00
        -11   -1    0    0    0    0  0.00000000000E+00  0.00000000000E+00  0.45593999997E+02  0.45594000000E+02  0.51100000000E-03 0.  1.
         11   -1    0    0    0    0 -0.00000000000E+00 -0.00000000000E+00 -0.45593999997E+02  0.45594000000E+02  0.51100000000E-03 0. -1.
    9900012    2    1    2    0    0 -0.17707940788E+02  0.43530935650E+00  0.39621479116E+02  0.47787282627E+02  0.20000052808E+02 0.  0.
         12    1    1    2    0    0  0.17707940788E+02 -0.43530935650E+00 -0.39621479116E+02  0.43400717373E+02  0.00000000000E+00 0. -1.
         11    1    3    3    0    0  0.29739428241E+00 -0.63572113021E+01  0.48927093588E+01  0.80275266446E+01  0.51100000000E-03 0. -1.
        -11    1    3    3    0    0 -0.71669789712E+01  0.27770301884E+01  0.11800839041E+02  0.14083227136E+02  0.51100000000E-03 0.  1.
         12    1    3    3    0    0 -0.10838356099E+02  0.40154904702E+01  0.22927930717E+02  0.25676528846E+02  0.00000000000E+00 0. -1.
</event>
<event>
 7    1  0.1265344E-009  0.4778727E+02  0.7816164E-02  0.1312668E+00
        -11   -1    0    0    0    0  0.00000000000E+00  0.00000000000E+00  0.45593999997E+02  0.45594000000E+02  0.51100000000E-03 0.  1.
         11   -1    0    0    0    0 -0.00000000000E+00 -0.00000000000E+00 -0.45593999997E+02  0.45594000000E+02  0.51100000000E-03 0. -1.
    9900012    2    1    2    0    0 -0.29675514694E+02  0.30783053097E+02  0.74425197370E+01  0.47787266937E+02  0.19999981273E+02 0.  0.
         12    1    1    2    0    0  0.29675514694E+02 -0.30783053097E+02 -0.74425197370E+01  0.43400733063E+02  0.00000000000E+00 0. -1.
         11    1    3    3    0    0 -0.12489586570E+02  0.23499783797E+02  0.22592758596E+01  0.26708312168E+02  0.51100000000E-03 0. -1.
        -11    1    3    3    0    0 -0.10885520174E+02  0.85768024029E+01  0.23735904039E+01  0.14060228326E+02  0.51100000000E-03 0.  1.
        -12    1    3    3    0    0 -0.63004079510E+01 -0.12935331031E+01  0.28096534736E+01  0.70187264428E+01  0.00000000000E+00 0.  1.
</event>
<event>
 7    1  0.1265344E-009  0.4778727E+02  0.7816164E-02  0.1312668E+00
        -11   -1    0    0    0    0  0.00000000000E+00  0.00000000000E+00  0.45593999997E+02  0.45594000000E+02  0.51100000000E-03 0.  1.
         11   -1    0    0    0    0 -0.00000000000E+00 -0.00000000000E+00 -0.45593999997E+02  0.45594000000E+02  0.51100000000E-03 0. -1.
    9900012    2    1    2    0    0 -0.22730453191E+02 -0.21391939673E+02  0.30155173356E+02  0.47787273446E+02  0.20000010952E+02 0.  0.
         12    1    1    2    0    0  0.22730453191E+02  0.21391939673E+02 -0.30155173356E+02  0.43400726554E+02  0.00000000000E+00 0. -1.
         11    1    3    3    0    0 -0.65180987324E+01 -0.15945478429E+01 -0.11856418210E+01  0.68142454239E+01  0.51100000000E-03 0.  1.
        -11    1    3    3    0    0 -0.42245128857E+01 -0.17063127621E+01  0.71060677066E+01  0.84412209351E+01  0.51100000000E-03 0. -1.
        -12    1    3    3    0    0 -0.11987841573E+02 -0.18091079068E+02  0.24234747470E+02  0.32531807087E+02  0.00000000000E+00 0.  1.
</event>
<event>
 7    1  0.1265344E-009  0.4778727E+02  0.7816164E-02  0.1312668E+00
        -11   -1    0    0    0    0  0.00000000000E+00  0.00000000000E+00  0.45593999997E+02  0.45594000000E+02  0.51100000000E-03 0.  1.
         11   -1    0    0    0    0 -0.00000000000E+00 -0.00000000000E+00 -0.45593999997E+02  0.45594000000E+02  0.51100000000E-03 0. -1.
    9900012    2    1    2    0    0 -0.16653913505E+02  0.10809865933E+01  0.40063724013E+02  0.47787270181E+02  0.19999996061E+02 0.  0.
         12    1    1    2    0    0  0.16653913505E+02 -0.10809865933E+01 -0.40063724013E+02  0.43400729819E+02  0.00000000000E+00 0. -1.
         11    1    3    3    0    0 -0.43783183854E+01 -0.25089596610E+01  0.25683948056E+02  0.26174983065E+02  0.51100000000E-03 0. -1.
        -11    1    3    3    0    0 -0.10879938039E+02  0.18843971546E+00  0.14254848371E+02  0.17933467696E+02  0.51100000000E-03 0.  1.
         12    1    3    3    0    0 -0.13956570804E+01  0.34015065388E+01  0.12492758647E+00  0.36788194195E+01  0.00000000000E+00 0. -1.
</event>
<event>
 7    1  0.1265344E-009  0.4778727E+02  0.7816164E-02  0.1312668E+00
        -11   -1    0    0    0    0  0.00000000000E+00  0.00000000000E+00  0.45593999997E+02  0.45594000000E+02  0.51100000000E-03 0. -1.
         11   -1    0    0    0    0 -0.00000000000E+00 -0.00000000000E+00 -0.45593999997E+02  0.45594000000E+02  0.51100000000E-03 0.  1.
    9900012    2    1    2    0    0  0.32942237701E+02 -0.27998398869E+02 -0.38107576701E+01  0.47787271458E+02  0.20000001883E+02 0.  0.
         12    1    1    2    0    0 -0.32942237701E+02  0.27998398869E+02  0.38107576701E+01  0.43400728542E+02  0.00000000000E+00 0. -1.
         11    1    3    3    0    0  0.11538793960E+01  0.19286726503E+01 -0.17578184196E+01  0.28532686011E+01  0.51100000000E-03 0. -1.
        -11    1    3    3    0    0  0.14092463505E+02 -0.13046641491E+02 -0.60902353371E+01  0.20147043171E+02  0.51100000000E-03 0.  1.
         12    1    3    3    0    0  0.17695894800E+02 -0.16880430029E+02  0.40372960866E+01  0.24786959685E+02  0.00000000000E+00 0. -1.
</event>
<event>
 7    1  0.1265344E-009  0.4778727E+02  0.7816164E-02  0.1312668E+00
        -11   -1    0    0    0    0  0.00000000000E+00  0.00000000000E+00  0.45593999997E+02  0.45594000000E+02  0.51100000000E-03 0. -1.
         11   -1    0    0    0    0 -0.00000000000E+00 -0.00000000000E+00 -0.45593999997E+02  0.45594000000E+02  0.51100000000E-03 0.  1.
    9900012    2    1    2    0    0  0.28781341096E+02 -0.85921717873E+00 -0.32473361870E+02  0.47787273271E+02  0.20000010151E+02 0.  0.
         12    1    1    2    0    0 -0.28781341096E+02  0.85921717873E+00  0.32473361870E+02  0.43400726729E+02  0.00000000000E+00 0. -1.
         11    1    3    3    0    0  0.72644660054E+01 -0.38949987660E+01 -0.15608127921E+02  0.17650981253E+02  0.51100000000E-03 0. -1.
        -11    1    3    3    0    0  0.10285446462E+02 -0.36150094770E+01 -0.34895709024E+01  0.11447087306E+02  0.51100000000E-03 0.  1.
        -12    1    3    3    0    0  0.11231428629E+02  0.66507910643E+01 -0.13375663047E+02  0.18689204712E+02  0.00000000000E+00 0.  1.
</event>
<event>
 7    1  0.1265344E-009  0.4778727E+02  0.7816164E-02  0.1312668E+00
        -11   -1    0    0    0    0  0.00000000000E+00  0.00000000000E+00  0.45593999997E+02  0.45594000000E+02  0.51100000000E-03 0.  1.
         11   -1    0    0    0    0 -0.00000000000E+00 -0.00000000000E+00 -0.45593999997E+02  0.45594000000E+02  0.51100000000E-03 0. -1.
    9900012    2    1    2    0    0  0.21533507521E+01  0.31101277886E+02  0.30194320552E+02  0.47787269600E+02  0.19999993416E+02 0.  0.
         12    1    1    2    0    0 -0.21533507521E+01 -0.31101277886E+02 -0.30194320552E+02  0.43400730400E+02  0.00000000000E+00 0. -1.
         11    1    3    3    0    0  0.18792044829E+01  0.25879178811E+01  0.99279710776E+01  0.10430404519E+02  0.51100000000E-03 0. -1.
        -11    1    3    3    0    0 -0.27338455225E+01  0.23153593011E+02  0.20724003911E+02  0.31193703196E+02  0.51100000000E-03 0.  1.
         12    1    3    3    0    0  0.30079917917E+01  0.53597669939E+01 -0.45765443697E+00  0.61631618859E+01  0.00000000000E+00 0. -1.
</event>
<event>
 7    1  0.1265344E-009  0.4778727E+02  0.7816164E-02  0.1312668E+00
        -11   -1    0    0    0    0  0.00000000000E+00  0.00000000000E+00  0.45593999997E+02  0.45594000000E+02  0.51100000000E-03 0.  1.
         11   -1    0    0    0    0 -0.00000000000E+00 -0.00000000000E+00 -0.45593999997E+02  0.45594000000E+02  0.51100000000E-03 0. -1.
    9900012    2    1    2    0    0 -0.22531455662E+02  0.83978364535E+01  0.36130777876E+02  0.47787271189E+02  0.20000000661E+02 0.  0.
         12    1    1    2    0    0  0.22531455662E+02 -0.83978364535E+01 -0.36130777876E+02  0.43400728811E+02  0.00000000000E+00 0. -1.
         11    1    3    3    0    0 -0.55473114117E+01  0.13011831678E+01  0.16026077738E+02  0.17008847975E+02  0.51100000000E-03 0.  1.
        -11    1    3    3    0    0 -0.81394841246E+01  0.10892908198E+02  0.10490792667E+02  0.17174498010E+02  0.51100000000E-03 0. -1.
         12    1    3    3    0    0 -0.88446601258E+01 -0.37962549126E+01  0.96139074715E+01  0.13603925205E+02  0.00000000000E+00 0. -1.
</event>
<event>
 7    1  0.1265344E-009  0.4778727E+02  0.7816164E-02  0.1312668E+00
        -11   -1    0    0    0    0  0.00000000000E+00  0.00000000000E+00  0.45593999997E+02  0.45594000000E+02  0.51100000000E-03 0. -1.
         11   -1    0    0    0    0 -0.00000000000E+00 -0.00000000000E+00 -0.45593999997E+02  0.45594000000E+02  0.51100000000E-03 0.  1.
    9900012    2    1    2    0    0  0.39891604603E+02 -0.14160444054E+02 -0.95794047678E+01  0.47787270867E+02  0.19999999189E+02 0.  0.
         12    1    1    2    0    0 -0.39891604603E+02  0.14160444054E+02  0.95794047678E+01  0.43400729133E+02  0.00000000000E+00 0. -1.
         11    1    3    3    0    0  0.21745611739E+02 -0.12869406231E+02 -0.71890112800E+01  0.26271184405E+02  0.51100000000E-03 0.  1.
        -11    1    3    3    0    0  0.19726992608E+02 -0.14228215123E+01 -0.19781251239E+01  0.19876912177E+02  0.51100000000E-03 0. -1.
         12    1    3    3    0    0 -0.15809997439E+01  0.13178368867E+00 -0.41226836392E+00  0.16391742844E+01  0.00000000000E+00 0. -1.
</event>
<event>
 7    1  0.1265344E-009  0.4778727E+02  0.7816164E-02  0.1312668E+00
        -11   -1    0    0    0    0  0.00000000000E+00  0.00000000000E+00  0.45593999997E+02  0.45594000000E+02  0.51100000000E-03 0.  1.
         11   -1    0    0    0    0 -0.00000000000E+00 -0.00000000000E+00 -0.45593999997E+02  0.45594000000E+02  0.51100000000E-03 0. -1.
    9900012    2    1    2    0    0 -0.28889677456E+02  0.10804420959E+02  0.30533171389E+02  0.47787268084E+02  0.19999986503E+02 0.  0.
         12    1    1    2    0    0  0.28889677456E+02 -0.10804420959E+02 -0.30533171389E+02  0.43400731916E+02  0.00000000000E+00 0. -1.
         11    1    3    3    0    0 -0.86193434787E+01  0.11788217596E+02  0.58778376996E+01  0.15741795717E+02  0.51100000000E-03 0. -1.
        -11    1    3    3    0    0 -0.54115485626E+01 -0.14484089373E+01  0.65461742147E+01  0.86159818596E+01  0.51100000000E-03 0.  1.
         12    1    3    3    0    0 -0.14858785415E+02  0.46461230010E+00  0.18109159474E+02  0.23429490508E+02  0.00000000000E+00 0. -1.
</event>
<event>
 7    1  0.1265344E-009  0.4778727E+02  0.7816164E-02  0.1312668E+00
        -11   -1    0    0    0    0  0.00000000000E+00  0.00000000000E+00  0.45593999997E+02  0.45594000000E+02  0.51100000000E-03 0.  1.
         11   -1    0    0    0    0 -0.00000000000E+00 -0.00000000000E+00 -0.45593999997E+02  0.45594000000E+02  0.51100000000E-03 0. -1.
    9900012    2    1    2    0    0 -0.47475223558E+01  0.35461352351E+02  0.24567801281E+02  0.47787270296E+02  0.19999996586E+02 0.  0.
         12    1    1    2    0    0  0.47475223558E+01 -0.35461352351E+02 -0.24567801281E+02  0.43400729704E+02  0.00000000000E+00 0. -1.
         11    1    3    3    0    0  0.13854263900E+00  0.92072489125E+01 -0.93875300428E+00  0.92560188020E+01  0.51100000000E-03 0. -1.
        -11    1    3    3    0    0  0.32992611304E+01  0.93201799050E+01  0.10909393266E+02  0.14722966384E+02  0.51100000000E-03 0.  1.
         12    1    3    3    0    0 -0.81853261252E+01  0.16933923534E+02  0.14597161019E+02  0.23808285109E+02  0.00000000000E+00 0. -1.
</event>
<event>
 7    1  0.1265344E-009  0.4778727E+02  0.7816164E-02  0.1312668E+00
        -11   -1    0    0    0    0  0.00000000000E+00  0.00000000000E+00  0.45593999997E+02  0.45594000000E+02  0.51100000000E-03 0.  1.
         11   -1    0    0    0    0 -0.00000000000E+00 -0.00000000000E+00 -0.45593999997E+02  0.45594000000E+02  0.51100000000E-03 0. -1.
    9900012    2    1    2    0    0 -0.89872983893E+01 -0.35898911406E+02  0.22674206548E+02  0.47787274026E+02  0.20000013596E+02 0.  0.
         12    1    1    2    0    0  0.89872983893E+01  0.35898911406E+02 -0.22674206548E+02  0.43400725974E+02  0.00000000000E+00 0. -1.
         11    1    3    3    0    0 -0.37065252848E+01 -0.13895134927E+02  0.46973631115E+01  0.15128725154E+02  0.51100000000E-03 0. -1.
        -11    1    3    3    0    0 -0.10215313677E+02 -0.18298253933E+02  0.12458979551E+02  0.24380420469E+02  0.51100000000E-03 0.  1.
         12    1    3    3    0    0  0.49345405730E+01 -0.37055225457E+01  0.55178638850E+01  0.82781284030E+01  0.00000000000E+00 0. -1.
</event>
<event>
 7    1  0.1265344E-009  0.4778728E+02  0.7816164E-02  0.1312668E+00
        -11   -1    0    0    0    0  0.00000000000E+00  0.00000000000E+00  0.45593999997E+02  0.45594000000E+02  0.51100000000E-03 0.  1.
         11   -1    0    0    0    0 -0.00000000000E+00 -0.00000000000E+00 -0.45593999997E+02  0.45594000000E+02  0.51100000000E-03 0. -1.
    9900012    2    1    2    0    0  0.42728717433E+01 -0.28973841154E+02  0.32029382502E+02  0.47787282868E+02  0.20000053906E+02 0.  0.
         12    1    1    2    0    0 -0.42728717433E+01  0.28973841154E+02 -0.32029382502E+02  0.43400717132E+02  0.00000000000E+00 0. -1.
         11    1    3    3    0    0 -0.13315838106E+01 -0.13910552094E+02  0.22536592020E+02  0.26517438699E+02  0.51100000000E-03 0. -1.
        -11    1    3    3    0    0  0.69729331074E+01 -0.10403419969E+02  0.10460238246E+02  0.16317767237E+02  0.51100000000E-03 0.  1.
         12    1    3    3    0    0 -0.13684775535E+01 -0.46598690908E+01 -0.96744776471E+00  0.49520769315E+01  0.00000000000E+00 0. -1.
</event>
<event>
 7    1  0.1265344E-009  0.4778727E+02  0.7816164E-02  0.1312668E+00
        -11   -1    0    0    0    0  0.00000000000E+00  0.00000000000E+00  0.45593999997E+02  0.45594000000E+02  0.51100000000E-03 0.  1.
         11   -1    0    0    0    0 -0.00000000000E+00 -0.00000000000E+00 -0.45593999997E+02  0.45594000000E+02  0.51100000000E-03 0. -1.
    9900012    2    1    2    0    0 -0.35819395167E+02 -0.59304258605E+01  0.23778651523E+02  0.47787270867E+02  0.19999999191E+02 0.  0.
         12    1    1    2    0    0  0.35819395167E+02  0.59304258605E+01 -0.23778651523E+02  0.43400729133E+02  0.00000000000E+00 0. -1.
         11    1    3    3    0    0  0.51419127113E+00  0.26021913137E+00  0.13387517492E+01  0.14575195254E+01  0.51100000000E-03 0. -1.
        -11    1    3    3    0    0 -0.35274635637E+02 -0.92510534686E+01  0.17565179765E+02  0.40477369604E+02  0.51100000000E-03 0.  1.
        -12    1    3    3    0    0 -0.10589508013E+01  0.30604084767E+01  0.48747200083E+01  0.58523817377E+01  0.00000000000E+00 0.  1.
</event>
<event>
 7    1  0.1265344E-009  0.4778727E+02  0.7816164E-02  0.1312668E+00
        -11   -1    0    0    0    0  0.00000000000E+00  0.00000000000E+00  0.45593999997E+02  0.45594000000E+02  0.51100000000E-03 0.  1.
         11   -1    0    0    0    0 -0.00000000000E+00 -0.00000000000E+00 -0.45593999997E+02  0.45594000000E+02  0.51100000000E-03 0. -1.
    9900012    2    1    2    0    0  0.38305467084E+02  0.68900803773E+01  0.19205238015E+02  0.47787272087E+02  0.20000004754E+02 0.  0.
         12    1    1    2    0    0 -0.38305467084E+02 -0.68900803773E+01 -0.19205238015E+02  0.43400727913E+02  0.00000000000E+00 0. -1.
         11    1    3    3    0    0 -0.86430692649E+00 -0.56340920485E-01  0.29745431610E+01  0.30980813482E+01  0.51100000000E-03 0. -1.
        -11    1    3    3    0    0  0.21334946052E+02 -0.19487610024E+00  0.13591881174E+02  0.25297374050E+02  0.51100000000E-03 0.  1.
         12    1    3    3    0    0  0.17834827959E+02  0.71412973980E+01  0.26388136803E+01  0.19391816689E+02  0.00000000000E+00 0. -1.
</event>
<event>
 7    1  0.1265344E-009  0.4778727E+02  0.7816164E-02  0.1312668E+00
        -11   -1    0    0    0    0  0.00000000000E+00  0.00000000000E+00  0.45593999997E+02  0.45594000000E+02  0.51100000000E-03 0.  1.
         11   -1    0    0    0    0 -0.00000000000E+00 -0.00000000000E+00 -0.45593999997E+02  0.45594000000E+02  0.51100000000E-03 0. -1.
    9900012    2    1    2    0    0  0.24193490999E+02 -0.34360683060E+02  0.10846289725E+02  0.47787267888E+02  0.19999985608E+02 0.  0.
         12    1    1    2    0    0 -0.24193490999E+02  0.34360683060E+02 -0.10846289725E+02  0.43400732112E+02  0.00000000000E+00 0. -1.
         11    1    3    3    0    0  0.13562337843E+01 -0.13391280900E+02  0.49320478776E+01  0.14334952764E+02  0.51100000000E-03 0. -1.
        -11    1    3    3    0    0  0.69672360089E+01 -0.15144126424E+01  0.42271842641E+01  0.82888425199E+01  0.51100000000E-03 0.  1.
        -12    1    3    3    0    0  0.15870021206E+02 -0.19454989517E+02  0.16870575834E+01  0.25163472604E+02  0.00000000000E+00 0.  1.
</event>
<event>
 7    1  0.1265344E-009  0.4778727E+02  0.7816164E-02  0.1312668E+00
        -11   -1    0    0    0    0  0.00000000000E+00  0.00000000000E+00  0.45593999997E+02  0.45594000000E+02  0.51100000000E-03 0. -1.
         11   -1    0    0    0    0 -0.00000000000E+00 -0.00000000000E+00 -0.45593999997E+02  0.45594000000E+02  0.51100000000E-03 0.  1.
    9900012    2    1    2    0    0  0.92748753532E+01  0.13539554377E+01 -0.42376489712E+02  0.47787269725E+02  0.19999993982E+02 0.  0.
         12    1    1    2    0    0 -0.92748753532E+01 -0.13539554377E+01  0.42376489712E+02  0.43400730275E+02  0.00000000000E+00 0. -1.
         11    1    3    3    0    0  0.36971691231E+01  0.20635608278E+01 -0.62897718570E+01  0.75821219384E+01  0.51100000000E-03 0. -1.
        -11    1    3    3    0    0  0.93947341799E+01  0.44823037627E+01 -0.15809545763E+02  0.18928650634E+02  0.51100000000E-03 0.  1.
         12    1    3    3    0    0 -0.38170279497E+01 -0.51919091529E+01 -0.20277172092E+02  0.21276497152E+02  0.00000000000E+00 0. -1.
</event>
<event>
 7    1  0.1265344E-009  0.4778727E+02  0.7816164E-02  0.1312668E+00
        -11   -1    0    0    0    0  0.00000000000E+00  0.00000000000E+00  0.45593999997E+02  0.45594000000E+02  0.51100000000E-03 0.  1.
         11   -1    0    0    0    0 -0.00000000000E+00 -0.00000000000E+00 -0.45593999997E+02  0.45594000000E+02  0.51100000000E-03 0. -1.
    9900012    2    1    2    0    0  0.19829872856E+02  0.17586108562E+02  0.34367548499E+02  0.47787268881E+02  0.19999990136E+02 0.  0.
         12    1    1    2    0    0 -0.19829872856E+02 -0.17586108562E+02 -0.34367548499E+02  0.43400731119E+02  0.00000000000E+00 0. -1.
         11    1    3    3    0    0 -0.10382093598E+01  0.68845008446E+01  0.12598579841E+02  0.14394389352E+02  0.51100000000E-03 0. -1.
        -11    1    3    3    0    0  0.11284724832E+02  0.57916913047E+01  0.17926023173E+02  0.21959758873E+02  0.51100000000E-03 0.  1.
         12    1    3    3    0    0  0.95833573839E+01  0.49099164124E+01  0.38429454851E+01  0.11433120656E+02  0.00000000000E+00 0. -1.
</event>
<event>
 7    1  0.1265344E-009  0.4778727E+02  0.7816164E-02  0.1312668E+00
        -11   -1    0    0    0    0  0.00000000000E+00  0.00000000000E+00  0.45593999997E+02  0.45594000000E+02  0.51100000000E-03 0. -1.
         11   -1    0    0    0    0 -0.00000000000E+00 -0.00000000000E+00 -0.45593999997E+02  0.45594000000E+02  0.51100000000E-03 0.  1.
    9900012    2    1    2    0    0  0.88445417883E+01 -0.29223230172E+02 -0.30844776859E+02  0.47787270045E+02  0.19999995444E+02 0.  0.
         12    1    1    2    0    0 -0.88445417883E+01  0.29223230172E+02  0.30844776859E+02  0.43400729955E+02  0.00000000000E+00 0. -1.
         11    1    3    3    0    0 -0.28947770517E+00  0.26446954910E+01 -0.15596700904E+01  0.30839556796E+01  0.51100000000E-03 0. -1.
        -11    1    3    3    0    0  0.16691515257E+00 -0.11728470835E+02 -0.10132373858E+02  0.15499996421E+02  0.51100000000E-03 0.  1.
         12    1    3    3    0    0  0.89671043409E+01 -0.20139454828E+02 -0.19152732910E+02  0.29203317944E+02  0.00000000000E+00 0. -1.
</event>
<event>
 7    1  0.1265344E-009  0.4778727E+02  0.7816164E-02  0.1312668E+00
        -11   -1    0    0    0    0  0.00000000000E+00  0.00000000000E+00  0.45593999997E+02  0.45594000000E+02  0.51100000000E-03 0. -1.
         11   -1    0    0    0    0 -0.00000000000E+00 -0.00000000000E+00 -0.45593999997E+02  0.45594000000E+02  0.51100000000E-03 0.  1.
    9900012    2    1    2    0    0  0.26680986463E+02  0.29280172904E+02 -0.17731880239E+02  0.47787272578E+02  0.20000006993E+02 0.  0.
         12    1    1    2    0    0 -0.26680986463E+02 -0.29280172904E+02  0.17731880239E+02  0.43400727422E+02  0.00000000000E+00 0. -1.
         11    1    3    3    0    0 -0.52616816863E+00  0.43252944786E+01 -0.34848688312E+01  0.55793670161E+01  0.51100000000E-03 0. -1.
        -11    1    3    3    0    0  0.17676811629E+02  0.88286088211E+01 -0.12531305000E+02  0.23397598346E+02  0.51100000000E-03 0.  1.
        -12    1    3    3    0    0  0.95303430032E+01  0.16126269604E+02 -0.17157064078E+01  0.18810307216E+02  0.00000000000E+00 0.  1.
</event>
<event>
 7    1  0.1265344E-009  0.4778727E+02  0.7816164E-02  0.1312668E+00
        -11   -1    0    0    0    0  0.00000000000E+00  0.00000000000E+00  0.45593999997E+02  0.45594000000E+02  0.51100000000E-03 0. -1.
         11   -1    0    0    0    0 -0.00000000000E+00 -0.00000000000E+00 -0.45593999997E+02  0.45594000000E+02  0.51100000000E-03 0.  1.
    9900012    2    1    2    0    0  0.17704373613E+02 -0.37548671338E+02 -0.12660003235E+02  0.47787271363E+02  0.20000001452E+02 0.  0.
         12    1    1    2    0    0 -0.17704373613E+02  0.37548671338E+02  0.12660003235E+02  0.43400728637E+02  0.00000000000E+00 0. -1.
         11    1    3    3    0    0  0.53765868838E+01  0.10196136211E+01 -0.11140977459E+01  0.55846676270E+01  0.51100000000E-03 0. -1.
        -11    1    3    3    0    0  0.89155542132E+01 -0.26938463897E+02 -0.67436118841E+01  0.29165806102E+02  0.51100000000E-03 0.  1.
         12    1    3    3    0    0  0.34122325164E+01 -0.11629821062E+02 -0.48022936053E+01  0.13036797634E+02  0.00000000000E+00 0. -1.
</event>
<event>
 7    1  0.1265344E-009  0.4778726E+02  0.7816164E-02  0.1312668E+00
        -11   -1    0    0    0    0  0.00000000000E+00  0.00000000000E+00  0.45593999997E+02  0.45594000000E+02  0.51100000000E-03 0.  1.
         11   -1    0    0    0    0 -0.00000000000E+00 -0.00000000000E+00 -0.45593999997E+02  0.45594000000E+02  0.51100000000E-03 0. -1.
    9900012    2    1    2    0    0 -0.27658329295E+02 -0.31986538435E+02  0.97725281085E+01  0.47787261227E+02  0.19999955238E+02 0.  0.
         12    1    1    2    0    0  0.27658329295E+02  0.31986538435E+02 -0.97725281085E+01  0.43400738773E+02  0.00000000000E+00 0. -1.
         11    1    3    3    0    0  0.52478960693E+00  0.39433866494E+00 -0.23847489487E+00  0.69841080376E+00  0.51100000000E-03 0. -1.
        -11    1    3    3    0    0 -0.25409389660E+02 -0.33556780173E+02  0.67155821570E+01  0.42623862125E+02  0.51100000000E-03 0.  1.
        -12    1    3    3    0    0 -0.27737292421E+01  0.11759030738E+01  0.32954208463E+01  0.44649882980E+01  0.00000000000E+00 0.  1.
</event>
<event>
 7    1  0.1265344E-009  0.4778728E+02  0.7816164E-02  0.1312668E+00
        -11   -1    0    0    0    0  0.00000000000E+00  0.00000000000E+00  0.45593999997E+02  0.45594000000E+02  0.51100000000E-03 0.  1.
         11   -1    0    0    0    0 -0.00000000000E+00 -0.00000000000E+00 -0.45593999997E+02  0.45594000000E+02  0.51100000000E-03 0. -1.
    9900012    2    1    2    0    0  0.18311419061E+00 -0.51172140782E+01  0.43097598622E+02  0.47787280908E+02  0.20000044973E+02 0.  0.
         12    1    1    2    0    0 -0.18311419061E+00  0.51172140782E+01 -0.43097598622E+02  0.43400719092E+02  0.00000000000E+00 0. -1.
         11    1    3    3    0    0 -0.32560148163E+01  0.45065279943E+01  0.61746063013E+01  0.83088019765E+01  0.51100000000E-03 0. -1.
        -11    1    3    3    0    0 -0.30149577695E+01 -0.55286898955E+01  0.18015763067E+02  0.19084656179E+02  0.51100000000E-03 0.  1.
         12    1    3    3    0    0  0.64540867764E+01 -0.40950521770E+01  0.18907229253E+02  0.20393822753E+02  0.00000000000E+00 0. -1.
</event>
<event>
 7    1  0.1265344E-009  0.4778727E+02  0.7816164E-02  0.1312668E+00
        -11   -1    0    0    0    0  0.00000000000E+00  0.00000000000E+00  0.45593999997E+02  0.45594000000E+02  0.51100000000E-03 0. -1.
         11   -1    0    0    0    0 -0.00000000000E+00 -0.00000000000E+00 -0.45593999997E+02  0.45594000000E+02  0.51100000000E-03 0.  1.
    9900012    2    1    2    0    0  0.36264609194E+00 -0.30976215698E+02 -0.30396813382E+02  0.47787265963E+02  0.19999976834E+02 0.  0.
         12    1    1    2    0    0 -0.36264609194E+00  0.30976215698E+02  0.30396813382E+02  0.43400734037E+02  0.00000000000E+00 0. -1.
         11    1    3    3    0    0  0.25766096691E+00 -0.16343005222E+02 -0.16729832578E+02  0.23389046736E+02  0.51100000000E-03 0. -1.
        -11    1    3    3    0    0 -0.41821407331E+01 -0.15237821637E+02 -0.11590583365E+02  0.19596508167E+02  0.51100000000E-03 0.  1.
         12    1    3    3    0    0  0.42871258581E+01  0.60461116176E+00 -0.20763974397E+01  0.48017110605E+01  0.00000000000E+00 0. -1.
</event>
<event>
 7    1  0.1265344E-009  0.4778727E+02  0.7816164E-02  0.1312668E+00
        -11   -1    0    0    0    0  0.00000000000E+00  0.00000000000E+00  0.45593999997E+02  0.45594000000E+02  0.51100000000E-03 0.  1.
         11   -1    0    0    0    0 -0.00000000000E+00 -0.00000000000E+00 -0.45593999997E+02  0.45594000000E+02  0.51100000000E-03 0. -1.
    9900012    2    1    2    0    0  0.25864711664E+02  0.87136615944E+01  0.33744803358E+02  0.47787274643E+02  0.20000016406E+02 0.  0.
         12    1    1    2    0    0 -0.25864711664E+02 -0.87136615944E+01 -0.33744803358E+02  0.43400725357E+02  0.00000000000E+00 0. -1.
         11    1    3    3    0    0  0.45260379230E+01 -0.19787781730E+00  0.17324559212E+02  0.17907108283E+02  0.51100000000E-03 0. -1.
        -11    1    3    3    0    0  0.42443110864E+01  0.63514931100E+01  0.42641728484E+01  0.87486462763E+01  0.51100000000E-03 0.  1.
        -12    1    3    3    0    0  0.17094362654E+02  0.25600463018E+01  0.12156071298E+02  0.21131520083E+02  0.00000000000E+00 0.  1.
</event>
<event>
 7    1  0.1265344E-009  0.4778726E+02  0.7816164E-02  0.1312668E+00
        -11   -1    0    0    0    0  0.00000000000E+00  0.00000000000E+00  0.45593999997E+02  0.45594000000E+02  0.51100000000E-03 0. -1.
         11   -1    0    0    0    0 -0.00000000000E+00 -0.00000000000E+00 -0.45593999997E+02  0.45594000000E+02  0.51100000000E-03 0.  1.
    9900012    2    1    2    0    0 -0.35577126056E+02  0.61835125096E+01 -0.24076053216E+02  0.47787261944E+02  0.19999958505E+02 0.  0.
         12    1    1    2    0    0  0.35577126056E+02 -0.61835125096E+01  0.24076053216E+02  0.43400738056E+02  0.00000000000E+00 0. -1.
         11    1    3    3    0    0 -0.43527582069E+00  0.57396366212E+01 -0.44824938810E+01  0.72955908080E+01  0.51100000000E-03 0. -1.
        -11    1    3    3    0    0 -0.32218350884E+01  0.74130532811E+00 -0.32238534888E+01  0.46176819406E+01  0.51100000000E-03 0.  1.
         12    1    3    3    0    0 -0.31920015147E+02 -0.29742943967E+00 -0.16369705847E+02  0.35873989195E+02  0.00000000000E+00 0. -1.
</event>
<event>
 7    1  0.1265344E-009  0.4778726E+02  0.7816164E-02  0.1312668E+00
        -11   -1    0    0    0    0  0.00000000000E+00  0.00000000000E+00  0.45593999997E+02  0.45594000000E+02  0.51100000000E-03 0.  1.
         11   -1    0    0    0    0 -0.00000000000E+00 -0.00000000000E+00 -0.45593999997E+02  0.45594000000E+02  0.51100000000E-03 0. -1.
    9900012    2    1    2    0    0  0.24384927162E+02 -0.35104773732E+02 -0.75268929500E+01  0.47787263498E+02  0.19999965591E+02 0.  0.
         12    1    1    2    0    0 -0.24384927162E+02  0.35104773732E+02  0.75268929500E+01  0.43400736502E+02  0.00000000000E+00 0. -1.
         11    1    3    3    0    0  0.65413317685E+01 -0.27263313696E+00  0.11650812324E+01  0.66498695230E+01  0.51100000000E-03 0. -1.
        -11    1    3    3    0    0  0.11282080030E+02 -0.19540696043E+02 -0.44996102507E+00  0.22568265260E+02  0.51100000000E-03 0.  1.
        -12    1    3    3    0    0  0.65615153637E+01 -0.15291444552E+02 -0.82420131574E+01  0.18569128715E+02  0.00000000000E+00 0.  1.
</event>
<event>
 7    1  0.1265344E-009  0.4778728E+02  0.7816164E-02  0.1312668E+00
        -11   -1    0    0    0    0  0.00000000000E+00  0.00000000000E+00  0.45593999997E+02  0.45594000000E+02  0.51100000000E-03 0.  1.
         11   -1    0    0    0    0 -0.00000000000E+00 -0.00000000000E+00 -0.45593999997E+02  0.45594000000E+02  0.51100000000E-03 0. -1.
    9900012    2    1    2    0    0  0.25536257408E+01  0.15217989334E+02  0.40564943839E+02  0.47787275669E+02  0.20000021085E+02 0.  0.
         12    1    1    2    0    0 -0.25536257408E+01 -0.15217989334E+02 -0.40564943839E+02  0.43400724331E+02  0.00000000000E+00 0. -1.
         11    1    3    3    0    0 -0.31136613371E+01 -0.37444191042E+01  0.55224349666E+01  0.73629375640E+01  0.51100000000E-03 0. -1.
        -11    1    3    3    0    0  0.28283690181E+01  0.53765940823E+01  0.81925416281E+01  0.10199273200E+02  0.51100000000E-03 0.  1.
        -12    1    3    3    0    0  0.28389180598E+01  0.13585814356E+02  0.26849967244E+02  0.30225064905E+02  0.00000000000E+00 0.  1.
</event>
<event>
 7    1  0.1265344E-009  0.4778726E+02  0.7816164E-02  0.1312668E+00
        -11   -1    0    0    0    0  0.00000000000E+00  0.00000000000E+00  0.45593999997E+02  0.45594000000E+02  0.51100000000E-03 0. -1.
         11   -1    0    0    0    0 -0.00000000000E+00 -0.00000000000E+00 -0.45593999997E+02  0.45594000000E+02  0.51100000000E-03 0.  1.
    9900012    2    1    2    0    0  0.37760847870E+02  0.17144250603E+02  0.12799106294E+02  0.47787261728E+02  0.19999957524E+02 0.  0.
         12    1    1    2    0    0 -0.37760847870E+02 -0.17144250603E+02 -0.12799106294E+02  0.43400738272E+02  0.00000000000E+00 0. -1.
         11    1    3    3    0    0  0.20760719939E+02  0.15747073292E+02 -0.26619542100E+00  0.26058562315E+02  0.51100000000E-03 0. -1.
        -11    1    3    3    0    0  0.13911923574E+01 -0.19050580502E+00  0.15950109384E+00  0.14132053981E+01  0.51100000000E-03 0.  1.
         12    1    3    3    0    0  0.15608935574E+02  0.15876831160E+01  0.12905800621E+02  0.20315494016E+02  0.00000000000E+00 0. -1.
</event>
<event>
 7    1  0.1265344E-009  0.4778727E+02  0.7816164E-02  0.1312668E+00
        -11   -1    0    0    0    0  0.00000000000E+00  0.00000000000E+00  0.45593999997E+02  0.45594000000E+02  0.51100000000E-03 0.  1.
         11   -1    0    0    0    0 -0.00000000000E+00 -0.00000000000E+00 -0.45593999997E+02  0.45594000000E+02  0.51100000000E-03 0. -1.
    9900012    2    1    2    0    0  0.24800689261E+02  0.24230728019E+02  0.26104038688E+02  0.47787271850E+02  0.20000003672E+02 0.  0.
         12    1    1    2    0    0 -0.24800689261E+02 -0.24230728019E+02 -0.26104038688E+02  0.43400728150E+02  0.00000000000E+00 0. -1.
         11    1    3    3    0    0  0.84737433279E+01  0.17288730366E+02  0.93712132841E+01  0.21413177306E+02  0.51100000000E-03 0. -1.
        -11    1    3    3    0    0  0.31007367334E+01 -0.22300800690E+01  0.11934296379E+01  0.40015122099E+01  0.51100000000E-03 0.  1.
        -12    1    3    3    0    0  0.13226209200E+02  0.91720777217E+01  0.15539395766E+02  0.22372582334E+02  0.00000000000E+00 0.  1.
</event>
<event>
 7    1  0.1265344E-009  0.4778727E+02  0.7816164E-02  0.1312668E+00
        -11   -1    0    0    0    0  0.00000000000E+00  0.00000000000E+00  0.45593999997E+02  0.45594000000E+02  0.51100000000E-03 0.  1.
         11   -1    0    0    0    0 -0.00000000000E+00 -0.00000000000E+00 -0.45593999997E+02  0.45594000000E+02  0.51100000000E-03 0. -1.
    9900012    2    1    2    0    0 -0.36708450082E+02 -0.11453018737E+02  0.20123150244E+02  0.47787272801E+02  0.20000008010E+02 0.  0.
         12    1    1    2    0    0  0.36708450082E+02  0.11453018737E+02 -0.20123150244E+02  0.43400727199E+02  0.00000000000E+00 0. -1.
         11    1    3    3    0    0 -0.11880128019E+02 -0.42761301407E+01  0.10580949594E+02  0.16473591755E+02  0.51100000000E-03 0. -1.
        -11    1    3    3    0    0 -0.11406318420E+02 -0.10333886314E+02  0.17887506485E+01  0.15494932571E+02  0.51100000000E-03 0.  1.
         12    1    3    3    0    0 -0.13422003643E+02  0.31569977179E+01  0.77534500016E+01  0.15818748475E+02  0.00000000000E+00 0. -1.
</event>
<event>
 7    1  0.1265344E-009  0.4778727E+02  0.7816164E-02  0.1312668E+00
        -11   -1    0    0    0    0  0.00000000000E+00  0.00000000000E+00  0.45593999997E+02  0.45594000000E+02  0.51100000000E-03 0.  1.
         11   -1    0    0    0    0 -0.00000000000E+00 -0.00000000000E+00 -0.45593999997E+02  0.45594000000E+02  0.51100000000E-03 0. -1.
    9900012    2    1    2    0    0  0.42781886649E+02  0.39182847591E+00 -0.72924670314E+01  0.47787269243E+02  0.19999991787E+02 0.  0.
         12    1    1    2    0    0 -0.42781886649E+02 -0.39182847591E+00  0.72924670314E+01  0.43400730757E+02  0.00000000000E+00 0. -1.
         11    1    3    3    0    0  0.29434856693E+01  0.12749807619E+01  0.21227113465E+01  0.38465032887E+01  0.51100000000E-03 0. -1.
        -11    1    3    3    0    0  0.25814131509E+02 -0.22721112347E+01 -0.13564954020E+02  0.29249612867E+02  0.51100000000E-03 0.  1.
        -12    1    3    3    0    0  0.14024269471E+02  0.13889589487E+01  0.41497756424E+01  0.14691153087E+02  0.00000000000E+00 0.  1.
</event>
<event>
 7    1  0.1265344E-009  0.4778727E+02  0.7816164E-02  0.1312668E+00
        -11   -1    0    0    0    0  0.00000000000E+00  0.00000000000E+00  0.45593999997E+02  0.45594000000E+02  0.51100000000E-03 0. -1.
         11   -1    0    0    0    0 -0.00000000000E+00 -0.00000000000E+00 -0.45593999997E+02  0.45594000000E+02  0.51100000000E-03 0.  1.
    9900012    2    1    2    0    0 -0.20178330467E+02 -0.35813623330E+02 -0.13922738531E+02  0.47787270921E+02  0.19999999435E+02 0.  0.
         12    1    1    2    0    0  0.20178330467E+02  0.35813623330E+02  0.13922738531E+02  0.43400729079E+02  0.00000000000E+00 0. -1.
         11    1    3    3    0    0 -0.64613108588E+01 -0.90113402430E+01 -0.92203491237E+01  0.14421082803E+02  0.51100000000E-03 0. -1.
        -11    1    3    3    0    0 -0.13731899669E+02 -0.12160450228E+02 -0.17117414819E+01  0.18422043248E+02  0.51100000000E-03 0.  1.
         12    1    3    3    0    0  0.14880060645E-01 -0.14641832858E+02 -0.29906479252E+01  0.14944144870E+02  0.00000000000E+00 0. -1.
</event>
<event>
 7    1  0.1265344E-009  0.4778728E+02  0.7816164E-02  0.1312668E+00
        -11   -1    0    0    0    0  0.00000000000E+00  0.00000000000E+00  0.45593999997E+02  0.45594000000E+02  0.51100000000E-03 0.  1.
         11   -1    0    0    0    0 -0.00000000000E+00 -0.00000000000E+00 -0.45593999997E+02  0.45594000000E+02  0.51100000000E-03 0. -1.
    9900012    2    1    2    0    0  0.19073504292E+02 -0.37732721760E+02  0.98013201429E+01  0.47787277264E+02  0.20000028359E+02 0.  0.
         12    1    1    2    0    0 -0.19073504292E+02  0.37732721760E+02 -0.98013201429E+01  0.43400722736E+02  0.00000000000E+00 0. -1.
         11    1    3    3    0    0  0.50827812154E+01 -0.16048811980E+02  0.26652313248E+01  0.17044133569E+02  0.51100000000E-03 0. -1.
        -11    1    3    3    0    0  0.89445416967E+01 -0.44082705488E+01 -0.25665025432E+01  0.10296825285E+02  0.51100000000E-03 0.  1.
        -12    1    3    3    0    0  0.50461813799E+01 -0.17275639232E+02  0.97025913612E+01  0.20446318410E+02  0.00000000000E+00 0.  1.
</event>
<event>
 7    1  0.1265344E-009  0.4778726E+02  0.7816164E-02  0.1312668E+00
        -11   -1    0    0    0    0  0.00000000000E+00  0.00000000000E+00  0.45593999997E+02  0.45594000000E+02  0.51100000000E-03 0.  1.
         11   -1    0    0    0    0 -0.00000000000E+00 -0.00000000000E+00 -0.45593999997E+02  0.45594000000E+02  0.51100000000E-03 0. -1.
    9900012    2    1    2    0    0  0.64701387835E+01 -0.19639171757E+02  0.38158415851E+02  0.47787257340E+02  0.19999937517E+02 0.  0.
         12    1    1    2    0    0 -0.64701387835E+01  0.19639171757E+02 -0.38158415851E+02  0.43400742660E+02  0.00000000000E+00 0. -1.
         11    1    3    3    0    0  0.34560105348E+01 -0.53049809480E+01  0.32572508656E+01  0.71201485334E+01  0.51100000000E-03 0. -1.
        -11    1    3    3    0    0  0.26961453241E+01  0.10713797423E+00  0.18975618303E+02  0.19166501204E+02  0.51100000000E-03 0.  1.
         12    1    3    3    0    0  0.31798292458E+00 -0.14441328783E+02  0.15925546682E+02  0.21500607603E+02  0.00000000000E+00 0. -1.
</event>
<event>
 7    1  0.1265344E-009  0.4778727E+02  0.7816164E-02  0.1312668E+00
        -11   -1    0    0    0    0  0.00000000000E+00  0.00000000000E+00  0.45593999997E+02  0.45594000000E+02  0.51100000000E-03 0.  1.
         11   -1    0    0    0    0 -0.00000000000E+00 -0.00000000000E+00 -0.45593999997E+02  0.45594000000E+02  0.51100000000E-03 0. -1.
    9900012    2    1    2    0    0  0.37788832015E+02  0.90554464971E+01  0.19329412858E+02  0.47787272613E+02  0.20000007150E+02 0.  0.
         12    1    1    2    0    0 -0.37788832015E+02 -0.90554464971E+01 -0.19329412858E+02  0.43400727387E+02  0.00000000000E+00 0. -1.
         11    1    3    3    0    0  0.18588960628E+02  0.61309174202E+01  0.16926795344E+02  0.25877673901E+02  0.51100000000E-03 0.  1.
        -11    1    3    3    0    0  0.13562039295E+02 -0.19168759607E+01  0.40794802425E+01  0.14291447883E+02  0.51100000000E-03 0. -1.
         12    1    3    3    0    0  0.56378320918E+01  0.48414050376E+01 -0.16768627283E+01  0.76181508283E+01  0.00000000000E+00 0. -1.
</event>
<event>
 7    1  0.1265344E-009  0.4778727E+02  0.7816164E-02  0.1312668E+00
        -11   -1    0    0    0    0  0.00000000000E+00  0.00000000000E+00  0.45593999997E+02  0.45594000000E+02  0.51100000000E-03 0.  1.
         11   -1    0    0    0    0 -0.00000000000E+00 -0.00000000000E+00 -0.45593999997E+02  0.45594000000E+02  0.51100000000E-03 0. -1.
    9900012    2    1    2    0    0 -0.36197955936E+02 -0.56371609645E+01  0.23271310671E+02  0.47787268462E+02  0.19999988226E+02 0.  0.
         12    1    1    2    0    0  0.36197955936E+02  0.56371609645E+01 -0.23271310671E+02  0.43400731538E+02  0.00000000000E+00 0. -1.
         11    1    3    3    0    0 -0.11741279903E+02 -0.39711215953E+01 -0.64305533236E+00  0.12411324704E+02  0.51100000000E-03 0. -1.
        -11    1    3    3    0    0 -0.23079698983E+02 -0.12713699029E+00  0.18494218012E+02  0.29575746298E+02  0.51100000000E-03 0.  1.
        -12    1    3    3    0    0 -0.13769770504E+01 -0.15389023789E+01  0.54201479912E+01  0.58001974601E+01  0.00000000000E+00 0.  1.
</event>
<event>
 7    1  0.1265344E-009  0.4778728E+02  0.7816164E-02  0.1312668E+00
        -11   -1    0    0    0    0  0.00000000000E+00  0.00000000000E+00  0.45593999997E+02  0.45594000000E+02  0.51100000000E-03 0.  1.
         11   -1    0    0    0    0 -0.00000000000E+00 -0.00000000000E+00 -0.45593999997E+02  0.45594000000E+02  0.51100000000E-03 0. -1.
    9900012    2    1    2    0    0  0.39489216196E+02 -0.60442383965E+01  0.16961479974E+02  0.47787276314E+02  0.20000024028E+02 0.  0.
         12    1    1    2    0    0 -0.39489216196E+02  0.60442383965E+01 -0.16961479974E+02  0.43400723686E+02  0.00000000000E+00 0. -1.
         11    1    3    3    0    0  0.11446346160E+02 -0.47105009448E+01  0.13769418311E+02  0.18514981513E+02  0.51100000000E-03 0. -1.
        -11    1    3    3    0    0  0.36122101601E+01 -0.24340651540E+01  0.19859564827E+01  0.47871451646E+01  0.51100000000E-03 0.  1.
        -12    1    3    3    0    0  0.24430659876E+02  0.11003277023E+01  0.12061051802E+01  0.24485149636E+02  0.00000000000E+00 0.  1.
</event>
<event>
 7    1  0.1265344E-009  0.4778727E+02  0.7816164E-02  0.1312668E+00
        -11   -1    0    0    0    0  0.00000000000E+00  0.00000000000E+00  0.45593999997E+02  0.45594000000E+02  0.51100000000E-03 0. -1.
         11   -1    0    0    0    0 -0.00000000000E+00 -0.00000000000E+00 -0.45593999997E+02  0.45594000000E+02  0.51100000000E-03 0.  1.
    9900012    2    1    2    0    0 -0.19178773609E+02 -0.24890972233E+02 -0.29937223861E+02  0.47787271569E+02  0.20000002393E+02 0.  0.
         12    1    1    2    0    0  0.19178773609E+02  0.24890972233E+02  0.29937223861E+02  0.43400728431E+02  0.00000000000E+00 0. -1.
         11    1    3    3    0    0 -0.21998487102E+01  0.94095872866E+00 -0.70203598152E+00  0.24935100676E+01  0.51100000000E-03 0. -1.
        -11    1    3    3    0    0 -0.15823982731E+02 -0.24761183741E+02 -0.31144092322E+02  0.42819027740E+02  0.51100000000E-03 0.  1.
         12    1    3    3    0    0 -0.11549421673E+01 -0.10707472202E+01  0.19089044431E+01  0.24747337618E+01  0.00000000000E+00 0. -1.
</event>
<event>
 7    1  0.1265344E-009  0.4778727E+02  0.7816164E-02  0.1312668E+00
        -11   -1    0    0    0    0  0.00000000000E+00  0.00000000000E+00  0.45593999997E+02  0.45594000000E+02  0.51100000000E-03 0.  1.
         11   -1    0    0    0    0 -0.00000000000E+00 -0.00000000000E+00 -0.45593999997E+02  0.45594000000E+02  0.51100000000E-03 0. -1.
    9900012    2    1    2    0    0  0.72013182236E+01 -0.19345916489E+02  0.38177218267E+02  0.47787268859E+02  0.19999990038E+02 0.  0.
         12    1    1    2    0    0 -0.72013182236E+01  0.19345916489E+02 -0.38177218267E+02  0.43400731141E+02  0.00000000000E+00 0. -1.
         11    1    3    3    0    0  0.37084862612E+01 -0.15930622843E+02  0.35022895556E+02  0.38654117864E+02  0.51100000000E-03 0.  1.
        -11    1    3    3    0    0  0.29532580044E+01 -0.54754285512E+01  0.32148561909E+01  0.70026674382E+01  0.51100000000E-03 0. -1.
        -12    1    3    3    0    0  0.53957395798E+00  0.20601349051E+01 -0.60533479971E-01  0.21304835568E+01  0.00000000000E+00 0.  1.
</event>
<event>
 7    1  0.1265344E-009  0.4778727E+02  0.7816164E-02  0.1312668E+00
        -11   -1    0    0    0    0  0.00000000000E+00  0.00000000000E+00  0.45593999997E+02  0.45594000000E+02  0.51100000000E-03 0.  1.
         11   -1    0    0    0    0 -0.00000000000E+00 -0.00000000000E+00 -0.45593999997E+02  0.45594000000E+02  0.51100000000E-03 0. -1.
    9900012    2    1    2    0    0  0.89629587566E+00 -0.43327495158E+02  0.23554293224E+01  0.47787271546E+02  0.20000002289E+02 0.  0.
         12    1    1    2    0    0 -0.89629587566E+00  0.43327495158E+02 -0.23554293224E+01  0.43400728454E+02  0.00000000000E+00 0. -1.
         11    1    3    3    0    0 -0.50721346368E+00 -0.20480973616E+00 -0.22857100858E+01  0.23502517702E+01  0.51100000000E-03 0. -1.
        -11    1    3    3    0    0 -0.57780714247E+01 -0.19941501855E+02  0.41009248088E+01  0.21162872919E+02  0.51100000000E-03 0.  1.
        -12    1    3    3    0    0  0.71815807640E+01 -0.23181183567E+02  0.54021459937E+00  0.24274146858E+02  0.00000000000E+00 0.  1.
</event>
<event>
 7    1  0.1265344E-009  0.4778727E+02  0.7816164E-02  0.1312668E+00
        -11   -1    0    0    0    0  0.00000000000E+00  0.00000000000E+00  0.45593999997E+02  0.45594000000E+02  0.51100000000E-03 0.  1.
         11   -1    0    0    0    0 -0.00000000000E+00 -0.00000000000E+00 -0.45593999997E+02  0.45594000000E+02  0.51100000000E-03 0. -1.
    9900012    2    1    2    0    0  0.23770854032E+01  0.43300731653E+02 -0.17377262024E+01  0.47787267414E+02  0.19999983447E+02 0.  0.
         12    1    1    2    0    0 -0.23770854032E+01 -0.43300731653E+02  0.17377262024E+01  0.43400732586E+02  0.00000000000E+00 0. -1.
         11    1    3    3    0    0  0.83209694781E+01  0.94799399849E+01 -0.79611622233E+00  0.12638892217E+02  0.51100000000E-03 0. -1.
        -11    1    3    3    0    0 -0.16338215362E+01  0.13768650815E+02 -0.39544734718E+01  0.14418147550E+02  0.51100000000E-03 0.  1.
        -12    1    3    3    0    0 -0.43100625388E+01  0.20052140853E+02  0.30128634917E+01  0.20730227647E+02  0.00000000000E+00 0.  1.
</event>
<event>
 7    1  0.1265344E-009  0.4778728E+02  0.7816164E-02  0.1312668E+00
        -11   -1    0    0    0    0  0.00000000000E+00  0.00000000000E+00  0.45593999997E+02  0.45594000000E+02  0.51100000000E-03 0. -1.
         11   -1    0    0    0    0 -0.00000000000E+00 -0.00000000000E+00 -0.45593999997E+02  0.45594000000E+02  0.51100000000E-03 0.  1.
    9900012    2    1    2    0    0  0.18905229641E+02  0.36752115496E+02 -0.13247535738E+02  0.47787275302E+02  0.20000019410E+02 0.  0.
         12    1    1    2    0    0 -0.18905229641E+02 -0.36752115496E+02  0.13247535738E+02  0.43400724698E+02  0.00000000000E+00 0. -1.
         11    1    3    3    0    0 -0.23560816226E+01  0.86175243145E+01  0.19098920896E+01  0.91356737014E+01  0.51100000000E-03 0. -1.
        -11    1    3    3    0    0  0.72732404559E+01  0.13330607686E+02 -0.67079345676E+01  0.16601250388E+02  0.51100000000E-03 0.  1.
        -12    1    3    3    0    0  0.13988070808E+02  0.14803983496E+02 -0.84494932597E+01  0.22050351213E+02  0.00000000000E+00 0.  1.
</event>
<event>
 7    1  0.1265344E-009  0.4778728E+02  0.7816164E-02  0.1312668E+00
        -11   -1    0    0    0    0  0.00000000000E+00  0.00000000000E+00  0.45593999997E+02  0.45594000000E+02  0.51100000000E-03 0. -1.
         11   -1    0    0    0    0 -0.00000000000E+00 -0.00000000000E+00 -0.45593999997E+02  0.45594000000E+02  0.51100000000E-03 0.  1.
    9900012    2    1    2    0    0  0.29621195805E+02 -0.29017372956E+02 -0.12814031685E+02  0.47787279013E+02  0.20000036330E+02 0.  0.
         12    1    1    2    0    0 -0.29621195805E+02  0.29017372956E+02  0.12814031685E+02  0.43400720987E+02  0.00000000000E+00 0. -1.
         11    1    3    3    0    0  0.10504317933E+02 -0.45841019543E+01  0.13477839869E+01  0.11539983011E+02  0.51100000000E-03 0.  1.
        -11    1    3    3    0    0 -0.15766021752E+01 -0.38157727815E+01 -0.12875502069E+01  0.43247638242E+01  0.51100000000E-03 0. -1.
        -12    1    3    3    0    0  0.20693480048E+02 -0.20617498221E+02 -0.12874265465E+02  0.31922532177E+02  0.00000000000E+00 0.  1.
</event>
<event>
 7    1  0.1265344E-009  0.4778727E+02  0.7816164E-02  0.1312668E+00
        -11   -1    0    0    0    0  0.00000000000E+00  0.00000000000E+00  0.45593999997E+02  0.45594000000E+02  0.51100000000E-03 0.  1.
         11   -1    0    0    0    0 -0.00000000000E+00 -0.00000000000E+00 -0.45593999997E+02  0.45594000000E+02  0.51100000000E-03 0. -1.
    9900012    2    1    2    0    0  0.24348210261E+02 -0.12637447874E+02  0.33631574645E+02  0.47787271379E+02  0.20000001527E+02 0.  0.
         12    1    1    2    0    0 -0.24348210261E+02  0.12637447874E+02 -0.33631574645E+02  0.43400728621E+02  0.00000000000E+00 0. -1.
         11    1    3    3    0    0  0.14955354412E+02 -0.40324620800E+00  0.13902534247E+02  0.20423165569E+02  0.51100000000E-03 0. -1.
        -11    1    3    3    0    0  0.98843927761E+01 -0.40257898924E+01  0.12266758989E+02  0.16259814918E+02  0.51100000000E-03 0.  1.
         12    1    3    3    0    0 -0.49153692762E+00 -0.82084117734E+01  0.74622814086E+01  0.11104290892E+02  0.00000000000E+00 0. -1.
</event>
<event>
 7    1  0.1265344E-009  0.4778727E+02  0.7816164E-02  0.1312668E+00
        -11   -1    0    0    0    0  0.00000000000E+00  0.00000000000E+00  0.45593999997E+02  0.45594000000E+02  0.51100000000E-03 0.  1.
         11   -1    0    0    0    0 -0.00000000000E+00 -0.00000000000E+00 -0.45593999997E+02  0.45594000000E+02  0.51100000000E-03 0. -1.
    9900012    2    1    2    0    0 -0.15828705142E+02 -0.57414097927E+01  0.40001394426E+02  0.47787271332E+02  0.20000001310E+02 0.  0.
         12    1    1    2    0    0  0.15828705142E+02  0.57414097927E+01 -0.40001394426E+02  0.43400728668E+02  0.00000000000E+00 0. -1.
         11    1    3    3    0    0 -0.41476443376E+01 -0.11332372145E+02  0.15508423074E+02  0.19650363826E+02  0.51100000000E-03 0. -1.
        -11    1    3    3    0    0  0.71655883645E-01 -0.39499591838E+00  0.21851554552E+01  0.22217247727E+01  0.51100000000E-03 0.  1.
         12    1    3    3    0    0 -0.11752716688E+02  0.59859582711E+01  0.22307815897E+02  0.25915182733E+02  0.00000000000E+00 0. -1.
</event>
<event>
 7    1  0.1265344E-009  0.4778727E+02  0.7816164E-02  0.1312668E+00
        -11   -1    0    0    0    0  0.00000000000E+00  0.00000000000E+00  0.45593999997E+02  0.45594000000E+02  0.51100000000E-03 0.  1.
         11   -1    0    0    0    0 -0.00000000000E+00 -0.00000000000E+00 -0.45593999997E+02  0.45594000000E+02  0.51100000000E-03 0. -1.
    9900012    2    1    2    0    0  0.35080975014E+02 -0.20399202275E+02  0.15388987237E+02  0.47787272016E+02  0.20000004430E+02 0.  0.
         12    1    1    2    0    0 -0.35080975014E+02  0.20399202275E+02 -0.15388987237E+02  0.43400727984E+02  0.00000000000E+00 0. -1.
         11    1    3    3    0    0  0.10750737706E+02 -0.10413963505E+02  0.91137054374E+01  0.17523944309E+02  0.51100000000E-03 0. -1.
        -11    1    3    3    0    0  0.12031056808E+02  0.18888155310E+01  0.48488683190E+01  0.13108221705E+02  0.51100000000E-03 0.  1.
         12    1    3    3    0    0  0.12299180500E+02 -0.11874054301E+02  0.14264134802E+01  0.17155106002E+02  0.00000000000E+00 0. -1.
</event>
<event>
 7    1  0.1265344E-009  0.4778727E+02  0.7816164E-02  0.1312668E+00
        -11   -1    0    0    0    0  0.00000000000E+00  0.00000000000E+00  0.45593999997E+02  0.45594000000E+02  0.51100000000E-03 0.  1.
         11   -1    0    0    0    0 -0.00000000000E+00 -0.00000000000E+00 -0.45593999997E+02  0.45594000000E+02  0.51100000000E-03 0. -1.
    9900012    2    1    2    0    0  0.31813459385E+02 -0.25760661718E+02  0.14419288632E+02  0.47787265273E+02  0.19999973685E+02 0.  0.
         12    1    1    2    0    0 -0.31813459385E+02  0.25760661718E+02 -0.14419288632E+02  0.43400734727E+02  0.00000000000E+00 0. -1.
         11    1    3    3    0    0 -0.21175922576E+00  0.83016076923E+00  0.20374442892E+01  0.22102462227E+01  0.51100000000E-03 0. -1.
        -11    1    3    3    0    0  0.22091647287E+02 -0.10421304826E+02  0.10216520787E+02  0.26476815733E+02  0.51100000000E-03 0.  1.
         12    1    3    3    0    0  0.99335713239E+01 -0.16169517661E+02  0.21653235561E+01  0.19100203317E+02  0.00000000000E+00 0. -1.
</event>
<event>
 7    1  0.1265344E-009  0.4778727E+02  0.7816164E-02  0.1312668E+00
        -11   -1    0    0    0    0  0.00000000000E+00  0.00000000000E+00  0.45593999997E+02  0.45594000000E+02  0.51100000000E-03 0.  1.
         11   -1    0    0    0    0 -0.00000000000E+00 -0.00000000000E+00 -0.45593999997E+02  0.45594000000E+02  0.51100000000E-03 0. -1.
    9900012    2    1    2    0    0 -0.19838692437E+02  0.34301853635E+02  0.17704017880E+02  0.47787272708E+02  0.20000007583E+02 0.  0.
         12    1    1    2    0    0  0.19838692437E+02 -0.34301853635E+02 -0.17704017880E+02  0.43400727292E+02  0.00000000000E+00 0. -1.
         11    1    3    3    0    0 -0.74364150996E+01  0.85283326195E+01  0.11350745817E+02  0.16027231753E+02  0.51100000000E-03 0. -1.
        -11    1    3    3    0    0 -0.80067690497E+01  0.93597989855E+01  0.80017822050E+01  0.14688182542E+02  0.51100000000E-03 0.  1.
         12    1    3    3    0    0 -0.43955082877E+01  0.16413722030E+02 -0.16485101416E+01  0.17071858413E+02  0.00000000000E+00 0. -1.
</event>
<event>
 7    1  0.1265344E-009  0.4778727E+02  0.7816164E-02  0.1312668E+00
        -11   -1    0    0    0    0  0.00000000000E+00  0.00000000000E+00  0.45593999997E+02  0.45594000000E+02  0.51100000000E-03 0.  1.
         11   -1    0    0    0    0 -0.00000000000E+00 -0.00000000000E+00 -0.45593999997E+02  0.45594000000E+02  0.51100000000E-03 0. -1.
    9900012    2    1    2    0    0  0.13777727460E+02 -0.85571387441E+01  0.40256340407E+02  0.47787270277E+02  0.19999996503E+02 0.  0.
         12    1    1    2    0    0 -0.13777727460E+02  0.85571387441E+01 -0.40256340407E+02  0.43400729723E+02  0.00000000000E+00 0. -1.
         11    1    3    3    0    0  0.72060906641E+01 -0.10398738452E+02  0.22339645802E+02  0.25673357374E+02  0.51100000000E-03 0. -1.
        -11    1    3    3    0    0  0.78602158675E+01 -0.14982231728E+01  0.16356587360E+02  0.18208943311E+02  0.51100000000E-03 0.  1.
        -12    1    3    3    0    0 -0.12885790713E+01  0.33398228810E+01  0.15601072456E+01  0.39049695924E+01  0.00000000000E+00 0.  1.
</event>
<event>
 7    1  0.1265344E-009  0.4778727E+02  0.7816164E-02  0.1312668E+00
        -11   -1    0    0    0    0  0.00000000000E+00  0.00000000000E+00  0.45593999997E+02  0.45594000000E+02  0.51100000000E-03 0.  1.
         11   -1    0    0    0    0 -0.00000000000E+00 -0.00000000000E+00 -0.45593999997E+02  0.45594000000E+02  0.51100000000E-03 0. -1.
    9900012    2    1    2    0    0 -0.33359237782E+01  0.10508783471E+02  0.41976906107E+02  0.47787267704E+02  0.19999984771E+02 0.  0.
         12    1    1    2    0    0  0.33359237782E+01 -0.10508783471E+02 -0.41976906107E+02  0.43400732296E+02  0.00000000000E+00 0. -1.
         11    1    3    3    0    0  0.56926601966E+00 -0.29704416859E+01  0.10612509552E+02  0.11035078018E+02  0.51100000000E-03 0. -1.
        -11    1    3    3    0    0 -0.66313547193E+01  0.88678164861E+01  0.28714670478E+02  0.30775726402E+02  0.51100000000E-03 0.  1.
        -12    1    3    3    0    0  0.27261649214E+01  0.46114086703E+01  0.26497260763E+01  0.59764632838E+01  0.00000000000E+00 0.  1.
</event>
<event>
 7    1  0.1543904E-009  0.4778727E+02  0.7816164E-02  0.1312668E+00
        -11   -1    0    0    0    0  0.00000000000E+00  0.00000000000E+00  0.45593999997E+02  0.45594000000E+02  0.51100000000E-03 0.  1.
         11   -1    0    0    0    0 -0.00000000000E+00 -0.00000000000E+00 -0.45593999997E+02  0.45594000000E+02  0.51100000000E-03 0. -1.
    9900012    2    1    2    0    0  0.33171573348E+02 -0.27919844904E+02 -0.19371760143E+01  0.47787266495E+02  0.19999979257E+02 0.  0.
         12    1    1    2    0    0 -0.33171573348E+02  0.27919844904E+02  0.19371760143E+01  0.43400733505E+02  0.00000000000E+00 0. -1.
         11    1    3    3    0    0  0.14444051257E+02 -0.32072253950E+01 -0.22734550541E+01  0.14969485949E+02  0.51100000000E-03 0. -1.
        -11    1    3    3    0    0 -0.88941690433E+00 -0.46646741882E+01  0.43552752396E+00  0.47686404978E+01  0.51100000000E-03 0.  1.
        -12    1    3    3    0    0  0.19616938996E+02 -0.20047945321E+02 -0.99248484148E-01  0.28049140048E+02  0.00000000000E+00 0.  1.
</event>
<event>
 7    1  0.1265344E-009  0.4778727E+02  0.7816164E-02  0.1312668E+00
        -11   -1    0    0    0    0  0.00000000000E+00  0.00000000000E+00  0.45593999997E+02  0.45594000000E+02  0.51100000000E-03 0.  1.
         11   -1    0    0    0    0 -0.00000000000E+00 -0.00000000000E+00 -0.45593999997E+02  0.45594000000E+02  0.51100000000E-03 0. -1.
    9900012    2    1    2    0    0  0.18711852230E+02 -0.34480293368E+02 -0.18563375385E+02  0.47787274772E+02  0.20000016997E+02 0.  0.
         12    1    1    2    0    0 -0.18711852230E+02  0.34480293368E+02  0.18563375385E+02  0.43400725228E+02  0.00000000000E+00 0. -1.
         11    1    3    3    0    0  0.13967582615E+01 -0.14463662571E+02 -0.91608195460E+01  0.17177575021E+02  0.51100000000E-03 0. -1.
        -11    1    3    3    0    0  0.12515813564E+02 -0.20423385739E+02 -0.59430572957E+01  0.24679550330E+02  0.51100000000E-03 0.  1.
         12    1    3    3    0    0  0.47992804039E+01  0.40675494222E+00 -0.34594985435E+01  0.59301494206E+01  0.00000000000E+00 0. -1.
</event>
<event>
 7    1  0.1265344E-009  0.4778727E+02  0.7816164E-02  0.1312668E+00
        -11   -1    0    0    0    0  0.00000000000E+00  0.00000000000E+00  0.45593999997E+02  0.45594000000E+02  0.51100000000E-03 0.  1.
         11   -1    0    0    0    0 -0.00000000000E+00 -0.00000000000E+00 -0.45593999997E+02  0.45594000000E+02  0.51100000000E-03 0. -1.
    9900012    2    1    2    0    0 -0.18815094502E+02  0.27970355715E+02  0.27336321497E+02  0.47787273590E+02  0.20000011607E+02 0.  0.
         12    1    1    2    0    0  0.18815094502E+02 -0.27970355715E+02 -0.27336321497E+02  0.43400726410E+02  0.00000000000E+00 0. -1.
         11    1    3    3    0    0 -0.91012360044E+01  0.12397281726E+02  0.55477006507E+01  0.16349375333E+02  0.51100000000E-03 0. -1.
        -11    1    3    3    0    0  0.17462755862E+01  0.94486755421E+01  0.10401884916E+02  0.14160725899E+02  0.51100000000E-03 0.  1.
         12    1    3    3    0    0 -0.11460134084E+02  0.61243984467E+01  0.11386735930E+02  0.17277172359E+02  0.00000000000E+00 0. -1.
</event>
<event>
 7    1  0.1265344E-009  0.4778730E+02  0.7816164E-02  0.1312668E+00
        -11   -1    0    0    0    0  0.00000000000E+00  0.00000000000E+00  0.45593999997E+02  0.45594000000E+02  0.51100000000E-03 0.  1.
         11   -1    0    0    0    0 -0.00000000000E+00 -0.00000000000E+00 -0.45593999997E+02  0.45594000000E+02  0.51100000000E-03 0. -1.
    9900012    2    1    2    0    0  0.64457896271E+01 -0.22296341605E+02  0.36673496152E+02  0.47787304465E+02  0.20000152377E+02 0.  0.
         12    1    1    2    0    0 -0.64457896271E+01  0.22296341605E+02 -0.36673496152E+02  0.43400695535E+02  0.00000000000E+00 0. -1.
         11    1    3    3    0    0  0.64832180295E+01 -0.28749524205E+01  0.14203123096E+02  0.15875332229E+02  0.51100000000E-03 0. -1.
        -11    1    3    3    0    0  0.41675258275E+01 -0.87638695145E+01  0.16112036953E+02  0.18808812174E+02  0.51100000000E-03 0.  1.
        -12    1    3    3    0    0 -0.42049542299E+01 -0.10657519670E+02  0.63583361037E+01  0.13103160061E+02  0.00000000000E+00 0.  1.
</event>
<event>
 7    1  0.1265344E-009  0.4778727E+02  0.7816164E-02  0.1312668E+00
        -11   -1    0    0    0    0  0.00000000000E+00  0.00000000000E+00  0.45593999997E+02  0.45594000000E+02  0.51100000000E-03 0.  1.
         11   -1    0    0    0    0 -0.00000000000E+00 -0.00000000000E+00 -0.45593999997E+02  0.45594000000E+02  0.51100000000E-03 0. -1.
    9900012    2    1    2    0    0  0.19253906718E+01  0.41991522228E+02  0.10799448706E+02  0.47787272349E+02  0.20000005948E+02 0.  0.
         12    1    1    2    0    0 -0.19253906718E+01 -0.41991522228E+02 -0.10799448706E+02  0.43400727651E+02  0.00000000000E+00 0. -1.
         11    1    3    3    0    0  0.39207160645E+01  0.11122020750E+02  0.13438719103E+01  0.11869176551E+02  0.51100000000E-03 0. -1.
        -11    1    3    3    0    0 -0.23018994023E+01  0.87483709638E+01  0.10388586535E+02  0.13775175710E+02  0.51100000000E-03 0.  1.
         12    1    3    3    0    0  0.30657400956E+00  0.22121130515E+02 -0.93300973947E+00  0.22142920088E+02  0.00000000000E+00 0. -1.
</event>
<event>
 7    1  0.1265344E-009  0.4778727E+02  0.7816164E-02  0.1312668E+00
        -11   -1    0    0    0    0  0.00000000000E+00  0.00000000000E+00  0.45593999997E+02  0.45594000000E+02  0.51100000000E-03 0.  1.
         11   -1    0    0    0    0 -0.00000000000E+00 -0.00000000000E+00 -0.45593999997E+02  0.45594000000E+02  0.51100000000E-03 0. -1.
    9900012    2    1    2    0    0 -0.14232414540E+02  0.12926883969E+02  0.38909605016E+02  0.47787270567E+02  0.19999997823E+02 0.  0.
         12    1    1    2    0    0  0.14232414540E+02 -0.12926883969E+02 -0.38909605016E+02  0.43400729433E+02  0.00000000000E+00 0. -1.
         11    1    3    3    0    0 -0.68067724512E+01  0.26594145378E+01  0.12951990048E+02  0.14871404889E+02  0.51100000000E-03 0. -1.
        -11    1    3    3    0    0  0.18546244161E+01  0.97973965808E+01  0.18440614971E+02  0.20963894969E+02  0.51100000000E-03 0.  1.
         12    1    3    3    0    0 -0.92802665051E+01  0.47007285004E+00  0.75169999968E+01  0.11951970710E+02  0.00000000000E+00 0. -1.
</event>
<event>
 7    1  0.1265344E-009  0.4778727E+02  0.7816164E-02  0.1312668E+00
        -11   -1    0    0    0    0  0.00000000000E+00  0.00000000000E+00  0.45593999997E+02  0.45594000000E+02  0.51100000000E-03 0.  1.
         11   -1    0    0    0    0 -0.00000000000E+00 -0.00000000000E+00 -0.45593999997E+02  0.45594000000E+02  0.51100000000E-03 0. -1.
    9900012    2    1    2    0    0 -0.91495862649E+01  0.40113059835E+02  0.13814871668E+02  0.47787272156E+02  0.20000005070E+02 0.  0.
         12    1    1    2    0    0  0.91495862649E+01 -0.40113059835E+02 -0.13814871668E+02  0.43400727844E+02  0.00000000000E+00 0. -1.
         11    1    3    3    0    0 -0.14324831722E+01  0.90315905361E+01 -0.40827798560E+01  0.10014525813E+02  0.51100000000E-03 0. -1.
        -11    1    3    3    0    0  0.56453681608E+00  0.15897802774E+02  0.74411525973E+01  0.17562163508E+02  0.51100000000E-03 0.  1.
         12    1    3    3    0    0 -0.82816399088E+01  0.15183666525E+02  0.10456498927E+02  0.20210582835E+02  0.00000000000E+00 0. -1.
</event>
<event>
 7    1  0.1265344E-009  0.4778727E+02  0.7816164E-02  0.1312668E+00
        -11   -1    0    0    0    0  0.00000000000E+00  0.00000000000E+00  0.45593999997E+02  0.45594000000E+02  0.51100000000E-03 0.  1.
         11   -1    0    0    0    0 -0.00000000000E+00 -0.00000000000E+00 -0.45593999997E+02  0.45594000000E+02  0.51100000000E-03 0. -1.
    9900012    2    1    2    0    0  0.13118061069E+02 -0.40146111536E+02  0.99914681628E+01  0.47787271507E+02  0.20000002110E+02 0.  0.
         12    1    1    2    0    0 -0.13118061069E+02  0.40146111536E+02 -0.99914681628E+01  0.43400728493E+02  0.00000000000E+00 0. -1.
         11    1    3    3    0    0  0.51620235669E+01 -0.12956790459E+02  0.42725150851E+01  0.14586956218E+02  0.51100000000E-03 0. -1.
        -11    1    3    3    0    0  0.11677657022E+02 -0.13035016151E+02  0.37621594981E-01  0.17500878127E+02  0.51100000000E-03 0.  1.
         12    1    3    3    0    0 -0.37216195191E+01 -0.14154304927E+02  0.56813314828E+01  0.15699437162E+02  0.00000000000E+00 0. -1.
</event>
<event>
 7    1  0.1265344E-009  0.4778727E+02  0.7816164E-02  0.1312668E+00
        -11   -1    0    0    0    0  0.00000000000E+00  0.00000000000E+00  0.45593999997E+02  0.45594000000E+02  0.51100000000E-03 0. -1.
         11   -1    0    0    0    0 -0.00000000000E+00 -0.00000000000E+00 -0.45593999997E+02  0.45594000000E+02  0.51100000000E-03 0.  1.
    9900012    2    1    2    0    0  0.22421322950E+02  0.36879693668E+02 -0.45602384439E+01  0.47787270714E+02  0.19999998495E+02 0.  0.
         12    1    1    2    0    0 -0.22421322950E+02 -0.36879693668E+02  0.45602384439E+01  0.43400729286E+02  0.00000000000E+00 0. -1.
         11    1    3    3    0    0  0.27219549794E+01  0.10472218928E+02 -0.34694804912E+00  0.10825746228E+02  0.51100000000E-03 0. -1.
        -11    1    3    3    0    0  0.62126266620E+01  0.49008403504E+00 -0.45945733829E+01  0.77425459142E+01  0.51100000000E-03 0.  1.
        -12    1    3    3    0    0  0.13486741308E+02  0.25917390706E+02  0.38128298805E+00  0.29218978572E+02  0.00000000000E+00 0.  1.
</event>
<event>
 7    1  0.1265344E-009  0.4778727E+02  0.7816164E-02  0.1312668E+00
        -11   -1    0    0    0    0  0.00000000000E+00  0.00000000000E+00  0.45593999997E+02  0.45594000000E+02  0.51100000000E-03 0.  1.
         11   -1    0    0    0    0 -0.00000000000E+00 -0.00000000000E+00 -0.45593999997E+02  0.45594000000E+02  0.51100000000E-03 0. -1.
    9900012    2    1    2    0    0  0.24233606207E+02  0.34751518678E+02  0.94174232444E+01  0.47787267509E+02  0.19999983880E+02 0.  0.
         12    1    1    2    0    0 -0.24233606207E+02 -0.34751518678E+02 -0.94174232444E+01  0.43400732491E+02  0.00000000000E+00 0. -1.
         11    1    3    3    0    0  0.13759985253E+01 -0.12971889741E+01 -0.11474084077E+01  0.22119261948E+01  0.51100000000E-03 0. -1.
        -11    1    3    3    0    0  0.68585075625E+01  0.14039257356E+02  0.96198542417E+01  0.18348881954E+02  0.51100000000E-03 0.  1.
         12    1    3    3    0    0  0.15999100119E+02  0.22009450296E+02  0.94497741036E+00  0.27226459360E+02  0.00000000000E+00 0. -1.
</event>
<event>
 7    1  0.1265344E-009  0.4778726E+02  0.7816164E-02  0.1312668E+00
        -11   -1    0    0    0    0  0.00000000000E+00  0.00000000000E+00  0.45593999997E+02  0.45594000000E+02  0.51100000000E-03 0. -1.
         11   -1    0    0    0    0 -0.00000000000E+00 -0.00000000000E+00 -0.45593999997E+02  0.45594000000E+02  0.51100000000E-03 0.  1.
    9900012    2    1    2    0    0  0.41934616622E+02  0.17467435244E+01 -0.11048107972E+02  0.47787264132E+02  0.19999968482E+02 0.  0.
         12    1    1    2    0    0 -0.41934616622E+02 -0.17467435244E+01  0.11048107972E+02  0.43400735868E+02  0.00000000000E+00 0. -1.
         11    1    3    3    0    0  0.20312387423E+01  0.11450966938E+01 -0.26388782074E+01  0.35214848745E+01  0.51100000000E-03 0. -1.
        -11    1    3    3    0    0  0.39871186871E+02  0.82968429399E+00 -0.11233789087E+02  0.41431846881E+02  0.51100000000E-03 0.  1.
         12    1    3    3    0    0  0.32191008789E-01 -0.22803746338E+00  0.28245593223E+01  0.28339323758E+01  0.00000000000E+00 0. -1.
</event>
<event>
 7    1  0.1265344E-009  0.4778727E+02  0.7816164E-02  0.1312668E+00
        -11   -1    0    0    0    0  0.00000000000E+00  0.00000000000E+00  0.45593999997E+02  0.45594000000E+02  0.51100000000E-03 0.  1.
         11   -1    0    0    0    0 -0.00000000000E+00 -0.00000000000E+00 -0.45593999997E+02  0.45594000000E+02  0.51100000000E-03 0. -1.
    9900012    2    1    2    0    0  0.22532661368E+02  0.25608081662E+02  0.26835221387E+02  0.47787265195E+02  0.19999973329E+02 0.  0.
         12    1    1    2    0    0 -0.22532661368E+02 -0.25608081662E+02 -0.26835221387E+02  0.43400734805E+02  0.00000000000E+00 0. -1.
         11    1    3    3    0    0  0.45298126605E+01  0.24849331258E+01  0.11570625944E+02  0.12671759167E+02  0.51100000000E-03 0. -1.
        -11    1    3    3    0    0  0.13445602426E+01 -0.48388492099E+00  0.37496268789E+01  0.40126909743E+01  0.51100000000E-03 0.  1.
         12    1    3    3    0    0  0.16658288465E+02  0.23607033457E+02  0.11514968564E+02  0.31102815054E+02  0.00000000000E+00 0. -1.
</event>
<event>
 7    1  0.1265344E-009  0.4778727E+02  0.7816164E-02  0.1312668E+00
        -11   -1    0    0    0    0  0.00000000000E+00  0.00000000000E+00  0.45593999997E+02  0.45594000000E+02  0.51100000000E-03 0. -1.
         11   -1    0    0    0    0 -0.00000000000E+00 -0.00000000000E+00 -0.45593999997E+02  0.45594000000E+02  0.51100000000E-03 0.  1.
    9900012    2    1    2    0    0 -0.19423554014E+02  0.38105299119E+02 -0.73712540763E+01  0.47787266618E+02  0.19999979816E+02 0.  0.
         12    1    1    2    0    0  0.19423554014E+02 -0.38105299119E+02  0.73712540763E+01  0.43400733382E+02  0.00000000000E+00 0. -1.
         11    1    3    3    0    0 -0.20515118404E+01  0.10200893591E+02 -0.27342715673E+00  0.10408731602E+02  0.51100000000E-03 0. -1.
        -11    1    3    3    0    0 -0.12708599785E+02  0.27277292723E+02 -0.15900869345E+01  0.30134491592E+02  0.51100000000E-03 0.  1.
         12    1    3    3    0    0 -0.46634423890E+01  0.62711280492E+00 -0.55077399851E+01  0.72440434240E+01  0.00000000000E+00 0. -1.
</event>
<event>
 7    1  0.1265344E-009  0.4778727E+02  0.7816164E-02  0.1312668E+00
        -11   -1    0    0    0    0  0.00000000000E+00  0.00000000000E+00  0.45593999997E+02  0.45594000000E+02  0.51100000000E-03 0.  1.
         11   -1    0    0    0    0 -0.00000000000E+00 -0.00000000000E+00 -0.45593999997E+02  0.45594000000E+02  0.51100000000E-03 0. -1.
    9900012    2    1    2    0    0 -0.64510112029E+00 -0.69021737474E+01  0.42843519509E+02  0.47787270492E+02  0.19999997480E+02 0.  0.
         12    1    1    2    0    0  0.64510112029E+00  0.69021737474E+01 -0.42843519509E+02  0.43400729508E+02  0.00000000000E+00 0. -1.
         11    1    3    3    0    0 -0.24239757987E+01 -0.81055824649E+01  0.11754671089E+02  0.14482693756E+02  0.51100000000E-03 0. -1.
        -11    1    3    3    0    0 -0.19269846308E+01 -0.10069960268E+01  0.27785138000E+02  0.27870077228E+02  0.51100000000E-03 0.  1.
         12    1    3    3    0    0  0.37058593092E+01  0.22104047444E+01  0.33037104205E+01  0.54344995074E+01  0.00000000000E+00 0. -1.
</event>
<event>
 7    1  0.1265344E-009  0.4778725E+02  0.7816164E-02  0.1312668E+00
        -11   -1    0    0    0    0  0.00000000000E+00  0.00000000000E+00  0.45593999997E+02  0.45594000000E+02  0.51100000000E-03 0.  1.
         11   -1    0    0    0    0 -0.00000000000E+00 -0.00000000000E+00 -0.45593999997E+02  0.45594000000E+02  0.51100000000E-03 0. -1.
    9900012    2    1    2    0    0 -0.16955266944E+02 -0.26762492659E+02  0.29663320398E+02  0.47787254989E+02  0.19999926798E+02 0.  0.
         12    1    1    2    0    0  0.16955266944E+02  0.26762492659E+02 -0.29663320398E+02  0.43400745011E+02  0.00000000000E+00 0. -1.
         11    1    3    3    0    0 -0.31307046101E+01  0.88312676450E+00  0.11721727182E+01  0.34576311805E+01  0.51100000000E-03 0. -1.
        -11    1    3    3    0    0 -0.75658908836E+00 -0.16938405008E+02  0.12474577870E+02  0.21049871367E+02  0.51100000000E-03 0.  1.
         12    1    3    3    0    0 -0.13067973246E+02 -0.10707214415E+02  0.16016569810E+02  0.23279752442E+02  0.00000000000E+00 0. -1.
</event>
<event>
 7    1  0.1265344E-009  0.4778727E+02  0.7816164E-02  0.1312668E+00
        -11   -1    0    0    0    0  0.00000000000E+00  0.00000000000E+00  0.45593999997E+02  0.45594000000E+02  0.51100000000E-03 0.  1.
         11   -1    0    0    0    0 -0.00000000000E+00 -0.00000000000E+00 -0.45593999997E+02  0.45594000000E+02  0.51100000000E-03 0. -1.
    9900012    2    1    2    0    0  0.34524240770E+02 -0.25491961106E+02  0.64699394270E+01  0.47787269615E+02  0.19999993480E+02 0.  0.
         12    1    1    2    0    0 -0.34524240770E+02  0.25491961106E+02 -0.64699394270E+01  0.43400730385E+02  0.00000000000E+00 0. -1.
         11    1    3    3    0    0  0.97054838053E+01 -0.18674379990E+02  0.76889589380E+00  0.21059916549E+02  0.51100000000E-03 0.  1.
        -11    1    3    3    0    0  0.12433247859E+02 -0.56963650133E+01  0.29605394169E+01  0.13992820323E+02  0.51100000000E-03 0. -1.
        -12    1    3    3    0    0  0.12385509105E+02 -0.11212161034E+01  0.27405041163E+01  0.12734532742E+02  0.00000000000E+00 0.  1.
</event>
<event>
 7    1  0.1265344E-009  0.4778728E+02  0.7816164E-02  0.1312668E+00
        -11   -1    0    0    0    0  0.00000000000E+00  0.00000000000E+00  0.45593999997E+02  0.45594000000E+02  0.51100000000E-03 0. -1.
         11   -1    0    0    0    0 -0.00000000000E+00 -0.00000000000E+00 -0.45593999997E+02  0.45594000000E+02  0.51100000000E-03 0.  1.
    9900012    2    1    2    0    0 -0.12849699847E+02  0.21932510673E+02 -0.35177733341E+02  0.47787277269E+02  0.20000028381E+02 0.  0.
         12    1    1    2    0    0  0.12849699847E+02 -0.21932510673E+02  0.35177733341E+02  0.43400722731E+02  0.00000000000E+00 0. -1.
         11    1    3    3    0    0  0.32052162030E+01  0.13639174755E+02 -0.17339210334E+02  0.22292346538E+02  0.51100000000E-03 0. -1.
        -11    1    3    3    0    0 -0.61988428364E+01  0.32217783989E+01 -0.53677956379E+01  0.88101497623E+01  0.51100000000E-03 0.  1.
         12    1    3    3    0    0 -0.98560732140E+01  0.50715575186E+01 -0.12470727369E+02  0.16684780969E+02  0.00000000000E+00 0. -1.
</event>
<event>
 7    1  0.1265344E-009  0.4778727E+02  0.7816164E-02  0.1312668E+00
        -11   -1    0    0    0    0  0.00000000000E+00  0.00000000000E+00  0.45593999997E+02  0.45594000000E+02  0.51100000000E-03 0.  1.
         11   -1    0    0    0    0 -0.00000000000E+00 -0.00000000000E+00 -0.45593999997E+02  0.45594000000E+02  0.51100000000E-03 0. -1.
    9900012    2    1    2    0    0 -0.47642035643E+01 -0.12890474912E+02  0.41167479728E+02  0.47787269981E+02  0.19999995150E+02 0.  0.
         12    1    1    2    0    0  0.47642035643E+01  0.12890474912E+02 -0.41167479728E+02  0.43400730019E+02  0.00000000000E+00 0. -1.
         11    1    3    3    0    0 -0.48344570520E+00 -0.11260556439E+02  0.11713733904E+02  0.16255627127E+02  0.51100000000E-03 0. -1.
        -11    1    3    3    0    0 -0.61410919102E+01 -0.46499157535E+01  0.19638104020E+02  0.21094782676E+02  0.51100000000E-03 0.  1.
        -12    1    3    3    0    0  0.18603340511E+01  0.30199972803E+01  0.98156418035E+01  0.10436860178E+02  0.00000000000E+00 0.  1.
</event>
<event>
 7    1  0.1265344E-009  0.4778730E+02  0.7816164E-02  0.1312668E+00
        -11   -1    0    0    0    0  0.00000000000E+00  0.00000000000E+00  0.45593999997E+02  0.45594000000E+02  0.51100000000E-03 0.  1.
         11   -1    0    0    0    0 -0.00000000000E+00 -0.00000000000E+00 -0.45593999997E+02  0.45594000000E+02  0.51100000000E-03 0. -1.
    9900012    2    1    2    0    0  0.14824159338E+02 -0.44480259077E+01  0.40547257277E+02  0.47787300614E+02  0.20000134818E+02 0.  0.
         12    1    1    2    0    0 -0.14824159338E+02  0.44480259077E+01 -0.40547257277E+02  0.43400699386E+02  0.00000000000E+00 0. -1.
         11    1    3    3    0    0  0.17881024088E+01 -0.75911800874E+00 -0.68426667372E+00  0.20595610011E+01  0.51100000000E-03 0.  1.
        -11    1    3    3    0    0  0.83474845968E+01  0.16664460249E+01  0.77952032369E+01  0.11542215351E+02  0.51100000000E-03 0. -1.
        -12    1    3    3    0    0  0.46885723319E+01 -0.53553539238E+01  0.33436320714E+02  0.34185524261E+02  0.00000000000E+00 0.  1.
</event>
<event>
 7    1  0.1265344E-009  0.4778727E+02  0.7816164E-02  0.1312668E+00
        -11   -1    0    0    0    0  0.00000000000E+00  0.00000000000E+00  0.45593999997E+02  0.45594000000E+02  0.51100000000E-03 0. -1.
         11   -1    0    0    0    0 -0.00000000000E+00 -0.00000000000E+00 -0.45593999997E+02  0.45594000000E+02  0.51100000000E-03 0.  1.
    9900012    2    1    2    0    0 -0.48820448416E+01  0.99373587409E+01 -0.41964722802E+02  0.47787269356E+02  0.19999992304E+02 0.  0.
         12    1    1    2    0    0  0.48820448416E+01 -0.99373587409E+01  0.41964722802E+02  0.43400730644E+02  0.00000000000E+00 0. -1.
         11    1    3    3    0    0 -0.97051951883E+01  0.72231475145E+00 -0.20424167106E+02  0.22624304508E+02  0.51100000000E-03 0. -1.
        -11    1    3    3    0    0  0.25769139383E+01 -0.55255378189E+00 -0.71997745890E+01  0.76669782523E+01  0.51100000000E-03 0.  1.
        -12    1    3    3    0    0  0.22462364084E+01  0.97675977713E+01 -0.14340781106E+02  0.17495986596E+02  0.00000000000E+00 0.  1.
</event>
<event>
 7    1  0.1265344E-009  0.4778726E+02  0.7816164E-02  0.1312668E+00
        -11   -1    0    0    0    0  0.00000000000E+00  0.00000000000E+00  0.45593999997E+02  0.45594000000E+02  0.51100000000E-03 0.  1.
         11   -1    0    0    0    0 -0.00000000000E+00 -0.00000000000E+00 -0.45593999997E+02  0.45594000000E+02  0.51100000000E-03 0. -1.
    9900012    2    1    2    0    0 -0.39451783555E+02 -0.15837649160E+02  0.87378179876E+01  0.47787264756E+02  0.19999971328E+02 0.  0.
         12    1    1    2    0    0  0.39451783555E+02  0.15837649160E+02 -0.87378179876E+01  0.43400735244E+02  0.00000000000E+00 0. -1.
         11    1    3    3    0    0 -0.20708158734E+02 -0.16118137889E+01  0.38856711109E+00  0.20774425780E+02  0.51100000000E-03 0. -1.
        -11    1    3    3    0    0 -0.13144227438E+02 -0.11263264189E+02  0.10409301940E+01  0.17341146763E+02  0.51100000000E-03 0.  1.
        -12    1    3    3    0    0 -0.55993973830E+01 -0.29625711817E+01  0.73083206825E+01  0.96716922127E+01  0.00000000000E+00 0.  1.
</event>
<event>
 7    1  0.1265344E-009  0.4778727E+02  0.7816164E-02  0.1312668E+00
        -11   -1    0    0    0    0  0.00000000000E+00  0.00000000000E+00  0.45593999997E+02  0.45594000000E+02  0.51100000000E-03 0. -1.
         11   -1    0    0    0    0 -0.00000000000E+00 -0.00000000000E+00 -0.45593999997E+02  0.45594000000E+02  0.51100000000E-03 0.  1.
    9900012    2    1    2    0    0  0.65219409204E+01  0.37976510943E+02  0.19971787177E+02  0.47787269824E+02  0.19999994436E+02 0.  0.
         12    1    1    2    0    0 -0.65219409204E+01 -0.37976510943E+02 -0.19971787177E+02  0.43400730176E+02  0.00000000000E+00 0. -1.
         11    1    3    3    0    0 -0.28578071746E+01  0.90435497072E+01 -0.73180353465E+00  0.95125385586E+01  0.51100000000E-03 0. -1.
        -11    1    3    3    0    0  0.47837653231E+01  0.22504231798E+02  0.10293304553E+02  0.25204701514E+02  0.51100000000E-03 0.  1.
         12    1    3    3    0    0  0.45959827718E+01  0.64287294374E+01  0.10410286158E+02  0.13070029752E+02  0.00000000000E+00 0. -1.
</event>
<event>
 7    1  0.1265344E-009  0.4778727E+02  0.7816164E-02  0.1312668E+00
        -11   -1    0    0    0    0  0.00000000000E+00  0.00000000000E+00  0.45593999997E+02  0.45594000000E+02  0.51100000000E-03 0. -1.
         11   -1    0    0    0    0 -0.00000000000E+00 -0.00000000000E+00 -0.45593999997E+02  0.45594000000E+02  0.51100000000E-03 0.  1.
    9900012    2    1    2    0    0 -0.21443145368E+02 -0.37492706984E+02 -0.42557768058E+01  0.47787271936E+02  0.20000004063E+02 0.  0.
         12    1    1    2    0    0  0.21443145368E+02  0.37492706984E+02  0.42557768058E+01  0.43400728064E+02  0.00000000000E+00 0. -1.
         11    1    3    3    0    0 -0.28828536853E+01 -0.87767118294E+01 -0.49601622200E+01  0.10485453038E+02  0.51100000000E-03 0. -1.
        -11    1    3    3    0    0 -0.16686656102E+02 -0.12832238862E+02  0.25402498255E+01  0.21202917618E+02  0.51100000000E-03 0.  1.
        -12    1    3    3    0    0 -0.18736355812E+01 -0.15883756293E+02 -0.18358644113E+01  0.16098901280E+02  0.00000000000E+00 0.  1.
</event>
<event>
 7    1  0.1265344E-009  0.4778727E+02  0.7816164E-02  0.1312668E+00
        -11   -1    0    0    0    0  0.00000000000E+00  0.00000000000E+00  0.45593999997E+02  0.45594000000E+02  0.51100000000E-03 0.  1.
         11   -1    0    0    0    0 -0.00000000000E+00 -0.00000000000E+00 -0.45593999997E+02  0.45594000000E+02  0.51100000000E-03 0. -1.
    9900012    2    1    2    0    0 -0.34441542645E+02 -0.25405010236E+02 -0.72103328869E+01  0.47787270683E+02  0.19999998352E+02 0.  0.
         12    1    1    2    0    0  0.34441542645E+02  0.25405010236E+02  0.72103328869E+01  0.43400729317E+02  0.00000000000E+00 0. -1.
         11    1    3    3    0    0 -0.76766525456E+01 -0.61357594633E+01 -0.19841699608E+01  0.10025740331E+02  0.51100000000E-03 0. -1.
        -11    1    3    3    0    0 -0.24250892472E+02 -0.19472675875E+02  0.92321126364E+00  0.31114999770E+02  0.51100000000E-03 0.  1.
         12    1    3    3    0    0 -0.25139976278E+01  0.20342510160E+00 -0.61493741897E+01  0.66465305814E+01  0.00000000000E+00 0. -1.
</event>
<event>
 7    1  0.1265344E-009  0.4778727E+02  0.7816164E-02  0.1312668E+00
        -11   -1    0    0    0    0  0.00000000000E+00  0.00000000000E+00  0.45593999997E+02  0.45594000000E+02  0.51100000000E-03 0. -1.
         11   -1    0    0    0    0 -0.00000000000E+00 -0.00000000000E+00 -0.45593999997E+02  0.45594000000E+02  0.51100000000E-03 0.  1.
    9900012    2    1    2    0    0  0.73247879258E+01  0.12220846856E+02 -0.40995382215E+02  0.47787274442E+02  0.20000015489E+02 0.  0.
         12    1    1    2    0    0 -0.73247879258E+01 -0.12220846856E+02  0.40995382215E+02  0.43400725558E+02  0.00000000000E+00 0. -1.
         11    1    3    3    0    0 -0.23998290519E+01 -0.21326240688E+01 -0.15576289374E+01  0.35683992300E+01  0.51100000000E-03 0. -1.
        -11    1    3    3    0    0  0.18140121166E+01  0.10859445150E+02 -0.26047994091E+02  0.28279253621E+02  0.51100000000E-03 0.  1.
        -12    1    3    3    0    0  0.79106048611E+01  0.34940257750E+01 -0.13389759187E+02  0.15939621591E+02  0.00000000000E+00 0.  1.
</event>
<event>
 7    1  0.1265344E-009  0.4778727E+02  0.7816164E-02  0.1312668E+00
        -11   -1    0    0    0    0  0.00000000000E+00  0.00000000000E+00  0.45593999997E+02  0.45594000000E+02  0.51100000000E-03 0. -1.
         11   -1    0    0    0    0 -0.00000000000E+00 -0.00000000000E+00 -0.45593999997E+02  0.45594000000E+02  0.51100000000E-03 0.  1.
    9900012    2    1    2    0    0 -0.33629459000E+02 -0.10772122944E+01 -0.27413906546E+02  0.47787272229E+02  0.20000005399E+02 0.  0.
         12    1    1    2    0    0  0.33629459000E+02  0.10772122944E+01  0.27413906546E+02  0.43400727771E+02  0.00000000000E+00 0. -1.
         11    1    3    3    0    0 -0.10869259254E+02  0.22863004586E+01  0.71487658890E+00  0.11130095027E+02  0.51100000000E-03 0. -1.
        -11    1    3    3    0    0 -0.11309219377E+02  0.61616540446E+00 -0.14862960304E+02  0.18686510963E+02  0.51100000000E-03 0.  1.
        -12    1    3    3    0    0 -0.11450980369E+02 -0.39796781574E+01 -0.13265822831E+02  0.17970666238E+02  0.00000000000E+00 0.  1.
</event>
<event>
 7    1  0.1265344E-009  0.4778727E+02  0.7816164E-02  0.1312668E+00
        -11   -1    0    0    0    0  0.00000000000E+00  0.00000000000E+00  0.45593999997E+02  0.45594000000E+02  0.51100000000E-03 0.  1.
         11   -1    0    0    0    0 -0.00000000000E+00 -0.00000000000E+00 -0.45593999997E+02  0.45594000000E+02  0.51100000000E-03 0. -1.
    9900012    2    1    2    0    0 -0.40490517840E+02  0.43324909611E+01  0.15012359918E+02  0.47787268863E+02  0.19999990055E+02 0.  0.
         12    1    1    2    0    0  0.40490517840E+02 -0.43324909611E+01 -0.15012359918E+02  0.43400731137E+02  0.00000000000E+00 0. -1.
         11    1    3    3    0    0 -0.34454590922E+01 -0.27841641385E+01 -0.18042763811E+01  0.47831131940E+01  0.51100000000E-03 0. -1.
        -11    1    3    3    0    0 -0.32582302319E+02  0.41196039886E+01  0.10015334810E+02  0.34334887404E+02  0.51100000000E-03 0.  1.
         12    1    3    3    0    0 -0.44627564290E+01  0.29970511109E+01  0.68013014889E+01  0.86692682649E+01  0.00000000000E+00 0. -1.
</event>
<event>
 7    1  0.1265344E-009  0.4778728E+02  0.7816164E-02  0.1312668E+00
        -11   -1    0    0    0    0  0.00000000000E+00  0.00000000000E+00  0.45593999997E+02  0.45594000000E+02  0.51100000000E-03 0.  1.
         11   -1    0    0    0    0 -0.00000000000E+00 -0.00000000000E+00 -0.45593999997E+02  0.45594000000E+02  0.51100000000E-03 0. -1.
    9900012    2    1    2    0    0  0.26369663796E+02 -0.31999666710E+02 -0.12817354496E+02  0.47787280945E+02  0.20000045140E+02 0.  0.
         12    1    1    2    0    0 -0.26369663796E+02  0.31999666710E+02  0.12817354496E+02  0.43400719055E+02  0.00000000000E+00 0. -1.
         11    1    3    3    0    0  0.12615017985E+01  0.13806682250E+01 -0.43079196416E+01  0.46963606585E+01  0.51100000000E-03 0. -1.
        -11    1    3    3    0    0  0.68063976860E+01 -0.10968272747E+02  0.75919470114E-01  0.12908749767E+02  0.51100000000E-03 0.  1.
         12    1    3    3    0    0  0.18301764311E+02 -0.22412062188E+02 -0.85853543241E+01  0.30182170520E+02  0.00000000000E+00 0. -1.
</event>
<event>
 7    1  0.1265344E-009  0.4778727E+02  0.7816164E-02  0.1312668E+00
        -11   -1    0    0    0    0  0.00000000000E+00  0.00000000000E+00  0.45593999997E+02  0.45594000000E+02  0.51100000000E-03 0. -1.
         11   -1    0    0    0    0 -0.00000000000E+00 -0.00000000000E+00 -0.45593999997E+02  0.45594000000E+02  0.51100000000E-03 0.  1.
    9900012    2    1    2    0    0 -0.12147521249E+02 -0.32540610322E+02 -0.26022479026E+02  0.47787274116E+02  0.20000014003E+02 0.  0.
         12    1    1    2    0    0  0.12147521249E+02  0.32540610322E+02  0.26022479026E+02  0.43400725884E+02  0.00000000000E+00 0. -1.
         11    1    3    3    0    0 -0.27059345804E+00 -0.71884032128E+01 -0.18937739625E+01  0.74385980972E+01  0.51100000000E-03 0. -1.
        -11    1    3    3    0    0 -0.36882451580E+01 -0.23693320290E+02 -0.18216637089E+02  0.30113492753E+02  0.51100000000E-03 0.  1.
         12    1    3    3    0    0 -0.81886826326E+01 -0.16588868196E+01 -0.59120679742E+01  0.10235183265E+02  0.00000000000E+00 0. -1.
</event>
<event>
 7    1  0.1265344E-009  0.4778728E+02  0.7816164E-02  0.1312668E+00
        -11   -1    0    0    0    0  0.00000000000E+00  0.00000000000E+00  0.45593999997E+02  0.45594000000E+02  0.51100000000E-03 0.  1.
         11   -1    0    0    0    0 -0.00000000000E+00 -0.00000000000E+00 -0.45593999997E+02  0.45594000000E+02  0.51100000000E-03 0. -1.
    9900012    2    1    2    0    0  0.21482202883E+02 -0.37615111615E+02 -0.26909415329E+01  0.47787276172E+02  0.20000023377E+02 0.  0.
         12    1    1    2    0    0 -0.21482202883E+02  0.37615111615E+02  0.26909415329E+01  0.43400723828E+02  0.00000000000E+00 0. -1.
         11    1    3    3    0    0  0.19674571006E+01 -0.14137797646E+00  0.17639219859E+01  0.26461852181E+01  0.51100000000E-03 0. -1.
        -11    1    3    3    0    0  0.19254377415E+02 -0.32511237498E+02 -0.85048843353E+01  0.38730410160E+02  0.51100000000E-03 0.  1.
        -12    1    3    3    0    0  0.26036836714E+00 -0.49624961401E+01  0.40500208164E+01  0.64106807938E+01  0.00000000000E+00 0.  1.
</event>
<event>
 7    1  0.1265344E-009  0.4778727E+02  0.7816164E-02  0.1312668E+00
        -11   -1    0    0    0    0  0.00000000000E+00  0.00000000000E+00  0.45593999997E+02  0.45594000000E+02  0.51100000000E-03 0. -1.
         11   -1    0    0    0    0 -0.00000000000E+00 -0.00000000000E+00 -0.45593999997E+02  0.45594000000E+02  0.51100000000E-03 0.  1.
    9900012    2    1    2    0    0  0.24167726035E+02 -0.21794778636E+02 -0.28714658763E+02  0.47787274368E+02  0.20000015155E+02 0.  0.
         12    1    1    2    0    0 -0.24167726035E+02  0.21794778636E+02  0.28714658763E+02  0.43400725632E+02  0.00000000000E+00 0. -1.
         11    1    3    3    0    0  0.53492680836E+01  0.90020242606E+00 -0.29761810610E+01  0.61873004944E+01  0.51100000000E-03 0.  1.
        -11    1    3    3    0    0  0.37048671889E+01 -0.15511110472E+02 -0.12499308773E+02  0.20262115117E+02  0.51100000000E-03 0. -1.
         12    1    3    3    0    0  0.15113590763E+02 -0.71838705900E+01 -0.13239168929E+02  0.21337858757E+02  0.00000000000E+00 0. -1.
</event>
<event>
 7    1  0.1265344E-009  0.4778727E+02  0.7816164E-02  0.1312668E+00
        -11   -1    0    0    0    0  0.00000000000E+00  0.00000000000E+00  0.45593999997E+02  0.45594000000E+02  0.51100000000E-03 0.  1.
         11   -1    0    0    0    0 -0.00000000000E+00 -0.00000000000E+00 -0.45593999997E+02  0.45594000000E+02  0.51100000000E-03 0. -1.
    9900012    2    1    2    0    0  0.43760130217E+01 -0.22429520098E+02  0.36897020880E+02  0.47787274066E+02  0.20000013777E+02 0.  0.
         12    1    1    2    0    0 -0.43760130217E+01  0.22429520098E+02 -0.36897020880E+02  0.43400725934E+02  0.00000000000E+00 0. -1.
         11    1    3    3    0    0 -0.56439926727E+00  0.11556318312E+01  0.49210524662E+01  0.50863335614E+01  0.51100000000E-03 0. -1.
        -11    1    3    3    0    0 -0.12671428339E+01 -0.20468782779E+02  0.27969403460E+02  0.34682333393E+02  0.51100000000E-03 0.  1.
        -12    1    3    3    0    0  0.62075551229E+01 -0.31163691503E+01  0.40065649540E+01  0.80186071119E+01  0.00000000000E+00 0.  1.
</event>
<event>
 7    1  0.1265344E-009  0.4778727E+02  0.7816164E-02  0.1312668E+00
        -11   -1    0    0    0    0  0.00000000000E+00  0.00000000000E+00  0.45593999997E+02  0.45594000000E+02  0.51100000000E-03 0.  1.
         11   -1    0    0    0    0 -0.00000000000E+00 -0.00000000000E+00 -0.45593999997E+02  0.45594000000E+02  0.51100000000E-03 0. -1.
    9900012    2    1    2    0    0  0.66516698589E+01 -0.20026125684E+02  0.37925359194E+02  0.47787270837E+02  0.19999999056E+02 0.  0.
         12    1    1    2    0    0 -0.66516698589E+01  0.20026125684E+02 -0.37925359194E+02  0.43400729163E+02  0.00000000000E+00 0. -1.
         11    1    3    3    0    0 -0.62112862341E+00  0.11072214647E+01 -0.86230084511E+00  0.15346996929E+01  0.51100000000E-03 0. -1.
        -11    1    3    3    0    0  0.67053419582E+01 -0.12979038426E+02  0.14324510393E+02  0.20459927847E+02  0.51100000000E-03 0.  1.
         12    1    3    3    0    0  0.56745652412E+00 -0.81543087235E+01  0.24463149646E+02  0.25792643298E+02  0.00000000000E+00 0. -1.
</event>
<event>
 7    1  0.1265344E-009  0.4778727E+02  0.7816164E-02  0.1312668E+00
        -11   -1    0    0    0    0  0.00000000000E+00  0.00000000000E+00  0.45593999997E+02  0.45594000000E+02  0.51100000000E-03 0.  1.
         11   -1    0    0    0    0 -0.00000000000E+00 -0.00000000000E+00 -0.45593999997E+02  0.45594000000E+02  0.51100000000E-03 0. -1.
    9900012    2    1    2    0    0 -0.95124554506E+01  0.11959575013E+02  0.40621487645E+02  0.47787268420E+02  0.19999988035E+02 0.  0.
         12    1    1    2    0    0  0.95124554506E+01 -0.11959575013E+02 -0.40621487645E+02  0.43400731580E+02  0.00000000000E+00 0. -1.
         11    1    3    3    0    0  0.14885291109E+01 -0.22749305113E+01  0.27071852251E+01  0.38366495603E+01  0.51100000000E-03 0. -1.
        -11    1    3    3    0    0 -0.56532454302E+00  0.11165082660E+02  0.21945937611E+02  0.24629308568E+02  0.51100000000E-03 0.  1.
        -12    1    3    3    0    0 -0.10435660018E+02  0.30694228647E+01  0.15968364809E+02  0.19321310292E+02  0.00000000000E+00 0.  1.
</event>
<event>
 7    1  0.1265344E-009  0.4778727E+02  0.7816164E-02  0.1312668E+00
        -11   -1    0    0    0    0  0.00000000000E+00  0.00000000000E+00  0.45593999997E+02  0.45594000000E+02  0.51100000000E-03 0.  1.
         11   -1    0    0    0    0 -0.00000000000E+00 -0.00000000000E+00 -0.45593999997E+02  0.45594000000E+02  0.51100000000E-03 0. -1.
    9900012    2    1    2    0    0  0.19537746792E+02 -0.65750552764E+01  0.38192515061E+02  0.47787272952E+02  0.20000008699E+02 0.  0.
         12    1    1    2    0    0 -0.19537746792E+02  0.65750552764E+01 -0.38192515061E+02  0.43400727048E+02  0.00000000000E+00 0. -1.
         11    1    3    3    0    0 -0.18635657492E+00 -0.20474825498E+01  0.14999372224E+02  0.15139619577E+02  0.51100000000E-03 0. -1.
        -11    1    3    3    0    0  0.78833691055E+01 -0.17426041405E+00  0.16679978465E+02  0.18449920244E+02  0.51100000000E-03 0.  1.
         12    1    3    3    0    0  0.11840734261E+02 -0.43533123126E+01  0.65131643718E+01  0.14197733131E+02  0.00000000000E+00 0. -1.
</event>
<event>
 7    1  0.1265344E-009  0.4778727E+02  0.7816164E-02  0.1312668E+00
        -11   -1    0    0    0    0  0.00000000000E+00  0.00000000000E+00  0.45593999997E+02  0.45594000000E+02  0.51100000000E-03 0.  1.
         11   -1    0    0    0    0 -0.00000000000E+00 -0.00000000000E+00 -0.45593999997E+02  0.45594000000E+02  0.51100000000E-03 0. -1.
    9900012    2    1    2    0    0 -0.36221224607E+02  0.21284019503E+02 -0.10892050688E+02  0.47787269979E+02  0.19999995140E+02 0.  0.
         12    1    1    2    0    0  0.36221224607E+02 -0.21284019503E+02  0.10892050688E+02  0.43400730021E+02  0.00000000000E+00 0. -1.
         11    1    3    3    0    0 -0.11803141703E+02  0.50782486675E+01 -0.10263877622E+02  0.16445362498E+02  0.51100000000E-03 0. -1.
        -11    1    3    3    0    0 -0.46134346723E+01 -0.92211271381E+00  0.18189212467E+01  0.50440604769E+01  0.51100000000E-03 0.  1.
         12    1    3    3    0    0 -0.19804648231E+02  0.17127883549E+02 -0.24470943121E+01  0.26297847003E+02  0.00000000000E+00 0. -1.
</event>
<event>
 7    1  0.1265344E-009  0.4778727E+02  0.7816164E-02  0.1312668E+00
        -11   -1    0    0    0    0  0.00000000000E+00  0.00000000000E+00  0.45593999997E+02  0.45594000000E+02  0.51100000000E-03 0. -1.
         11   -1    0    0    0    0 -0.00000000000E+00 -0.00000000000E+00 -0.45593999997E+02  0.45594000000E+02  0.51100000000E-03 0.  1.
    9900012    2    1    2    0    0  0.12250878321E+01  0.12422969989E+02 -0.41566720643E+02  0.47787270875E+02  0.19999999227E+02 0.  0.
         12    1    1    2    0    0 -0.12250878321E+01 -0.12422969989E+02  0.41566720643E+02  0.43400729125E+02  0.00000000000E+00 0. -1.
         11    1    3    3    0    0  0.51418591402E+01  0.86175992144E+00 -0.21999997252E+02  0.22609317215E+02  0.51100000000E-03 0. -1.
        -11    1    3    3    0    0 -0.21996880957E+01  0.92883185660E+01 -0.20126159551E+02  0.22274958766E+02  0.51100000000E-03 0.  1.
        -12    1    3    3    0    0 -0.17170832124E+01  0.22728915013E+01  0.55943615969E+00  0.29029948935E+01  0.00000000000E+00 0.  1.
</event>
<event>
 7    1  0.1265344E-009  0.4778727E+02  0.7816164E-02  0.1312668E+00
        -11   -1    0    0    0    0  0.00000000000E+00  0.00000000000E+00  0.45593999997E+02  0.45594000000E+02  0.51100000000E-03 0. -1.
         11   -1    0    0    0    0 -0.00000000000E+00 -0.00000000000E+00 -0.45593999997E+02  0.45594000000E+02  0.51100000000E-03 0.  1.
    9900012    2    1    2    0    0  0.25448873018E+02  0.31144358991E+02 -0.16309726745E+02  0.47787269346E+02  0.19999992255E+02 0.  0.
         12    1    1    2    0    0 -0.25448873018E+02 -0.31144358991E+02  0.16309726745E+02  0.43400730654E+02  0.00000000000E+00 0. -1.
         11    1    3    3    0    0  0.15800760321E+01 -0.15349273924E+01  0.10572398304E+01  0.24434399291E+01  0.51100000000E-03 0. -1.
        -11    1    3    3    0    0  0.14445335472E+02  0.20122112802E+02 -0.47937109360E+01  0.25229879217E+02  0.51100000000E-03 0.  1.
        -12    1    3    3    0    0  0.94234615136E+01  0.12557173582E+02 -0.12573255639E+02  0.20113950199E+02  0.00000000000E+00 0.  1.
</event>
<event>
 7    1  0.1265344E-009  0.4778727E+02  0.7816164E-02  0.1312668E+00
        -11   -1    0    0    0    0  0.00000000000E+00  0.00000000000E+00  0.45593999997E+02  0.45594000000E+02  0.51100000000E-03 0.  1.
         11   -1    0    0    0    0 -0.00000000000E+00 -0.00000000000E+00 -0.45593999997E+02  0.45594000000E+02  0.51100000000E-03 0. -1.
    9900012    2    1    2    0    0  0.12234460772E+02 -0.32116514954E+02  0.26504161128E+02  0.47787272814E+02  0.20000008068E+02 0.  0.
         12    1    1    2    0    0 -0.12234460772E+02  0.32116514954E+02 -0.26504161128E+02  0.43400727186E+02  0.00000000000E+00 0. -1.
         11    1    3    3    0    0  0.96080910334E+01 -0.65146399519E+01  0.12133867704E+02  0.16792459401E+02  0.51100000000E-03 0. -1.
        -11    1    3    3    0    0  0.43309670411E+01 -0.43854285231E+01  0.28199388667E+01  0.67780022363E+01  0.51100000000E-03 0.  1.
        -12    1    3    3    0    0 -0.17045973028E+01 -0.21216446479E+02  0.11550354557E+02  0.24216811177E+02  0.00000000000E+00 0.  1.
</event>
<event>
 7    1  0.1265344E-009  0.4778727E+02  0.7816164E-02  0.1312668E+00
        -11   -1    0    0    0    0  0.00000000000E+00  0.00000000000E+00  0.45593999997E+02  0.45594000000E+02  0.51100000000E-03 0.  1.
         11   -1    0    0    0    0 -0.00000000000E+00 -0.00000000000E+00 -0.45593999997E+02  0.45594000000E+02  0.51100000000E-03 0. -1.
    9900012    2    1    2    0    0 -0.32420180782E+02 -0.42612848010E+01 -0.28537633327E+02  0.47787272056E+02  0.20000004613E+02 0.  0.
         12    1    1    2    0    0  0.32420180782E+02  0.42612848010E+01  0.28537633327E+02  0.43400727944E+02  0.00000000000E+00 0. -1.
         11    1    3    3    0    0 -0.18897624162E+02  0.14394993403E+01 -0.99491993905E+01  0.21405114484E+02  0.51100000000E-03 0.  1.
        -11    1    3    3    0    0 -0.11199183931E+02 -0.79736131954E+00 -0.17585822564E+02  0.20864291536E+02  0.51100000000E-03 0. -1.
        -12    1    3    3    0    0 -0.23233726896E+01 -0.49034228217E+01 -0.10026113728E+01  0.55178660357E+01  0.00000000000E+00 0.  1.
</event>
<event>
 7    1  0.1265344E-009  0.4778727E+02  0.7816164E-02  0.1312668E+00
        -11   -1    0    0    0    0  0.00000000000E+00  0.00000000000E+00  0.45593999997E+02  0.45594000000E+02  0.51100000000E-03 0.  1.
         11   -1    0    0    0    0 -0.00000000000E+00 -0.00000000000E+00 -0.45593999997E+02  0.45594000000E+02  0.51100000000E-03 0. -1.
    9900012    2    1    2    0    0 -0.13702419476E+02  0.34398486715E+02  0.22640914594E+02  0.47787271879E+02  0.20000003806E+02 0.  0.
         12    1    1    2    0    0  0.13702419476E+02 -0.34398486715E+02 -0.22640914594E+02  0.43400728121E+02  0.00000000000E+00 0. -1.
         11    1    3    3    0    0 -0.21910242222E+01 -0.16817718853E+00  0.10547850990E+01  0.24375074513E+01  0.51100000000E-03 0. -1.
        -11    1    3    3    0    0 -0.16009617824E+01  0.13315425651E+02  0.16663572292E+02  0.21390144475E+02  0.51100000000E-03 0.  1.
         12    1    3    3    0    0 -0.99104334717E+01  0.21251238253E+02  0.49225572034E+01  0.23959619953E+02  0.00000000000E+00 0. -1.
</event>
<event>
 7    1  0.1265344E-009  0.4778727E+02  0.7816164E-02  0.1312668E+00
        -11   -1    0    0    0    0  0.00000000000E+00  0.00000000000E+00  0.45593999997E+02  0.45594000000E+02  0.51100000000E-03 0.  1.
         11   -1    0    0    0    0 -0.00000000000E+00 -0.00000000000E+00 -0.45593999997E+02  0.45594000000E+02  0.51100000000E-03 0. -1.
    9900012    2    1    2    0    0 -0.12105052573E+02  0.38188409249E+02 -0.16695400129E+02  0.47787270925E+02  0.19999999455E+02 0.  0.
         12    1    1    2    0    0  0.12105052573E+02 -0.38188409249E+02  0.16695400129E+02  0.43400729075E+02  0.00000000000E+00 0. -1.
         11    1    3    3    0    0 -0.40448138055E+01  0.90553752032E+01 -0.84618448044E+01  0.13036991852E+02  0.51100000000E-03 0. -1.
        -11    1    3    3    0    0 -0.11125995147E+02  0.25741869327E+02 -0.36556535863E+01  0.28280654304E+02  0.51100000000E-03 0.  1.
        -12    1    3    3    0    0  0.30657563792E+01  0.33911647195E+01 -0.45779017383E+01  0.64696247694E+01  0.00000000000E+00 0.  1.
</event>
<event>
 7    1  0.1265344E-009  0.4778727E+02  0.7816164E-02  0.1312668E+00
        -11   -1    0    0    0    0  0.00000000000E+00  0.00000000000E+00  0.45593999997E+02  0.45594000000E+02  0.51100000000E-03 0.  1.
         11   -1    0    0    0    0 -0.00000000000E+00 -0.00000000000E+00 -0.45593999997E+02  0.45594000000E+02  0.51100000000E-03 0. -1.
    9900012    2    1    2    0    0  0.21093982317E+02  0.13169250139E+02  0.35570182239E+02  0.47787273004E+02  0.20000008936E+02 0.  0.
         12    1    1    2    0    0 -0.21093982317E+02 -0.13169250139E+02 -0.35570182239E+02  0.43400726996E+02  0.00000000000E+00 0. -1.
         11    1    3    3    0    0  0.79531477446E+01  0.48713235803E+01  0.10447615932E+01  0.93847684851E+01  0.51100000000E-03 0. -1.
        -11    1    3    3    0    0  0.89612559827E+01  0.86320239966E+01  0.23201920386E+02  0.26327648146E+02  0.51100000000E-03 0.  1.
         12    1    3    3    0    0  0.41795785897E+01 -0.33409743770E+00  0.11323500260E+02  0.12074856373E+02  0.00000000000E+00 0. -1.
</event>
<event>
 7    1  0.1265344E-009  0.4778727E+02  0.7816164E-02  0.1312668E+00
        -11   -1    0    0    0    0  0.00000000000E+00  0.00000000000E+00  0.45593999997E+02  0.45594000000E+02  0.51100000000E-03 0.  1.
         11   -1    0    0    0    0 -0.00000000000E+00 -0.00000000000E+00 -0.45593999997E+02  0.45594000000E+02  0.51100000000E-03 0. -1.
    9900012    2    1    2    0    0  0.12656943666E+02  0.37961395503E+02  0.16803500892E+02  0.47787269434E+02  0.19999992655E+02 0.  0.
         12    1    1    2    0    0 -0.12656943666E+02 -0.37961395503E+02 -0.16803500892E+02  0.43400730566E+02  0.00000000000E+00 0. -1.
         11    1    3    3    0    0  0.18435081938E+01  0.12914960920E+01 -0.24547290936E+01  0.33304924261E+01  0.51100000000E-03 0. -1.
        -11    1    3    3    0    0  0.56482677532E+01  0.29422412669E+02  0.99258654780E+01  0.31561116926E+02  0.51100000000E-03 0.  1.
         12    1    3    3    0    0  0.51651677193E+01  0.72474867422E+01  0.93323645072E+01  0.12895660082E+02  0.00000000000E+00 0. -1.
</event>
<event>
 7    1  0.1304175E-009  0.4778727E+02  0.7816164E-02  0.1312668E+00
        -11   -1    0    0    0    0  0.00000000000E+00  0.00000000000E+00  0.45593999997E+02  0.45594000000E+02  0.51100000000E-03 0. -1.
         11   -1    0    0    0    0 -0.00000000000E+00 -0.00000000000E+00 -0.45593999997E+02  0.45594000000E+02  0.51100000000E-03 0.  1.
    9900012    2    1    2    0    0  0.26759007370E+02 -0.12672955907E+02 -0.31732869543E+02  0.47787270787E+02  0.19999998824E+02 0.  0.
         12    1    1    2    0    0 -0.26759007370E+02  0.12672955907E+02  0.31732869543E+02  0.43400729213E+02  0.00000000000E+00 0. -1.
         11    1    3    3    0    0  0.35449418276E+01 -0.21479144914E+01  0.18380942479E+01  0.45341746712E+01  0.51100000000E-03 0. -1.
        -11    1    3    3    0    0  0.13467087154E+02 -0.94581451696E+01 -0.15068905023E+02  0.22313467801E+02  0.51100000000E-03 0.  1.
         12    1    3    3    0    0  0.97469783885E+01 -0.10668962461E+01 -0.18502058768E+02  0.20939628314E+02  0.00000000000E+00 0. -1.
</event>
<event>
 7    1  0.1265344E-009  0.4778727E+02  0.7816164E-02  0.1312668E+00
        -11   -1    0    0    0    0  0.00000000000E+00  0.00000000000E+00  0.45593999997E+02  0.45594000000E+02  0.51100000000E-03 0.  1.
         11   -1    0    0    0    0 -0.00000000000E+00 -0.00000000000E+00 -0.45593999997E+02  0.45594000000E+02  0.51100000000E-03 0. -1.
    9900012    2    1    2    0    0  0.18603178401E+02  0.38399874334E+02 -0.79369027062E+01  0.47787273969E+02  0.20000013333E+02 0.  0.
         12    1    1    2    0    0 -0.18603178401E+02 -0.38399874334E+02  0.79369027062E+01  0.43400726031E+02  0.00000000000E+00 0. -1.
         11    1    3    3    0    0 -0.10778732914E+01  0.70591317619E+01  0.28596887868E+01  0.76922670444E+01  0.51100000000E-03 0. -1.
        -11    1    3    3    0    0  0.91089990310E+01  0.23858856241E+02 -0.86683610999E+01  0.26969600829E+02  0.51100000000E-03 0.  1.
         12    1    3    3    0    0  0.10572052662E+02  0.74818863309E+01 -0.21282303931E+01  0.13125406095E+02  0.00000000000E+00 0. -1.
</event>
<event>
 7    1  0.1265344E-009  0.4778727E+02  0.7816164E-02  0.1312668E+00
        -11   -1    0    0    0    0  0.00000000000E+00  0.00000000000E+00  0.45593999997E+02  0.45594000000E+02  0.51100000000E-03 0.  1.
         11   -1    0    0    0    0 -0.00000000000E+00 -0.00000000000E+00 -0.45593999997E+02  0.45594000000E+02  0.51100000000E-03 0. -1.
    9900012    2    1    2    0    0  0.30875297242E+02  0.24278704675E+02  0.18463036793E+02  0.47787271802E+02  0.20000003453E+02 0.  0.
         12    1    1    2    0    0 -0.30875297242E+02 -0.24278704675E+02 -0.18463036793E+02  0.43400728198E+02  0.00000000000E+00 0. -1.
         11    1    3    3    0    0 -0.10487277444E+01  0.83092404360E+00  0.96803979488E+00  0.16514738731E+01  0.51100000000E-03 0. -1.
        -11    1    3    3    0    0  0.25401472500E+02  0.16932937572E+02  0.20106163734E+02  0.36554302077E+02  0.51100000000E-03 0.  1.
         12    1    3    3    0    0  0.65225524867E+01  0.65148430591E+01 -0.26111667356E+01  0.95814958513E+01  0.00000000000E+00 0. -1.
</event>
<event>
 7    1  0.1265344E-009  0.4778727E+02  0.7816164E-02  0.1312668E+00
        -11   -1    0    0    0    0  0.00000000000E+00  0.00000000000E+00  0.45593999997E+02  0.45594000000E+02  0.51100000000E-03 0.  1.
         11   -1    0    0    0    0 -0.00000000000E+00 -0.00000000000E+00 -0.45593999997E+02  0.45594000000E+02  0.51100000000E-03 0. -1.
    9900012    2    1    2    0    0  0.75186852420E+01 -0.24168529977E+02  0.35255846473E+02  0.47787272131E+02  0.20000004954E+02 0.  0.
         12    1    1    2    0    0 -0.75186852420E+01  0.24168529977E+02 -0.35255846473E+02  0.43400727869E+02  0.00000000000E+00 0. -1.
         11    1    3    3    0    0  0.27829541141E+01 -0.40538424868E+01  0.16323710335E+02  0.17048225476E+02  0.51100000000E-03 0. -1.
        -11    1    3    3    0    0  0.12546588829E+01 -0.13354341515E+02  0.18849376411E+02  0.23134640640E+02  0.51100000000E-03 0.  1.
         12    1    3    3    0    0  0.34810722449E+01 -0.67603459743E+01  0.82759727694E-01  0.76044060149E+01  0.00000000000E+00 0. -1.
</event>
<event>
 7    1  0.1265344E-009  0.4778727E+02  0.7816164E-02  0.1312668E+00
        -11   -1    0    0    0    0  0.00000000000E+00  0.00000000000E+00  0.45593999997E+02  0.45594000000E+02  0.51100000000E-03 0.  1.
         11   -1    0    0    0    0 -0.00000000000E+00 -0.00000000000E+00 -0.45593999997E+02  0.45594000000E+02  0.51100000000E-03 0. -1.
    9900012    2    1    2    0    0 -0.28641023634E+02 -0.32600182740E+02 -0.73699372636E+00  0.47787270637E+02  0.19999998141E+02 0.  0.
         12    1    1    2    0    0  0.28641023634E+02  0.32600182740E+02  0.73699372636E+00  0.43400729363E+02  0.00000000000E+00 0. -1.
         11    1    3    3    0    0 -0.11295653259E+02 -0.45726780000E+01 -0.43032562395E+01  0.12923590104E+02  0.51100000000E-03 0. -1.
        -11    1    3    3    0    0 -0.13729480307E+02 -0.23767656131E+02 -0.12647100306E+01  0.27477256035E+02  0.51100000000E-03 0.  1.
         12    1    3    3    0    0 -0.36158900679E+01 -0.42598486090E+01  0.48309725438E+01  0.73864244986E+01  0.00000000000E+00 0. -1.
</event>
<event>
 7    1  0.1265344E-009  0.4778723E+02  0.7816164E-02  0.1312668E+00
        -11   -1    0    0    0    0  0.00000000000E+00  0.00000000000E+00  0.45593999997E+02  0.45594000000E+02  0.51100000000E-03 0.  1.
         11   -1    0    0    0    0 -0.00000000000E+00 -0.00000000000E+00 -0.45593999997E+02  0.45594000000E+02  0.51100000000E-03 0. -1.
    9900012    2    1    2    0    0 -0.12663791291E+02  0.27980964071E+02  0.30664651159E+02  0.47787230526E+02  0.19999815260E+02 0.  0.
         12    1    1    2    0    0  0.12663791291E+02 -0.27980964071E+02 -0.30664651159E+02  0.43400769474E+02  0.00000000000E+00 0. -1.
         11    1    3    3    0    0  0.24949060186E+01  0.37679650638E+01  0.37492180941E+01  0.58718611481E+01  0.51100000000E-03 0. -1.
        -11    1    3    3    0    0  0.27989867931E+01  0.38903415312E+01  0.24121303758E+01  0.53653944411E+01  0.51100000000E-03 0.  1.
         12    1    3    3    0    0 -0.17957684103E+02  0.20322657476E+02  0.24503302689E+02  0.36549974937E+02  0.00000000000E+00 0. -1.
</event>
<event>
 7    1  0.1265344E-009  0.4778727E+02  0.7816164E-02  0.1312668E+00
        -11   -1    0    0    0    0  0.00000000000E+00  0.00000000000E+00  0.45593999997E+02  0.45594000000E+02  0.51100000000E-03 0. -1.
         11   -1    0    0    0    0 -0.00000000000E+00 -0.00000000000E+00 -0.45593999997E+02  0.45594000000E+02  0.51100000000E-03 0.  1.
    9900012    2    1    2    0    0  0.20853636303E+02  0.28017590429E+02 -0.25763607652E+02  0.47787274202E+02  0.20000014399E+02 0.  0.
         12    1    1    2    0    0 -0.20853636303E+02 -0.28017590429E+02  0.25763607652E+02  0.43400725798E+02  0.00000000000E+00 0. -1.
         11    1    3    3    0    0  0.14255103219E+02  0.12062943949E+02 -0.16985310621E+02  0.25243283496E+02  0.51100000000E-03 0. -1.
        -11    1    3    3    0    0  0.81836812557E+01  0.93433185363E+01 -0.13811794516E+01  0.12497115551E+02  0.51100000000E-03 0.  1.
         12    1    3    3    0    0 -0.15851481713E+01  0.66113279436E+01 -0.73971175798E+01  0.10046875156E+02  0.00000000000E+00 0. -1.
</event>
<event>
 7    1  0.1265344E-009  0.4778728E+02  0.7816164E-02  0.1312668E+00
        -11   -1    0    0    0    0  0.00000000000E+00  0.00000000000E+00  0.45593999997E+02  0.45594000000E+02  0.51100000000E-03 0. -1.
         11   -1    0    0    0    0 -0.00000000000E+00 -0.00000000000E+00 -0.45593999997E+02  0.45594000000E+02  0.51100000000E-03 0.  1.
    9900012    2    1    2    0    0 -0.19997960460E+02 -0.38430382492E+02  0.26096181625E+01  0.47787276181E+02  0.20000023419E+02 0.  0.
         12    1    1    2    0    0  0.19997960460E+02  0.38430382492E+02 -0.26096181625E+01  0.43400723819E+02  0.00000000000E+00 0. -1.
         11    1    3    3    0    0 -0.69405421557E+00 -0.74197425698E+00  0.50538644874E+01  0.51549765829E+01  0.51100000000E-03 0. -1.
        -11    1    3    3    0    0 -0.10493236190E+02 -0.23691327943E+02  0.15622440544E-01  0.25911141808E+02  0.51100000000E-03 0.  1.
         12    1    3    3    0    0 -0.88106700542E+01 -0.13997080292E+02 -0.24598687654E+01  0.16721157790E+02  0.00000000000E+00 0. -1.
</event>
<event>
 7    1  0.1265344E-009  0.4778727E+02  0.7816164E-02  0.1312668E+00
        -11   -1    0    0    0    0  0.00000000000E+00  0.00000000000E+00  0.45593999997E+02  0.45594000000E+02  0.51100000000E-03 0. -1.
         11   -1    0    0    0    0 -0.00000000000E+00 -0.00000000000E+00 -0.45593999997E+02  0.45594000000E+02  0.51100000000E-03 0.  1.
    9900012    2    1    2    0    0 -0.34603537184E+02 -0.13977823277E+02 -0.22154884358E+02  0.47787271549E+02  0.20000002299E+02 0.  0.
         12    1    1    2    0    0  0.34603537184E+02  0.13977823277E+02  0.22154884358E+02  0.43400728451E+02  0.00000000000E+00 0. -1.
         11    1    3    3    0    0 -0.32509969212E+01 -0.27313857851E+01 -0.68833899133E+01  0.80876761958E+01  0.51100000000E-03 0. -1.
        -11    1    3    3    0    0 -0.18131304426E+02 -0.83080048688E+01 -0.16790523198E+02  0.26070842230E+02  0.51100000000E-03 0.  1.
         12    1    3    3    0    0 -0.13221235837E+02 -0.29384326228E+01  0.15190287528E+01  0.13628753123E+02  0.00000000000E+00 0. -1.
</event>
<event>
 7    1  0.1265344E-009  0.4778727E+02  0.7816164E-02  0.1312668E+00
        -11   -1    0    0    0    0  0.00000000000E+00  0.00000000000E+00  0.45593999997E+02  0.45594000000E+02  0.51100000000E-03 0. -1.
         11   -1    0    0    0    0 -0.00000000000E+00 -0.00000000000E+00 -0.45593999997E+02  0.45594000000E+02  0.51100000000E-03 0.  1.
    9900012    2    1    2    0    0  0.74407118018E+01  0.38653577757E+02 -0.18280039645E+02  0.47787272875E+02  0.20000008348E+02 0.  0.
         12    1    1    2    0    0 -0.74407118018E+01 -0.38653577757E+02  0.18280039645E+02  0.43400727125E+02  0.00000000000E+00 0. -1.
         11    1    3    3    0    0  0.56764620905E+01  0.84101015526E+01 -0.64559791516E+01  0.12026291908E+02  0.51100000000E-03 0. -1.
        -11    1    3    3    0    0 -0.25301836414E+01  0.14155535725E+01 -0.50734146499E+01  0.58433858033E+01  0.51100000000E-03 0.  1.
         12    1    3    3    0    0  0.42944333527E+01  0.28827922632E+02 -0.67506458433E+01  0.29917595164E+02  0.00000000000E+00 0. -1.
</event>
<event>
 7    1  0.1265344E-009  0.4778727E+02  0.7816164E-02  0.1312668E+00
        -11   -1    0    0    0    0  0.00000000000E+00  0.00000000000E+00  0.45593999997E+02  0.45594000000E+02  0.51100000000E-03 0. -1.
         11   -1    0    0    0    0 -0.00000000000E+00 -0.00000000000E+00 -0.45593999997E+02  0.45594000000E+02  0.51100000000E-03 0.  1.
    9900012    2    1    2    0    0  0.40058760676E+02 -0.13175234959E+02 -0.10263153980E+02  0.47787268983E+02  0.19999990603E+02 0.  0.
         12    1    1    2    0    0 -0.40058760676E+02  0.13175234959E+02  0.10263153980E+02  0.43400731017E+02  0.00000000000E+00 0. -1.
         11    1    3    3    0    0  0.23777767859E+01 -0.39447365992E+01 -0.10272601623E+01  0.47191135802E+01  0.51100000000E-03 0. -1.
        -11    1    3    3    0    0  0.82564027885E+01 -0.94487965513E+01 -0.14585679186E+01  0.12632314274E+02  0.51100000000E-03 0.  1.
         12    1    3    3    0    0  0.29424581102E+02  0.21829819111E+00 -0.77773258995E+01  0.30435841129E+02  0.00000000000E+00 0. -1.
</event>
<event>
 7    1  0.1265344E-009  0.4778727E+02  0.7816164E-02  0.1312668E+00
        -11   -1    0    0    0    0  0.00000000000E+00  0.00000000000E+00  0.45593999997E+02  0.45594000000E+02  0.51100000000E-03 0.  1.
         11   -1    0    0    0    0 -0.00000000000E+00 -0.00000000000E+00 -0.45593999997E+02  0.45594000000E+02  0.51100000000E-03 0. -1.
    9900012    2    1    2    0    0 -0.35867193501E+02 -0.23891882412E+01  0.24319940666E+02  0.47787270697E+02  0.19999998414E+02 0.  0.
         12    1    1    2    0    0  0.35867193501E+02  0.23891882412E+01 -0.24319940666E+02  0.43400729303E+02  0.00000000000E+00 0. -1.
         11    1    3    3    0    0 -0.20436588703E+02 -0.29464752870E+01  0.57756189830E+01  0.21440467563E+02  0.51100000000E-03 0.  1.
        -11    1    3    3    0    0 -0.15871861571E+02 -0.20965405189E+01  0.15491537431E+02  0.22277773769E+02  0.51100000000E-03 0. -1.
        -12    1    3    3    0    0  0.44125677247E+00  0.26538275646E+01  0.30527842515E+01  0.40690293644E+01  0.00000000000E+00 0.  1.
</event>
<event>
 7    1  0.1265344E-009  0.4778727E+02  0.7816164E-02  0.1312668E+00
        -11   -1    0    0    0    0  0.00000000000E+00  0.00000000000E+00  0.45593999997E+02  0.45594000000E+02  0.51100000000E-03 0.  1.
         11   -1    0    0    0    0 -0.00000000000E+00 -0.00000000000E+00 -0.45593999997E+02  0.45594000000E+02  0.51100000000E-03 0. -1.
    9900012    2    1    2    0    0 -0.35190037057E+02 -0.22558932329E+02  0.11678139958E+02  0.47787273177E+02  0.20000009723E+02 0.  0.
         12    1    1    2    0    0  0.35190037057E+02  0.22558932329E+02 -0.11678139958E+02  0.43400726823E+02  0.00000000000E+00 0. -1.
         11    1    3    3    0    0 -0.11330335829E+02 -0.74260602282E+00 -0.27894491161E+01  0.11692262413E+02  0.51100000000E-03 0. -1.
        -11    1    3    3    0    0 -0.84999183166E+01 -0.10824170411E+02  0.33003408106E+01  0.14152862827E+02  0.51100000000E-03 0.  1.
         12    1    3    3    0    0 -0.15359782911E+02 -0.10992155896E+02  0.11167248264E+02  0.21942147937E+02  0.00000000000E+00 0. -1.
</event>
<event>
 7    1  0.1265344E-009  0.4778727E+02  0.7816164E-02  0.1312668E+00
        -11   -1    0    0    0    0  0.00000000000E+00  0.00000000000E+00  0.45593999997E+02  0.45594000000E+02  0.51100000000E-03 0. -1.
         11   -1    0    0    0    0 -0.00000000000E+00 -0.00000000000E+00 -0.45593999997E+02  0.45594000000E+02  0.51100000000E-03 0.  1.
    9900012    2    1    2    0    0  0.38535181839E+01 -0.30077157384E+02  0.31050576811E+02  0.47787270525E+02  0.19999997632E+02 0.  0.
         12    1    1    2    0    0 -0.38535181839E+01  0.30077157384E+02 -0.31050576811E+02  0.43400729475E+02  0.00000000000E+00 0. -1.
         11    1    3    3    0    0  0.89412125586E+01 -0.23774273263E+02  0.17533267207E+02  0.30863843092E+02  0.51100000000E-03 0. -1.
        -11    1    3    3    0    0 -0.31790100857E+01 -0.40011848309E+01  0.28634125409E+01  0.58578764768E+01  0.51100000000E-03 0.  1.
         12    1    3    3    0    0 -0.19086842890E+01 -0.23016992894E+01  0.10653897063E+02  0.11065550956E+02  0.00000000000E+00 0. -1.
</event>
<event>
 7    1  0.1265344E-009  0.4778730E+02  0.7816164E-02  0.1312668E+00
        -11   -1    0    0    0    0  0.00000000000E+00  0.00000000000E+00  0.45593999997E+02  0.45594000000E+02  0.51100000000E-03 0.  1.
         11   -1    0    0    0    0 -0.00000000000E+00 -0.00000000000E+00 -0.45593999997E+02  0.45594000000E+02  0.51100000000E-03 0. -1.
    9900012    2    1    2    0    0 -0.33183565831E+02  0.26842103654E+02  0.78723115819E+01  0.47787298859E+02  0.20000126819E+02 0.  0.
         12    1    1    2    0    0  0.33183565831E+02 -0.26842103654E+02 -0.78723115819E+01  0.43400701141E+02  0.00000000000E+00 0. -1.
         11    1    3    3    0    0 -0.58943938702E+01  0.21421671321E+01  0.12509319966E+01  0.63951223788E+01  0.51100000000E-03 0. -1.
        -11    1    3    3    0    0 -0.12071527622E+02  0.30325301874E+01  0.81386949945E+01  0.14871327276E+02  0.51100000000E-03 0.  1.
         12    1    3    3    0    0 -0.15217644339E+02  0.21667406335E+02 -0.15173154092E+01  0.26520849205E+02  0.00000000000E+00 0. -1.
</event>
<event>
 7    1  0.1265344E-009  0.4778727E+02  0.7816164E-02  0.1312668E+00
        -11   -1    0    0    0    0  0.00000000000E+00  0.00000000000E+00  0.45593999997E+02  0.45594000000E+02  0.51100000000E-03 0.  1.
         11   -1    0    0    0    0 -0.00000000000E+00 -0.00000000000E+00 -0.45593999997E+02  0.45594000000E+02  0.51100000000E-03 0. -1.
    9900012    2    1    2    0    0 -0.26214536551E+02  0.24503183893E+02  0.24413426685E+02  0.47787270168E+02  0.19999996002E+02 0.  0.
         12    1    1    2    0    0  0.26214536551E+02 -0.24503183893E+02 -0.24413426685E+02  0.43400729832E+02  0.00000000000E+00 0. -1.
         11    1    3    3    0    0  0.55339462771E+00 -0.94957917259E+00  0.53065321064E-01  0.11003464947E+01  0.51100000000E-03 0. -1.
        -11    1    3    3    0    0 -0.23481731316E+02  0.24287036572E+02  0.15506627405E+02  0.37171324227E+02  0.51100000000E-03 0.  1.
        -12    1    3    3    0    0 -0.32861998630E+01  0.11657264930E+01  0.88537339589E+01  0.95155994458E+01  0.00000000000E+00 0.  1.
</event>
<event>
 7    1  0.1265344E-009  0.4778727E+02  0.7816164E-02  0.1312668E+00
        -11   -1    0    0    0    0  0.00000000000E+00  0.00000000000E+00  0.45593999997E+02  0.45594000000E+02  0.51100000000E-03 0. -1.
         11   -1    0    0    0    0 -0.00000000000E+00 -0.00000000000E+00 -0.45593999997E+02  0.45594000000E+02  0.51100000000E-03 0.  1.
    9900012    2    1    2    0    0  0.17104471188E+02  0.20542382546E+02 -0.34191677315E+02  0.47787271747E+02  0.20000003203E+02 0.  0.
         12    1    1    2    0    0 -0.17104471188E+02 -0.20542382546E+02  0.34191677315E+02  0.43400728253E+02  0.00000000000E+00 0. -1.
         11    1    3    3    0    0  0.22288365594E+01 -0.62018763840E+00  0.66718498441E-01  0.23144754772E+01  0.51100000000E-03 0. -1.
        -11    1    3    3    0    0  0.17491102562E+02  0.18864156036E+02 -0.32831883556E+02  0.41710042315E+02  0.51100000000E-03 0.  1.
        -12    1    3    3    0    0 -0.26154679333E+01  0.22984141479E+01 -0.14265122575E+01  0.37627539550E+01  0.00000000000E+00 0.  1.
</event>
<event>
 7    1  0.1265344E-009  0.4778727E+02  0.7816164E-02  0.1312668E+00
        -11   -1    0    0    0    0  0.00000000000E+00  0.00000000000E+00  0.45593999997E+02  0.45594000000E+02  0.51100000000E-03 0.  1.
         11   -1    0    0    0    0 -0.00000000000E+00 -0.00000000000E+00 -0.45593999997E+02  0.45594000000E+02  0.51100000000E-03 0. -1.
    9900012    2    1    2    0    0  0.63301055549E+01 -0.42041468710E+02 -0.87217009746E+01  0.47787269643E+02  0.19999993611E+02 0.  0.
         12    1    1    2    0    0 -0.63301055549E+01  0.42041468710E+02  0.87217009746E+01  0.43400730357E+02  0.00000000000E+00 0. -1.
         11    1    3    3    0    0  0.40861314496E+01 -0.42150762848E+01 -0.46427838453E+01  0.74845694870E+01  0.51100000000E-03 0. -1.
        -11    1    3    3    0    0  0.25102654677E+01 -0.12770685794E+02  0.45712512646E+01  0.13794498424E+02  0.51100000000E-03 0.  1.
         12    1    3    3    0    0 -0.26629136238E+00 -0.25055706631E+02 -0.86501683939E+01  0.26508201733E+02  0.00000000000E+00 0. -1.
</event>
<event>
 7    1  0.1265344E-009  0.4778727E+02  0.7816164E-02  0.1312668E+00
        -11   -1    0    0    0    0  0.00000000000E+00  0.00000000000E+00  0.45593999997E+02  0.45594000000E+02  0.51100000000E-03 0.  1.
         11   -1    0    0    0    0 -0.00000000000E+00 -0.00000000000E+00 -0.45593999997E+02  0.45594000000E+02  0.51100000000E-03 0. -1.
    9900012    2    1    2    0    0  0.14140641657E+02  0.74613384289E+00  0.41025709548E+02  0.47787270673E+02  0.19999998306E+02 0.  0.
         12    1    1    2    0    0 -0.14140641657E+02 -0.74613384289E+00 -0.41025709548E+02  0.43400729327E+02  0.00000000000E+00 0. -1.
         11    1    3    3    0    0  0.60082495592E+01 -0.61222252829E+01  0.12364864683E+02  0.15048939633E+02  0.51100000000E-03 0. -1.
        -11    1    3    3    0    0  0.13416647262E+01  0.36190067158E+01  0.22994110393E+02  0.23315796938E+02  0.51100000000E-03 0.  1.
         12    1    3    3    0    0  0.67907273717E+01  0.32493524100E+01  0.56667344724E+01  0.94225341019E+01  0.00000000000E+00 0. -1.
</event>
<event>
 7    1  0.1311677E-009  0.4778727E+02  0.7816164E-02  0.1312668E+00
        -11   -1    0    0    0    0  0.00000000000E+00  0.00000000000E+00  0.45593999997E+02  0.45594000000E+02  0.51100000000E-03 0. -1.
         11   -1    0    0    0    0 -0.00000000000E+00 -0.00000000000E+00 -0.45593999997E+02  0.45594000000E+02  0.51100000000E-03 0.  1.
    9900012    2    1    2    0    0 -0.41808552866E+02 -0.45696702996E+01 -0.10713836008E+02  0.47787271188E+02  0.20000000654E+02 0.  0.
         12    1    1    2    0    0  0.41808552866E+02  0.45696702996E+01  0.10713836008E+02  0.43400728812E+02  0.00000000000E+00 0. -1.
         11    1    3    3    0    0 -0.58887843814E+01 -0.71177402655E+00 -0.66684918826E+01  0.89248634726E+01  0.51100000000E-03 0. -1.
        -11    1    3    3    0    0 -0.34190639634E+02 -0.23214055426E+01 -0.71335518118E+01  0.35003947263E+02  0.51100000000E-03 0.  1.
         12    1    3    3    0    0 -0.17291288503E+01 -0.15364907305E+01  0.30882076861E+01  0.38584604518E+01  0.00000000000E+00 0. -1.
</event>
<event>
 7    1  0.1265344E-009  0.4778728E+02  0.7816164E-02  0.1312668E+00
        -11   -1    0    0    0    0  0.00000000000E+00  0.00000000000E+00  0.45593999997E+02  0.45594000000E+02  0.51100000000E-03 0.  1.
         11   -1    0    0    0    0 -0.00000000000E+00 -0.00000000000E+00 -0.45593999997E+02  0.45594000000E+02  0.51100000000E-03 0. -1.
    9900012    2    1    2    0    0  0.41173338755E+02 -0.20776116032E+01  0.13566963499E+02  0.47787276587E+02  0.20000025272E+02 0.  0.
         12    1    1    2    0    0 -0.41173338755E+02  0.20776116032E+01 -0.13566963499E+02  0.43400723413E+02  0.00000000000E+00 0. -1.
         11    1    3    3    0    0  0.39033335741E+01 -0.62801741370E+01  0.47898868470E+01  0.88101995693E+01  0.51100000000E-03 0.  1.
        -11    1    3    3    0    0  0.34001843516E+02  0.32172842121E+01  0.95772037370E+01  0.35471102490E+02  0.51100000000E-03 0. -1.
         12    1    3    3    0    0  0.32681616642E+01  0.98527832180E+00 -0.80012708511E+00  0.35059745274E+01  0.00000000000E+00 0. -1.
</event>
<event>
 7    1  0.1265344E-009  0.4778729E+02  0.7816164E-02  0.1312668E+00
        -11   -1    0    0    0    0  0.00000000000E+00  0.00000000000E+00  0.45593999997E+02  0.45594000000E+02  0.51100000000E-03 0.  1.
         11   -1    0    0    0    0 -0.00000000000E+00 -0.00000000000E+00 -0.45593999997E+02  0.45594000000E+02  0.51100000000E-03 0. -1.
    9900012    2    1    2    0    0 -0.42370552816E+02  0.82844772026E+01 -0.44413421690E+01  0.47787287694E+02  0.20000075911E+02 0.  0.
         12    1    1    2    0    0  0.42370552816E+02 -0.82844772026E+01  0.44413421690E+01  0.43400712306E+02  0.00000000000E+00 0. -1.
         11    1    3    3    0    0 -0.30064213814E+02  0.64718334352E+01  0.42287090820E+01  0.31042286659E+02  0.51100000000E-03 0. -1.
        -11    1    3    3    0    0 -0.86562284799E+01  0.43740410772E+01 -0.47122085880E+01  0.10782737912E+02  0.51100000000E-03 0.  1.
         12    1    3    3    0    0 -0.36501105220E+01 -0.25613973098E+01 -0.39578426630E+01  0.59622631229E+01  0.00000000000E+00 0. -1.
</event>
<event>
 7    1  0.1265344E-009  0.4778726E+02  0.7816164E-02  0.1312668E+00
        -11   -1    0    0    0    0  0.00000000000E+00  0.00000000000E+00  0.45593999997E+02  0.45594000000E+02  0.51100000000E-03 0.  1.
         11   -1    0    0    0    0 -0.00000000000E+00 -0.00000000000E+00 -0.45593999997E+02  0.45594000000E+02  0.51100000000E-03 0. -1.
    9900012    2    1    2    0    0 -0.25030560092E+02  0.24090855775E+02 -0.26013951032E+02  0.47787263615E+02  0.19999966126E+02 0.  0.
         12    1    1    2    0    0  0.25030560092E+02 -0.24090855775E+02  0.26013951032E+02  0.43400736385E+02  0.00000000000E+00 0. -1.
         11    1    3    3    0    0 -0.10202630794E+02  0.91900152058E+01 -0.54391549979E+01  0.14769375814E+02  0.51100000000E-03 0. -1.
        -11    1    3    3    0    0 -0.12922781423E+02  0.10462700381E+02 -0.60213843581E+01  0.17683988487E+02  0.51100000000E-03 0.  1.
         12    1    3    3    0    0 -0.19051478754E+01  0.44381401884E+01 -0.14553411676E+02  0.15333899314E+02  0.00000000000E+00 0. -1.
</event>
<event>
 7    1  0.1265344E-009  0.4778727E+02  0.7816164E-02  0.1312668E+00
        -11   -1    0    0    0    0  0.00000000000E+00  0.00000000000E+00  0.45593999997E+02  0.45594000000E+02  0.51100000000E-03 0.  1.
         11   -1    0    0    0    0 -0.00000000000E+00 -0.00000000000E+00 -0.45593999997E+02  0.45594000000E+02  0.51100000000E-03 0. -1.
    9900012    2    1    2    0    0  0.14825692017E+02 -0.40758485529E+02 -0.16024877884E+01  0.47787271279E+02  0.20000001069E+02 0.  0.
         12    1    1    2    0    0 -0.14825692017E+02  0.40758485529E+02  0.16024877884E+01  0.43400728721E+02  0.00000000000E+00 0. -1.
         11    1    3    3    0    0  0.88005316859E+01 -0.19481277701E+02  0.53699549376E+01  0.22041006218E+02  0.51100000000E-03 0. -1.
        -11    1    3    3    0    0  0.65608480231E+01 -0.22458609688E+02 -0.60883978531E+01  0.24176485778E+02  0.51100000000E-03 0.  1.
         12    1    3    3    0    0 -0.53568769202E+00  0.11814018602E+01 -0.88404487280E+00  0.15697792825E+01  0.00000000000E+00 0. -1.
</event>
<event>
 7    1  0.1265344E-009  0.4778727E+02  0.7816164E-02  0.1312668E+00
        -11   -1    0    0    0    0  0.00000000000E+00  0.00000000000E+00  0.45593999997E+02  0.45594000000E+02  0.51100000000E-03 0.  1.
         11   -1    0    0    0    0 -0.00000000000E+00 -0.00000000000E+00 -0.45593999997E+02  0.45594000000E+02  0.51100000000E-03 0. -1.
    9900012    2    1    2    0    0 -0.36777216400E+02  0.47784593447E+01  0.22543869455E+02  0.47787269939E+02  0.19999994958E+02 0.  0.
         12    1    1    2    0    0  0.36777216400E+02 -0.47784593447E+01 -0.22543869455E+02  0.43400730061E+02  0.00000000000E+00 0. -1.
         11    1    3    3    0    0 -0.52370583972E+01 -0.13275156827E+01 -0.16617310694E+01  0.56524710483E+01  0.51100000000E-03 0. -1.
        -11    1    3    3    0    0 -0.23285599634E+02 -0.13944640806E+01  0.15960831196E+02  0.28265028093E+02  0.51100000000E-03 0.  1.
         12    1    3    3    0    0 -0.82545583691E+01  0.75004391081E+01  0.82447693281E+01  0.13869770797E+02  0.00000000000E+00 0. -1.
</event>
<event>
 7    1  0.1265344E-009  0.4778727E+02  0.7816164E-02  0.1312668E+00
        -11   -1    0    0    0    0  0.00000000000E+00  0.00000000000E+00  0.45593999997E+02  0.45594000000E+02  0.51100000000E-03 0.  1.
         11   -1    0    0    0    0 -0.00000000000E+00 -0.00000000000E+00 -0.45593999997E+02  0.45594000000E+02  0.51100000000E-03 0. -1.
    9900012    2    1    2    0    0 -0.34960214743E+02 -0.15838773334E+02  0.20261792699E+02  0.47787267299E+02  0.19999982923E+02 0.  0.
         12    1    1    2    0    0  0.34960214743E+02  0.15838773334E+02 -0.20261792699E+02  0.43400732701E+02  0.00000000000E+00 0. -1.
         11    1    3    3    0    0 -0.11050546243E+02 -0.81749630665E+01  0.23349020433E+01  0.13942609555E+02  0.51100000000E-03 0. -1.
        -11    1    3    3    0    0 -0.21276452232E+02 -0.72346451070E+01  0.84656902057E+01  0.24014483553E+02  0.51100000000E-03 0.  1.
         12    1    3    3    0    0 -0.26332162684E+01 -0.42916516006E+00  0.94612004505E+01  0.98301741904E+01  0.00000000000E+00 0. -1.
</event>
<event>
 7    1  0.1265344E-009  0.4778727E+02  0.7816164E-02  0.1312668E+00
        -11   -1    0    0    0    0  0.00000000000E+00  0.00000000000E+00  0.45593999997E+02  0.45594000000E+02  0.51100000000E-03 0.  1.
         11   -1    0    0    0    0 -0.00000000000E+00 -0.00000000000E+00 -0.45593999997E+02  0.45594000000E+02  0.51100000000E-03 0. -1.
    9900012    2    1    2    0    0  0.10301122929E+02 -0.40879985736E+02  0.10311994266E+02  0.47787267366E+02  0.19999983230E+02 0.  0.
         12    1    1    2    0    0 -0.10301122929E+02  0.40879985736E+02 -0.10311994266E+02  0.43400732634E+02  0.00000000000E+00 0. -1.
         11    1    3    3    0    0  0.83067569565E+01 -0.35806601462E+02  0.12032779221E+02  0.38676901316E+02  0.51100000000E-03 0.  1.
        -11    1    3    3    0    0  0.12839903887E+01 -0.64469430755E+01 -0.28809546187E+01  0.71771586379E+01  0.51100000000E-03 0. -1.
        -12    1    3    3    0    0  0.71037558381E+00  0.13735588012E+01  0.11601696635E+01  0.19332074122E+01  0.00000000000E+00 0.  1.
</event>
<event>
 7    1  0.1364548E-009  0.4778727E+02  0.7816164E-02  0.1312668E+00
        -11   -1    0    0    0    0  0.00000000000E+00  0.00000000000E+00  0.45593999997E+02  0.45594000000E+02  0.51100000000E-03 0. -1.
         11   -1    0    0    0    0 -0.00000000000E+00 -0.00000000000E+00 -0.45593999997E+02  0.45594000000E+02  0.51100000000E-03 0.  1.
    9900012    2    1    2    0    0  0.29514262339E+02 -0.29364654237E+02 -0.12257596884E+02  0.47787270959E+02  0.19999999611E+02 0.  0.
         12    1    1    2    0    0 -0.29514262339E+02  0.29364654237E+02  0.12257596884E+02  0.43400729041E+02  0.00000000000E+00 0. -1.
         11    1    3    3    0    0  0.56320248806E+01 -0.75429643351E+01 -0.92723889996E+01  0.13213372516E+02  0.51100000000E-03 0. -1.
        -11    1    3    3    0    0  0.19514284337E+02 -0.12231175070E+02 -0.56299112949E+01  0.23708750246E+02  0.51100000000E-03 0.  1.
         12    1    3    3    0    0  0.43679531213E+01 -0.95905148324E+01  0.26447034104E+01  0.10865148197E+02  0.00000000000E+00 0. -1.
</event>
<event>
 7    1  0.1265344E-009  0.4778727E+02  0.7816164E-02  0.1312668E+00
        -11   -1    0    0    0    0  0.00000000000E+00  0.00000000000E+00  0.45593999997E+02  0.45594000000E+02  0.51100000000E-03 0.  1.
         11   -1    0    0    0    0 -0.00000000000E+00 -0.00000000000E+00 -0.45593999997E+02  0.45594000000E+02  0.51100000000E-03 0. -1.
    9900012    2    1    2    0    0 -0.30279837980E+02  0.31017635384E+02  0.21589136975E+01  0.47787271881E+02  0.20000003815E+02 0.  0.
         12    1    1    2    0    0  0.30279837980E+02 -0.31017635384E+02 -0.21589136975E+01  0.43400728119E+02  0.00000000000E+00 0. -1.
         11    1    3    3    0    0 -0.57771400935E+01  0.51112084914E+00 -0.21327152349E+01  0.61794066638E+01  0.51100000000E-03 0. -1.
        -11    1    3    3    0    0 -0.25232155675E+02  0.25509646955E+02  0.16728471208E+01  0.35919384537E+02  0.51100000000E-03 0.  1.
         12    1    3    3    0    0  0.72945778825E+00  0.49968675794E+01  0.26187818116E+01  0.56884806801E+01  0.00000000000E+00 0. -1.
</event>
<event>
 7    1  0.1265344E-009  0.4778727E+02  0.7816164E-02  0.1312668E+00
        -11   -1    0    0    0    0  0.00000000000E+00  0.00000000000E+00  0.45593999997E+02  0.45594000000E+02  0.51100000000E-03 0.  1.
         11   -1    0    0    0    0 -0.00000000000E+00 -0.00000000000E+00 -0.45593999997E+02  0.45594000000E+02  0.51100000000E-03 0. -1.
    9900012    2    1    2    0    0 -0.18766375797E+02  0.16859482810E+02  0.35315780773E+02  0.47787269674E+02  0.19999993753E+02 0.  0.
         12    1    1    2    0    0  0.18766375797E+02 -0.16859482810E+02 -0.35315780773E+02  0.43400730326E+02  0.00000000000E+00 0. -1.
         11    1    3    3    0    0 -0.88316376957E+01  0.80621938418E+01  0.93837787891E+01  0.15200397974E+02  0.51100000000E-03 0. -1.
        -11    1    3    3    0    0 -0.12325317293E+02  0.10966965044E+02  0.21345828094E+02  0.26978364405E+02  0.51100000000E-03 0.  1.
         12    1    3    3    0    0  0.23905791918E+01 -0.21696760755E+01  0.45861738896E+01  0.56085072961E+01  0.00000000000E+00 0. -1.
</event>
<event>
 7    1  0.1265344E-009  0.4778727E+02  0.7816164E-02  0.1312668E+00
        -11   -1    0    0    0    0  0.00000000000E+00  0.00000000000E+00  0.45593999997E+02  0.45594000000E+02  0.51100000000E-03 0. -1.
         11   -1    0    0    0    0 -0.00000000000E+00 -0.00000000000E+00 -0.45593999997E+02  0.45594000000E+02  0.51100000000E-03 0.  1.
    9900012    2    1    2    0    0 -0.29280811035E+02 -0.12122992221E+02 -0.29652837822E+02  0.47787266986E+02  0.19999981495E+02 0.  0.
         12    1    1    2    0    0  0.29280811035E+02  0.12122992221E+02  0.29652837822E+02  0.43400733014E+02  0.00000000000E+00 0. -1.
         11    1    3    3    0    0 -0.80208240182E+00  0.22711849777E+01 -0.70005995676E+01  0.74033784146E+01  0.51100000000E-03 0. -1.
        -11    1    3    3    0    0 -0.77927158945E+00  0.13374151552E+01 -0.70912810032E+00  0.17025881567E+01  0.51100000000E-03 0.  1.
        -12    1    3    3    0    0 -0.27699457043E+02 -0.15731592354E+02 -0.21943110154E+02  0.38681300414E+02  0.00000000000E+00 0.  1.
</event>
<event>
 7    1  0.1265344E-009  0.4778727E+02  0.7816164E-02  0.1312668E+00
        -11   -1    0    0    0    0  0.00000000000E+00  0.00000000000E+00  0.45593999997E+02  0.45594000000E+02  0.51100000000E-03 0.  1.
         11   -1    0    0    0    0 -0.00000000000E+00 -0.00000000000E+00 -0.45593999997E+02  0.45594000000E+02  0.51100000000E-03 0. -1.
    9900012    2    1    2    0    0  0.11721375674E+02  0.65699821008E+00  0.41782779814E+02  0.47787274391E+02  0.20000015260E+02 0.  0.
         12    1    1    2    0    0 -0.11721375674E+02 -0.65699821008E+00 -0.41782779814E+02  0.43400725609E+02  0.00000000000E+00 0. -1.
         11    1    3    3    0    0  0.53955808052E+01 -0.37759892421E+00  0.16591165430E+02  0.17450548523E+02  0.51100000000E-03 0.  1.
        -11    1    3    3    0    0 -0.50560388811E+01 -0.79272405661E+00  0.54525388681E+01  0.74781094514E+01  0.51100000000E-03 0. -1.
         12    1    3    3    0    0  0.11381833750E+02  0.18273211909E+01  0.19739075517E+02  0.22858616417E+02  0.00000000000E+00 0. -1.
</event>
<event>
 7    1  0.1265344E-009  0.4778728E+02  0.7816164E-02  0.1312668E+00
        -11   -1    0    0    0    0  0.00000000000E+00  0.00000000000E+00  0.45593999997E+02  0.45594000000E+02  0.51100000000E-03 0. -1.
         11   -1    0    0    0    0 -0.00000000000E+00 -0.00000000000E+00 -0.45593999997E+02  0.45594000000E+02  0.51100000000E-03 0.  1.
    9900012    2    1    2    0    0 -0.45406321552E+01 -0.30580380619E+02 -0.30460559592E+02  0.47787277543E+02  0.20000029628E+02 0.  0.
         12    1    1    2    0    0  0.45406321552E+01  0.30580380619E+02  0.30460559592E+02  0.43400722457E+02  0.00000000000E+00 0. -1.
         11    1    3    3    0    0 -0.35196927686E+01 -0.74108005409E+00 -0.29885323909E+01  0.46764049167E+01  0.51100000000E-03 0.  1.
        -11    1    3    3    0    0  0.18788811143E+01 -0.25683819339E+02 -0.15369064212E+02  0.29989946733E+02  0.51100000000E-03 0. -1.
         12    1    3    3    0    0 -0.28998205009E+01 -0.41554812261E+01 -0.12102962989E+02  0.13120925893E+02  0.00000000000E+00 0. -1.
</event>
<event>
 7    1  0.1265344E-009  0.4778728E+02  0.7816164E-02  0.1312668E+00
        -11   -1    0    0    0    0  0.00000000000E+00  0.00000000000E+00  0.45593999997E+02  0.45594000000E+02  0.51100000000E-03 0. -1.
         11   -1    0    0    0    0 -0.00000000000E+00 -0.00000000000E+00 -0.45593999997E+02  0.45594000000E+02  0.51100000000E-03 0.  1.
    9900012    2    1    2    0    0  0.21727986966E+02  0.32225046394E+02 -0.19314855877E+02  0.47787277769E+02  0.20000030658E+02 0.  0.
         12    1    1    2    0    0 -0.21727986966E+02 -0.32225046394E+02  0.19314855877E+02  0.43400722231E+02  0.00000000000E+00 0. -1.
         11    1    3    3    0    0  0.13910516012E+02  0.86815683484E+01 -0.51196749378E+01  0.17177984644E+02  0.51100000000E-03 0. -1.
        -11    1    3    3    0    0  0.34686980234E+01  0.10991041753E+02 -0.50980747723E+00  0.11536670608E+02  0.51100000000E-03 0.  1.
         12    1    3    3    0    0  0.43487729308E+01  0.12552436293E+02 -0.13685373462E+02  0.19072622517E+02  0.00000000000E+00 0. -1.
</event>
<event>
 7    1  0.1265344E-009  0.4778728E+02  0.7816164E-02  0.1312668E+00
        -11   -1    0    0    0    0  0.00000000000E+00  0.00000000000E+00  0.45593999997E+02  0.45594000000E+02  0.51100000000E-03 0.  1.
         11   -1    0    0    0    0 -0.00000000000E+00 -0.00000000000E+00 -0.45593999997E+02  0.45594000000E+02  0.51100000000E-03 0. -1.
    9900012    2    1    2    0    0 -0.35930057664E+02 -0.91091434225E+01  0.22576034814E+02  0.47787275518E+02  0.20000020396E+02 0.  0.
         12    1    1    2    0    0  0.35930057664E+02  0.91091434225E+01 -0.22576034814E+02  0.43400724482E+02  0.00000000000E+00 0. -1.
         11    1    3    3    0    0 -0.22465503489E+02  0.10727373611E+01  0.67603183726E+01  0.23485133962E+02  0.51100000000E-03 0. -1.
        -11    1    3    3    0    0 -0.76237184382E+01 -0.11743481931E+01  0.64218459832E+01  0.10036945880E+02  0.51100000000E-03 0.  1.
         12    1    3    3    0    0 -0.58408357373E+01 -0.90075325905E+01  0.93938704585E+01  0.14265195676E+02  0.00000000000E+00 0. -1.
</event>
<event>
 7    1  0.1265344E-009  0.4778729E+02  0.7816164E-02  0.1312668E+00
        -11   -1    0    0    0    0  0.00000000000E+00  0.00000000000E+00  0.45593999997E+02  0.45594000000E+02  0.51100000000E-03 0. -1.
         11   -1    0    0    0    0 -0.00000000000E+00 -0.00000000000E+00 -0.45593999997E+02  0.45594000000E+02  0.51100000000E-03 0.  1.
    9900012    2    1    2    0    0  0.21364481722E+02  0.37704623481E+02 -0.23542090729E+01  0.47787285589E+02  0.20000066313E+02 0.  0.
         12    1    1    2    0    0 -0.21364481722E+02 -0.37704623481E+02  0.23542090729E+01  0.43400714411E+02  0.00000000000E+00 0. -1.
         11    1    3    3    0    0  0.68759193058E+01  0.18936160147E+02 -0.99826244720E+01  0.22483532174E+02  0.51100000000E-03 0.  1.
        -11    1    3    3    0    0  0.72301897812E+00 -0.79857313533E-01 -0.60711888809E-01  0.72994508548E+00  0.51100000000E-03 0. -1.
        -12    1    3    3    0    0  0.13765543438E+02  0.18848320647E+02  0.76891272879E+01  0.24573808329E+02  0.00000000000E+00 0.  1.
</event>
<event>
 7    1  0.1265344E-009  0.4778727E+02  0.7816164E-02  0.1312668E+00
        -11   -1    0    0    0    0  0.00000000000E+00  0.00000000000E+00  0.45593999997E+02  0.45594000000E+02  0.51100000000E-03 0.  1.
         11   -1    0    0    0    0 -0.00000000000E+00 -0.00000000000E+00 -0.45593999997E+02  0.45594000000E+02  0.51100000000E-03 0. -1.
    9900012    2    1    2    0    0 -0.27014854548E+02  0.71521643297E+01  0.33206436283E+02  0.47787271533E+02  0.20000002227E+02 0.  0.
         12    1    1    2    0    0  0.27014854548E+02 -0.71521643297E+01 -0.33206436283E+02  0.43400728467E+02  0.00000000000E+00 0. -1.
         11    1    3    3    0    0 -0.13324819940E+02 -0.46421314323E+01  0.13641676934E+02  0.19626399581E+02  0.51100000000E-03 0. -1.
        -11    1    3    3    0    0 -0.13046831143E+00  0.31651380778E+01  0.72535849370E+01  0.79151510239E+01  0.51100000000E-03 0.  1.
        -12    1    3    3    0    0 -0.13559566296E+02  0.86291576842E+01  0.12311174412E+02  0.20245720928E+02  0.00000000000E+00 0.  1.
</event>
<event>
 7    1  0.1265344E-009  0.4778727E+02  0.7816164E-02  0.1312668E+00
        -11   -1    0    0    0    0  0.00000000000E+00  0.00000000000E+00  0.45593999997E+02  0.45594000000E+02  0.51100000000E-03 0. -1.
         11   -1    0    0    0    0 -0.00000000000E+00 -0.00000000000E+00 -0.45593999997E+02  0.45594000000E+02  0.51100000000E-03 0.  1.
    9900012    2    1    2    0    0  0.34254317154E+02  0.13815878967E+01 -0.26614965381E+02  0.47787269464E+02  0.19999992796E+02 0.  0.
         12    1    1    2    0    0 -0.34254317154E+02 -0.13815878967E+01  0.26614965381E+02  0.43400730536E+02  0.00000000000E+00 0. -1.
         11    1    3    3    0    0  0.12988815418E+02 -0.11225707232E+01 -0.33755820831E+01  0.13467146901E+02  0.51100000000E-03 0. -1.
        -11    1    3    3    0    0  0.93678161437E+00 -0.13580020997E+01 -0.91236973187E+01  0.92716547887E+01  0.51100000000E-03 0.  1.
         12    1    3    3    0    0  0.20328720122E+02  0.38621607196E+01 -0.14115685979E+02  0.25048467775E+02  0.00000000000E+00 0. -1.
</event>
<event>
 7    1  0.1265344E-009  0.4778727E+02  0.7816164E-02  0.1312668E+00
        -11   -1    0    0    0    0  0.00000000000E+00  0.00000000000E+00  0.45593999997E+02  0.45594000000E+02  0.51100000000E-03 0.  1.
         11   -1    0    0    0    0 -0.00000000000E+00 -0.00000000000E+00 -0.45593999997E+02  0.45594000000E+02  0.51100000000E-03 0. -1.
    9900012    2    1    2    0    0 -0.25882318296E+02  0.16680282986E+02  0.30585895104E+02  0.47787271663E+02  0.20000002821E+02 0.  0.
         12    1    1    2    0    0  0.25882318296E+02 -0.16680282986E+02 -0.30585895104E+02  0.43400728337E+02  0.00000000000E+00 0. -1.
         11    1    3    3    0    0 -0.10064307021E+02  0.80501811085E+01  0.40774745675E+01  0.13517451343E+02  0.51100000000E-03 0. -1.
        -11    1    3    3    0    0 -0.60247155413E+01 -0.28199083139E+01  0.80335368434E+01  0.10430090830E+02  0.51100000000E-03 0.  1.
        -12    1    3    3    0    0 -0.97932957340E+01  0.11450010191E+02  0.18474883693E+02  0.23839729490E+02  0.00000000000E+00 0.  1.
</event>
<event>
 7    1  0.1265344E-009  0.4778727E+02  0.7816164E-02  0.1312668E+00
        -11   -1    0    0    0    0  0.00000000000E+00  0.00000000000E+00  0.45593999997E+02  0.45594000000E+02  0.51100000000E-03 0.  1.
         11   -1    0    0    0    0 -0.00000000000E+00 -0.00000000000E+00 -0.45593999997E+02  0.45594000000E+02  0.51100000000E-03 0. -1.
    9900012    2    1    2    0    0  0.25426888300E+02  0.58442162774E+01  0.34683457056E+02  0.47787266068E+02  0.19999977310E+02 0.  0.
         12    1    1    2    0    0 -0.25426888300E+02 -0.58442162774E+01 -0.34683457056E+02  0.43400733932E+02  0.00000000000E+00 0. -1.
         11    1    3    3    0    0  0.92381222472E-01  0.21868798004E+01 -0.10215998284E+01  0.24155007808E+01  0.51100000000E-03 0. -1.
        -11    1    3    3    0    0  0.17049017174E+02  0.74341633801E+01  0.20777712095E+02  0.27886360321E+02  0.51100000000E-03 0.  1.
         12    1    3    3    0    0  0.82854899028E+01 -0.37768269031E+01  0.14927344789E+02  0.17485404966E+02  0.00000000000E+00 0. -1.
</event>
<event>
 7    1  0.1265344E-009  0.4778727E+02  0.7816164E-02  0.1312668E+00
        -11   -1    0    0    0    0  0.00000000000E+00  0.00000000000E+00  0.45593999997E+02  0.45594000000E+02  0.51100000000E-03 0.  1.
         11   -1    0    0    0    0 -0.00000000000E+00 -0.00000000000E+00 -0.45593999997E+02  0.45594000000E+02  0.51100000000E-03 0. -1.
    9900012    2    1    2    0    0  0.87011153999E+01 -0.27390790438E+02  0.32521661388E+02  0.47787271096E+02  0.20000000233E+02 0.  0.
         12    1    1    2    0    0 -0.87011153999E+01  0.27390790438E+02 -0.32521661388E+02  0.43400728904E+02  0.00000000000E+00 0. -1.
         11    1    3    3    0    0  0.28402281861E+01  0.31247114216E+00  0.14738673617E+01  0.32150924753E+01  0.51100000000E-03 0. -1.
        -11    1    3    3    0    0  0.82096936131E+01 -0.94712096561E+01  0.18381533518E+02  0.22248228161E+02  0.51100000000E-03 0.  1.
         12    1    3    3    0    0 -0.23488063992E+01 -0.18232051924E+02  0.12666260509E+02  0.22323950460E+02  0.00000000000E+00 0. -1.
</event>
<event>
 7    1  0.1265344E-009  0.4778727E+02  0.7816164E-02  0.1312668E+00
        -11   -1    0    0    0    0  0.00000000000E+00  0.00000000000E+00  0.45593999997E+02  0.45594000000E+02  0.51100000000E-03 0.  1.
         11   -1    0    0    0    0 -0.00000000000E+00 -0.00000000000E+00 -0.45593999997E+02  0.45594000000E+02  0.51100000000E-03 0. -1.
    9900012    2    1    2    0    0  0.21420590662E+02  0.14242774725E+02  0.34956043915E+02  0.47787270255E+02  0.19999996402E+02 0.  0.
         12    1    1    2    0    0 -0.21420590662E+02 -0.14242774725E+02 -0.34956043915E+02  0.43400729745E+02  0.00000000000E+00 0. -1.
         11    1    3    3    0    0  0.17480120241E+01  0.52527491611E+01  0.31059745472E+01  0.63477553462E+01  0.51100000000E-03 0. -1.
        -11    1    3    3    0    0  0.72074144052E+01 -0.65016209818E-01  0.22005699164E+02  0.23156032593E+02  0.51100000000E-03 0.  1.
         12    1    3    3    0    0  0.12465164233E+02  0.90550417732E+01  0.98443702039E+01  0.18283482316E+02  0.00000000000E+00 0. -1.
</event>
<event>
 7    1  0.1265344E-009  0.4778725E+02  0.7816164E-02  0.1312668E+00
        -11   -1    0    0    0    0  0.00000000000E+00  0.00000000000E+00  0.45593999997E+02  0.45594000000E+02  0.51100000000E-03 0.  1.
         11   -1    0    0    0    0 -0.00000000000E+00 -0.00000000000E+00 -0.45593999997E+02  0.45594000000E+02  0.51100000000E-03 0. -1.
    9900012    2    1    2    0    0  0.18576159617E+02 -0.14836384177E+02  0.36310229255E+02  0.47787254038E+02  0.19999922459E+02 0.  0.
         12    1    1    2    0    0 -0.18576159617E+02  0.14836384177E+02 -0.36310229255E+02  0.43400745962E+02  0.00000000000E+00 0. -1.
         11    1    3    3    0    0  0.70965698202E+01 -0.28486266238E+01  0.23665850959E+02  0.24870634868E+02  0.51100000000E-03 0. -1.
        -11    1    3    3    0    0  0.11439964004E+02 -0.75258050722E+01  0.12357945904E+02  0.18445306873E+02  0.51100000000E-03 0.  1.
         12    1    3    3    0    0  0.39625792902E-01 -0.44619524806E+01  0.28643239165E+00  0.44713122971E+01  0.00000000000E+00 0. -1.
</event>
<event>
 7    1  0.1265344E-009  0.4778728E+02  0.7816164E-02  0.1312668E+00
        -11   -1    0    0    0    0  0.00000000000E+00  0.00000000000E+00  0.45593999997E+02  0.45594000000E+02  0.51100000000E-03 0.  1.
         11   -1    0    0    0    0 -0.00000000000E+00 -0.00000000000E+00 -0.45593999997E+02  0.45594000000E+02  0.51100000000E-03 0. -1.
    9900012    2    1    2    0    0 -0.20241797344E+02  0.33205457369E+02  0.19268884307E+02  0.47787278102E+02  0.20000032180E+02 0.  0.
         12    1    1    2    0    0  0.20241797344E+02 -0.33205457369E+02 -0.19268884307E+02  0.43400721898E+02  0.00000000000E+00 0. -1.
         11    1    3    3    0    0 -0.15339200720E+02  0.11650540132E+02  0.27568553181E+01  0.19458325097E+02  0.51100000000E-03 0. -1.
        -11    1    3    3    0    0 -0.37910022763E+01  0.13216666514E+02  0.63733174161E+01  0.15154905052E+02  0.51100000000E-03 0.  1.
         12    1    3    3    0    0 -0.11115943481E+01  0.83382507234E+01  0.10138711572E+02  0.13174047953E+02  0.00000000000E+00 0. -1.
</event>
<event>
 7    1  0.1265344E-009  0.4778726E+02  0.7816164E-02  0.1312668E+00
        -11   -1    0    0    0    0  0.00000000000E+00  0.00000000000E+00  0.45593999997E+02  0.45594000000E+02  0.51100000000E-03 0.  1.
         11   -1    0    0    0    0 -0.00000000000E+00 -0.00000000000E+00 -0.45593999997E+02  0.45594000000E+02  0.51100000000E-03 0. -1.
    9900012    2    1    2    0    0  0.25986765745E+02  0.99060706553E+01  0.33319397472E+02  0.47787257177E+02  0.19999936773E+02 0.  0.
         12    1    1    2    0    0 -0.25986765745E+02 -0.99060706553E+01 -0.33319397472E+02  0.43400742823E+02  0.00000000000E+00 0. -1.
         11    1    3    3    0    0 -0.14496169926E+01  0.21688683927E+00  0.44425076823E+01  0.46780662773E+01  0.51100000000E-03 0. -1.
        -11    1    3    3    0    0  0.20119275233E+02  0.11720227068E+02  0.26214885608E+02  0.35062361388E+02  0.51100000000E-03 0.  1.
         12    1    3    3    0    0  0.73171075046E+01 -0.20310432522E+01  0.26620041813E+01  0.80468295116E+01  0.00000000000E+00 0. -1.
</event>
<event>
 7    1  0.1841203E-009  0.4778727E+02  0.7816164E-02  0.1312668E+00
        -11   -1    0    0    0    0  0.00000000000E+00  0.00000000000E+00  0.45593999997E+02  0.45594000000E+02  0.51100000000E-03 0.  1.
         11   -1    0    0    0    0 -0.00000000000E+00 -0.00000000000E+00 -0.45593999997E+02  0.45594000000E+02  0.51100000000E-03 0. -1.
    9900012    2    1    2    0    0  0.11086976463E+02  0.64734305442E+01  0.41458376481E+02  0.47787270391E+02  0.19999997022E+02 0.  0.
         12    1    1    2    0    0 -0.11086976463E+02 -0.64734305442E+01 -0.41458376481E+02  0.43400729609E+02  0.00000000000E+00 0. -1.
         11    1    3    3    0    0  0.60197486976E+01  0.36503981452E+01  0.26178738141E+01  0.75110614808E+01  0.51100000000E-03 0. -1.
        -11    1    3    3    0    0  0.25479742606E+01  0.58363040697E+01  0.18651551398E+02  0.19708754091E+02  0.51100000000E-03 0.  1.
         12    1    3    3    0    0  0.25192535053E+01 -0.30132716707E+01  0.20188951269E+02  0.20567454819E+02  0.00000000000E+00 0. -1.
</event>
<event>
 7    1  0.1265344E-009  0.4778727E+02  0.7816164E-02  0.1312668E+00
        -11   -1    0    0    0    0  0.00000000000E+00  0.00000000000E+00  0.45593999997E+02  0.45594000000E+02  0.51100000000E-03 0.  1.
         11   -1    0    0    0    0 -0.00000000000E+00 -0.00000000000E+00 -0.45593999997E+02  0.45594000000E+02  0.51100000000E-03 0. -1.
    9900012    2    1    2    0    0  0.72561277533E+01  0.12322800056E+02  0.40977072461E+02  0.47787271220E+02  0.20000000801E+02 0.  0.
         12    1    1    2    0    0 -0.72561277533E+01 -0.12322800056E+02 -0.40977072461E+02  0.43400728780E+02  0.00000000000E+00 0. -1.
         11    1    3    3    0    0  0.78372792646E+00  0.39692224869E+01  0.16803993821E+02  0.17284188301E+02  0.51100000000E-03 0. -1.
        -11    1    3    3    0    0  0.25490661390E+01 -0.33886763489E+00  0.19878092243E+02  0.20043730215E+02  0.51100000000E-03 0.  1.
         12    1    3    3    0    0  0.39233336879E+01  0.86924452040E+01  0.42949863968E+01  0.10459352705E+02  0.00000000000E+00 0. -1.
</event>
<event>
 7    1  0.1265344E-009  0.4778727E+02  0.7816164E-02  0.1312668E+00
        -11   -1    0    0    0    0  0.00000000000E+00  0.00000000000E+00  0.45593999997E+02  0.45594000000E+02  0.51100000000E-03 0.  1.
         11   -1    0    0    0    0 -0.00000000000E+00 -0.00000000000E+00 -0.45593999997E+02  0.45594000000E+02  0.51100000000E-03 0. -1.
    9900012    2    1    2    0    0 -0.56469015052E+01  0.69998814633E+01  0.42458654329E+02  0.47787272304E+02  0.20000005742E+02 0.  0.
         12    1    1    2    0    0  0.56469015052E+01 -0.69998814633E+01 -0.42458654329E+02  0.43400727696E+02  0.00000000000E+00 0. -1.
         11    1    3    3    0    0  0.18984717959E+01  0.21577414045E+00  0.43474331863E-01  0.19111891372E+01  0.51100000000E-03 0. -1.
        -11    1    3    3    0    0 -0.11504444095E+02  0.27856343043E+01  0.27797522432E+02  0.30212815923E+02  0.51100000000E-03 0.  1.
         12    1    3    3    0    0  0.39590707942E+01  0.39984730185E+01  0.14617657566E+02  0.15663267243E+02  0.00000000000E+00 0. -1.
</event>
<event>
 7    1  0.1265344E-009  0.4778727E+02  0.7816164E-02  0.1312668E+00
        -11   -1    0    0    0    0  0.00000000000E+00  0.00000000000E+00  0.45593999997E+02  0.45594000000E+02  0.51100000000E-03 0.  1.
         11   -1    0    0    0    0 -0.00000000000E+00 -0.00000000000E+00 -0.45593999997E+02  0.45594000000E+02  0.51100000000E-03 0. -1.
    9900012    2    1    2    0    0  0.48294664373E+01  0.12373590906E+02  0.41318201903E+02  0.47787270669E+02  0.19999998288E+02 0.  0.
         12    1    1    2    0    0 -0.48294664373E+01 -0.12373590906E+02 -0.41318201903E+02  0.43400729331E+02  0.00000000000E+00 0. -1.
         11    1    3    3    0    0 -0.37998245859E+01  0.51521799325E+01  0.32898066858E+02  0.33515167137E+02  0.51100000000E-03 0. -1.
        -11    1    3    3    0    0  0.31296415814E+01  0.11806997868E+01  0.27114811977E+01  0.43059074492E+01  0.51100000000E-03 0.  1.
         12    1    3    3    0    0  0.54996494417E+01  0.60407111863E+01  0.57086538473E+01  0.99661960831E+01  0.00000000000E+00 0. -1.
</event>
<event>
 7    1  0.1265344E-009  0.4778728E+02  0.7816164E-02  0.1312668E+00
        -11   -1    0    0    0    0  0.00000000000E+00  0.00000000000E+00  0.45593999997E+02  0.45594000000E+02  0.51100000000E-03 0. -1.
         11   -1    0    0    0    0 -0.00000000000E+00 -0.00000000000E+00 -0.45593999997E+02  0.45594000000E+02  0.51100000000E-03 0.  1.
    9900012    2    1    2    0    0  0.87063346818E+00  0.20439860991E+02 -0.38276323150E+02  0.47787276113E+02  0.20000023112E+02 0.  0.
         12    1    1    2    0    0 -0.87063346818E+00 -0.20439860991E+02  0.38276323150E+02  0.43400723887E+02  0.00000000000E+00 0. -1.
         11    1    3    3    0    0  0.66312593190E+01  0.59243861040E+01 -0.35781145340E+01  0.95851371792E+01  0.51100000000E-03 0. -1.
        -11    1    3    3    0    0 -0.50222316783E+00  0.54234485108E+01 -0.13028848633E+02  0.14121505543E+02  0.51100000000E-03 0.  1.
        -12    1    3    3    0    0 -0.52584026830E+01  0.90920263763E+01 -0.21669359984E+02  0.24080633391E+02  0.00000000000E+00 0.  1.
</event>
<event>
 7    1  0.1265344E-009  0.4778727E+02  0.7816164E-02  0.1312668E+00
        -11   -1    0    0    0    0  0.00000000000E+00  0.00000000000E+00  0.45593999997E+02  0.45594000000E+02  0.51100000000E-03 0. -1.
         11   -1    0    0    0    0 -0.00000000000E+00 -0.00000000000E+00 -0.45593999997E+02  0.45594000000E+02  0.51100000000E-03 0.  1.
    9900012    2    1    2    0    0 -0.16994131477E+02  0.31221269116E+01 -0.39812998916E+02  0.47787273464E+02  0.20000011033E+02 0.  0.
         12    1    1    2    0    0  0.16994131477E+02 -0.31221269116E+01  0.39812998916E+02  0.43400726536E+02  0.00000000000E+00 0. -1.
         11    1    3    3    0    0 -0.11271873697E+02  0.40507775443E+01 -0.15654946841E+02  0.19711450891E+02  0.51100000000E-03 0. -1.
        -11    1    3    3    0    0 -0.32825562962E+00 -0.87658608917E+00  0.15484898032E+01  0.18094131264E+01  0.51100000000E-03 0.  1.
        -12    1    3    3    0    0 -0.53940021506E+01 -0.52064543525E-01 -0.25706541878E+02  0.26266409447E+02  0.00000000000E+00 0.  1.
</event>
<event>
 7    1  0.1265344E-009  0.4778727E+02  0.7816164E-02  0.1312668E+00
        -11   -1    0    0    0    0  0.00000000000E+00  0.00000000000E+00  0.45593999997E+02  0.45594000000E+02  0.51100000000E-03 0.  1.
         11   -1    0    0    0    0 -0.00000000000E+00 -0.00000000000E+00 -0.45593999997E+02  0.45594000000E+02  0.51100000000E-03 0. -1.
    9900012    2    1    2    0    0 -0.39641884272E+02 -0.14432670377E+02 -0.10190298929E+02  0.47787272413E+02  0.20000006240E+02 0.  0.
         12    1    1    2    0    0  0.39641884272E+02  0.14432670377E+02  0.10190298929E+02  0.43400727587E+02  0.00000000000E+00 0. -1.
         11    1    3    3    0    0 -0.19366079126E+02 -0.13355559046E+02 -0.10726731194E+02  0.25854955821E+02  0.51100000000E-03 0. -1.
        -11    1    3    3    0    0 -0.93758576571E+00  0.50369522635E+00  0.22146784210E+01  0.24571480865E+01  0.51100000000E-03 0.  1.
        -12    1    3    3    0    0 -0.19338219380E+02 -0.15808065575E+01 -0.16782461559E+01  0.19475168505E+02  0.00000000000E+00 0.  1.
</event>
<event>
 7    1  0.1265344E-009  0.4778727E+02  0.7816164E-02  0.1312668E+00
        -11   -1    0    0    0    0  0.00000000000E+00  0.00000000000E+00  0.45593999997E+02  0.45594000000E+02  0.51100000000E-03 0.  1.
         11   -1    0    0    0    0 -0.00000000000E+00 -0.00000000000E+00 -0.45593999997E+02  0.45594000000E+02  0.51100000000E-03 0. -1.
    9900012    2    1    2    0    0 -0.20288320584E+02 -0.34760864987E+02  0.16238526732E+02  0.47787269163E+02  0.19999991422E+02 0.  0.
         12    1    1    2    0    0  0.20288320584E+02  0.34760864987E+02 -0.16238526732E+02  0.43400730837E+02  0.00000000000E+00 0. -1.
         11    1    3    3    0    0 -0.46205841701E+01 -0.18476607693E+00 -0.64674933539E+00  0.46692849067E+01  0.51100000000E-03 0. -1.
        -11    1    3    3    0    0 -0.24362898248E+01 -0.13526858101E+02  0.10908385693E+02  0.17547201398E+02  0.51100000000E-03 0.  1.
        -12    1    3    3    0    0 -0.13231446589E+02 -0.21049240809E+02  0.59768903746E+01  0.25570782859E+02  0.00000000000E+00 0.  1.
</event>
<event>
 7    1  0.1265344E-009  0.4778727E+02  0.7816164E-02  0.1312668E+00
        -11   -1    0    0    0    0  0.00000000000E+00  0.00000000000E+00  0.45593999997E+02  0.45594000000E+02  0.51100000000E-03 0.  1.
         11   -1    0    0    0    0 -0.00000000000E+00 -0.00000000000E+00 -0.45593999997E+02  0.45594000000E+02  0.51100000000E-03 0. -1.
    9900012    2    1    2    0    0  0.14257888823E+02 -0.37792125723E+02  0.15877383722E+02  0.47787268736E+02  0.19999989475E+02 0.  0.
         12    1    1    2    0    0 -0.14257888823E+02  0.37792125723E+02 -0.15877383722E+02  0.43400731264E+02  0.00000000000E+00 0. -1.
         11    1    3    3    0    0 -0.20618856122E+01 -0.57579008160E+01  0.93181883203E+01  0.11146005021E+02  0.51100000000E-03 0. -1.
        -11    1    3    3    0    0  0.58206935071E+01 -0.10755025751E+02  0.34753837869E+01  0.12713353001E+02  0.51100000000E-03 0.  1.
         12    1    3    3    0    0  0.10499080928E+02 -0.21279199156E+02  0.30838116149E+01  0.23927910714E+02  0.00000000000E+00 0. -1.
</event>
<event>
 7    1  0.1265344E-009  0.4778727E+02  0.7816164E-02  0.1312668E+00
        -11   -1    0    0    0    0  0.00000000000E+00  0.00000000000E+00  0.45593999997E+02  0.45594000000E+02  0.51100000000E-03 0. -1.
         11   -1    0    0    0    0 -0.00000000000E+00 -0.00000000000E+00 -0.45593999997E+02  0.45594000000E+02  0.51100000000E-03 0.  1.
    9900012    2    1    2    0    0 -0.24894491425E+02  0.18106312023E+02 -0.30594920811E+02  0.47787269386E+02  0.19999992439E+02 0.  0.
         12    1    1    2    0    0  0.24894491425E+02 -0.18106312023E+02  0.30594920811E+02  0.43400730614E+02  0.00000000000E+00 0. -1.
         11    1    3    3    0    0 -0.95061353450E+01  0.91787843193E+01 -0.36122471356E+01  0.13699088306E+02  0.51100000000E-03 0. -1.
        -11    1    3    3    0    0 -0.11293785096E+02  0.11909272960E+01 -0.10706816427E+02  0.15607812399E+02  0.51100000000E-03 0.  1.
         12    1    3    3    0    0 -0.40945709831E+01  0.77366004079E+01 -0.16275857249E+02  0.18480368681E+02  0.00000000000E+00 0. -1.
</event>
<event>
 7    1  0.1265344E-009  0.4778727E+02  0.7816164E-02  0.1312668E+00
        -11   -1    0    0    0    0  0.00000000000E+00  0.00000000000E+00  0.45593999997E+02  0.45594000000E+02  0.51100000000E-03 0. -1.
         11   -1    0    0    0    0 -0.00000000000E+00 -0.00000000000E+00 -0.45593999997E+02  0.45594000000E+02  0.51100000000E-03 0.  1.
    9900012    2    1    2    0    0  0.36216539803E+02 -0.23234497101E+02 -0.56695242223E+01  0.47787272867E+02  0.20000008308E+02 0.  0.
         12    1    1    2    0    0 -0.36216539803E+02  0.23234497101E+02  0.56695242223E+01  0.43400727133E+02  0.00000000000E+00 0. -1.
         11    1    3    3    0    0  0.17283474670E+02 -0.67738936843E+01  0.12241111073E+01  0.18603832416E+02  0.51100000000E-03 0. -1.
        -11    1    3    3    0    0  0.16174837021E+02 -0.87539097621E+01  0.13832820895E+00  0.18392265324E+02  0.51100000000E-03 0.  1.
         12    1    3    3    0    0  0.27582281113E+01 -0.77066936543E+01 -0.70319635386E+01  0.10791175126E+02  0.00000000000E+00 0. -1.
</event>
<event>
 7    1  0.1265344E-009  0.4778727E+02  0.7816164E-02  0.1312668E+00
        -11   -1    0    0    0    0  0.00000000000E+00  0.00000000000E+00  0.45593999997E+02  0.45594000000E+02  0.51100000000E-03 0.  1.
         11   -1    0    0    0    0 -0.00000000000E+00 -0.00000000000E+00 -0.45593999997E+02  0.45594000000E+02  0.51100000000E-03 0. -1.
    9900012    2    1    2    0    0 -0.34544648088E+01  0.34008233122E+02  0.26741923588E+02  0.47787265854E+02  0.19999976336E+02 0.  0.
         12    1    1    2    0    0  0.34544648088E+01 -0.34008233122E+02 -0.26741923588E+02  0.43400734146E+02  0.00000000000E+00 0. -1.
         11    1    3    3    0    0 -0.12654383157E+00 -0.89878657464E+00 -0.12267734598E+01  0.15260419493E+01  0.51100000000E-03 0. -1.
        -11    1    3    3    0    0  0.36095525986E+01  0.20383555550E+02  0.14498628003E+02  0.25273077000E+02  0.51100000000E-03 0.  1.
        -12    1    3    3    0    0 -0.69374735758E+01  0.14523464147E+02  0.13470069045E+02  0.20988146905E+02  0.00000000000E+00 0.  1.
</event>
<event>
 7    1  0.1265344E-009  0.4778733E+02  0.7816164E-02  0.1312668E+00
        -11   -1    0    0    0    0  0.00000000000E+00  0.00000000000E+00  0.45593999997E+02  0.45594000000E+02  0.51100000000E-03 0. -1.
         11   -1    0    0    0    0 -0.00000000000E+00 -0.00000000000E+00 -0.45593999997E+02  0.45594000000E+02  0.51100000000E-03 0.  1.
    9900012    2    1    2    0    0 -0.16325294656E+02  0.40208709344E+02  0.60237492866E+00  0.47787327099E+02  0.20000255573E+02 0.  0.
         12    1    1    2    0    0  0.16325294656E+02 -0.40208709344E+02 -0.60237492866E+00  0.43400672901E+02  0.00000000000E+00 0. -1.
         11    1    3    3    0    0 -0.69592202212E+01  0.61291006972E+01  0.25231533445E+01  0.96105631731E+01  0.51100000000E-03 0. -1.
        -11    1    3    3    0    0  0.15792049515E+01  0.55757598774E+01 -0.47772949381E+01  0.75103617540E+01  0.51100000000E-03 0.  1.
        -12    1    3    3    0    0 -0.10945279386E+02  0.28503848770E+02  0.28565165223E+01  0.30666402172E+02  0.00000000000E+00 0.  1.
</event>
<event>
 7    1  0.1265344E-009  0.4778727E+02  0.7816164E-02  0.1312668E+00
        -11   -1    0    0    0    0  0.00000000000E+00  0.00000000000E+00  0.45593999997E+02  0.45594000000E+02  0.51100000000E-03 0.  1.
         11   -1    0    0    0    0 -0.00000000000E+00 -0.00000000000E+00 -0.45593999997E+02  0.45594000000E+02  0.51100000000E-03 0. -1.
    9900012    2    1    2    0    0  0.26944017882E+02  0.17468518500E+02  0.29197506448E+02  0.47787267046E+02  0.19999981768E+02 0.  0.
         12    1    1    2    0    0 -0.26944017882E+02 -0.17468518500E+02 -0.29197506448E+02  0.43400732954E+02  0.00000000000E+00 0. -1.
         11    1    3    3    0    0  0.25644815181E+01 -0.22468663483E+01 -0.54296500198E+00  0.34525041779E+01  0.51100000000E-03 0. -1.
        -11    1    3    3    0    0  0.11333907604E+02  0.10182014897E+02  0.78856237580E+01  0.17155580761E+02  0.51100000000E-03 0.  1.
        -12    1    3    3    0    0  0.13045628760E+02  0.95333699511E+01  0.21854847692E+02  0.27179182107E+02  0.00000000000E+00 0.  1.
</event>
<event>
 7    1  0.1265344E-009  0.4778727E+02  0.7816164E-02  0.1312668E+00
        -11   -1    0    0    0    0  0.00000000000E+00  0.00000000000E+00  0.45593999997E+02  0.45594000000E+02  0.51100000000E-03 0. -1.
         11   -1    0    0    0    0 -0.00000000000E+00 -0.00000000000E+00 -0.45593999997E+02  0.45594000000E+02  0.51100000000E-03 0.  1.
    9900012    2    1    2    0    0 -0.23284380704E+02  0.30212013832E+02 -0.20704955148E+02  0.47787270372E+02  0.19999996935E+02 0.  0.
         12    1    1    2    0    0  0.23284380704E+02 -0.30212013832E+02  0.20704955148E+02  0.43400729628E+02  0.00000000000E+00 0. -1.
         11    1    3    3    0    0 -0.32210033247E+01 -0.17740772142E+01 -0.17187362297E+01  0.40590968044E+01  0.51100000000E-03 0. -1.
        -11    1    3    3    0    0 -0.15471051572E+02  0.15529078035E+02 -0.76199725779E+01  0.23207104165E+02  0.51100000000E-03 0.  1.
         12    1    3    3    0    0 -0.45923258071E+01  0.16457013011E+02 -0.11366246340E+02  0.20521069403E+02  0.00000000000E+00 0. -1.
</event>
<event>
 7    1  0.1265344E-009  0.4778731E+02  0.7816164E-02  0.1312668E+00
        -11   -1    0    0    0    0  0.00000000000E+00  0.00000000000E+00  0.45593999997E+02  0.45594000000E+02  0.51100000000E-03 0.  1.
         11   -1    0    0    0    0 -0.00000000000E+00 -0.00000000000E+00 -0.45593999997E+02  0.45594000000E+02  0.51100000000E-03 0. -1.
    9900012    2    1    2    0    0 -0.39312122812E+02  0.48844109181E+01  0.17729052143E+02  0.47787311528E+02  0.20000184579E+02 0.  0.
         12    1    1    2    0    0  0.39312122812E+02 -0.48844109181E+01 -0.17729052143E+02  0.43400688472E+02  0.00000000000E+00 0. -1.
         11    1    3    3    0    0 -0.10933587644E+02  0.57457735907E+01 -0.20947170876E+01  0.12527772861E+02  0.51100000000E-03 0. -1.
        -11    1    3    3    0    0 -0.11505676837E+02 -0.27199819642E+01  0.54588418650E+01  0.13022206269E+02  0.51100000000E-03 0.  1.
        -12    1    3    3    0    0 -0.16872858331E+02  0.18586192916E+01  0.14364927366E+02  0.22237332398E+02  0.00000000000E+00 0.  1.
</event>
<event>
 7    1  0.1265344E-009  0.4778726E+02  0.7816164E-02  0.1312668E+00
        -11   -1    0    0    0    0  0.00000000000E+00  0.00000000000E+00  0.45593999997E+02  0.45594000000E+02  0.51100000000E-03 0.  1.
         11   -1    0    0    0    0 -0.00000000000E+00 -0.00000000000E+00 -0.45593999997E+02  0.45594000000E+02  0.51100000000E-03 0. -1.
    9900012    2    1    2    0    0 -0.33377198496E+01  0.16391901126E+02  0.40047335006E+02  0.47787264552E+02  0.19999970399E+02 0.  0.
         12    1    1    2    0    0  0.33377198496E+01 -0.16391901126E+02 -0.40047335006E+02  0.43400735448E+02  0.00000000000E+00 0. -1.
         11    1    3    3    0    0  0.14667719750E+01  0.31350655528E+01  0.13480397929E+02  0.13917657297E+02  0.51100000000E-03 0.  1.
        -11    1    3    3    0    0 -0.99492539299E+01  0.48800991540E+01  0.15686518629E+02  0.19205985746E+02  0.51100000000E-03 0. -1.
         12    1    3    3    0    0  0.51447621053E+01  0.83767364195E+01  0.10880418448E+02  0.14663621509E+02  0.00000000000E+00 0. -1.
</event>
<event>
 7    1  0.1265344E-009  0.4778727E+02  0.7816164E-02  0.1312668E+00
        -11   -1    0    0    0    0  0.00000000000E+00  0.00000000000E+00  0.45593999997E+02  0.45594000000E+02  0.51100000000E-03 0. -1.
         11   -1    0    0    0    0 -0.00000000000E+00 -0.00000000000E+00 -0.45593999997E+02  0.45594000000E+02  0.51100000000E-03 0.  1.
    9900012    2    1    2    0    0 -0.23969979175E+02 -0.18545349313E+01 -0.36133421713E+02  0.47787269981E+02  0.19999995151E+02 0.  0.
         12    1    1    2    0    0  0.23969979175E+02  0.18545349313E+01  0.36133421713E+02  0.43400730019E+02  0.00000000000E+00 0. -1.
         11    1    3    3    0    0 -0.19923473827E+01 -0.39431545133E+00  0.23984523650E+01  0.31428501041E+01  0.51100000000E-03 0. -1.
        -11    1    3    3    0    0 -0.12543199676E+02 -0.14641246998E+01 -0.17376103990E+02  0.21480328429E+02  0.51100000000E-03 0.  1.
        -12    1    3    3    0    0 -0.94344321163E+01  0.39052198407E-02 -0.21155770088E+02  0.23164091448E+02  0.00000000000E+00 0.  1.
</event>
<event>
 7    1  0.1265344E-009  0.4778728E+02  0.7816164E-02  0.1312668E+00
        -11   -1    0    0    0    0  0.00000000000E+00  0.00000000000E+00  0.45593999997E+02  0.45594000000E+02  0.51100000000E-03 0.  1.
         11   -1    0    0    0    0 -0.00000000000E+00 -0.00000000000E+00 -0.45593999997E+02  0.45594000000E+02  0.51100000000E-03 0. -1.
    9900012    2    1    2    0    0  0.22219898276E+02 -0.17475008932E+02  0.32932098032E+02  0.47787275382E+02  0.20000019777E+02 0.  0.
         12    1    1    2    0    0 -0.22219898276E+02  0.17475008932E+02 -0.32932098032E+02  0.43400724618E+02  0.00000000000E+00 0. -1.
         11    1    3    3    0    0  0.77162976991E+01 -0.61091228755E+01  0.14879387116E+02  0.17839809239E+02  0.51100000000E-03 0. -1.
        -11    1    3    3    0    0  0.94456876749E+01 -0.14958073969E+02  0.13349392499E+02  0.22162384187E+02  0.51100000000E-03 0.  1.
         12    1    3    3    0    0  0.50579129024E+01  0.35921879123E+01  0.47033184166E+01  0.77850819555E+01  0.00000000000E+00 0. -1.
</event>
<event>
 7    1  0.1265344E-009  0.4778727E+02  0.7816164E-02  0.1312668E+00
        -11   -1    0    0    0    0  0.00000000000E+00  0.00000000000E+00  0.45593999997E+02  0.45594000000E+02  0.51100000000E-03 0.  1.
         11   -1    0    0    0    0 -0.00000000000E+00 -0.00000000000E+00 -0.45593999997E+02  0.45594000000E+02  0.51100000000E-03 0. -1.
    9900012    2    1    2    0    0  0.24093910153E+02 -0.27247203167E+02  0.23679037432E+02  0.47787269585E+02  0.19999993346E+02 0.  0.
         12    1    1    2    0    0 -0.24093910153E+02  0.27247203167E+02 -0.23679037432E+02  0.43400730415E+02  0.00000000000E+00 0. -1.
         11    1    3    3    0    0  0.16595107410E+01  0.80006533505E+00 -0.89506810090E+00  0.20482254774E+01  0.51100000000E-03 0. -1.
        -11    1    3    3    0    0  0.18933723403E+02 -0.25665040155E+02  0.14947367107E+02  0.35222208218E+02  0.51100000000E-03 0.  1.
         12    1    3    3    0    0  0.35006760087E+01 -0.23822283469E+01  0.96267384257E+01  0.10516835890E+02  0.00000000000E+00 0. -1.
</event>
<event>
 7    1  0.1265344E-009  0.4778727E+02  0.7816164E-02  0.1312668E+00
        -11   -1    0    0    0    0  0.00000000000E+00  0.00000000000E+00  0.45593999997E+02  0.45594000000E+02  0.51100000000E-03 0.  1.
         11   -1    0    0    0    0 -0.00000000000E+00 -0.00000000000E+00 -0.45593999997E+02  0.45594000000E+02  0.51100000000E-03 0. -1.
    9900012    2    1    2    0    0  0.23163941480E+02 -0.22020280139E+00  0.36701589509E+02  0.47787270206E+02  0.19999996177E+02 0.  0.
         12    1    1    2    0    0 -0.23163941480E+02  0.22020280139E+00 -0.36701589509E+02  0.43400729794E+02  0.00000000000E+00 0. -1.
         11    1    3    3    0    0  0.58503391509E+01  0.58660186588E+01  0.64635750042E+01  0.10507827805E+02  0.51100000000E-03 0. -1.
        -11    1    3    3    0    0  0.14078671705E+01 -0.37826880372E+01  0.13433250798E+02  0.14026512254E+02  0.51100000000E-03 0.  1.
        -12    1    3    3    0    0  0.15905735159E+02 -0.23035334229E+01  0.16804763707E+02  0.23252930147E+02  0.00000000000E+00 0.  1.
</event>
<event>
 7    1  0.1560384E-009  0.4778727E+02  0.7816164E-02  0.1312668E+00
        -11   -1    0    0    0    0  0.00000000000E+00  0.00000000000E+00  0.45593999997E+02  0.45594000000E+02  0.51100000000E-03 0. -1.
         11   -1    0    0    0    0 -0.00000000000E+00 -0.00000000000E+00 -0.45593999997E+02  0.45594000000E+02  0.51100000000E-03 0.  1.
    9900012    2    1    2    0    0 -0.10537177267E+02 -0.41053512435E+02 -0.93381153207E+01  0.47787269756E+02  0.19999994124E+02 0.  0.
         12    1    1    2    0    0  0.10537177267E+02  0.41053512435E+02  0.93381153207E+01  0.43400730244E+02  0.00000000000E+00 0. -1.
         11    1    3    3    0    0  0.70769476645E+00 -0.38797620553E+01  0.38762654167E+01  0.55298118711E+01  0.51100000000E-03 0. -1.
        -11    1    3    3    0    0 -0.86945441974E+01 -0.18566504187E+02 -0.25492904575E+01  0.20659357653E+02  0.51100000000E-03 0.  1.
        -12    1    3    3    0    0 -0.25503278358E+01 -0.18607246192E+02 -0.10665090280E+02  0.21598100232E+02  0.00000000000E+00 0.  1.
</event>
<event>
 7    1  0.1613383E-009  0.4778727E+02  0.7816164E-02  0.1312668E+00
        -11   -1    0    0    0    0  0.00000000000E+00  0.00000000000E+00  0.45593999997E+02  0.45594000000E+02  0.51100000000E-03 0. -1.
         11   -1    0    0    0    0 -0.00000000000E+00 -0.00000000000E+00 -0.45593999997E+02  0.45594000000E+02  0.51100000000E-03 0.  1.
    9900012    2    1    2    0    0 -0.27156647100E+02 -0.13110123452E+01 -0.33829293494E+02  0.47787270359E+02  0.19999996873E+02 0.  0.
         12    1    1    2    0    0  0.27156647100E+02  0.13110123452E+01  0.33829293494E+02  0.43400729641E+02  0.00000000000E+00 0. -1.
         11    1    3    3    0    0 -0.32161845035E+01  0.13201665523E+01 -0.16676973323E+00  0.34805882968E+01  0.51100000000E-03 0. -1.
        -11    1    3    3    0    0 -0.16865493126E+02 -0.82231144068E+01 -0.27838442340E+02  0.33571466174E+02  0.51100000000E-03 0.  1.
        -12    1    3    3    0    0 -0.70749694702E+01  0.55919355093E+01 -0.58240814214E+01  0.10735215887E+02  0.00000000000E+00 0.  1.
</event>
<event>
 7    1  0.1265344E-009  0.4778727E+02  0.7816164E-02  0.1312668E+00
        -11   -1    0    0    0    0  0.00000000000E+00  0.00000000000E+00  0.45593999997E+02  0.45594000000E+02  0.51100000000E-03 0. -1.
         11   -1    0    0    0    0 -0.00000000000E+00 -0.00000000000E+00 -0.45593999997E+02  0.45594000000E+02  0.51100000000E-03 0.  1.
    9900012    2    1    2    0    0  0.12908470008E+02 -0.38472864933E+02 -0.15389389019E+02  0.47787271567E+02  0.20000002384E+02 0.  0.
         12    1    1    2    0    0 -0.12908470008E+02  0.38472864933E+02  0.15389389019E+02  0.43400728433E+02  0.00000000000E+00 0. -1.
         11    1    3    3    0    0 -0.36991186206E+01 -0.55215154678E+01 -0.38421684213E+01  0.76767747179E+01  0.51100000000E-03 0. -1.
        -11    1    3    3    0    0  0.74703145060E+01 -0.24275591132E+02 -0.49097594341E+01  0.25869202956E+02  0.51100000000E-03 0.  1.
         12    1    3    3    0    0  0.91372741229E+01 -0.86757583331E+01 -0.66374611641E+01  0.14241293893E+02  0.00000000000E+00 0. -1.
</event>
<event>
 7    1  0.1485375E-009  0.4778728E+02  0.7816164E-02  0.1312668E+00
        -11   -1    0    0    0    0  0.00000000000E+00  0.00000000000E+00  0.45593999997E+02  0.45594000000E+02  0.51100000000E-03 0. -1.
         11   -1    0    0    0    0 -0.00000000000E+00 -0.00000000000E+00 -0.45593999997E+02  0.45594000000E+02  0.51100000000E-03 0.  1.
    9900012    2    1    2    0    0 -0.28140504006E+02  0.31655118438E+02 -0.94703688230E+01  0.47787281404E+02  0.20000047231E+02 0.  0.
         12    1    1    2    0    0  0.28140504006E+02 -0.31655118438E+02  0.94703688230E+01  0.43400718596E+02  0.00000000000E+00 0. -1.
         11    1    3    3    0    0 -0.35058006132E+00  0.88161456310E+01  0.25961020653E+01  0.91971232655E+01  0.51100000000E-03 0. -1.
        -11    1    3    3    0    0 -0.11487077702E+02  0.13904764152E+02 -0.51772495547E+01  0.18764310098E+02  0.51100000000E-03 0.  1.
         12    1    3    3    0    0 -0.16302846243E+02  0.89342086552E+01 -0.68892213337E+01  0.19825848040E+02  0.00000000000E+00 0. -1.
</event>
<event>
 7    1  0.1265344E-009  0.4778730E+02  0.7816164E-02  0.1312668E+00
        -11   -1    0    0    0    0  0.00000000000E+00  0.00000000000E+00  0.45593999997E+02  0.45594000000E+02  0.51100000000E-03 0.  1.
         11   -1    0    0    0    0 -0.00000000000E+00 -0.00000000000E+00 -0.45593999997E+02  0.45594000000E+02  0.51100000000E-03 0. -1.
    9900012    2    1    2    0    0 -0.22041190561E+02  0.43491286642E+01  0.37133434095E+02  0.47787298057E+02  0.20000123160E+02 0.  0.
         12    1    1    2    0    0  0.22041190561E+02 -0.43491286642E+01 -0.37133434095E+02  0.43400701943E+02  0.00000000000E+00 0. -1.
         11    1    3    3    0    0  0.17854809759E+01 -0.27061162643E+01  0.53640062501E+01  0.62676607170E+01  0.51100000000E-03 0. -1.
        -11    1    3    3    0    0 -0.11432043245E+02  0.95277356065E-01  0.20118829837E+02  0.23140181607E+02  0.51100000000E-03 0.  1.
         12    1    3    3    0    0 -0.12394628292E+02  0.69599675724E+01  0.11650598008E+02  0.18379455733E+02  0.00000000000E+00 0. -1.
</event>
<event>
 7    1  0.1265344E-009  0.4778727E+02  0.7816164E-02  0.1312668E+00
        -11   -1    0    0    0    0  0.00000000000E+00  0.00000000000E+00  0.45593999997E+02  0.45594000000E+02  0.51100000000E-03 0.  1.
         11   -1    0    0    0    0 -0.00000000000E+00 -0.00000000000E+00 -0.45593999997E+02  0.45594000000E+02  0.51100000000E-03 0. -1.
    9900012    2    1    2    0    0  0.29740316717E+02 -0.20849346789E+01  0.31540291126E+02  0.47787270106E+02  0.19999995720E+02 0.  0.
         12    1    1    2    0    0 -0.29740316717E+02  0.20849346789E+01 -0.31540291126E+02  0.43400729894E+02  0.00000000000E+00 0. -1.
         11    1    3    3    0    0  0.57438562909E+01 -0.27190014181E+01  0.92648209597E+01  0.11234845859E+02  0.51100000000E-03 0. -1.
        -11    1    3    3    0    0  0.17577629638E+02  0.56888704804E+01  0.80611902816E+01  0.20157358459E+02  0.51100000000E-03 0.  1.
         12    1    3    3    0    0  0.64188307887E+01 -0.50548037411E+01  0.14214279884E+02  0.16395065788E+02  0.00000000000E+00 0. -1.
</event>
<event>
 7    1  0.1265344E-009  0.4778727E+02  0.7816164E-02  0.1312668E+00
        -11   -1    0    0    0    0  0.00000000000E+00  0.00000000000E+00  0.45593999997E+02  0.45594000000E+02  0.51100000000E-03 0.  1.
         11   -1    0    0    0    0 -0.00000000000E+00 -0.00000000000E+00 -0.45593999997E+02  0.45594000000E+02  0.51100000000E-03 0. -1.
    9900012    2    1    2    0    0 -0.28594238624E+02 -0.83292017916E+01  0.31569252262E+02  0.47787265290E+02  0.19999973761E+02 0.  0.
         12    1    1    2    0    0  0.28594238624E+02  0.83292017916E+01 -0.31569252262E+02  0.43400734710E+02  0.00000000000E+00 0. -1.
         11    1    3    3    0    0 -0.21267348967E+01  0.99417392297E+00 -0.12767803350E+01  0.26723681248E+01  0.51100000000E-03 0. -1.
        -11    1    3    3    0    0 -0.20904047357E+02 -0.12387390952E+02  0.23414309124E+02  0.33743984983E+02  0.51100000000E-03 0.  1.
         12    1    3    3    0    0 -0.55634563703E+01  0.30640152378E+01  0.94317234736E+01  0.11370912182E+02  0.00000000000E+00 0. -1.
</event>
<event>
 7    1  0.1265344E-009  0.4778727E+02  0.7816164E-02  0.1312668E+00
        -11   -1    0    0    0    0  0.00000000000E+00  0.00000000000E+00  0.45593999997E+02  0.45594000000E+02  0.51100000000E-03 0. -1.
         11   -1    0    0    0    0 -0.00000000000E+00 -0.00000000000E+00 -0.45593999997E+02  0.45594000000E+02  0.51100000000E-03 0.  1.
    9900012    2    1    2    0    0 -0.18213049608E+02  0.12406252095E+02 -0.37389744762E+02  0.47787270969E+02  0.19999999656E+02 0.  0.
         12    1    1    2    0    0  0.18213049608E+02 -0.12406252095E+02  0.37389744762E+02  0.43400729031E+02  0.00000000000E+00 0. -1.
         11    1    3    3    0    0 -0.10037267709E+02 -0.27147057632E+01 -0.22479910283E+02  0.24768179930E+02  0.51100000000E-03 0. -1.
        -11    1    3    3    0    0 -0.66198211537E+01  0.88862007251E+01 -0.10088949444E+02  0.14985776476E+02  0.51100000000E-03 0.  1.
         12    1    3    3    0    0 -0.15559607445E+01  0.62347571334E+01 -0.48208850343E+01  0.80333145628E+01  0.00000000000E+00 0. -1.
</event>
<event>
 7    1  0.1265344E-009  0.4778727E+02  0.7816164E-02  0.1312668E+00
        -11   -1    0    0    0    0  0.00000000000E+00  0.00000000000E+00  0.45593999997E+02  0.45594000000E+02  0.51100000000E-03 0. -1.
         11   -1    0    0    0    0 -0.00000000000E+00 -0.00000000000E+00 -0.45593999997E+02  0.45594000000E+02  0.51100000000E-03 0.  1.
    9900012    2    1    2    0    0  0.36278210627E+02  0.21112624603E+02  0.11035027859E+02  0.47787270470E+02  0.19999997381E+02 0.  0.
         12    1    1    2    0    0 -0.36278210627E+02 -0.21112624603E+02 -0.11035027859E+02  0.43400729530E+02  0.00000000000E+00 0. -1.
         11    1    3    3    0    0  0.96208714700E+01  0.12624162127E+01  0.10809131798E+02  0.14525570317E+02  0.51100000000E-03 0. -1.
        -11    1    3    3    0    0  0.88307846330E+01  0.58624158456E+01  0.24456150712E+00  0.10602381212E+02  0.51100000000E-03 0.  1.
         12    1    3    3    0    0  0.17826554524E+02  0.13987792545E+02 -0.18665446641E-01  0.22659318941E+02  0.00000000000E+00 0. -1.
</event>
<event>
 7    1  0.1265344E-009  0.4778728E+02  0.7816164E-02  0.1312668E+00
        -11   -1    0    0    0    0  0.00000000000E+00  0.00000000000E+00  0.45593999997E+02  0.45594000000E+02  0.51100000000E-03 0.  1.
         11   -1    0    0    0    0 -0.00000000000E+00 -0.00000000000E+00 -0.45593999997E+02  0.45594000000E+02  0.51100000000E-03 0. -1.
    9900012    2    1    2    0    0  0.13613817065E+02  0.33357572554E+02  0.24198328543E+02  0.47787276894E+02  0.20000026672E+02 0.  0.
         12    1    1    2    0    0 -0.13613817065E+02 -0.33357572554E+02 -0.24198328543E+02  0.43400723106E+02  0.00000000000E+00 0. -1.
         11    1    3    3    0    0  0.89272676444E+00  0.23144984254E+02  0.17976686976E+02  0.29319763506E+02  0.51100000000E-03 0. -1.
        -11    1    3    3    0    0  0.66422671872E+01  0.70760589881E+01  0.63990572145E+01  0.11624898180E+02  0.51100000000E-03 0.  1.
         12    1    3    3    0    0  0.60788231138E+01  0.31365293128E+01 -0.17741564766E+00  0.68426152085E+01  0.00000000000E+00 0. -1.
</event>
<event>
 7    1  0.1265344E-009  0.4778727E+02  0.7816164E-02  0.1312668E+00
        -11   -1    0    0    0    0  0.00000000000E+00  0.00000000000E+00  0.45593999997E+02  0.45594000000E+02  0.51100000000E-03 0.  1.
         11   -1    0    0    0    0 -0.00000000000E+00 -0.00000000000E+00 -0.45593999997E+02  0.45594000000E+02  0.51100000000E-03 0. -1.
    9900012    2    1    2    0    0  0.10760099553E+02 -0.41589769949E+02  0.61753276025E+01  0.47787269847E+02  0.19999994541E+02 0.  0.
         12    1    1    2    0    0 -0.10760099553E+02  0.41589769949E+02 -0.61753276025E+01  0.43400730153E+02  0.00000000000E+00 0. -1.
         11    1    3    3    0    0  0.54149053822E+01 -0.22203652227E+01  0.25098147169E+01  0.63679189846E+01  0.51100000000E-03 0. -1.
        -11    1    3    3    0    0  0.57256570461E+01 -0.11824543946E+02  0.44202804519E+01  0.13861524724E+02  0.51100000000E-03 0.  1.
        -12    1    3    3    0    0 -0.38046287524E+00 -0.27544860780E+02 -0.75476756627E+00  0.27557826138E+02  0.00000000000E+00 0.  1.
</event>
<event>
 7    1  0.1481058E-009  0.4778727E+02  0.7816164E-02  0.1312668E+00
        -11   -1    0    0    0    0  0.00000000000E+00  0.00000000000E+00  0.45593999997E+02  0.45594000000E+02  0.51100000000E-03 0. -1.
         11   -1    0    0    0    0 -0.00000000000E+00 -0.00000000000E+00 -0.45593999997E+02  0.45594000000E+02  0.51100000000E-03 0.  1.
    9900012    2    1    2    0    0  0.43083546924E+02 -0.27607675671E+01 -0.44507818958E+01  0.47787270598E+02  0.19999997967E+02 0.  0.
         12    1    1    2    0    0 -0.43083546924E+02  0.27607675671E+01  0.44507818958E+01  0.43400729402E+02  0.00000000000E+00 0. -1.
         11    1    3    3    0    0  0.68799376180E+01  0.31738916832E+01 -0.58037536208E+01  0.95441440893E+01  0.51100000000E-03 0. -1.
        -11    1    3    3    0    0  0.26746071004E+02 -0.24324668926E+01 -0.34419819000E+01  0.27076123227E+02  0.51100000000E-03 0.  1.
         12    1    3    3    0    0  0.94575383014E+01 -0.35021923577E+01  0.47949536250E+01  0.11167003282E+02  0.00000000000E+00 0. -1.
</event>
<event>
 7    1  0.1265344E-009  0.4778727E+02  0.7816164E-02  0.1312668E+00
        -11   -1    0    0    0    0  0.00000000000E+00  0.00000000000E+00  0.45593999997E+02  0.45594000000E+02  0.51100000000E-03 0.  1.
         11   -1    0    0    0    0 -0.00000000000E+00 -0.00000000000E+00 -0.45593999997E+02  0.45594000000E+02  0.51100000000E-03 0. -1.
    9900012    2    1    2    0    0 -0.10917981103E+02 -0.13073228032E+02  0.39918812478E+02  0.47787271986E+02  0.20000004292E+02 0.  0.
         12    1    1    2    0    0  0.10917981103E+02  0.13073228032E+02 -0.39918812478E+02  0.43400728014E+02  0.00000000000E+00 0. -1.
         11    1    3    3    0    0 -0.71488495148E+01  0.39373314062E+00  0.85970898776E+01  0.11187985958E+02  0.51100000000E-03 0. -1.
        -11    1    3    3    0    0 -0.27761084437E+01 -0.60910917448E+01  0.27362280529E+02  0.28169177708E+02  0.51100000000E-03 0.  1.
         12    1    3    3    0    0 -0.99302314462E+00 -0.73758694274E+01  0.39594420714E+01  0.84301083204E+01  0.00000000000E+00 0. -1.
</event>
<event>
 7    1  0.1265344E-009  0.4778727E+02  0.7816164E-02  0.1312668E+00
        -11   -1    0    0    0    0  0.00000000000E+00  0.00000000000E+00  0.45593999997E+02  0.45594000000E+02  0.51100000000E-03 0. -1.
         11   -1    0    0    0    0 -0.00000000000E+00 -0.00000000000E+00 -0.45593999997E+02  0.45594000000E+02  0.51100000000E-03 0.  1.
    9900012    2    1    2    0    0 -0.23766226184E+02  0.35839976782E+02  0.58554415342E+01  0.47787266846E+02  0.19999980859E+02 0.  0.
         12    1    1    2    0    0  0.23766226184E+02 -0.35839976782E+02 -0.58554415342E+01  0.43400733154E+02  0.00000000000E+00 0. -1.
         11    1    3    3    0    0 -0.77271427777E+01  0.14339505885E+02  0.42927393401E+01  0.16845111334E+02  0.51100000000E-03 0. -1.
        -11    1    3    3    0    0 -0.16542432140E+02  0.11613261838E+02 -0.22427901572E+01  0.20335929278E+02  0.51100000000E-03 0.  1.
         12    1    3    3    0    0  0.50334873442E+00  0.98872090579E+01  0.38054923513E+01  0.10606226235E+02  0.00000000000E+00 0. -1.
</event>
<event>
 7    1  0.1265344E-009  0.4778727E+02  0.7816164E-02  0.1312668E+00
        -11   -1    0    0    0    0  0.00000000000E+00  0.00000000000E+00  0.45593999997E+02  0.45594000000E+02  0.51100000000E-03 0. -1.
         11   -1    0    0    0    0 -0.00000000000E+00 -0.00000000000E+00 -0.45593999997E+02  0.45594000000E+02  0.51100000000E-03 0.  1.
    9900012    2    1    2    0    0  0.30296921101E+02  0.26630224730E+02 -0.16017207319E+02  0.47787271577E+02  0.20000002429E+02 0.  0.
         12    1    1    2    0    0 -0.30296921101E+02 -0.26630224730E+02  0.16017207319E+02  0.43400728423E+02  0.00000000000E+00 0. -1.
         11    1    3    3    0    0  0.35262169265E+01  0.76058997401E+01 -0.13402958030E+01  0.84900123539E+01  0.51100000000E-03 0. -1.
        -11    1    3    3    0    0  0.20910869457E+02  0.82334483751E+01 -0.14990045161E+02  0.27013988743E+02  0.51100000000E-03 0.  1.
        -12    1    3    3    0    0  0.58598347170E+01  0.10790876614E+02  0.31313364539E+00  0.12283270481E+02  0.00000000000E+00 0.  1.
</event>
<event>
 7    1  0.1265344E-009  0.4778727E+02  0.7816164E-02  0.1312668E+00
        -11   -1    0    0    0    0  0.00000000000E+00  0.00000000000E+00  0.45593999997E+02  0.45594000000E+02  0.51100000000E-03 0.  1.
         11   -1    0    0    0    0 -0.00000000000E+00 -0.00000000000E+00 -0.45593999997E+02  0.45594000000E+02  0.51100000000E-03 0. -1.
    9900012    2    1    2    0    0 -0.73310590230E+01  0.24657910576E+02  0.34955208770E+02  0.47787267281E+02  0.19999982842E+02 0.  0.
         12    1    1    2    0    0  0.73310590230E+01 -0.24657910576E+02 -0.34955208770E+02  0.43400732719E+02  0.00000000000E+00 0. -1.
         11    1    3    3    0    0 -0.71439387879E+00  0.54919508848E+01  0.18344426681E+01  0.58341291808E+01  0.51100000000E-03 0. -1.
        -11    1    3    3    0    0 -0.16136530747E+01 -0.66648841837E+00  0.13492074505E+02  0.13604563858E+02  0.51100000000E-03 0.  1.
        -12    1    3    3    0    0 -0.50030120695E+01  0.19832448109E+02  0.19628691597E+02  0.28348574243E+02  0.00000000000E+00 0.  1.
</event>
<event>
 7    1  0.1265344E-009  0.4778727E+02  0.7816164E-02  0.1312668E+00
        -11   -1    0    0    0    0  0.00000000000E+00  0.00000000000E+00  0.45593999997E+02  0.45594000000E+02  0.51100000000E-03 0.  1.
         11   -1    0    0    0    0 -0.00000000000E+00 -0.00000000000E+00 -0.45593999997E+02  0.45594000000E+02  0.51100000000E-03 0. -1.
    9900012    2    1    2    0    0  0.20997845809E+02 -0.31081443600E+02  0.21832497747E+02  0.47787267025E+02  0.19999981674E+02 0.  0.
         12    1    1    2    0    0 -0.20997845809E+02  0.31081443600E+02 -0.21832497747E+02  0.43400732975E+02  0.00000000000E+00 0. -1.
         11    1    3    3    0    0  0.39376879544E+01 -0.17443165519E+02  0.31299140655E+01  0.18153946460E+02  0.51100000000E-03 0. -1.
        -11    1    3    3    0    0  0.57178160808E+01 -0.83491145915E+00  0.35475495929E+01  0.67805314138E+01  0.51100000000E-03 0.  1.
        -12    1    3    3    0    0  0.11342341774E+02 -0.12803366622E+02  0.15155034089E+02  0.22852789152E+02  0.00000000000E+00 0.  1.
</event>
<event>
 7    1  0.1265344E-009  0.4778727E+02  0.7816164E-02  0.1312668E+00
        -11   -1    0    0    0    0  0.00000000000E+00  0.00000000000E+00  0.45593999997E+02  0.45594000000E+02  0.51100000000E-03 0.  1.
         11   -1    0    0    0    0 -0.00000000000E+00 -0.00000000000E+00 -0.45593999997E+02  0.45594000000E+02  0.51100000000E-03 0. -1.
    9900012    2    1    2    0    0  0.81352559834E+01 -0.10087344822E+02  0.41420843160E+02  0.47787272316E+02  0.20000005795E+02 0.  0.
         12    1    1    2    0    0 -0.81352559834E+01  0.10087344822E+02 -0.41420843160E+02  0.43400727684E+02  0.00000000000E+00 0. -1.
         11    1    3    3    0    0  0.10840168514E+02 -0.10362416660E+02  0.19276294496E+02  0.24422621935E+02  0.51100000000E-03 0. -1.
        -11    1    3    3    0    0  0.10638415330E+01 -0.75404441887E+00  0.16192981334E+02  0.16245398934E+02  0.51100000000E-03 0.  1.
         12    1    3    3    0    0 -0.37687540635E+01  0.10291162574E+01  0.59515673305E+01  0.71192514460E+01  0.00000000000E+00 0. -1.
</event>
<event>
 7    1  0.1265344E-009  0.4778727E+02  0.7816164E-02  0.1312668E+00
        -11   -1    0    0    0    0  0.00000000000E+00  0.00000000000E+00  0.45593999997E+02  0.45594000000E+02  0.51100000000E-03 0.  1.
         11   -1    0    0    0    0 -0.00000000000E+00 -0.00000000000E+00 -0.45593999997E+02  0.45594000000E+02  0.51100000000E-03 0. -1.
    9900012    2    1    2    0    0 -0.19585665429E+02 -0.13485118615E+02  0.36306704943E+02  0.47787268000E+02  0.19999986118E+02 0.  0.
         12    1    1    2    0    0  0.19585665429E+02  0.13485118615E+02 -0.36306704943E+02  0.43400732000E+02  0.00000000000E+00 0. -1.
         11    1    3    3    0    0 -0.10635979748E+02 -0.11133647969E+01  0.11789592277E+02  0.15917227544E+02  0.51100000000E-03 0. -1.
        -11    1    3    3    0    0 -0.42084904469E+01 -0.59323580139E+01  0.22466761925E+02  0.23614818549E+02  0.51100000000E-03 0.  1.
         12    1    3    3    0    0 -0.47411952349E+01 -0.64393958039E+01  0.20503507407E+01  0.82552219070E+01  0.00000000000E+00 0. -1.
</event>
<event>
 7    1  0.1265344E-009  0.4778727E+02  0.7816164E-02  0.1312668E+00
        -11   -1    0    0    0    0  0.00000000000E+00  0.00000000000E+00  0.45593999997E+02  0.45594000000E+02  0.51100000000E-03 0.  1.
         11   -1    0    0    0    0 -0.00000000000E+00 -0.00000000000E+00 -0.45593999997E+02  0.45594000000E+02  0.51100000000E-03 0. -1.
    9900012    2    1    2    0    0 -0.18953071932E+02 -0.37946635057E+02  0.91900455457E+01  0.47787274373E+02  0.20000015175E+02 0.  0.
         12    1    1    2    0    0  0.18953071932E+02  0.37946635057E+02 -0.91900455457E+01  0.43400725627E+02  0.00000000000E+00 0. -1.
         11    1    3    3    0    0 -0.99640602542E+01 -0.24028829213E+02  0.26955815526E+01  0.26152118275E+02  0.51100000000E-03 0. -1.
        -11    1    3    3    0    0  0.16279083578E+01 -0.66712492080E+01  0.53972241236E+01  0.87341673970E+01  0.51100000000E-03 0.  1.
         12    1    3    3    0    0 -0.10616920036E+02 -0.72465566360E+01  0.10972398695E+01  0.12900988701E+02  0.00000000000E+00 0. -1.
</event>
<event>
 7    1  0.1265344E-009  0.4778727E+02  0.7816164E-02  0.1312668E+00
        -11   -1    0    0    0    0  0.00000000000E+00  0.00000000000E+00  0.45593999997E+02  0.45594000000E+02  0.51100000000E-03 0.  1.
         11   -1    0    0    0    0 -0.00000000000E+00 -0.00000000000E+00 -0.45593999997E+02  0.45594000000E+02  0.51100000000E-03 0. -1.
    9900012    2    1    2    0    0  0.33234021177E+02 -0.10021123810E+02  0.26051876126E+02  0.47787270332E+02  0.19999996752E+02 0.  0.
         12    1    1    2    0    0 -0.33234021177E+02  0.10021123810E+02 -0.26051876126E+02  0.43400729668E+02  0.00000000000E+00 0. -1.
         11    1    3    3    0    0  0.10604721860E+02  0.97119798996E+00  0.83120419397E+01  0.13509011538E+02  0.51100000000E-03 0. -1.
        -11    1    3    3    0    0  0.16221173944E+02 -0.12664419749E+02  0.71462951647E+01  0.21784938525E+02  0.51100000000E-03 0.  1.
        -12    1    3    3    0    0  0.64081253728E+01  0.16720979486E+01  0.10593539022E+02  0.12493320269E+02  0.00000000000E+00 0.  1.
</event>
<event>
 7    1  0.1265344E-009  0.4778728E+02  0.7816164E-02  0.1312668E+00
        -11   -1    0    0    0    0  0.00000000000E+00  0.00000000000E+00  0.45593999997E+02  0.45594000000E+02  0.51100000000E-03 0.  1.
         11   -1    0    0    0    0 -0.00000000000E+00 -0.00000000000E+00 -0.45593999997E+02  0.45594000000E+02  0.51100000000E-03 0. -1.
    9900012    2    1    2    0    0  0.30810473401E+02 -0.94931594411E+01  0.29055414223E+02  0.47787280616E+02  0.20000043641E+02 0.  0.
         12    1    1    2    0    0 -0.30810473401E+02  0.94931594411E+01 -0.29055414223E+02  0.43400719384E+02  0.00000000000E+00 0. -1.
         11    1    3    3    0    0  0.87417602024E+01  0.36153217416E+01  0.61987854351E+01  0.11309901143E+02  0.51100000000E-03 0. -1.
        -11    1    3    3    0    0  0.13696457846E+02 -0.12749113228E+01  0.91015984989E+01  0.16494164177E+02  0.51100000000E-03 0.  1.
        -12    1    3    3    0    0  0.83722553531E+01 -0.11833569860E+02  0.13755030289E+02  0.19983215296E+02  0.00000000000E+00 0.  1.
</event>
<event>
 7    1  0.1265344E-009  0.4778727E+02  0.7816164E-02  0.1312668E+00
        -11   -1    0    0    0    0  0.00000000000E+00  0.00000000000E+00  0.45593999997E+02  0.45594000000E+02  0.51100000000E-03 0. -1.
         11   -1    0    0    0    0 -0.00000000000E+00 -0.00000000000E+00 -0.45593999997E+02  0.45594000000E+02  0.51100000000E-03 0.  1.
    9900012    2    1    2    0    0  0.23591512027E+01  0.73303889209E+01 -0.42712093298E+02  0.47787272932E+02  0.20000008608E+02 0.  0.
         12    1    1    2    0    0 -0.23591512027E+01 -0.73303889209E+01  0.42712093298E+02  0.43400727068E+02  0.00000000000E+00 0. -1.
         11    1    3    3    0    0 -0.47858987090E+01  0.33034686311E+01 -0.96481149009E+01  0.11265161022E+02  0.51100000000E-03 0. -1.
        -11    1    3    3    0    0  0.80838633041E+01  0.70613379123E+01 -0.16694821714E+02  0.19847629868E+02  0.51100000000E-03 0.  1.
         12    1    3    3    0    0 -0.93881339241E+00 -0.30344176225E+01 -0.16369156682E+02  0.16674482043E+02  0.00000000000E+00 0. -1.
</event>
<event>
 7    1  0.1265344E-009  0.4778727E+02  0.7816164E-02  0.1312668E+00
        -11   -1    0    0    0    0  0.00000000000E+00  0.00000000000E+00  0.45593999997E+02  0.45594000000E+02  0.51100000000E-03 0. -1.
         11   -1    0    0    0    0 -0.00000000000E+00 -0.00000000000E+00 -0.45593999997E+02  0.45594000000E+02  0.51100000000E-03 0.  1.
    9900012    2    1    2    0    0  0.23515417264E+02  0.35187613339E+02 -0.96166669558E+01  0.47787271148E+02  0.20000000471E+02 0.  0.
         12    1    1    2    0    0 -0.23515417264E+02 -0.35187613339E+02  0.96166669558E+01  0.43400728852E+02  0.00000000000E+00 0. -1.
         11    1    3    3    0    0  0.26238918151E+01  0.25089821605E+01  0.32791801716E+01  0.48921184162E+01  0.51100000000E-03 0. -1.
        -11    1    3    3    0    0  0.31471583828E+01  0.13853621643E+02 -0.87780190277E+01  0.16699732238E+02  0.51100000000E-03 0.  1.
        -12    1    3    3    0    0  0.17744367066E+02  0.18825009536E+02 -0.41178280997E+01  0.26195420494E+02  0.00000000000E+00 0.  1.
</event>
<event>
 7    1  0.1265344E-009  0.4778727E+02  0.7816164E-02  0.1312668E+00
        -11   -1    0    0    0    0  0.00000000000E+00  0.00000000000E+00  0.45593999997E+02  0.45594000000E+02  0.51100000000E-03 0. -1.
         11   -1    0    0    0    0 -0.00000000000E+00 -0.00000000000E+00 -0.45593999997E+02  0.45594000000E+02  0.51100000000E-03 0.  1.
    9900012    2    1    2    0    0  0.39466686614E+02  0.92797442501E+01 -0.15488392902E+02  0.47787270510E+02  0.19999997561E+02 0.  0.
         12    1    1    2    0    0 -0.39466686614E+02 -0.92797442501E+01  0.15488392902E+02  0.43400729490E+02  0.00000000000E+00 0. -1.
         11    1    3    3    0    0  0.24741512909E+02  0.75924937433E+01 -0.43492873127E+01  0.26243184309E+02  0.51100000000E-03 0. -1.
        -11    1    3    3    0    0  0.12459261194E+02 -0.31673814253E+01 -0.62635190032E+01  0.14300250528E+02  0.51100000000E-03 0.  1.
         12    1    3    3    0    0  0.22659125109E+01  0.48546319321E+01 -0.48755865859E+01  0.72438356732E+01  0.00000000000E+00 0. -1.
</event>
<event>
 7    1  0.1265344E-009  0.4778727E+02  0.7816164E-02  0.1312668E+00
        -11   -1    0    0    0    0  0.00000000000E+00  0.00000000000E+00  0.45593999997E+02  0.45594000000E+02  0.51100000000E-03 0.  1.
         11   -1    0    0    0    0 -0.00000000000E+00 -0.00000000000E+00 -0.45593999997E+02  0.45594000000E+02  0.51100000000E-03 0. -1.
    9900012    2    1    2    0    0 -0.18738023558E+01 -0.17435125652E+02  0.39700486650E+02  0.47787269799E+02  0.19999994320E+02 0.  0.
         12    1    1    2    0    0  0.18738023558E+01  0.17435125652E+02 -0.39700486650E+02  0.43400730201E+02  0.00000000000E+00 0. -1.
         11    1    3    3    0    0  0.35512511609E+01 -0.37205549700E+01  0.38824832224E+01  0.64441904321E+01  0.51100000000E-03 0. -1.
        -11    1    3    3    0    0  0.18856072162E+01  0.13184217312E+01  0.62879315664E+00  0.23851900406E+01  0.51100000000E-03 0.  1.
        -12    1    3    3    0    0 -0.73106607328E+01 -0.15032992414E+02  0.35189210271E+02  0.38957889326E+02  0.00000000000E+00 0.  1.
</event>
<event>
 7    1  0.1265344E-009  0.4778727E+02  0.7816164E-02  0.1312668E+00
        -11   -1    0    0    0    0  0.00000000000E+00  0.00000000000E+00  0.45593999997E+02  0.45594000000E+02  0.51100000000E-03 0.  1.
         11   -1    0    0    0    0 -0.00000000000E+00 -0.00000000000E+00 -0.45593999997E+02  0.45594000000E+02  0.51100000000E-03 0. -1.
    9900012    2    1    2    0    0 -0.36230711313E+02 -0.12272950513E+01  0.23863205475E+02  0.47787271078E+02  0.20000000155E+02 0.  0.
         12    1    1    2    0    0  0.36230711313E+02  0.12272950513E+01 -0.23863205475E+02  0.43400728922E+02  0.00000000000E+00 0. -1.
         11    1    3    3    0    0 -0.29588700378E+02 -0.40559914568E+01  0.25385411880E+02  0.39196446182E+02  0.51100000000E-03 0. -1.
        -11    1    3    3    0    0 -0.57537993134E+01  0.18959886091E+01  0.62152848998E+00  0.60899324520E+01  0.51100000000E-03 0.  1.
         12    1    3    3    0    0 -0.88821162183E+00  0.93270779639E+00 -0.21437348949E+01  0.25008924444E+01  0.00000000000E+00 0. -1.
</event>
<event>
 7    1  0.1265344E-009  0.4778731E+02  0.7816164E-02  0.1312668E+00
        -11   -1    0    0    0    0  0.00000000000E+00  0.00000000000E+00  0.45593999997E+02  0.45594000000E+02  0.51100000000E-03 0. -1.
         11   -1    0    0    0    0 -0.00000000000E+00 -0.00000000000E+00 -0.45593999997E+02  0.45594000000E+02  0.51100000000E-03 0.  1.
    9900012    2    1    2    0    0 -0.22954665087E+01  0.43315131472E+02 -0.14662687227E+01  0.47787311931E+02  0.20000186416E+02 0.  0.
         12    1    1    2    0    0  0.22954665087E+01 -0.43315131472E+02  0.14662687227E+01  0.43400688069E+02  0.00000000000E+00 0. -1.
         11    1    3    3    0    0  0.44972737651E+01  0.20499146336E+02 -0.24979195518E+01  0.21134807172E+02  0.51100000000E-03 0. -1.
        -11    1    3    3    0    0  0.80944962733E+00  0.56532015449E+01 -0.42887832376E+01  0.71419575977E+01  0.51100000000E-03 0.  1.
         12    1    3    3    0    0 -0.76021899010E+01  0.17162783591E+02  0.53204340667E+01  0.19510547161E+02  0.00000000000E+00 0. -1.
</event>
<event>
 7    1  0.1265344E-009  0.4778725E+02  0.7816164E-02  0.1312668E+00
        -11   -1    0    0    0    0  0.00000000000E+00  0.00000000000E+00  0.45593999997E+02  0.45594000000E+02  0.51100000000E-03 0.  1.
         11   -1    0    0    0    0 -0.00000000000E+00 -0.00000000000E+00 -0.45593999997E+02  0.45594000000E+02  0.51100000000E-03 0. -1.
    9900012    2    1    2    0    0 -0.46157180841E+01  0.15819781569E+02  0.40150399243E+02  0.47787252291E+02  0.19999914495E+02 0.  0.
         12    1    1    2    0    0  0.46157180841E+01 -0.15819781569E+02 -0.40150399243E+02  0.43400747709E+02  0.00000000000E+00 0. -1.
         11    1    3    3    0    0 -0.23462598209E+01  0.14095026717E+02  0.24442467292E+02  0.28312698934E+02  0.51100000000E-03 0. -1.
        -11    1    3    3    0    0 -0.52325558521E+01 -0.21070660498E+01  0.43385972799E+01  0.71163751096E+01  0.51100000000E-03 0.  1.
         12    1    3    3    0    0  0.29630975889E+01  0.38318209017E+01  0.11369334671E+02  0.12358178248E+02  0.00000000000E+00 0. -1.
</event>
<event>
 7    1  0.1265344E-009  0.4778727E+02  0.7816164E-02  0.1312668E+00
        -11   -1    0    0    0    0  0.00000000000E+00  0.00000000000E+00  0.45593999997E+02  0.45594000000E+02  0.51100000000E-03 0.  1.
         11   -1    0    0    0    0 -0.00000000000E+00 -0.00000000000E+00 -0.45593999997E+02  0.45594000000E+02  0.51100000000E-03 0. -1.
    9900012    2    1    2    0    0  0.27414695586E+02 -0.18889984225E+02  0.27842889502E+02  0.47787268049E+02  0.19999986341E+02 0.  0.
         12    1    1    2    0    0 -0.27414695586E+02  0.18889984225E+02 -0.27842889502E+02  0.43400731951E+02  0.00000000000E+00 0. -1.
         11    1    3    3    0    0  0.53444283285E+01 -0.22267512416E+01  0.23434448185E+01  0.62460442785E+01  0.51100000000E-03 0. -1.
        -11    1    3    3    0    0  0.13645061017E+02 -0.37318719095E+00  0.15495453739E+02  0.20650327980E+02  0.51100000000E-03 0.  1.
        -12    1    3    3    0    0  0.84252062411E+01 -0.16290045792E+02  0.10003990944E+02  0.20890895791E+02  0.00000000000E+00 0.  1.
</event>
<event>
 7    1  0.1265344E-009  0.4778727E+02  0.7816164E-02  0.1312668E+00
        -11   -1    0    0    0    0  0.00000000000E+00  0.00000000000E+00  0.45593999997E+02  0.45594000000E+02  0.51100000000E-03 0.  1.
         11   -1    0    0    0    0 -0.00000000000E+00 -0.00000000000E+00 -0.45593999997E+02  0.45594000000E+02  0.51100000000E-03 0. -1.
    9900012    2    1    2    0    0 -0.20094525049E+02 -0.18411362882E+02  0.33776549190E+02  0.47787268494E+02  0.19999988370E+02 0.  0.
         12    1    1    2    0    0  0.20094525049E+02  0.18411362882E+02 -0.33776549190E+02  0.43400731506E+02  0.00000000000E+00 0. -1.
         11    1    3    3    0    0 -0.10595018474E+02 -0.14464366393E+02  0.94956618888E+01  0.20288910926E+02  0.51100000000E-03 0. -1.
        -11    1    3    3    0    0 -0.15556680582E+01  0.21845151622E+01  0.33919227970E+01  0.43240432610E+01  0.51100000000E-03 0.  1.
        -12    1    3    3    0    0 -0.79438385170E+01 -0.61315116513E+01  0.20888964504E+02  0.23174314306E+02  0.00000000000E+00 0.  1.
</event>
<event>
 7    1  0.1265344E-009  0.4778727E+02  0.7816164E-02  0.1312668E+00
        -11   -1    0    0    0    0  0.00000000000E+00  0.00000000000E+00  0.45593999997E+02  0.45594000000E+02  0.51100000000E-03 0.  1.
         11   -1    0    0    0    0 -0.00000000000E+00 -0.00000000000E+00 -0.45593999997E+02  0.45594000000E+02  0.51100000000E-03 0. -1.
    9900012    2    1    2    0    0  0.69348627216E+00 -0.10177331368E+01  0.43383250736E+02  0.47787272490E+02  0.20000006591E+02 0.  0.
         12    1    1    2    0    0 -0.69348627216E+00  0.10177331368E+01 -0.43383250736E+02  0.43400727510E+02  0.00000000000E+00 0. -1.
         11    1    3    3    0    0  0.37882184252E+01 -0.15517190888E+01  0.30036179748E+01  0.50774158946E+01  0.51100000000E-03 0. -1.
        -11    1    3    3    0    0 -0.58239987243E+01  0.42016436619E+01  0.12159707766E+02  0.14122013448E+02  0.51100000000E-03 0.  1.
        -12    1    3    3    0    0  0.27292665713E+01 -0.36676577098E+01  0.28219924996E+02  0.28587843148E+02  0.00000000000E+00 0.  1.
</event>
<event>
 7    1  0.1265344E-009  0.4778727E+02  0.7816164E-02  0.1312668E+00
        -11   -1    0    0    0    0  0.00000000000E+00  0.00000000000E+00  0.45593999997E+02  0.45594000000E+02  0.51100000000E-03 0.  1.
         11   -1    0    0    0    0 -0.00000000000E+00 -0.00000000000E+00 -0.45593999997E+02  0.45594000000E+02  0.51100000000E-03 0. -1.
    9900012    2    1    2    0    0 -0.36124907065E+02  0.70784705374E+00  0.24043985634E+02  0.47787271860E+02  0.20000003718E+02 0.  0.
         12    1    1    2    0    0  0.36124907065E+02 -0.70784705374E+00 -0.24043985634E+02  0.43400728140E+02  0.00000000000E+00 0. -1.
         11    1    3    3    0    0 -0.13421345121E+01  0.34365845467E+01  0.11295146824E+01  0.38583989003E+01  0.51100000000E-03 0. -1.
        -11    1    3    3    0    0  0.41556646968E+00 -0.53812764006E+00  0.37114291025E+01  0.37731926921E+01  0.51100000000E-03 0.  1.
        -12    1    3    3    0    0 -0.35198339023E+02 -0.21906098529E+01  0.19203041849E+02  0.40155680268E+02  0.00000000000E+00 0.  1.
</event>
<event>
 7    1  0.1265344E-009  0.4778728E+02  0.7816164E-02  0.1312668E+00
        -11   -1    0    0    0    0  0.00000000000E+00  0.00000000000E+00  0.45593999997E+02  0.45594000000E+02  0.51100000000E-03 0. -1.
         11   -1    0    0    0    0 -0.00000000000E+00 -0.00000000000E+00 -0.45593999997E+02  0.45594000000E+02  0.51100000000E-03 0.  1.
    9900012    2    1    2    0    0 -0.11241452492E+02  0.15056474369E+02 -0.39122303278E+02  0.47787282398E+02  0.20000051767E+02 0.  0.
         12    1    1    2    0    0  0.11241452492E+02 -0.15056474369E+02  0.39122303278E+02  0.43400717602E+02  0.00000000000E+00 0. -1.
         11    1    3    3    0    0 -0.12716897943E+02  0.23727497883E+01 -0.17854674900E+02  0.22048556662E+02  0.51100000000E-03 0.  1.
        -11    1    3    3    0    0 -0.87938788713E+00 -0.19746039925E+00 -0.38138913567E+01  0.39189387859E+01  0.51100000000E-03 0. -1.
        -12    1    3    3    0    0  0.23548333382E+01  0.12881184980E+02 -0.17453737021E+02  0.21819786950E+02  0.00000000000E+00 0.  1.
</event>
<event>
 7    1  0.1265344E-009  0.4778727E+02  0.7816164E-02  0.1312668E+00
        -11   -1    0    0    0    0  0.00000000000E+00  0.00000000000E+00  0.45593999997E+02  0.45594000000E+02  0.51100000000E-03 0.  1.
         11   -1    0    0    0    0 -0.00000000000E+00 -0.00000000000E+00 -0.45593999997E+02  0.45594000000E+02  0.51100000000E-03 0. -1.
    9900012    2    1    2    0    0 -0.32135796746E+02  0.29033910166E+02  0.28188636444E+01  0.47787270004E+02  0.19999995254E+02 0.  0.
         12    1    1    2    0    0  0.32135796746E+02 -0.29033910166E+02 -0.28188636444E+01  0.43400729996E+02  0.00000000000E+00 0. -1.
         11    1    3    3    0    0 -0.84370004764E+01  0.13179224781E+02  0.14648072931E+01  0.15716889118E+02  0.51100000000E-03 0.  1.
        -11    1    3    3    0    0 -0.16806673552E+02  0.29065767309E+01  0.29723824645E+01  0.17313218128E+02  0.51100000000E-03 0. -1.
         12    1    3    3    0    0 -0.68921227175E+01  0.12948108653E+02 -0.16183261133E+01  0.14757162758E+02  0.00000000000E+00 0. -1.
</event>
<event>
 7    1  0.1265344E-009  0.4778727E+02  0.7816164E-02  0.1312668E+00
        -11   -1    0    0    0    0  0.00000000000E+00  0.00000000000E+00  0.45593999997E+02  0.45594000000E+02  0.51100000000E-03 0.  1.
         11   -1    0    0    0    0 -0.00000000000E+00 -0.00000000000E+00 -0.45593999997E+02  0.45594000000E+02  0.51100000000E-03 0. -1.
    9900012    2    1    2    0    0  0.16266915522E+02 -0.15622803421E+02  0.37080167428E+02  0.47787270239E+02  0.19999996327E+02 0.  0.
         12    1    1    2    0    0 -0.16266915522E+02  0.15622803421E+02 -0.37080167428E+02  0.43400729761E+02  0.00000000000E+00 0. -1.
         11    1    3    3    0    0  0.65019608814E+01 -0.41653712664E+01  0.17347521732E+01  0.79142389687E+01  0.51100000000E-03 0. -1.
        -11    1    3    3    0    0  0.19019856981E+01 -0.97356336463E+01  0.14898123629E+02  0.17898441274E+02  0.51100000000E-03 0.  1.
        -12    1    3    3    0    0  0.78629689426E+01 -0.17217985079E+01  0.20447291625E+02  0.21974589996E+02  0.00000000000E+00 0.  1.
</event>
<event>
 7    1  0.1265344E-009  0.4778728E+02  0.7816164E-02  0.1312668E+00
        -11   -1    0    0    0    0  0.00000000000E+00  0.00000000000E+00  0.45593999997E+02  0.45594000000E+02  0.51100000000E-03 0.  1.
         11   -1    0    0    0    0 -0.00000000000E+00 -0.00000000000E+00 -0.45593999997E+02  0.45594000000E+02  0.51100000000E-03 0. -1.
    9900012    2    1    2    0    0  0.17370522603E+02 -0.40832018690E+01  0.39562794293E+02  0.47787282433E+02  0.20000051927E+02 0.  0.
         12    1    1    2    0    0 -0.17370522603E+02  0.40832018690E+01 -0.39562794293E+02  0.43400717567E+02  0.00000000000E+00 0. -1.
         11    1    3    3    0    0 -0.29117976072E+01 -0.39095436930E+01  0.60350293792E+01  0.77578783866E+01  0.51100000000E-03 0. -1.
        -11    1    3    3    0    0  0.10037608974E+02 -0.41339319226E+01  0.15623697714E+02  0.19024797439E+02  0.51100000000E-03 0.  1.
         12    1    3    3    0    0  0.10244711236E+02  0.39602737466E+01  0.17904067200E+02  0.21004606608E+02  0.00000000000E+00 0. -1.
</event>
<event>
 7    1  0.1570314E-009  0.4778727E+02  0.7816164E-02  0.1312668E+00
        -11   -1    0    0    0    0  0.00000000000E+00  0.00000000000E+00  0.45593999997E+02  0.45594000000E+02  0.51100000000E-03 0.  1.
         11   -1    0    0    0    0 -0.00000000000E+00 -0.00000000000E+00 -0.45593999997E+02  0.45594000000E+02  0.51100000000E-03 0. -1.
    9900012    2    1    2    0    0 -0.42049747323E+01 -0.38701436922E+02  0.19186991181E+02  0.47787266563E+02  0.19999979567E+02 0.  0.
         12    1    1    2    0    0  0.42049747323E+01  0.38701436922E+02 -0.19186991181E+02  0.43400733437E+02  0.00000000000E+00 0. -1.
         11    1    3    3    0    0  0.39612799247E+01 -0.82010771815E+01  0.10910477655E+02  0.14212245723E+02  0.51100000000E-03 0.  1.
        -11    1    3    3    0    0 -0.22404778442E+01 -0.19408481240E+02  0.76569046596E+01  0.20984210117E+02  0.51100000000E-03 0. -1.
         12    1    3    3    0    0 -0.59257768128E+01 -0.11091878500E+02  0.61960886642E+00  0.12590810722E+02  0.00000000000E+00 0. -1.
</event>
<event>
 7    1  0.1265344E-009  0.4778727E+02  0.7816164E-02  0.1312668E+00
        -11   -1    0    0    0    0  0.00000000000E+00  0.00000000000E+00  0.45593999997E+02  0.45594000000E+02  0.51100000000E-03 0.  1.
         11   -1    0    0    0    0 -0.00000000000E+00 -0.00000000000E+00 -0.45593999997E+02  0.45594000000E+02  0.51100000000E-03 0. -1.
    9900012    2    1    2    0    0  0.61852263186E+01 -0.10189549647E+02  0.41731752831E+02  0.47787272575E+02  0.20000006981E+02 0.  0.
         12    1    1    2    0    0 -0.61852263186E+01  0.10189549647E+02 -0.41731752831E+02  0.43400727425E+02  0.00000000000E+00 0. -1.
         11    1    3    3    0    0 -0.42415314141E+01 -0.48356550805E+00  0.54695039052E+01  0.69382921218E+01  0.51100000000E-03 0.  1.
        -11    1    3    3    0    0 -0.15232579723E+01 -0.21640525772E+01  0.94572306979E+00  0.28103079534E+01  0.51100000000E-03 0. -1.
        -12    1    3    3    0    0  0.11950015705E+02 -0.75419315614E+01  0.35316525856E+02  0.38038672500E+02  0.00000000000E+00 0.  1.
</event>
<event>
 7    1  0.1265344E-009  0.4778727E+02  0.7816164E-02  0.1312668E+00
        -11   -1    0    0    0    0  0.00000000000E+00  0.00000000000E+00  0.45593999997E+02  0.45594000000E+02  0.51100000000E-03 0.  1.
         11   -1    0    0    0    0 -0.00000000000E+00 -0.00000000000E+00 -0.45593999997E+02  0.45594000000E+02  0.51100000000E-03 0. -1.
    9900012    2    1    2    0    0 -0.17044721924E+02  0.84276255237E+01  0.39013790822E+02  0.47787270838E+02  0.19999999061E+02 0.  0.
         12    1    1    2    0    0  0.17044721924E+02 -0.84276255237E+01 -0.39013790822E+02  0.43400729162E+02  0.00000000000E+00 0. -1.
         11    1    3    3    0    0 -0.13625331870E+01  0.54166482266E+01  0.64190498622E+00  0.56221541218E+01  0.51100000000E-03 0. -1.
        -11    1    3    3    0    0 -0.75659861117E+01  0.49619912936E+01  0.17899965016E+02  0.20056775695E+02  0.51100000000E-03 0.  1.
         12    1    3    3    0    0 -0.81162026258E+01 -0.19510139965E+01  0.20471920820E+02  0.22108341022E+02  0.00000000000E+00 0. -1.
</event>
<event>
 7    1  0.1265344E-009  0.4778727E+02  0.7816164E-02  0.1312668E+00
        -11   -1    0    0    0    0  0.00000000000E+00  0.00000000000E+00  0.45593999997E+02  0.45594000000E+02  0.51100000000E-03 0. -1.
         11   -1    0    0    0    0 -0.00000000000E+00 -0.00000000000E+00 -0.45593999997E+02  0.45594000000E+02  0.51100000000E-03 0.  1.
    9900012    2    1    2    0    0  0.81470628827E+01  0.42628894001E+02  0.16183689977E+00  0.47787269263E+02  0.19999991876E+02 0.  0.
         12    1    1    2    0    0 -0.81470628827E+01 -0.42628894001E+02 -0.16183689977E+00  0.43400730737E+02  0.00000000000E+00 0. -1.
         11    1    3    3    0    0 -0.19536781197E+00  0.33122314001E+01  0.61828398348E+01  0.70168763787E+01  0.51100000000E-03 0. -1.
        -11    1    3    3    0    0  0.30688155854E+01  0.22093308273E+02 -0.36593508878E+01  0.22603600349E+02  0.51100000000E-03 0.  1.
         12    1    3    3    0    0  0.52736151093E+01  0.17223354328E+02 -0.23616520473E+01  0.18166792535E+02  0.00000000000E+00 0. -1.
</event>
<event>
 7    1  0.1265344E-009  0.4778727E+02  0.7816164E-02  0.1312668E+00
        -11   -1    0    0    0    0  0.00000000000E+00  0.00000000000E+00  0.45593999997E+02  0.45594000000E+02  0.51100000000E-03 0. -1.
         11   -1    0    0    0    0 -0.00000000000E+00 -0.00000000000E+00 -0.45593999997E+02  0.45594000000E+02  0.51100000000E-03 0.  1.
    9900012    2    1    2    0    0 -0.21753579851E+01 -0.43308047426E+02 -0.18177469714E+01  0.47787270073E+02  0.19999995569E+02 0.  0.
         12    1    1    2    0    0  0.21753579851E+01  0.43308047426E+02  0.18177469714E+01  0.43400729927E+02  0.00000000000E+00 0. -1.
         11    1    3    3    0    0  0.66523669103E+00 -0.15446505606E+02  0.31430355819E+01  0.15777063992E+02  0.51100000000E-03 0. -1.
        -11    1    3    3    0    0 -0.84975063886E+01 -0.20182785980E+02 -0.50451177069E+01  0.22472331381E+02  0.51100000000E-03 0.  1.
         12    1    3    3    0    0  0.56569117125E+01 -0.76787558393E+01  0.84335153606E-01  0.95378746994E+01  0.00000000000E+00 0. -1.
</event>
<event>
 7    1  0.1265344E-009  0.4778727E+02  0.7816164E-02  0.1312668E+00
        -11   -1    0    0    0    0  0.00000000000E+00  0.00000000000E+00  0.45593999997E+02  0.45594000000E+02  0.51100000000E-03 0. -1.
         11   -1    0    0    0    0 -0.00000000000E+00 -0.00000000000E+00 -0.45593999997E+02  0.45594000000E+02  0.51100000000E-03 0.  1.
    9900012    2    1    2    0    0 -0.34304232863E+02  0.34200207554E+01 -0.26365626250E+02  0.47787272104E+02  0.20000004832E+02 0.  0.
         12    1    1    2    0    0  0.34304232863E+02 -0.34200207554E+01  0.26365626250E+02  0.43400727896E+02  0.00000000000E+00 0. -1.
         11    1    3    3    0    0 -0.17632793323E+01 -0.19814301657E+01  0.48696945466E+00  0.26967311724E+01  0.51100000000E-03 0. -1.
        -11    1    3    3    0    0 -0.31224585396E+02  0.50153582050E+01 -0.28756309012E+02  0.42744050572E+02  0.51100000000E-03 0.  1.
        -12    1    3    3    0    0 -0.13163681355E+01  0.38609271614E+00  0.19037133068E+01  0.23464903597E+01  0.00000000000E+00 0.  1.
</event>
<event>
 7    1  0.1265344E-009  0.4778728E+02  0.7816164E-02  0.1312668E+00
        -11   -1    0    0    0    0  0.00000000000E+00  0.00000000000E+00  0.45593999997E+02  0.45594000000E+02  0.51100000000E-03 0.  1.
         11   -1    0    0    0    0 -0.00000000000E+00 -0.00000000000E+00 -0.45593999997E+02  0.45594000000E+02  0.51100000000E-03 0. -1.
    9900012    2    1    2    0    0  0.19967668845E+02  0.24690186733E+02  0.29585631887E+02  0.47787277262E+02  0.20000028349E+02 0.  0.
         12    1    1    2    0    0 -0.19967668845E+02 -0.24690186733E+02 -0.29585631887E+02  0.43400722738E+02  0.00000000000E+00 0. -1.
         11    1    3    3    0    0  0.97369472908E+01 -0.39167952471E+00  0.57948541681E+01  0.11337631608E+02  0.51100000000E-03 0. -1.
        -11    1    3    3    0    0  0.72965170999E+01  0.11234281245E+02  0.10330461047E+02  0.16916461290E+02  0.51100000000E-03 0.  1.
         12    1    3    3    0    0  0.29342044540E+01  0.13847585013E+02  0.13460316672E+02  0.19533184363E+02  0.00000000000E+00 0. -1.
</event>
<event>
 7    1  0.1265344E-009  0.4778727E+02  0.7816164E-02  0.1312668E+00
        -11   -1    0    0    0    0  0.00000000000E+00  0.00000000000E+00  0.45593999997E+02  0.45594000000E+02  0.51100000000E-03 0. -1.
         11   -1    0    0    0    0 -0.00000000000E+00 -0.00000000000E+00 -0.45593999997E+02  0.45594000000E+02  0.51100000000E-03 0.  1.
    9900012    2    1    2    0    0 -0.28100224543E+02  0.32635946246E+02 -0.53754578865E+01  0.47787272423E+02  0.20000006284E+02 0.  0.
         12    1    1    2    0    0  0.28100224543E+02 -0.32635946246E+02  0.53754578865E+01  0.43400727577E+02  0.00000000000E+00 0. -1.
         11    1    3    3    0    0 -0.45382187790E+00  0.10209470131E+02 -0.93852849722E-01  0.10219982547E+02  0.51100000000E-03 0. -1.
        -11    1    3    3    0    0 -0.15991281766E+02  0.16808350502E+02 -0.76195539298E+01  0.24419241214E+02  0.51100000000E-03 0.  1.
        -12    1    3    3    0    0 -0.11655120899E+02  0.56181256135E+01  0.23379488930E+01  0.13148048662E+02  0.00000000000E+00 0.  1.
</event>
<event>
 7    1  0.1265344E-009  0.4778727E+02  0.7816164E-02  0.1312668E+00
        -11   -1    0    0    0    0  0.00000000000E+00  0.00000000000E+00  0.45593999997E+02  0.45594000000E+02  0.51100000000E-03 0.  1.
         11   -1    0    0    0    0 -0.00000000000E+00 -0.00000000000E+00 -0.45593999997E+02  0.45594000000E+02  0.51100000000E-03 0. -1.
    9900012    2    1    2    0    0 -0.42945371007E+02  0.82970083301E+00  0.62152763271E+01  0.47787274727E+02  0.20000016790E+02 0.  0.
         12    1    1    2    0    0  0.42945371007E+02 -0.82970083301E+00 -0.62152763271E+01  0.43400725273E+02  0.00000000000E+00 0. -1.
         11    1    3    3    0    0 -0.16367796769E+02 -0.20563400355E+01  0.70934988961E+01  0.17956921570E+02  0.51100000000E-03 0. -1.
        -11    1    3    3    0    0 -0.34308515028E+01 -0.23455027947E+01  0.38134605138E+01  0.56404438430E+01  0.51100000000E-03 0.  1.
         12    1    3    3    0    0 -0.23146722735E+02  0.52315436632E+01 -0.46916830829E+01  0.24189909314E+02  0.00000000000E+00 0. -1.
</event>
<event>
 7    1  0.1265344E-009  0.4778727E+02  0.7816164E-02  0.1312668E+00
        -11   -1    0    0    0    0  0.00000000000E+00  0.00000000000E+00  0.45593999997E+02  0.45594000000E+02  0.51100000000E-03 0. -1.
         11   -1    0    0    0    0 -0.00000000000E+00 -0.00000000000E+00 -0.45593999997E+02  0.45594000000E+02  0.51100000000E-03 0.  1.
    9900012    2    1    2    0    0  0.20598319688E+02  0.31518067662E+02  0.21585739735E+02  0.47787268174E+02  0.19999986914E+02 0.  0.
         12    1    1    2    0    0 -0.20598319688E+02 -0.31518067662E+02 -0.21585739735E+02  0.43400731826E+02  0.00000000000E+00 0. -1.
         11    1    3    3    0    0  0.86699389889E+01  0.18668925229E+02  0.12554762810E+02  0.24110551233E+02  0.51100000000E-03 0.  1.
        -11    1    3    3    0    0  0.43481292190E+01  0.23747763527E+01  0.95264123193E+01  0.10737705638E+02  0.51100000000E-03 0. -1.
         12    1    3    3    0    0  0.75802514800E+01  0.10474366080E+02 -0.49543539426E+00  0.12939011303E+02  0.00000000000E+00 0. -1.
</event>
<event>
 7    1  0.1265344E-009  0.4778727E+02  0.7816164E-02  0.1312668E+00
        -11   -1    0    0    0    0  0.00000000000E+00  0.00000000000E+00  0.45593999997E+02  0.45594000000E+02  0.51100000000E-03 0.  1.
         11   -1    0    0    0    0 -0.00000000000E+00 -0.00000000000E+00 -0.45593999997E+02  0.45594000000E+02  0.51100000000E-03 0. -1.
    9900012    2    1    2    0    0  0.16015141905E+02  0.63286267644E+01  0.39838258461E+02  0.47787272769E+02  0.20000007862E+02 0.  0.
         12    1    1    2    0    0 -0.16015141905E+02 -0.63286267644E+01 -0.39838258461E+02  0.43400727231E+02  0.00000000000E+00 0. -1.
         11    1    3    3    0    0  0.21199737563E+01  0.35849710130E+01 -0.87996438704E+00  0.42568349128E+01  0.51100000000E-03 0. -1.
        -11    1    3    3    0    0  0.84405149650E+01  0.23724347103E+01  0.16308004898E+02  0.18515446614E+02  0.51100000000E-03 0.  1.
        -12    1    3    3    0    0  0.54546531839E+01  0.37122104118E+00  0.24410217951E+02  0.25014991242E+02  0.00000000000E+00 0.  1.
</event>
<event>
 7    1  0.1265344E-009  0.4778727E+02  0.7816164E-02  0.1312668E+00
        -11   -1    0    0    0    0  0.00000000000E+00  0.00000000000E+00  0.45593999997E+02  0.45594000000E+02  0.51100000000E-03 0.  1.
         11   -1    0    0    0    0 -0.00000000000E+00 -0.00000000000E+00 -0.45593999997E+02  0.45594000000E+02  0.51100000000E-03 0. -1.
    9900012    2    1    2    0    0 -0.35618047513E+02  0.23417435040E+02  0.81609840106E+01  0.47787271521E+02  0.20000002171E+02 0.  0.
         12    1    1    2    0    0  0.35618047513E+02 -0.23417435040E+02 -0.81609840106E+01  0.43400728479E+02  0.00000000000E+00 0. -1.
         11    1    3    3    0    0 -0.18733578047E+02  0.10713695507E+02 -0.13535566311E+01  0.21623189720E+02  0.51100000000E-03 0. -1.
        -11    1    3    3    0    0 -0.13612652462E+02  0.10623985558E+02  0.15884020138E+01  0.17340599685E+02  0.51100000000E-03 0.  1.
        -12    1    3    3    0    0 -0.32718170042E+01  0.20797539748E+01  0.79261386279E+01  0.88234821161E+01  0.00000000000E+00 0.  1.
</event>
<event>
 7    1  0.1265344E-009  0.4778727E+02  0.7816164E-02  0.1312668E+00
        -11   -1    0    0    0    0  0.00000000000E+00  0.00000000000E+00  0.45593999997E+02  0.45594000000E+02  0.51100000000E-03 0. -1.
         11   -1    0    0    0    0 -0.00000000000E+00 -0.00000000000E+00 -0.45593999997E+02  0.45594000000E+02  0.51100000000E-03 0.  1.
    9900012    2    1    2    0    0  0.42085289629E+02  0.82916706750E+01 -0.66105951388E+01  0.47787269893E+02  0.19999994751E+02 0.  0.
         12    1    1    2    0    0 -0.42085289629E+02 -0.82916706750E+01  0.66105951388E+01  0.43400730107E+02  0.00000000000E+00 0. -1.
         11    1    3    3    0    0  0.56283303726E+01  0.43831577368E+01 -0.25897030033E+01  0.75892513752E+01  0.51100000000E-03 0. -1.
        -11    1    3    3    0    0  0.20156323637E+02 -0.12636142771E+01  0.50809437680E+01  0.20825227332E+02  0.51100000000E-03 0.  1.
        -12    1    3    3    0    0  0.16300635619E+02  0.51721272153E+01 -0.91018359034E+01  0.19372791186E+02  0.00000000000E+00 0.  1.
</event>
<event>
 7    1  0.1265344E-009  0.4778727E+02  0.7816164E-02  0.1312668E+00
        -11   -1    0    0    0    0  0.00000000000E+00  0.00000000000E+00  0.45593999997E+02  0.45594000000E+02  0.51100000000E-03 0. -1.
         11   -1    0    0    0    0 -0.00000000000E+00 -0.00000000000E+00 -0.45593999997E+02  0.45594000000E+02  0.51100000000E-03 0.  1.
    9900012    2    1    2    0    0 -0.87352096234E+01  0.31235570964E+02 -0.28838490804E+02  0.47787270369E+02  0.19999996921E+02 0.  0.
         12    1    1    2    0    0  0.87352096234E+01 -0.31235570964E+02  0.28838490804E+02  0.43400729631E+02  0.00000000000E+00 0. -1.
         11    1    3    3    0    0  0.21481163189E+01  0.24518835830E+01  0.13099844185E+01  0.35131462056E+01  0.51100000000E-03 0. -1.
        -11    1    3    3    0    0 -0.43839778477E+01  0.60146889690E+01 -0.13204592005E+02  0.15157737147E+02  0.51100000000E-03 0.  1.
        -12    1    3    3    0    0 -0.64993480946E+01  0.22768998413E+02 -0.16943883218E+02  0.29116387016E+02  0.00000000000E+00 0.  1.
</event>
<event>
 7    1  0.1265344E-009  0.4778727E+02  0.7816164E-02  0.1312668E+00
        -11   -1    0    0    0    0  0.00000000000E+00  0.00000000000E+00  0.45593999997E+02  0.45594000000E+02  0.51100000000E-03 0. -1.
         11   -1    0    0    0    0 -0.00000000000E+00 -0.00000000000E+00 -0.45593999997E+02  0.45594000000E+02  0.51100000000E-03 0.  1.
    9900012    2    1    2    0    0 -0.18072740067E+02  0.15955643966E+02 -0.36089015067E+02  0.47787268250E+02  0.19999987260E+02 0.  0.
         12    1    1    2    0    0  0.18072740067E+02 -0.15955643966E+02  0.36089015067E+02  0.43400731750E+02  0.00000000000E+00 0. -1.
         11    1    3    3    0    0 -0.33382174790E+01 -0.57150882405E+00 -0.23494102087E+00  0.33949250091E+01  0.51100000000E-03 0. -1.
        -11    1    3    3    0    0 -0.14085348280E+02  0.15211759132E+02 -0.37079100719E+02  0.42481223646E+02  0.51100000000E-03 0.  1.
         12    1    3    3    0    0 -0.64917430810E+00  0.13153936575E+01  0.12250266729E+01  0.19111195949E+01  0.00000000000E+00 0. -1.
</event>
<event>
 7    1  0.1557052E-009  0.4778727E+02  0.7816164E-02  0.1312668E+00
        -11   -1    0    0    0    0  0.00000000000E+00  0.00000000000E+00  0.45593999997E+02  0.45594000000E+02  0.51100000000E-03 0.  1.
         11   -1    0    0    0    0 -0.00000000000E+00 -0.00000000000E+00 -0.45593999997E+02  0.45594000000E+02  0.51100000000E-03 0. -1.
    9900012    2    1    2    0    0 -0.19187529798E+02 -0.37537368114E+02  0.10315411370E+02  0.47787274010E+02  0.20000013523E+02 0.  0.
         12    1    1    2    0    0  0.19187529798E+02  0.37537368114E+02 -0.10315411370E+02  0.43400725990E+02  0.00000000000E+00 0. -1.
         11    1    3    3    0    0  0.12450758914E+00  0.20361257215E+01  0.14521534157E+01  0.25040087654E+01  0.51100000000E-03 0. -1.
        -11    1    3    3    0    0 -0.89657750541E+01 -0.12420170696E+02  0.38732591038E+01  0.15800249960E+02  0.51100000000E-03 0.  1.
         12    1    3    3    0    0 -0.10346262333E+02 -0.27153323139E+02  0.49899988507E+01  0.29483015285E+02  0.00000000000E+00 0. -1.
</event>
<event>
 7    1  0.1265344E-009  0.4778725E+02  0.7816164E-02  0.1312668E+00
        -11   -1    0    0    0    0  0.00000000000E+00  0.00000000000E+00  0.45593999997E+02  0.45594000000E+02  0.51100000000E-03 0.  1.
         11   -1    0    0    0    0 -0.00000000000E+00 -0.00000000000E+00 -0.45593999997E+02  0.45594000000E+02  0.51100000000E-03 0. -1.
    9900012    2    1    2    0    0 -0.45668551682E+00  0.39753385370E+02  0.17409328645E+02  0.47787251920E+02  0.19999912806E+02 0.  0.
         12    1    1    2    0    0  0.45668551682E+00 -0.39753385370E+02 -0.17409328645E+02  0.43400748080E+02  0.00000000000E+00 0. -1.
         11    1    3    3    0    0  0.15702377082E+01  0.39101284457E+01  0.93652415537E+01  0.10269493685E+02  0.51100000000E-03 0. -1.
        -11    1    3    3    0    0  0.21101669272E+01  0.46174768785E+01  0.32566730120E+00  0.50872346748E+01  0.51100000000E-03 0.  1.
         12    1    3    3    0    0 -0.41370901522E+01  0.31225780045E+02  0.77184197900E+01  0.32430523561E+02  0.00000000000E+00 0. -1.
</event>
<event>
 7    1  0.1265344E-009  0.4778727E+02  0.7816164E-02  0.1312668E+00
        -11   -1    0    0    0    0  0.00000000000E+00  0.00000000000E+00  0.45593999997E+02  0.45594000000E+02  0.51100000000E-03 0.  1.
         11   -1    0    0    0    0 -0.00000000000E+00 -0.00000000000E+00 -0.45593999997E+02  0.45594000000E+02  0.51100000000E-03 0. -1.
    9900012    2    1    2    0    0  0.18963748474E+01 -0.37510223801E+02  0.21748796702E+02  0.47787270915E+02  0.19999999410E+02 0.  0.
         12    1    1    2    0    0 -0.18963748474E+01  0.37510223801E+02 -0.21748796702E+02  0.43400729085E+02  0.00000000000E+00 0. -1.
         11    1    3    3    0    0 -0.23418284030E+01  0.34560301166E+00  0.50899776721E+00  0.24212973174E+01  0.51100000000E-03 0. -1.
        -11    1    3    3    0    0 -0.19494822768E+00 -0.20142681263E+02  0.17595564735E+02  0.26746392502E+02  0.51100000000E-03 0.  1.
         12    1    3    3    0    0  0.44331514781E+01 -0.17713145549E+02  0.36442341997E+01  0.18619581095E+02  0.00000000000E+00 0. -1.
</event>
<event>
 7    1  0.1265344E-009  0.4778728E+02  0.7816164E-02  0.1312668E+00
        -11   -1    0    0    0    0  0.00000000000E+00  0.00000000000E+00  0.45593999997E+02  0.45594000000E+02  0.51100000000E-03 0.  1.
         11   -1    0    0    0    0 -0.00000000000E+00 -0.00000000000E+00 -0.45593999997E+02  0.45594000000E+02  0.51100000000E-03 0. -1.
    9900012    2    1    2    0    0  0.21667496776E+02 -0.33647579115E+02  0.16792346458E+02  0.47787275393E+02  0.20000019825E+02 0.  0.
         12    1    1    2    0    0 -0.21667496776E+02  0.33647579115E+02 -0.16792346458E+02  0.43400724607E+02  0.00000000000E+00 0. -1.
         11    1    3    3    0    0  0.44339672308E+00 -0.45031604038E+01  0.67037391513E+01  0.80879647098E+01  0.51100000000E-03 0.  1.
        -11    1    3    3    0    0  0.22035779520E+01 -0.18895208868E+01  0.54051398918E+01  0.61352736274E+01  0.51100000000E-03 0. -1.
        -12    1    3    3    0    0  0.19020522101E+02 -0.27254897825E+02  0.46834674150E+01  0.33564037056E+02  0.00000000000E+00 0.  1.
</event>
<event>
 7    1  0.1265344E-009  0.4778727E+02  0.7816164E-02  0.1312668E+00
        -11   -1    0    0    0    0  0.00000000000E+00  0.00000000000E+00  0.45593999997E+02  0.45594000000E+02  0.51100000000E-03 0. -1.
         11   -1    0    0    0    0 -0.00000000000E+00 -0.00000000000E+00 -0.45593999997E+02  0.45594000000E+02  0.51100000000E-03 0.  1.
    9900012    2    1    2    0    0  0.43227286884E+02  0.22304317517E+01  0.31701570812E+01  0.47787273588E+02  0.20000011597E+02 0.  0.
         12    1    1    2    0    0 -0.43227286884E+02 -0.22304317517E+01 -0.31701570812E+01  0.43400726412E+02  0.00000000000E+00 0. -1.
         11    1    3    3    0    0  0.12020117270E+02  0.73918252689E+01  0.52909010304E+01  0.15070366086E+02  0.51100000000E-03 0. -1.
        -11    1    3    3    0    0  0.14533039919E+02 -0.56471405740E+01  0.14463069916E+01  0.15658583912E+02  0.51100000000E-03 0.  1.
        -12    1    3    3    0    0  0.16674129695E+02  0.48574705684E+00 -0.35670509408E+01  0.17058323590E+02  0.00000000000E+00 0.  1.
</event>
<event>
 7    1  0.1265344E-009  0.4778727E+02  0.7816164E-02  0.1312668E+00
        -11   -1    0    0    0    0  0.00000000000E+00  0.00000000000E+00  0.45593999997E+02  0.45594000000E+02  0.51100000000E-03 0.  1.
         11   -1    0    0    0    0 -0.00000000000E+00 -0.00000000000E+00 -0.45593999997E+02  0.45594000000E+02  0.51100000000E-03 0. -1.
    9900012    2    1    2    0    0 -0.16362987286E+02 -0.37176048827E+02 -0.15291085907E+02  0.47787271118E+02  0.20000000333E+02 0.  0.
         12    1    1    2    0    0  0.16362987286E+02  0.37176048827E+02  0.15291085907E+02  0.43400728882E+02  0.00000000000E+00 0. -1.
         11    1    3    3    0    0 -0.11474944545E+02 -0.15807870415E+02 -0.28700805974E+01  0.19743365526E+02  0.51100000000E-03 0.  1.
        -11    1    3    3    0    0  0.28361775781E+01 -0.31037615589E+01  0.70443843023E+00  0.42630356358E+01  0.51100000000E-03 0. -1.
         12    1    3    3    0    0 -0.77242203191E+01 -0.18264416853E+02 -0.13125443739E+02  0.23780869956E+02  0.00000000000E+00 0. -1.
</event>
<event>
 7    1  0.1265344E-009  0.4778727E+02  0.7816164E-02  0.1312668E+00
        -11   -1    0    0    0    0  0.00000000000E+00  0.00000000000E+00  0.45593999997E+02  0.45594000000E+02  0.51100000000E-03 0.  1.
         11   -1    0    0    0    0 -0.00000000000E+00 -0.00000000000E+00 -0.45593999997E+02  0.45594000000E+02  0.51100000000E-03 0. -1.
    9900012    2    1    2    0    0  0.40758379181E+02 -0.50968436334E+01 -0.14014277044E+02  0.47787271324E+02  0.20000001276E+02 0.  0.
         12    1    1    2    0    0 -0.40758379181E+02  0.50968436334E+01  0.14014277044E+02  0.43400728676E+02  0.00000000000E+00 0. -1.
         11    1    3    3    0    0  0.30927949593E+02  0.69716755343E+00 -0.16789102221E+02  0.35197983781E+02  0.51100000000E-03 0. -1.
        -11    1    3    3    0    0  0.80311423867E+01 -0.35200828155E+01  0.29473801181E+00  0.87736595455E+01  0.51100000000E-03 0.  1.
         12    1    3    3    0    0  0.17992872019E+01 -0.22739283713E+01  0.24800871649E+01  0.38156279979E+01  0.00000000000E+00 0. -1.
</event>
<event>
 7    1  0.1265344E-009  0.4778728E+02  0.7816164E-02  0.1312668E+00
        -11   -1    0    0    0    0  0.00000000000E+00  0.00000000000E+00  0.45593999997E+02  0.45594000000E+02  0.51100000000E-03 0. -1.
         11   -1    0    0    0    0 -0.00000000000E+00 -0.00000000000E+00 -0.45593999997E+02  0.45594000000E+02  0.51100000000E-03 0.  1.
    9900012    2    1    2    0    0 -0.28895685831E+01  0.42707496689E+02  0.71653571790E+01  0.47787283145E+02  0.20000055172E+02 0.  0.
         12    1    1    2    0    0  0.28895685831E+01 -0.42707496689E+02 -0.71653571790E+01  0.43400716855E+02  0.00000000000E+00 0. -1.
         11    1    3    3    0    0  0.19067950215E+01  0.20868973501E+01 -0.33249518768E+01  0.43642081811E+01  0.51100000000E-03 0. -1.
        -11    1    3    3    0    0  0.20747870478E+01  0.24586939070E+02  0.55089899043E+01  0.25281837041E+02  0.51100000000E-03 0.  1.
        -12    1    3    3    0    0 -0.68711506524E+01  0.16033660269E+02  0.49813191516E+01  0.18141237923E+02  0.00000000000E+00 0.  1.
</event>
<event>
 7    1  0.1265344E-009  0.4778727E+02  0.7816164E-02  0.1312668E+00
        -11   -1    0    0    0    0  0.00000000000E+00  0.00000000000E+00  0.45593999997E+02  0.45594000000E+02  0.51100000000E-03 0.  1.
         11   -1    0    0    0    0 -0.00000000000E+00 -0.00000000000E+00 -0.45593999997E+02  0.45594000000E+02  0.51100000000E-03 0. -1.
    9900012    2    1    2    0    0  0.84225498363E+01 -0.17890543864E+01  0.42538021368E+02  0.47787270475E+02  0.19999997405E+02 0.  0.
         12    1    1    2    0    0 -0.84225498363E+01  0.17890543864E+01 -0.42538021368E+02  0.43400729525E+02  0.00000000000E+00 0. -1.
         11    1    3    3    0    0  0.53701141883E+01 -0.21146173006E+01  0.54454376024E+01  0.79348927949E+01  0.51100000000E-03 0. -1.
        -11    1    3    3    0    0  0.13914545164E+01  0.12404224091E+01 -0.71556586380E+00  0.19967043324E+01  0.51100000000E-03 0.  1.
        -12    1    3    3    0    0  0.16609811315E+01 -0.91485949492E+00  0.37808149630E+02  0.37855673348E+02  0.00000000000E+00 0.  1.
</event>
<event>
 7    1  0.1265344E-009  0.4778727E+02  0.7816164E-02  0.1312668E+00
        -11   -1    0    0    0    0  0.00000000000E+00  0.00000000000E+00  0.45593999997E+02  0.45594000000E+02  0.51100000000E-03 0.  1.
         11   -1    0    0    0    0 -0.00000000000E+00 -0.00000000000E+00 -0.45593999997E+02  0.45594000000E+02  0.51100000000E-03 0. -1.
    9900012    2    1    2    0    0 -0.41569421427E+02 -0.88572601461E+01  0.87838336751E+01  0.47787267413E+02  0.19999983444E+02 0.  0.
         12    1    1    2    0    0  0.41569421427E+02  0.88572601461E+01 -0.87838336751E+01  0.43400732587E+02  0.00000000000E+00 0. -1.
         11    1    3    3    0    0 -0.52093095836E+00 -0.25693564844E+01 -0.21330673371E+01  0.33797837702E+01  0.51100000000E-03 0. -1.
        -11    1    3    3    0    0 -0.22041491294E+00  0.38407152666E+00  0.20512954707E+01  0.20985487939E+01  0.51100000000E-03 0.  1.
         12    1    3    3    0    0 -0.40828075555E+02 -0.66719751883E+01  0.88656055416E+01  0.42308934849E+02  0.00000000000E+00 0. -1.
</event>
<event>
 7    1  0.1265344E-009  0.4778727E+02  0.7816164E-02  0.1312668E+00
        -11   -1    0    0    0    0  0.00000000000E+00  0.00000000000E+00  0.45593999997E+02  0.45594000000E+02  0.51100000000E-03 0.  1.
         11   -1    0    0    0    0 -0.00000000000E+00 -0.00000000000E+00 -0.45593999997E+02  0.45594000000E+02  0.51100000000E-03 0. -1.
    9900012    2    1    2    0    0  0.15813780327E+02  0.52330485262E+01  0.40076958301E+02  0.47787273833E+02  0.20000012715E+02 0.  0.
         12    1    1    2    0    0 -0.15813780327E+02 -0.52330485262E+01 -0.40076958301E+02  0.43400726167E+02  0.00000000000E+00 0. -1.
         11    1    3    3    0    0  0.30213000188E+01  0.46654410067E+00  0.62268509346E+00  0.31198804766E+01  0.51100000000E-03 0. -1.
        -11    1    3    3    0    0  0.60860684062E+01  0.79199799144E+01  0.94105095658E+01  0.13723119217E+02  0.51100000000E-03 0.  1.
        -12    1    3    3    0    0  0.67064119022E+01 -0.31534754889E+01  0.30043763642E+02  0.30944274140E+02  0.00000000000E+00 0.  1.
</event>
<event>
 7    1  0.1265344E-009  0.4778727E+02  0.7816164E-02  0.1312668E+00
        -11   -1    0    0    0    0  0.00000000000E+00  0.00000000000E+00  0.45593999997E+02  0.45594000000E+02  0.51100000000E-03 0.  1.
         11   -1    0    0    0    0 -0.00000000000E+00 -0.00000000000E+00 -0.45593999997E+02  0.45594000000E+02  0.51100000000E-03 0. -1.
    9900012    2    1    2    0    0 -0.19922686994E+02 -0.18823509753E+02  0.33650938821E+02  0.47787266596E+02  0.19999979719E+02 0.  0.
         12    1    1    2    0    0  0.19922686994E+02  0.18823509753E+02 -0.33650938821E+02  0.43400733404E+02  0.00000000000E+00 0. -1.
         11    1    3    3    0    0  0.10630850713E+01  0.79059433316E+00 -0.19052315412E+00  0.13384650171E+01  0.51100000000E-03 0. -1.
        -11    1    3    3    0    0 -0.15845604425E+02 -0.12636563972E+02  0.13537823610E+02  0.24372907028E+02  0.51100000000E-03 0.  1.
         12    1    3    3    0    0 -0.51401676396E+01 -0.69775401143E+01  0.20303638365E+02  0.22075894552E+02  0.00000000000E+00 0. -1.
</event>
<event>
 7    1  0.1265344E-009  0.4778727E+02  0.7816164E-02  0.1312668E+00
        -11   -1    0    0    0    0  0.00000000000E+00  0.00000000000E+00  0.45593999997E+02  0.45594000000E+02  0.51100000000E-03 0. -1.
         11   -1    0    0    0    0 -0.00000000000E+00 -0.00000000000E+00 -0.45593999997E+02  0.45594000000E+02  0.51100000000E-03 0.  1.
    9900012    2    1    2    0    0 -0.29589525415E+02 -0.16183852756E+02 -0.27316038767E+02  0.47787273298E+02  0.20000010276E+02 0.  0.
         12    1    1    2    0    0  0.29589525415E+02  0.16183852756E+02  0.27316038767E+02  0.43400726702E+02  0.00000000000E+00 0. -1.
         11    1    3    3    0    0 -0.11849699192E+01 -0.52971228001E+01 -0.70196248486E+01  0.88734884315E+01  0.51100000000E-03 0. -1.
        -11    1    3    3    0    0 -0.10095765593E+02  0.26297602334E+01 -0.68527022243E+01  0.12481972994E+02  0.51100000000E-03 0.  1.
        -12    1    3    3    0    0 -0.18308789903E+02 -0.13516490190E+02 -0.13443711694E+02  0.26431811873E+02  0.00000000000E+00 0.  1.
</event>
<event>
 7    1  0.1265344E-009  0.4778727E+02  0.7816164E-02  0.1312668E+00
        -11   -1    0    0    0    0  0.00000000000E+00  0.00000000000E+00  0.45593999997E+02  0.45594000000E+02  0.51100000000E-03 0. -1.
         11   -1    0    0    0    0 -0.00000000000E+00 -0.00000000000E+00 -0.45593999997E+02  0.45594000000E+02  0.51100000000E-03 0.  1.
    9900012    2    1    2    0    0 -0.59810449130E+01 -0.39885753742E+02 -0.16030500550E+02  0.47787271922E+02  0.20000004000E+02 0.  0.
         12    1    1    2    0    0  0.59810449130E+01  0.39885753742E+02  0.16030500550E+02  0.43400728078E+02  0.00000000000E+00 0. -1.
         11    1    3    3    0    0 -0.30696820372E+01 -0.25156663583E+02 -0.99170466582E+01  0.27214490352E+02  0.51100000000E-03 0.  1.
        -11    1    3    3    0    0 -0.15373592829E+00 -0.86037605360E+01  0.31209115663E+01  0.91536014421E+01  0.51100000000E-03 0. -1.
         12    1    3    3    0    0 -0.27576269475E+01 -0.61253296237E+01 -0.92343654581E+01  0.11419180128E+02  0.00000000000E+00 0. -1.
</event>
<event>
 7    1  0.1265344E-009  0.4778728E+02  0.7816164E-02  0.1312668E+00
        -11   -1    0    0    0    0  0.00000000000E+00  0.00000000000E+00  0.45593999997E+02  0.45594000000E+02  0.51100000000E-03 0.  1.
         11   -1    0    0    0    0 -0.00000000000E+00 -0.00000000000E+00 -0.45593999997E+02  0.45594000000E+02  0.51100000000E-03 0. -1.
    9900012    2    1    2    0    0 -0.19537263938E+02  0.26920504566E+02  0.27878390675E+02  0.47787275180E+02  0.20000018854E+02 0.  0.
         12    1    1    2    0    0  0.19537263938E+02 -0.26920504566E+02 -0.27878390675E+02  0.43400724820E+02  0.00000000000E+00 0. -1.
         11    1    3    3    0    0 -0.64416467003E+01  0.38255708785E+01  0.35124067247E+00  0.75002116656E+01  0.51100000000E-03 0. -1.
        -11    1    3    3    0    0 -0.60518369675E+01  0.53620236070E+01  0.16178745418E+02  0.18086675521E+02  0.51100000000E-03 0.  1.
         12    1    3    3    0    0 -0.70437802707E+01  0.17732910081E+02  0.11348404585E+02  0.22200387993E+02  0.00000000000E+00 0. -1.
</event>
<event>
 7    1  0.1265344E-009  0.4778727E+02  0.7816164E-02  0.1312668E+00
        -11   -1    0    0    0    0  0.00000000000E+00  0.00000000000E+00  0.45593999997E+02  0.45594000000E+02  0.51100000000E-03 0.  1.
         11   -1    0    0    0    0 -0.00000000000E+00 -0.00000000000E+00 -0.45593999997E+02  0.45594000000E+02  0.51100000000E-03 0. -1.
    9900012    2    1    2    0    0 -0.28494353952E+02  0.47758360031E+01  0.32386516292E+02  0.47787271271E+02  0.20000001035E+02 0.  0.
         12    1    1    2    0    0  0.28494353952E+02 -0.47758360031E+01 -0.32386516292E+02  0.43400728729E+02  0.00000000000E+00 0. -1.
         11    1    3    3    0    0 -0.16475707432E+02  0.76277827498E+01  0.23152531684E+02  0.29422299854E+02  0.51100000000E-03 0. -1.
        -11    1    3    3    0    0 -0.58857984231E+01  0.23822507633E+01  0.33767302765E+00  0.63585977315E+01  0.51100000000E-03 0.  1.
        -12    1    3    3    0    0 -0.61328480963E+01 -0.52341975099E+01  0.88963115800E+01  0.12006373685E+02  0.00000000000E+00 0.  1.
</event>
<event>
 7    1  0.1265344E-009  0.4778728E+02  0.7816164E-02  0.1312668E+00
        -11   -1    0    0    0    0  0.00000000000E+00  0.00000000000E+00  0.45593999997E+02  0.45594000000E+02  0.51100000000E-03 0.  1.
         11   -1    0    0    0    0 -0.00000000000E+00 -0.00000000000E+00 -0.45593999997E+02  0.45594000000E+02  0.51100000000E-03 0. -1.
    9900012    2    1    2    0    0  0.85451262783E+01  0.39437494316E+02  0.15977725381E+02  0.47787275935E+02  0.20000022298E+02 0.  0.
         12    1    1    2    0    0 -0.85451262783E+01 -0.39437494316E+02 -0.15977725381E+02  0.43400724065E+02  0.00000000000E+00 0. -1.
         11    1    3    3    0    0  0.25295221976E+01  0.76887681261E+01  0.12722899316E+02  0.15079383446E+02  0.51100000000E-03 0. -1.
        -11    1    3    3    0    0  0.73959599014E+00  0.11056811636E+02 -0.15965160340E+00  0.11082670016E+02  0.51100000000E-03 0.  1.
         12    1    3    3    0    0  0.52760080905E+01  0.20691914554E+02  0.34144776685E+01  0.21625222473E+02  0.00000000000E+00 0. -1.
</event>
<event>
 7    1  0.1265344E-009  0.4778727E+02  0.7816164E-02  0.1312668E+00
        -11   -1    0    0    0    0  0.00000000000E+00  0.00000000000E+00  0.45593999997E+02  0.45594000000E+02  0.51100000000E-03 0.  1.
         11   -1    0    0    0    0 -0.00000000000E+00 -0.00000000000E+00 -0.45593999997E+02  0.45594000000E+02  0.51100000000E-03 0. -1.
    9900012    2    1    2    0    0  0.31053435059E+02  0.35578955314E+01  0.30110611874E+02  0.47787269626E+02  0.19999993534E+02 0.  0.
         12    1    1    2    0    0 -0.31053435059E+02 -0.35578955314E+01 -0.30110611874E+02  0.43400730374E+02  0.00000000000E+00 0. -1.
         11    1    3    3    0    0  0.13181056046E+02  0.19490687945E-01  0.21570013543E+02  0.25278570032E+02  0.51100000000E-03 0. -1.
        -11    1    3    3    0    0  0.72191770054E+01 -0.26418033439E+01  0.30618818677E+00  0.76934643048E+01  0.51100000000E-03 0.  1.
        -12    1    3    3    0    0  0.10653202008E+02  0.61802081873E+01  0.82344101440E+01  0.14815235289E+02  0.00000000000E+00 0.  1.
</event>
<event>
 7    1  0.1265344E-009  0.4778727E+02  0.7816164E-02  0.1312668E+00
        -11   -1    0    0    0    0  0.00000000000E+00  0.00000000000E+00  0.45593999997E+02  0.45594000000E+02  0.51100000000E-03 0. -1.
         11   -1    0    0    0    0 -0.00000000000E+00 -0.00000000000E+00 -0.45593999997E+02  0.45594000000E+02  0.51100000000E-03 0.  1.
    9900012    2    1    2    0    0  0.21422049836E+02 -0.34185547173E+02 -0.16002111938E+02  0.47787269117E+02  0.19999991211E+02 0.  0.
         12    1    1    2    0    0 -0.21422049836E+02  0.34185547173E+02  0.16002111938E+02  0.43400730883E+02  0.00000000000E+00 0. -1.
         11    1    3    3    0    0  0.76489846549E+01 -0.20877265950E+02 -0.54533472992E+01  0.22893365781E+02  0.51100000000E-03 0. -1.
        -11    1    3    3    0    0  0.59017260555E+01 -0.13178239755E+02 -0.50740293480E+01  0.15304971334E+02  0.51100000000E-03 0.  1.
        -12    1    3    3    0    0  0.78713391253E+01 -0.13004146919E+00 -0.54747352913E+01  0.95889320009E+01  0.00000000000E+00 0.  1.
</event>
<event>
 7    1  0.1265344E-009  0.4778726E+02  0.7816164E-02  0.1312668E+00
        -11   -1    0    0    0    0  0.00000000000E+00  0.00000000000E+00  0.45593999997E+02  0.45594000000E+02  0.51100000000E-03 0. -1.
         11   -1    0    0    0    0 -0.00000000000E+00 -0.00000000000E+00 -0.45593999997E+02  0.45594000000E+02  0.51100000000E-03 0.  1.
    9900012    2    1    2    0    0  0.27776183160E+02  0.16154979190E+02 -0.29174040694E+02  0.47787258601E+02  0.19999943266E+02 0.  0.
         12    1    1    2    0    0 -0.27776183160E+02 -0.16154979190E+02  0.29174040694E+02  0.43400741399E+02  0.00000000000E+00 0. -1.
         11    1    3    3    0    0  0.46511550358E+01  0.97038697626E+01 -0.90420812894E+01  0.14055517274E+02  0.51100000000E-03 0. -1.
        -11    1    3    3    0    0  0.11237442769E+02  0.20651382965E+01 -0.19817532717E+01  0.11596217592E+02  0.51100000000E-03 0.  1.
         12    1    3    3    0    0  0.11887585356E+02  0.43859711307E+01 -0.18150206133E+02  0.22135523735E+02  0.00000000000E+00 0. -1.
</event>
<event>
 7    1  0.1265344E-009  0.4778728E+02  0.7816164E-02  0.1312668E+00
        -11   -1    0    0    0    0  0.00000000000E+00  0.00000000000E+00  0.45593999997E+02  0.45594000000E+02  0.51100000000E-03 0. -1.
         11   -1    0    0    0    0 -0.00000000000E+00 -0.00000000000E+00 -0.45593999997E+02  0.45594000000E+02  0.51100000000E-03 0.  1.
    9900012    2    1    2    0    0 -0.25870665727E+01 -0.43309892164E+02  0.10876424519E+01  0.47787278361E+02  0.20000033359E+02 0.  0.
         12    1    1    2    0    0  0.25870665727E+01  0.43309892164E+02 -0.10876424519E+01  0.43400721639E+02  0.00000000000E+00 0. -1.
         11    1    3    3    0    0 -0.18776402666E+01 -0.10232800666E+02 -0.64233337786E+00  0.10423451198E+02  0.51100000000E-03 0. -1.
        -11    1    3    3    0    0 -0.89866222434E+01 -0.17312734078E+02  0.42435447084E+00  0.19510771835E+02  0.51100000000E-03 0.  1.
         12    1    3    3    0    0  0.82771959373E+01 -0.15764357420E+02  0.13056213589E+01  0.17853055329E+02  0.00000000000E+00 0. -1.
</event>
<event>
 7    1  0.1265344E-009  0.4778728E+02  0.7816164E-02  0.1312668E+00
        -11   -1    0    0    0    0  0.00000000000E+00  0.00000000000E+00  0.45593999997E+02  0.45594000000E+02  0.51100000000E-03 0. -1.
         11   -1    0    0    0    0 -0.00000000000E+00 -0.00000000000E+00 -0.45593999997E+02  0.45594000000E+02  0.51100000000E-03 0.  1.
    9900012    2    1    2    0    0  0.12483419568E+02 -0.37394808832E+02 -0.18149791517E+02  0.47787280838E+02  0.20000044654E+02 0.  0.
         12    1    1    2    0    0 -0.12483419568E+02  0.37394808832E+02  0.18149791517E+02  0.43400719162E+02  0.00000000000E+00 0. -1.
         11    1    3    3    0    0 -0.26832504374E+01 -0.10471909304E+01 -0.15444123850E+01  0.32682796132E+01  0.51100000000E-03 0. -1.
        -11    1    3    3    0    0  0.36369333129E+01 -0.35874392872E+01 -0.66591867591E+01  0.83929597351E+01  0.51100000000E-03 0.  1.
        -12    1    3    3    0    0  0.11529736692E+02 -0.32760178614E+02 -0.99461923728E+01  0.36126041490E+02  0.00000000000E+00 0.  1.
</event>
<event>
 7    1  0.1265344E-009  0.4778727E+02  0.7816164E-02  0.1312668E+00
        -11   -1    0    0    0    0  0.00000000000E+00  0.00000000000E+00  0.45593999997E+02  0.45594000000E+02  0.51100000000E-03 0. -1.
         11   -1    0    0    0    0 -0.00000000000E+00 -0.00000000000E+00 -0.45593999997E+02  0.45594000000E+02  0.51100000000E-03 0.  1.
    9900012    2    1    2    0    0 -0.79122676798E+01  0.11382863026E+02 -0.41127239383E+02  0.47787269939E+02  0.19999994961E+02 0.  0.
         12    1    1    2    0    0  0.79122676798E+01 -0.11382863026E+02  0.41127239383E+02  0.43400730061E+02  0.00000000000E+00 0. -1.
         11    1    3    3    0    0 -0.75525039528E+01  0.27733165608E+01 -0.25803322731E+02  0.27028560171E+02  0.51100000000E-03 0. -1.
        -11    1    3    3    0    0  0.22853710123E+01 -0.99308162111E+00 -0.11459275815E-01  0.24918393500E+01  0.51100000000E-03 0.  1.
        -12    1    3    3    0    0 -0.26451347393E+01  0.96026280865E+01 -0.15312457376E+02  0.18266870418E+02  0.00000000000E+00 0.  1.
</event>
<event>
 7    1  0.1265344E-009  0.4778724E+02  0.7816164E-02  0.1312668E+00
        -11   -1    0    0    0    0  0.00000000000E+00  0.00000000000E+00  0.45593999997E+02  0.45594000000E+02  0.51100000000E-03 0. -1.
         11   -1    0    0    0    0 -0.00000000000E+00 -0.00000000000E+00 -0.45593999997E+02  0.45594000000E+02  0.51100000000E-03 0.  1.
    9900012    2    1    2    0    0  0.38345620846E+02  0.19798577997E+02 -0.46103670196E+01  0.47787241794E+02  0.19999866636E+02 0.  0.
         12    1    1    2    0    0 -0.38345620846E+02 -0.19798577997E+02  0.46103670196E+01  0.43400758206E+02  0.00000000000E+00 0. -1.
         11    1    3    3    0    0  0.16347374309E+02  0.49203494028E+01  0.38597904543E+01  0.17502698867E+02  0.51100000000E-03 0. -1.
        -11    1    3    3    0    0  0.13904845545E+02  0.13960551272E+02 -0.18541691716E+01  0.19790898540E+02  0.51100000000E-03 0.  1.
        -12    1    3    3    0    0  0.80934009924E+01  0.91767732221E+00 -0.66159883023E+01  0.10493644386E+02  0.00000000000E+00 0.  1.
</event>
<event>
 7    1  0.1265344E-009  0.4778727E+02  0.7816164E-02  0.1312668E+00
        -11   -1    0    0    0    0  0.00000000000E+00  0.00000000000E+00  0.45593999997E+02  0.45594000000E+02  0.51100000000E-03 0. -1.
         11   -1    0    0    0    0 -0.00000000000E+00 -0.00000000000E+00 -0.45593999997E+02  0.45594000000E+02  0.51100000000E-03 0.  1.
    9900012    2    1    2    0    0  0.35784416600E+02 -0.15399678686E+02 -0.19129787832E+02  0.47787270081E+02  0.19999995606E+02 0.  0.
         12    1    1    2    0    0 -0.35784416600E+02  0.15399678686E+02  0.19129787832E+02  0.43400729919E+02  0.00000000000E+00 0. -1.
         11    1    3    3    0    0  0.14463507806E+02 -0.12552032595E+00 -0.56600387321E+01  0.15532058850E+02  0.51100000000E-03 0. -1.
        -11    1    3    3    0    0  0.27295883822E+01 -0.18845941091E+01 -0.80575170143E+01  0.87135485533E+01  0.51100000000E-03 0.  1.
        -12    1    3    3    0    0  0.18591320412E+02 -0.13389564250E+02 -0.54122320859E+01  0.23541662677E+02  0.00000000000E+00 0.  1.
</event>
<event>
 7    1  0.1265344E-009  0.4778727E+02  0.7816164E-02  0.1312668E+00
        -11   -1    0    0    0    0  0.00000000000E+00  0.00000000000E+00  0.45593999997E+02  0.45594000000E+02  0.51100000000E-03 0.  1.
         11   -1    0    0    0    0 -0.00000000000E+00 -0.00000000000E+00 -0.45593999997E+02  0.45594000000E+02  0.51100000000E-03 0. -1.
    9900012    2    1    2    0    0  0.15041556110E+02 -0.40616112959E+02 -0.27760147487E+01  0.47787270743E+02  0.19999998627E+02 0.  0.
         12    1    1    2    0    0 -0.15041556110E+02  0.40616112959E+02  0.27760147487E+01  0.43400729257E+02  0.00000000000E+00 0. -1.
         11    1    3    3    0    0  0.62303479222E+01 -0.20793424546E+01 -0.35561998783E+01  0.74691002210E+01  0.51100000000E-03 0. -1.
        -11    1    3    3    0    0  0.91648264832E+01 -0.24196756492E+02 -0.80286724678E+00  0.25886708274E+02  0.51100000000E-03 0.  1.
        -12    1    3    3    0    0 -0.35361829571E+00 -0.14340014013E+02  0.15830523765E+01  0.14431462248E+02  0.00000000000E+00 0.  1.
</event>
<event>
 7    1  0.1265344E-009  0.4778723E+02  0.7816164E-02  0.1312668E+00
        -11   -1    0    0    0    0  0.00000000000E+00  0.00000000000E+00  0.45593999997E+02  0.45594000000E+02  0.51100000000E-03 0.  1.
         11   -1    0    0    0    0 -0.00000000000E+00 -0.00000000000E+00 -0.45593999997E+02  0.45594000000E+02  0.51100000000E-03 0. -1.
    9900012    2    1    2    0    0  0.26827181500E+02 -0.19926691698E+02  0.27692162832E+02  0.47787232823E+02  0.19999825730E+02 0.  0.
         12    1    1    2    0    0 -0.26827181500E+02  0.19926691698E+02 -0.27692162832E+02  0.43400767177E+02  0.00000000000E+00 0. -1.
         11    1    3    3    0    0  0.54096336087E+01 -0.74684387269E+01  0.18800941328E+02  0.20940800077E+02  0.51100000000E-03 0.  1.
        -11    1    3    3    0    0  0.57328149749E+01 -0.59600994283E+01  0.18961385442E+01  0.84842969285E+01  0.51100000000E-03 0. -1.
        -12    1    3    3    0    0  0.15684732917E+02 -0.64981535423E+01  0.69950829599E+01  0.18362135817E+02  0.00000000000E+00 0.  1.
</event>
<event>
 7    1  0.1265344E-009  0.4778726E+02  0.7816164E-02  0.1312668E+00
        -11   -1    0    0    0    0  0.00000000000E+00  0.00000000000E+00  0.45593999997E+02  0.45594000000E+02  0.51100000000E-03 0.  1.
         11   -1    0    0    0    0 -0.00000000000E+00 -0.00000000000E+00 -0.45593999997E+02  0.45594000000E+02  0.51100000000E-03 0. -1.
    9900012    2    1    2    0    0 -0.91969489314E+01 -0.35344595342E+02  0.23447815672E+02  0.47787258654E+02  0.19999943507E+02 0.  0.
         12    1    1    2    0    0  0.91969489314E+01  0.35344595342E+02 -0.23447815672E+02  0.43400741346E+02  0.00000000000E+00 0. -1.
         11    1    3    3    0    0  0.26536858110E+01 -0.69639222319E-01  0.29064272569E+01  0.39362695113E+01  0.51100000000E-03 0. -1.
        -11    1    3    3    0    0 -0.53367843530E+01 -0.26298192777E+02  0.10263976679E+02  0.28730218031E+02  0.51100000000E-03 0.  1.
         12    1    3    3    0    0 -0.65138503894E+01 -0.89767633427E+01  0.10277411737E+02  0.15120771112E+02  0.00000000000E+00 0. -1.
</event>
<event>
 7    1  0.1520832E-009  0.4778727E+02  0.7816164E-02  0.1312668E+00
        -11   -1    0    0    0    0  0.00000000000E+00  0.00000000000E+00  0.45593999997E+02  0.45594000000E+02  0.51100000000E-03 0. -1.
         11   -1    0    0    0    0 -0.00000000000E+00 -0.00000000000E+00 -0.45593999997E+02  0.45594000000E+02  0.51100000000E-03 0.  1.
    9900012    2    1    2    0    0 -0.18303667397E+02  0.17577694455E+02 -0.35208288566E+02  0.47787272284E+02  0.20000005652E+02 0.  0.
         12    1    1    2    0    0  0.18303667397E+02 -0.17577694455E+02  0.35208288566E+02  0.43400727716E+02  0.00000000000E+00 0. -1.
         11    1    3    3    0    0 -0.39738836611E+01  0.37611929732E+01 -0.22170336548E+01  0.59036905764E+01  0.51100000000E-03 0. -1.
        -11    1    3    3    0    0 -0.26271971273E+01  0.88852634509E+01 -0.25519391551E+02  0.27149390725E+02  0.51100000000E-03 0.  1.
        -12    1    3    3    0    0 -0.11702586609E+02  0.49312380311E+01 -0.74718633600E+01  0.14734190983E+02  0.00000000000E+00 0.  1.
</event>
<event>
 7    1  0.1265344E-009  0.4778728E+02  0.7816164E-02  0.1312668E+00
        -11   -1    0    0    0    0  0.00000000000E+00  0.00000000000E+00  0.45593999997E+02  0.45594000000E+02  0.51100000000E-03 0. -1.
         11   -1    0    0    0    0 -0.00000000000E+00 -0.00000000000E+00 -0.45593999997E+02  0.45594000000E+02  0.51100000000E-03 0.  1.
    9900012    2    1    2    0    0  0.38956713456E+02  0.18091650277E+02  0.62200887212E+01  0.47787276080E+02  0.20000022961E+02 0.  0.
         12    1    1    2    0    0 -0.38956713456E+02 -0.18091650277E+02 -0.62200887212E+01  0.43400723920E+02  0.00000000000E+00 0. -1.
         11    1    3    3    0    0  0.11102350166E+02 -0.59650164228E+00 -0.15013958128E+01  0.11219277296E+02  0.51100000000E-03 0. -1.
        -11    1    3    3    0    0  0.15294937592E+02  0.70744819327E+01  0.95413094988E+01  0.19365433064E+02  0.51100000000E-03 0.  1.
         12    1    3    3    0    0  0.12559425699E+02  0.11613669987E+02 -0.18198249648E+01  0.17202565720E+02  0.00000000000E+00 0. -1.
</event>
<event>
 7    1  0.1265344E-009  0.4778727E+02  0.7816164E-02  0.1312668E+00
        -11   -1    0    0    0    0  0.00000000000E+00  0.00000000000E+00  0.45593999997E+02  0.45594000000E+02  0.51100000000E-03 0. -1.
         11   -1    0    0    0    0 -0.00000000000E+00 -0.00000000000E+00 -0.45593999997E+02  0.45594000000E+02  0.51100000000E-03 0.  1.
    9900012    2    1    2    0    0 -0.41444174453E+02  0.37079437722E+01  0.12339159774E+02  0.47787270663E+02  0.19999998259E+02 0.  0.
         12    1    1    2    0    0  0.41444174453E+02 -0.37079437722E+01 -0.12339159774E+02  0.43400729337E+02  0.00000000000E+00 0. -1.
         11    1    3    3    0    0 -0.24225772388E+02  0.15887280532E+01  0.25661127597E+01  0.24413050600E+02  0.51100000000E-03 0. -1.
        -11    1    3    3    0    0 -0.16813931862E+02  0.23514659509E+00  0.11826682581E+02  0.20558064590E+02  0.51100000000E-03 0.  1.
         12    1    3    3    0    0 -0.40447020305E+00  0.18840691239E+01 -0.20536355662E+01  0.28161554729E+01  0.00000000000E+00 0. -1.
</event>
<event>
 7    1  0.1265344E-009  0.4778727E+02  0.7816164E-02  0.1312668E+00
        -11   -1    0    0    0    0  0.00000000000E+00  0.00000000000E+00  0.45593999997E+02  0.45594000000E+02  0.51100000000E-03 0. -1.
         11   -1    0    0    0    0 -0.00000000000E+00 -0.00000000000E+00 -0.45593999997E+02  0.45594000000E+02  0.51100000000E-03 0.  1.
    9900012    2    1    2    0    0  0.35891968468E+02 -0.75274187389E+01 -0.23210515634E+02  0.47787268792E+02  0.19999989731E+02 0.  0.
         12    1    1    2    0    0 -0.35891968468E+02  0.75274187389E+01  0.23210515634E+02  0.43400731208E+02  0.00000000000E+00 0. -1.
         11    1    3    3    0    0  0.61258523889E+01  0.10233456686E+01 -0.12686854464E+02  0.14125493984E+02  0.51100000000E-03 0. -1.
        -11    1    3    3    0    0  0.73010447367E+01 -0.10887011190E+01  0.79227301227E+00  0.74241646776E+01  0.51100000000E-03 0.  1.
        -12    1    3    3    0    0  0.22465071342E+02 -0.74620632884E+01 -0.11315934183E+02  0.26237610131E+02  0.00000000000E+00 0.  1.
</event>
<event>
 7    1  0.1265344E-009  0.4778727E+02  0.7816164E-02  0.1312668E+00
        -11   -1    0    0    0    0  0.00000000000E+00  0.00000000000E+00  0.45593999997E+02  0.45594000000E+02  0.51100000000E-03 0.  1.
         11   -1    0    0    0    0 -0.00000000000E+00 -0.00000000000E+00 -0.45593999997E+02  0.45594000000E+02  0.51100000000E-03 0. -1.
    9900012    2    1    2    0    0  0.12891739229E+02 -0.16372382502E+02  0.38070610657E+02  0.47787271378E+02  0.20000001519E+02 0.  0.
         12    1    1    2    0    0 -0.12891739229E+02  0.16372382502E+02 -0.38070610657E+02  0.43400728622E+02  0.00000000000E+00 0. -1.
         11    1    3    3    0    0  0.51790440627E+01  0.16005748907E+01  0.90174013220E+01  0.10521305254E+02  0.51100000000E-03 0. -1.
        -11    1    3    3    0    0  0.86377461879E+00 -0.47165143641E+01  0.18184394755E+02  0.18805951909E+02  0.51100000000E-03 0.  1.
         12    1    3    3    0    0  0.68489205472E+01 -0.13256443028E+02  0.10868814581E+02  0.18460014215E+02  0.00000000000E+00 0. -1.
</event>
<event>
 7    1  0.1265344E-009  0.4778727E+02  0.7816164E-02  0.1312668E+00
        -11   -1    0    0    0    0  0.00000000000E+00  0.00000000000E+00  0.45593999997E+02  0.45594000000E+02  0.51100000000E-03 0.  1.
         11   -1    0    0    0    0 -0.00000000000E+00 -0.00000000000E+00 -0.45593999997E+02  0.45594000000E+02  0.51100000000E-03 0. -1.
    9900012    2    1    2    0    0  0.14091262844E+02 -0.63101144195E+01  0.40561581885E+02  0.47787272385E+02  0.20000006113E+02 0.  0.
         12    1    1    2    0    0 -0.14091262844E+02  0.63101144195E+01 -0.40561581885E+02  0.43400727615E+02  0.00000000000E+00 0. -1.
         11    1    3    3    0    0  0.14458205627E+02 -0.27719971865E+01  0.22791292092E+02  0.27132391598E+02  0.51100000000E-03 0. -1.
        -11    1    3    3    0    0  0.12264011300E+01 -0.65393997138E+01  0.14429964104E+02  0.15889986553E+02  0.51100000000E-03 0.  1.
         12    1    3    3    0    0 -0.15933439129E+01  0.30012824808E+01  0.33403256884E+01  0.47648942338E+01  0.00000000000E+00 0. -1.
</event>
<event>
 7    1  0.1265344E-009  0.4778727E+02  0.7816164E-02  0.1312668E+00
        -11   -1    0    0    0    0  0.00000000000E+00  0.00000000000E+00  0.45593999997E+02  0.45594000000E+02  0.51100000000E-03 0.  1.
         11   -1    0    0    0    0 -0.00000000000E+00 -0.00000000000E+00 -0.45593999997E+02  0.45594000000E+02  0.51100000000E-03 0. -1.
    9900012    2    1    2    0    0 -0.10061700538E+02 -0.35366517871E+02  0.23056337550E+02  0.47787272987E+02  0.20000008859E+02 0.  0.
         12    1    1    2    0    0  0.10061700538E+02  0.35366517871E+02 -0.23056337550E+02  0.43400727013E+02  0.00000000000E+00 0. -1.
         11    1    3    3    0    0  0.25677877365E+01  0.83397114448E+00  0.31739679392E+01  0.41669070628E+01  0.51100000000E-03 0. -1.
        -11    1    3    3    0    0 -0.23967498217E+01 -0.11521485619E+02  0.34848856456E+01  0.12273282723E+02  0.51100000000E-03 0.  1.
         12    1    3    3    0    0 -0.10232738452E+02 -0.24679003397E+02  0.16397483965E+02  0.31347083202E+02  0.00000000000E+00 0. -1.
</event>
<event>
 7    1  0.1265344E-009  0.4778727E+02  0.7816164E-02  0.1312668E+00
        -11   -1    0    0    0    0  0.00000000000E+00  0.00000000000E+00  0.45593999997E+02  0.45594000000E+02  0.51100000000E-03 0.  1.
         11   -1    0    0    0    0 -0.00000000000E+00 -0.00000000000E+00 -0.45593999997E+02  0.45594000000E+02  0.51100000000E-03 0. -1.
    9900012    2    1    2    0    0 -0.26407660739E+01 -0.25254391332E+02  0.35197519066E+02  0.47787271027E+02  0.19999999920E+02 0.  0.
         12    1    1    2    0    0  0.26407660739E+01  0.25254391332E+02 -0.35197519066E+02  0.43400728973E+02  0.00000000000E+00 0. -1.
         11    1    3    3    0    0  0.42073387437E+01 -0.82370007940E+00  0.12674083812E+02  0.13379558358E+02  0.51100000000E-03 0. -1.
        -11    1    3    3    0    0 -0.46845818201E+01 -0.74441592193E+01  0.62991365983E+01  0.10818499686E+02  0.51100000000E-03 0.  1.
        -12    1    3    3    0    0 -0.21635229975E+01 -0.16986532033E+02  0.16224298656E+02  0.23589212983E+02  0.00000000000E+00 0.  1.
</event>
<event>
 7    1  0.1265344E-009  0.4778727E+02  0.7816164E-02  0.1312668E+00
        -11   -1    0    0    0    0  0.00000000000E+00  0.00000000000E+00  0.45593999997E+02  0.45594000000E+02  0.51100000000E-03 0. -1.
         11   -1    0    0    0    0 -0.00000000000E+00 -0.00000000000E+00 -0.45593999997E+02  0.45594000000E+02  0.51100000000E-03 0.  1.
    9900012    2    1    2    0    0  0.16178993174E+02 -0.18233796828E+02 -0.35908103609E+02  0.47787273373E+02  0.20000010619E+02 0.  0.
         12    1    1    2    0    0 -0.16178993174E+02  0.18233796828E+02  0.35908103609E+02  0.43400726627E+02  0.00000000000E+00 0. -1.
         11    1    3    3    0    0  0.35824699160E+01 -0.91240723181E+01 -0.11100464538E+02  0.14808885832E+02  0.51100000000E-03 0. -1.
        -11    1    3    3    0    0  0.90588478142E+01 -0.12728172342E+02 -0.22559912977E+02  0.27441187450E+02  0.51100000000E-03 0.  1.
         12    1    3    3    0    0  0.35376754438E+01  0.36184478315E+01 -0.22477260939E+01  0.55372000910E+01  0.00000000000E+00 0. -1.
</event>
<event>
 7    1  0.1265344E-009  0.4778727E+02  0.7816164E-02  0.1312668E+00
        -11   -1    0    0    0    0  0.00000000000E+00  0.00000000000E+00  0.45593999997E+02  0.45594000000E+02  0.51100000000E-03 0. -1.
         11   -1    0    0    0    0 -0.00000000000E+00 -0.00000000000E+00 -0.45593999997E+02  0.45594000000E+02  0.51100000000E-03 0.  1.
    9900012    2    1    2    0    0 -0.27574474649E+02  0.33361006723E+02 -0.32116701269E+01  0.47787271357E+02  0.20000001427E+02 0.  0.
         12    1    1    2    0    0  0.27574474649E+02 -0.33361006723E+02  0.32116701269E+01  0.43400728643E+02  0.00000000000E+00 0. -1.
         11    1    3    3    0    0 -0.76847507525E+01 -0.10266916260E+01 -0.11456082325E+01  0.78372130446E+01  0.51100000000E-03 0. -1.
        -11    1    3    3    0    0 -0.40437223084E+01  0.10286339915E+02 -0.54052654068E+00  0.11065832465E+02  0.51100000000E-03 0.  1.
         12    1    3    3    0    0 -0.15846001588E+02  0.24101358434E+02 -0.15255353537E+01  0.28884225847E+02  0.00000000000E+00 0. -1.
</event>
<event>
 7    1  0.1265344E-009  0.4778727E+02  0.7816164E-02  0.1312668E+00
        -11   -1    0    0    0    0  0.00000000000E+00  0.00000000000E+00  0.45593999997E+02  0.45594000000E+02  0.51100000000E-03 0.  1.
         11   -1    0    0    0    0 -0.00000000000E+00 -0.00000000000E+00 -0.45593999997E+02  0.45594000000E+02  0.51100000000E-03 0. -1.
    9900012    2    1    2    0    0  0.13900690569E+02  0.41097685564E+02  0.11723693965E+01  0.47787269511E+02  0.19999993008E+02 0.  0.
         12    1    1    2    0    0 -0.13900690569E+02 -0.41097685564E+02 -0.11723693965E+01  0.43400730489E+02  0.00000000000E+00 0. -1.
         11    1    3    3    0    0  0.32745974744E+01  0.11978269276E+01  0.14394005541E+01  0.37722211207E+01  0.51100000000E-03 0. -1.
        -11    1    3    3    0    0  0.17310368828E+01  0.30682155706E+02  0.27534967063E+01  0.30854058272E+02  0.51100000000E-03 0.  1.
        -12    1    3    3    0    0  0.88950562121E+01  0.92177029295E+01 -0.30205278638E+01  0.13160990118E+02  0.00000000000E+00 0.  1.
</event>
<event>
 7    1  0.1322620E-009  0.4778727E+02  0.7816164E-02  0.1312668E+00
        -11   -1    0    0    0    0  0.00000000000E+00  0.00000000000E+00  0.45593999997E+02  0.45594000000E+02  0.51100000000E-03 0.  1.
         11   -1    0    0    0    0 -0.00000000000E+00 -0.00000000000E+00 -0.45593999997E+02  0.45594000000E+02  0.51100000000E-03 0. -1.
    9900012    2    1    2    0    0 -0.20899821201E+02 -0.38032530498E+02  0.58935553158E+00  0.47787271409E+02  0.20000001661E+02 0.  0.
         12    1    1    2    0    0  0.20899821201E+02  0.38032530498E+02 -0.58935553158E+00  0.43400728591E+02  0.00000000000E+00 0. -1.
         11    1    3    3    0    0 -0.30481393525E+01 -0.37304660053E+01 -0.49312041144E+01  0.68937873776E+01  0.51100000000E-03 0. -1.
        -11    1    3    3    0    0 -0.16822412281E+02 -0.20805932939E+02  0.16089209635E+01  0.26804272558E+02  0.51100000000E-03 0.  1.
         12    1    3    3    0    0 -0.10292695672E+01 -0.13496131554E+02  0.39116386825E+01  0.14089211473E+02  0.00000000000E+00 0. -1.
</event>
<event>
 7    1  0.1265344E-009  0.4778727E+02  0.7816164E-02  0.1312668E+00
        -11   -1    0    0    0    0  0.00000000000E+00  0.00000000000E+00  0.45593999997E+02  0.45594000000E+02  0.51100000000E-03 0.  1.
         11   -1    0    0    0    0 -0.00000000000E+00 -0.00000000000E+00 -0.45593999997E+02  0.45594000000E+02  0.51100000000E-03 0. -1.
    9900012    2    1    2    0    0  0.84987121185E+01  0.23628608360E+02  0.35398927883E+02  0.47787270329E+02  0.19999996738E+02 0.  0.
         12    1    1    2    0    0 -0.84987121185E+01 -0.23628608360E+02 -0.35398927883E+02  0.43400729671E+02  0.00000000000E+00 0. -1.
         11    1    3    3    0    0 -0.44005249505E+01  0.10250212509E+02  0.63946604673E+01  0.12857805376E+02  0.51100000000E-03 0. -1.
        -11    1    3    3    0    0  0.48359936659E+01  0.90108277422E+01  0.13844824776E+02  0.17212234738E+02  0.51100000000E-03 0.  1.
         12    1    3    3    0    0  0.80632434031E+01  0.43675681087E+01  0.15159442639E+02  0.17717230215E+02  0.00000000000E+00 0. -1.
</event>
<event>
 7    1  0.1265344E-009  0.4778727E+02  0.7816164E-02  0.1312668E+00
        -11   -1    0    0    0    0  0.00000000000E+00  0.00000000000E+00  0.45593999997E+02  0.45594000000E+02  0.51100000000E-03 0. -1.
         11   -1    0    0    0    0 -0.00000000000E+00 -0.00000000000E+00 -0.45593999997E+02  0.45594000000E+02  0.51100000000E-03 0.  1.
    9900012    2    1    2    0    0  0.27617553516E+02  0.32923766159E+02 -0.60761484887E+01  0.47787271657E+02  0.20000002792E+02 0.  0.
         12    1    1    2    0    0 -0.27617553516E+02 -0.32923766159E+02  0.60761484887E+01  0.43400728343E+02  0.00000000000E+00 0. -1.
         11    1    3    3    0    0  0.10240858312E+02  0.90688573384E+01 -0.10271531930E+02  0.17106248006E+02  0.51100000000E-03 0. -1.
        -11    1    3    3    0    0  0.53768051558E+01  0.12788697762E+02  0.19482797658E+00  0.13874393044E+02  0.51100000000E-03 0.  1.
         12    1    3    3    0    0  0.11999890047E+02  0.11066211059E+02  0.40005554642E+01  0.16806630607E+02  0.00000000000E+00 0. -1.
</event>
<event>
 7    1  0.1265344E-009  0.4778727E+02  0.7816164E-02  0.1312668E+00
        -11   -1    0    0    0    0  0.00000000000E+00  0.00000000000E+00  0.45593999997E+02  0.45594000000E+02  0.51100000000E-03 0.  1.
         11   -1    0    0    0    0 -0.00000000000E+00 -0.00000000000E+00 -0.45593999997E+02  0.45594000000E+02  0.51100000000E-03 0. -1.
    9900012    2    1    2    0    0 -0.21906006198E+02  0.43318741148E+01  0.37215388100E+02  0.47787270141E+02  0.19999995879E+02 0.  0.
         12    1    1    2    0    0  0.21906006198E+02 -0.43318741148E+01 -0.37215388100E+02  0.43400729859E+02  0.00000000000E+00 0. -1.
         11    1    3    3    0    0 -0.17089904599E+01 -0.38327551271E+01  0.19786249151E+01  0.46395707853E+01  0.51100000000E-03 0. -1.
        -11    1    3    3    0    0 -0.69199820114E+01  0.64259778144E+01  0.65590779923E+01  0.11497862683E+02  0.51100000000E-03 0.  1.
        -12    1    3    3    0    0 -0.13277033726E+02  0.17386514275E+01  0.28677685193E+02  0.31649836672E+02  0.00000000000E+00 0.  1.
</event>
<event>
 7    1  0.1265344E-009  0.4778727E+02  0.7816164E-02  0.1312668E+00
        -11   -1    0    0    0    0  0.00000000000E+00  0.00000000000E+00  0.45593999997E+02  0.45594000000E+02  0.51100000000E-03 0.  1.
         11   -1    0    0    0    0 -0.00000000000E+00 -0.00000000000E+00 -0.45593999997E+02  0.45594000000E+02  0.51100000000E-03 0. -1.
    9900012    2    1    2    0    0  0.28859384133E+01  0.35094792257E+02  0.25370267019E+02  0.47787268063E+02  0.19999986404E+02 0.  0.
         12    1    1    2    0    0 -0.28859384133E+01 -0.35094792257E+02 -0.25370267019E+02  0.43400731937E+02  0.00000000000E+00 0. -1.
         11    1    3    3    0    0  0.86859862394E+01  0.10158102400E+02  0.54936715271E+01  0.14450391982E+02  0.51100000000E-03 0.  1.
        -11    1    3    3    0    0  0.16987785348E+00  0.50666644784E+01  0.76193647037E+00  0.51264505135E+01  0.51100000000E-03 0. -1.
        -12    1    3    3    0    0 -0.59699256796E+01  0.19870025379E+02  0.19114659022E+02  0.28210425567E+02  0.00000000000E+00 0.  1.
</event>
<event>
 7    1  0.1265344E-009  0.4778726E+02  0.7816164E-02  0.1312668E+00
        -11   -1    0    0    0    0  0.00000000000E+00  0.00000000000E+00  0.45593999997E+02  0.45594000000E+02  0.51100000000E-03 0.  1.
         11   -1    0    0    0    0 -0.00000000000E+00 -0.00000000000E+00 -0.45593999997E+02  0.45594000000E+02  0.51100000000E-03 0. -1.
    9900012    2    1    2    0    0 -0.37275751499E+01 -0.32751403558E+02  0.28232516217E+02  0.47787260105E+02  0.19999950121E+02 0.  0.
         12    1    1    2    0    0  0.37275751499E+01  0.32751403558E+02 -0.28232516217E+02  0.43400739895E+02  0.00000000000E+00 0. -1.
         11    1    3    3    0    0 -0.22077608911E+01 -0.35677095932E+01 -0.58963034868E+00  0.42367940831E+01  0.51100000000E-03 0. -1.
        -11    1    3    3    0    0 -0.75154152330E+01 -0.98097625203E+01  0.11447862310E+02  0.16845369054E+02  0.51100000000E-03 0.  1.
         12    1    3    3    0    0  0.59956009742E+01 -0.19373931445E+02  0.17374284256E+02  0.26705096968E+02  0.00000000000E+00 0. -1.
</event>
<event>
 7    1  0.1265344E-009  0.4778727E+02  0.7816164E-02  0.1312668E+00
        -11   -1    0    0    0    0  0.00000000000E+00  0.00000000000E+00  0.45593999997E+02  0.45594000000E+02  0.51100000000E-03 0. -1.
         11   -1    0    0    0    0 -0.00000000000E+00 -0.00000000000E+00 -0.45593999997E+02  0.45594000000E+02  0.51100000000E-03 0.  1.
    9900012    2    1    2    0    0 -0.42704611203E+02 -0.62241231398E+01 -0.46043198113E+01  0.47787270884E+02  0.19999999269E+02 0.  0.
         12    1    1    2    0    0  0.42704611203E+02  0.62241231398E+01  0.46043198113E+01  0.43400729116E+02  0.00000000000E+00 0. -1.
         11    1    3    3    0    0 -0.11399693219E+02 -0.52441778973E+01  0.16313872278E+01  0.12653688468E+02  0.51100000000E-03 0. -1.
        -11    1    3    3    0    0 -0.43170029805E+01  0.52570448142E+01 -0.32164882615E+00  0.68100288649E+01  0.51100000000E-03 0.  1.
        -12    1    3    3    0    0 -0.26987915004E+02 -0.62369900567E+01 -0.59140582129E+01  0.28323553551E+02  0.00000000000E+00 0.  1.
</event>
<event>
 7    1  0.1265344E-009  0.4778727E+02  0.7816164E-02  0.1312668E+00
        -11   -1    0    0    0    0  0.00000000000E+00  0.00000000000E+00  0.45593999997E+02  0.45594000000E+02  0.51100000000E-03 0.  1.
         11   -1    0    0    0    0 -0.00000000000E+00 -0.00000000000E+00 -0.45593999997E+02  0.45594000000E+02  0.51100000000E-03 0. -1.
    9900012    2    1    2    0    0 -0.37027072727E+02 -0.65907856908E+01  0.21660580942E+02  0.47787270312E+02  0.19999996659E+02 0.  0.
         12    1    1    2    0    0  0.37027072727E+02  0.65907856908E+01 -0.21660580942E+02  0.43400729688E+02  0.00000000000E+00 0. -1.
         11    1    3    3    0    0 -0.75332514359E+01 -0.45393965129E+01  0.25962962536E+01  0.91704281468E+01  0.51100000000E-03 0. -1.
        -11    1    3    3    0    0 -0.19234504760E+02 -0.89180694149E+01  0.11177073239E+02  0.23967167164E+02  0.51100000000E-03 0.  1.
         12    1    3    3    0    0 -0.10259316531E+02  0.68666802370E+01  0.78872114499E+01  0.14649675000E+02  0.00000000000E+00 0. -1.
</event>
<event>
 7    1  0.1265344E-009  0.4778727E+02  0.7816164E-02  0.1312668E+00
        -11   -1    0    0    0    0  0.00000000000E+00  0.00000000000E+00  0.45593999997E+02  0.45594000000E+02  0.51100000000E-03 0.  1.
         11   -1    0    0    0    0 -0.00000000000E+00 -0.00000000000E+00 -0.45593999997E+02  0.45594000000E+02  0.51100000000E-03 0. -1.
    9900012    2    1    2    0    0  0.35418797056E+02  0.22703980839E+02 -0.10661209192E+02  0.47787270602E+02  0.19999997983E+02 0.  0.
         12    1    1    2    0    0 -0.35418797056E+02 -0.22703980839E+02  0.10661209192E+02  0.43400729398E+02  0.00000000000E+00 0. -1.
         11    1    3    3    0    0  0.61344360165E+01 -0.16962679270E+01 -0.22992837669E+01  0.67672251494E+01  0.51100000000E-03 0. -1.
        -11    1    3    3    0    0  0.17087956099E+02  0.99498417018E+01 -0.97751004751E+01  0.22057882562E+02  0.51100000000E-03 0.  1.
        -12    1    3    3    0    0  0.12196404940E+02  0.14450407064E+02  0.14131750503E+01  0.18962162891E+02  0.00000000000E+00 0.  1.
</event>
<event>
 7    1  0.1265344E-009  0.4778727E+02  0.7816164E-02  0.1312668E+00
        -11   -1    0    0    0    0  0.00000000000E+00  0.00000000000E+00  0.45593999997E+02  0.45594000000E+02  0.51100000000E-03 0.  1.
         11   -1    0    0    0    0 -0.00000000000E+00 -0.00000000000E+00 -0.45593999997E+02  0.45594000000E+02  0.51100000000E-03 0. -1.
    9900012    2    1    2    0    0  0.15780332404E+02 -0.21042845350E+02  0.34522499849E+02  0.47787271584E+02  0.20000002459E+02 0.  0.
         12    1    1    2    0    0 -0.15780332404E+02  0.21042845350E+02 -0.34522499849E+02  0.43400728416E+02  0.00000000000E+00 0. -1.
         11    1    3    3    0    0  0.39527754723E+01 -0.85003614454E+01  0.24709569995E+01  0.96946483893E+01  0.51100000000E-03 0. -1.
        -11    1    3    3    0    0  0.33493025123E+01  0.18101070336E+01  0.75881864919E+01  0.84896931210E+01  0.51100000000E-03 0.  1.
        -12    1    3    3    0    0  0.84782544197E+01 -0.14352590938E+02  0.24463356358E+02  0.29602930074E+02  0.00000000000E+00 0.  1.
</event>
<event>
 7    1  0.1265344E-009  0.4778727E+02  0.7816164E-02  0.1312668E+00
        -11   -1    0    0    0    0  0.00000000000E+00  0.00000000000E+00  0.45593999997E+02  0.45594000000E+02  0.51100000000E-03 0. -1.
         11   -1    0    0    0    0 -0.00000000000E+00 -0.00000000000E+00 -0.45593999997E+02  0.45594000000E+02  0.51100000000E-03 0.  1.
    9900012    2    1    2    0    0 -0.40334369554E+02 -0.15724383420E+02  0.30831865329E+01  0.47787266821E+02  0.19999980743E+02 0.  0.
         12    1    1    2    0    0  0.40334369554E+02  0.15724383420E+02 -0.30831865329E+01  0.43400733179E+02  0.00000000000E+00 0. -1.
         11    1    3    3    0    0 -0.41389384522E+01  0.24631061895E+01  0.21609706288E+01  0.52789675062E+01  0.51100000000E-03 0. -1.
        -11    1    3    3    0    0 -0.29972177402E+02 -0.12277869862E+02  0.53868099800E+01  0.32834360486E+02  0.51100000000E-03 0.  1.
        -12    1    3    3    0    0 -0.62232537007E+01 -0.59096197480E+01 -0.44645940759E+01  0.96739388282E+01  0.00000000000E+00 0.  1.
</event>
<event>
 7    1  0.1265344E-009  0.4778727E+02  0.7816164E-02  0.1312668E+00
        -11   -1    0    0    0    0  0.00000000000E+00  0.00000000000E+00  0.45593999997E+02  0.45594000000E+02  0.51100000000E-03 0. -1.
         11   -1    0    0    0    0 -0.00000000000E+00 -0.00000000000E+00 -0.45593999997E+02  0.45594000000E+02  0.51100000000E-03 0.  1.
    9900012    2    1    2    0    0  0.32065846476E+01  0.42377021570E+02  0.88050671229E+01  0.47787270176E+02  0.19999996039E+02 0.  0.
         12    1    1    2    0    0 -0.32065846476E+01 -0.42377021570E+02 -0.88050671229E+01  0.43400729824E+02  0.00000000000E+00 0. -1.
         11    1    3    3    0    0  0.86000927502E+01  0.15453169091E+02  0.78475256204E+01  0.19348015115E+02  0.51100000000E-03 0. -1.
        -11    1    3    3    0    0 -0.23727113285E+01  0.53109511463E+01 -0.25229860212E+01  0.63404589622E+01  0.51100000000E-03 0.  1.
        -12    1    3    3    0    0 -0.30207967740E+01  0.21612901333E+02  0.34805275238E+01  0.22098796099E+02  0.00000000000E+00 0.  1.
</event>
<event>
 7    1  0.1265344E-009  0.4778727E+02  0.7816164E-02  0.1312668E+00
        -11   -1    0    0    0    0  0.00000000000E+00  0.00000000000E+00  0.45593999997E+02  0.45594000000E+02  0.51100000000E-03 0. -1.
         11   -1    0    0    0    0 -0.00000000000E+00 -0.00000000000E+00 -0.45593999997E+02  0.45594000000E+02  0.51100000000E-03 0.  1.
    9900012    2    1    2    0    0  0.12259742149E+02  0.19021572484E+02 -0.37033793726E+02  0.47787269879E+02  0.19999994686E+02 0.  0.
         12    1    1    2    0    0 -0.12259742149E+02 -0.19021572484E+02  0.37033793726E+02  0.43400730121E+02  0.00000000000E+00 0. -1.
         11    1    3    3    0    0  0.94912839357E+01  0.46252668144E+01 -0.20148574932E+02  0.22747365472E+02  0.51100000000E-03 0. -1.
        -11    1    3    3    0    0  0.35893747169E+01  0.50430101855E+01 -0.57035984235E+00  0.62161783436E+01  0.51100000000E-03 0.  1.
        -12    1    3    3    0    0 -0.82091650324E+00  0.93532954837E+01 -0.16314858951E+02  0.18823726063E+02  0.00000000000E+00 0.  1.
</event>
<event>
 7    1  0.1265344E-009  0.4778728E+02  0.7816164E-02  0.1312668E+00
        -11   -1    0    0    0    0  0.00000000000E+00  0.00000000000E+00  0.45593999997E+02  0.45594000000E+02  0.51100000000E-03 0.  1.
         11   -1    0    0    0    0 -0.00000000000E+00 -0.00000000000E+00 -0.45593999997E+02  0.45594000000E+02  0.51100000000E-03 0. -1.
    9900012    2    1    2    0    0  0.16672918648E+02  0.22548673941E+02  0.33123917079E+02  0.47787276557E+02  0.20000025134E+02 0.  0.
         12    1    1    2    0    0 -0.16672918648E+02 -0.22548673941E+02 -0.33123917079E+02  0.43400723443E+02  0.00000000000E+00 0. -1.
         11    1    3    3    0    0 -0.15022795025E+01  0.82331485213E+01  0.15184662659E+02  0.17338268617E+02  0.51100000000E-03 0. -1.
        -11    1    3    3    0    0  0.71212557255E+01  0.10375638265E+01  0.67394220584E+01  0.98594437847E+01  0.51100000000E-03 0.  1.
        -12    1    3    3    0    0  0.11053942425E+02  0.13277961593E+02  0.11199832361E+02  0.20589564156E+02  0.00000000000E+00 0.  1.
</event>
<event>
 7    1  0.1265344E-009  0.4778724E+02  0.7816164E-02  0.1312668E+00
        -11   -1    0    0    0    0  0.00000000000E+00  0.00000000000E+00  0.45593999997E+02  0.45594000000E+02  0.51100000000E-03 0.  1.
         11   -1    0    0    0    0 -0.00000000000E+00 -0.00000000000E+00 -0.45593999997E+02  0.45594000000E+02  0.51100000000E-03 0. -1.
    9900012    2    1    2    0    0  0.33120193161E+02  0.65190879957E+01  0.27279666335E+02  0.47787240806E+02  0.19999862129E+02 0.  0.
         12    1    1    2    0    0 -0.33120193161E+02 -0.65190879957E+01 -0.27279666335E+02  0.43400759194E+02  0.00000000000E+00 0. -1.
         11    1    3    3    0    0  0.28345115988E+01  0.48433181413E+01  0.54481319182E-01  0.56120544453E+01  0.51100000000E-03 0. -1.
        -11    1    3    3    0    0 -0.20122218964E+00  0.16436168041E+01  0.20646919549E+01  0.26466808834E+01  0.51100000000E-03 0.  1.
        -12    1    3    3    0    0  0.30486903752E+02  0.32153050259E-01  0.25160493060E+02  0.39528505477E+02  0.00000000000E+00 0.  1.
</event>
<event>
 7    1  0.1265344E-009  0.4778726E+02  0.7816164E-02  0.1312668E+00
        -11   -1    0    0    0    0  0.00000000000E+00  0.00000000000E+00  0.45593999997E+02  0.45594000000E+02  0.51100000000E-03 0. -1.
         11   -1    0    0    0    0 -0.00000000000E+00 -0.00000000000E+00 -0.45593999997E+02  0.45594000000E+02  0.51100000000E-03 0.  1.
    9900012    2    1    2    0    0 -0.22465522585E+01 -0.42688455318E+02 -0.75015074726E+01  0.47787264651E+02  0.19999970850E+02 0.  0.
         12    1    1    2    0    0  0.22465522585E+01  0.42688455318E+02  0.75015074726E+01  0.43400735349E+02  0.00000000000E+00 0. -1.
         11    1    3    3    0    0 -0.18812368276E+01 -0.10439222338E+02 -0.20982964080E+01  0.10812921118E+02  0.51100000000E-03 0. -1.
        -11    1    3    3    0    0 -0.69838662500E+01 -0.97547646893E+01 -0.62170535187E+01  0.13512275036E+02  0.51100000000E-03 0.  1.
         12    1    3    3    0    0  0.66185508192E+01 -0.22494468290E+02  0.81384245406E+00  0.23462068497E+02  0.00000000000E+00 0. -1.
</event>
<event>
 7    1  0.1265344E-009  0.4778727E+02  0.7816164E-02  0.1312668E+00
        -11   -1    0    0    0    0  0.00000000000E+00  0.00000000000E+00  0.45593999997E+02  0.45594000000E+02  0.51100000000E-03 0.  1.
         11   -1    0    0    0    0 -0.00000000000E+00 -0.00000000000E+00 -0.45593999997E+02  0.45594000000E+02  0.51100000000E-03 0. -1.
    9900012    2    1    2    0    0  0.13677070738E+02 -0.20528993153E+02  0.35708843639E+02  0.47787270307E+02  0.19999996638E+02 0.  0.
         12    1    1    2    0    0 -0.13677070738E+02  0.20528993153E+02 -0.35708843639E+02  0.43400729693E+02  0.00000000000E+00 0. -1.
         11    1    3    3    0    0  0.61947606036E+01 -0.72653721786E+01  0.70399811870E+01  0.11862631546E+02  0.51100000000E-03 0. -1.
        -11    1    3    3    0    0 -0.46000419764E+01 -0.46196477497E+01  0.62571303210E+01  0.90362166658E+01  0.51100000000E-03 0.  1.
        -12    1    3    3    0    0  0.12082352111E+02 -0.86439732244E+01  0.22411732131E+02  0.26888422095E+02  0.00000000000E+00 0.  1.
</event>
<event>
 7    1  0.1265344E-009  0.4778728E+02  0.7816164E-02  0.1312668E+00
        -11   -1    0    0    0    0  0.00000000000E+00  0.00000000000E+00  0.45593999997E+02  0.45594000000E+02  0.51100000000E-03 0.  1.
         11   -1    0    0    0    0 -0.00000000000E+00 -0.00000000000E+00 -0.45593999997E+02  0.45594000000E+02  0.51100000000E-03 0. -1.
    9900012    2    1    2    0    0  0.92988200768E+01 -0.42066902711E+02 -0.52469099372E+01  0.47787280854E+02  0.20000044727E+02 0.  0.
         12    1    1    2    0    0 -0.92988200768E+01  0.42066902711E+02  0.52469099372E+01  0.43400719146E+02  0.00000000000E+00 0. -1.
         11    1    3    3    0    0 -0.34851832595E+01 -0.25979880899E+01  0.21179699606E+01  0.48354773789E+01  0.51100000000E-03 0. -1.
        -11    1    3    3    0    0  0.36269874065E+01 -0.21893082035E+02 -0.64614169487E+01  0.23113026368E+02  0.51100000000E-03 0.  1.
        -12    1    3    3    0    0  0.91570159298E+01 -0.17575832586E+02 -0.90346294902E+00  0.19838777107E+02  0.00000000000E+00 0.  1.
</event>
<event>
 7    1  0.1265344E-009  0.4778727E+02  0.7816164E-02  0.1312668E+00
        -11   -1    0    0    0    0  0.00000000000E+00  0.00000000000E+00  0.45593999997E+02  0.45594000000E+02  0.51100000000E-03 0.  1.
         11   -1    0    0    0    0 -0.00000000000E+00 -0.00000000000E+00 -0.45593999997E+02  0.45594000000E+02  0.51100000000E-03 0. -1.
    9900012    2    1    2    0    0 -0.39662219952E+01 -0.34011030077E+02  0.26667245919E+02  0.47787273177E+02  0.20000009723E+02 0.  0.
         12    1    1    2    0    0  0.39662219952E+01  0.34011030077E+02 -0.26667245919E+02  0.43400726823E+02  0.00000000000E+00 0. -1.
         11    1    3    3    0    0 -0.17668278842E+01 -0.15633761435E+02  0.52514667934E+01  0.16586563271E+02  0.51100000000E-03 0. -1.
        -11    1    3    3    0    0  0.22241753665E+01 -0.16430625706E+02  0.20353868644E+02  0.26252473906E+02  0.51100000000E-03 0.  1.
         12    1    3    3    0    0 -0.44235694775E+01 -0.19466429366E+01  0.10619104817E+01  0.49482360004E+01  0.00000000000E+00 0. -1.
</event>
<event>
 7    1  0.1265344E-009  0.4778727E+02  0.7816164E-02  0.1312668E+00
        -11   -1    0    0    0    0  0.00000000000E+00  0.00000000000E+00  0.45593999997E+02  0.45594000000E+02  0.51100000000E-03 0.  1.
         11   -1    0    0    0    0 -0.00000000000E+00 -0.00000000000E+00 -0.45593999997E+02  0.45594000000E+02  0.51100000000E-03 0. -1.
    9900012    2    1    2    0    0 -0.28961391803E+02 -0.22034116872E+02  0.23650769404E+02  0.47787269419E+02  0.19999992591E+02 0.  0.
         12    1    1    2    0    0  0.28961391803E+02  0.22034116872E+02 -0.23650769404E+02  0.43400730581E+02  0.00000000000E+00 0. -1.
         11    1    3    3    0    0 -0.72261663121E+01 -0.72325460317E+00  0.13061031541E+02  0.14944267194E+02  0.51100000000E-03 0. -1.
        -11    1    3    3    0    0 -0.14979213219E+02 -0.10337747211E+02  0.64088691188E+01  0.19295581092E+02  0.51100000000E-03 0.  1.
        -12    1    3    3    0    0 -0.67560122724E+01 -0.10973115058E+02  0.41808687447E+01  0.13547421133E+02  0.00000000000E+00 0.  1.
</event>
<event>
 7    1  0.1265344E-009  0.4778727E+02  0.7816164E-02  0.1312668E+00
        -11   -1    0    0    0    0  0.00000000000E+00  0.00000000000E+00  0.45593999997E+02  0.45594000000E+02  0.51100000000E-03 0.  1.
         11   -1    0    0    0    0 -0.00000000000E+00 -0.00000000000E+00 -0.45593999997E+02  0.45594000000E+02  0.51100000000E-03 0. -1.
    9900012    2    1    2    0    0  0.38246464782E+02  0.55061223693E+00  0.20506781330E+02  0.47787270483E+02  0.19999997439E+02 0.  0.
         12    1    1    2    0    0 -0.38246464782E+02 -0.55061223693E+00 -0.20506781330E+02  0.43400729517E+02  0.00000000000E+00 0. -1.
         11    1    3    3    0    0  0.15049689811E+02 -0.77342629039E+01  0.55725556608E+01  0.17814751273E+02  0.51100000000E-03 0. -1.
        -11    1    3    3    0    0  0.62987383182E+01  0.18158735299E+01  0.85749430148E+01  0.10793569801E+02  0.51100000000E-03 0.  1.
        -12    1    3    3    0    0  0.16898036652E+02  0.64690016109E+01  0.63592826541E+01  0.19178949409E+02  0.00000000000E+00 0.  1.
</event>
<event>
 7    1  0.1265344E-009  0.4778727E+02  0.7816164E-02  0.1312668E+00
        -11   -1    0    0    0    0  0.00000000000E+00  0.00000000000E+00  0.45593999997E+02  0.45594000000E+02  0.51100000000E-03 0.  1.
         11   -1    0    0    0    0 -0.00000000000E+00 -0.00000000000E+00 -0.45593999997E+02  0.45594000000E+02  0.51100000000E-03 0. -1.
    9900012    2    1    2    0    0  0.24357093586E+02  0.33809144339E+02  0.12136614308E+02  0.47787266645E+02  0.19999979942E+02 0.  0.
         12    1    1    2    0    0 -0.24357093586E+02 -0.33809144339E+02 -0.12136614308E+02  0.43400733355E+02  0.00000000000E+00 0. -1.
         11    1    3    3    0    0  0.48651526138E+00  0.56734554066E+01 -0.13982039023E+01  0.58634262819E+01  0.51100000000E-03 0. -1.
        -11    1    3    3    0    0 -0.20317115579E+01  0.21352559085E+01  0.58172236221E+00  0.30042587800E+01  0.51100000000E-03 0.  1.
        -12    1    3    3    0    0  0.25902289882E+02  0.26000433024E+02  0.12953095848E+02  0.38919581583E+02  0.00000000000E+00 0.  1.
</event>
<event>
 7    1  0.1265344E-009  0.4778727E+02  0.7816164E-02  0.1312668E+00
        -11   -1    0    0    0    0  0.00000000000E+00  0.00000000000E+00  0.45593999997E+02  0.45594000000E+02  0.51100000000E-03 0. -1.
         11   -1    0    0    0    0 -0.00000000000E+00 -0.00000000000E+00 -0.45593999997E+02  0.45594000000E+02  0.51100000000E-03 0.  1.
    9900012    2    1    2    0    0 -0.29272400594E+02 -0.24802233086E+02 -0.20287904400E+02  0.47787271117E+02  0.20000000333E+02 0.  0.
         12    1    1    2    0    0  0.29272400594E+02  0.24802233086E+02  0.20287904400E+02  0.43400728883E+02  0.00000000000E+00 0. -1.
         11    1    3    3    0    0 -0.30379191179E+01 -0.95099829434E+01 -0.19904728755E+01  0.10179917027E+02  0.51100000000E-03 0. -1.
        -11    1    3    3    0    0 -0.21074889652E+02 -0.17125709349E+02 -0.16793050962E+02  0.31928787253E+02  0.51100000000E-03 0.  1.
         12    1    3    3    0    0 -0.51595918240E+01  0.18334592064E+01 -0.15043805631E+01  0.56785668377E+01  0.00000000000E+00 0. -1.
</event>
<event>
 7    1  0.1265344E-009  0.4778727E+02  0.7816164E-02  0.1312668E+00
        -11   -1    0    0    0    0  0.00000000000E+00  0.00000000000E+00  0.45593999997E+02  0.45594000000E+02  0.51100000000E-03 0.  1.
         11   -1    0    0    0    0 -0.00000000000E+00 -0.00000000000E+00 -0.45593999997E+02  0.45594000000E+02  0.51100000000E-03 0. -1.
    9900012    2    1    2    0    0 -0.20407787545E+02 -0.40488239239E+01  0.38088745748E+02  0.47787270510E+02  0.19999997562E+02 0.  0.
         12    1    1    2    0    0  0.20407787545E+02  0.40488239239E+01 -0.38088745748E+02  0.43400729490E+02  0.00000000000E+00 0. -1.
         11    1    3    3    0    0 -0.38988675953E+01  0.20782993501E+01  0.17760071832E+01  0.47617957212E+01  0.51100000000E-03 0. -1.
        -11    1    3    3    0    0 -0.22276573381E+00 -0.67700363688E+01  0.10252995250E+02  0.12288487656E+02  0.51100000000E-03 0.  1.
         12    1    3    3    0    0 -0.16286154216E+02  0.64291309491E+00  0.26059743314E+02  0.30736987133E+02  0.00000000000E+00 0. -1.
</event>
<event>
 7    1  0.1265344E-009  0.4778727E+02  0.7816164E-02  0.1312668E+00
        -11   -1    0    0    0    0  0.00000000000E+00  0.00000000000E+00  0.45593999997E+02  0.45594000000E+02  0.51100000000E-03 0.  1.
         11   -1    0    0    0    0 -0.00000000000E+00 -0.00000000000E+00 -0.45593999997E+02  0.45594000000E+02  0.51100000000E-03 0. -1.
    9900012    2    1    2    0    0 -0.11983526394E+02 -0.26114491531E+02  0.32527711722E+02  0.47787267257E+02  0.19999982731E+02 0.  0.
         12    1    1    2    0    0  0.11983526394E+02  0.26114491531E+02 -0.32527711722E+02  0.43400732743E+02  0.00000000000E+00 0. -1.
         11    1    3    3    0    0 -0.76911135625E+01 -0.76051555054E+01  0.38058487065E+01  0.11466302923E+02  0.51100000000E-03 0. -1.
        -11    1    3    3    0    0  0.96013840326E+00 -0.14168701426E+02  0.13282261096E+02  0.19444598889E+02  0.51100000000E-03 0.  1.
        -12    1    3    3    0    0 -0.52525512348E+01 -0.43406345997E+01  0.15439601919E+02  0.16876365445E+02  0.00000000000E+00 0.  1.
</event>
<event>
 7    1  0.1265344E-009  0.4778728E+02  0.7816164E-02  0.1312668E+00
        -11   -1    0    0    0    0  0.00000000000E+00  0.00000000000E+00  0.45593999997E+02  0.45594000000E+02  0.51100000000E-03 0.  1.
         11   -1    0    0    0    0 -0.00000000000E+00 -0.00000000000E+00 -0.45593999997E+02  0.45594000000E+02  0.51100000000E-03 0. -1.
    9900012    2    1    2    0    0  0.75861043196E+01  0.21357094523E+02  0.37012814369E+02  0.47787275436E+02  0.20000020021E+02 0.  0.
         12    1    1    2    0    0 -0.75861043196E+01 -0.21357094523E+02 -0.37012814369E+02  0.43400724564E+02  0.00000000000E+00 0. -1.
         11    1    3    3    0    0 -0.31387145802E+01  0.14042122226E+02  0.14376373985E+02  0.20339932523E+02  0.51100000000E-03 0.  1.
        -11    1    3    3    0    0  0.41186039057E+01  0.66259448911E+01  0.17117752304E+02  0.18811791197E+02  0.51100000000E-03 0. -1.
        -12    1    3    3    0    0  0.66062149941E+01  0.68902740568E+00  0.55186880805E+01  0.86355517163E+01  0.00000000000E+00 0.  1.
</event>
<event>
 7    1  0.1265344E-009  0.4778727E+02  0.7816164E-02  0.1312668E+00
        -11   -1    0    0    0    0  0.00000000000E+00  0.00000000000E+00  0.45593999997E+02  0.45594000000E+02  0.51100000000E-03 0.  1.
         11   -1    0    0    0    0 -0.00000000000E+00 -0.00000000000E+00 -0.45593999997E+02  0.45594000000E+02  0.51100000000E-03 0. -1.
    9900012    2    1    2    0    0  0.46899836541E+01 -0.41840248516E+02  0.10536635750E+02  0.47787273790E+02  0.20000012520E+02 0.  0.
         12    1    1    2    0    0 -0.46899836541E+01  0.41840248516E+02 -0.10536635750E+02  0.43400726210E+02  0.00000000000E+00 0. -1.
         11    1    3    3    0    0  0.43516951268E+00 -0.23381476256E+02 -0.24635784829E+01  0.23514931929E+02  0.51100000000E-03 0. -1.
        -11    1    3    3    0    0  0.47899619163E+01 -0.61475778933E+01  0.28184638829E+01  0.82873510867E+01  0.51100000000E-03 0.  1.
        -12    1    3    3    0    0 -0.53514777487E+00 -0.12311194367E+02  0.10181750350E+02  0.15984990775E+02  0.00000000000E+00 0.  1.
</event>
<event>
 7    1  0.1265344E-009  0.4778727E+02  0.7816164E-02  0.1312668E+00
        -11   -1    0    0    0    0  0.00000000000E+00  0.00000000000E+00  0.45593999997E+02  0.45594000000E+02  0.51100000000E-03 0.  1.
         11   -1    0    0    0    0 -0.00000000000E+00 -0.00000000000E+00 -0.45593999997E+02  0.45594000000E+02  0.51100000000E-03 0. -1.
    9900012    2    1    2    0    0  0.46683896413E+01 -0.29784110400E+02  0.31220761757E+02  0.47787273521E+02  0.20000011293E+02 0.  0.
         12    1    1    2    0    0 -0.46683896413E+01  0.29784110400E+02 -0.31220761757E+02  0.43400726479E+02  0.00000000000E+00 0. -1.
         11    1    3    3    0    0  0.91079656280E+01 -0.19726625518E+02  0.17559625915E+02  0.27936271311E+02  0.51100000000E-03 0. -1.
        -11    1    3    3    0    0 -0.49174390091E+00 -0.43477829729E+01  0.11915193873E+02  0.12693182191E+02  0.51100000000E-03 0.  1.
         12    1    3    3    0    0 -0.39478320859E+01 -0.57097019094E+01  0.17459419694E+01  0.71578200196E+01  0.00000000000E+00 0. -1.
</event>
<event>
 7    1  0.1265344E-009  0.4778726E+02  0.7816164E-02  0.1312668E+00
        -11   -1    0    0    0    0  0.00000000000E+00  0.00000000000E+00  0.45593999997E+02  0.45594000000E+02  0.51100000000E-03 0.  1.
         11   -1    0    0    0    0 -0.00000000000E+00 -0.00000000000E+00 -0.45593999997E+02  0.45594000000E+02  0.51100000000E-03 0. -1.
    9900012    2    1    2    0    0 -0.16348974404E+02 -0.27021431550E+02  0.29768729685E+02  0.47787262746E+02  0.19999962166E+02 0.  0.
         12    1    1    2    0    0  0.16348974404E+02  0.27021431550E+02 -0.29768729685E+02  0.43400737254E+02  0.00000000000E+00 0. -1.
         11    1    3    3    0    0  0.15103510893E+00 -0.57413054751E+01  0.11920496649E+00  0.57445287228E+01  0.51100000000E-03 0. -1.
        -11    1    3    3    0    0 -0.14792495906E+02 -0.22274319945E+02  0.23549318324E+02  0.35630515824E+02  0.51100000000E-03 0.  1.
         12    1    3    3    0    0 -0.17075136073E+01  0.99419387009E+00  0.61002063950E+01  0.64122181991E+01  0.00000000000E+00 0. -1.
</event>
<event>
 7    1  0.1265344E-009  0.4778727E+02  0.7816164E-02  0.1312668E+00
        -11   -1    0    0    0    0  0.00000000000E+00  0.00000000000E+00  0.45593999997E+02  0.45594000000E+02  0.51100000000E-03 0.  1.
         11   -1    0    0    0    0 -0.00000000000E+00 -0.00000000000E+00 -0.45593999997E+02  0.45594000000E+02  0.51100000000E-03 0. -1.
    9900012    2    1    2    0    0 -0.76016018825E+01  0.41053738882E+02  0.11850300114E+02  0.47787269129E+02  0.19999991268E+02 0.  0.
         12    1    1    2    0    0  0.76016018825E+01 -0.41053738882E+02 -0.11850300114E+02  0.43400730871E+02  0.00000000000E+00 0. -1.
         11    1    3    3    0    0 -0.17553666250E+01  0.91607103477E+01  0.11110440056E+02  0.14506612443E+02  0.51100000000E-03 0. -1.
        -11    1    3    3    0    0 -0.29269181447E+01  0.21365319546E+02  0.38848791522E+01  0.21912006193E+02  0.51100000000E-03 0.  1.
         12    1    3    3    0    0 -0.29193171128E+01  0.10527708988E+02 -0.31450190942E+01  0.11368650494E+02  0.00000000000E+00 0. -1.
</event>
<event>
 7    1  0.1265344E-009  0.4778727E+02  0.7816164E-02  0.1312668E+00
        -11   -1    0    0    0    0  0.00000000000E+00  0.00000000000E+00  0.45593999997E+02  0.45594000000E+02  0.51100000000E-03 0. -1.
         11   -1    0    0    0    0 -0.00000000000E+00 -0.00000000000E+00 -0.45593999997E+02  0.45594000000E+02  0.51100000000E-03 0.  1.
    9900012    2    1    2    0    0  0.28074704486E+02 -0.32667349715E+02 -0.53177613727E+01  0.47787270105E+02  0.19999995718E+02 0.  0.
         12    1    1    2    0    0 -0.28074704486E+02  0.32667349715E+02  0.53177613727E+01  0.43400729895E+02  0.00000000000E+00 0. -1.
         11    1    3    3    0    0  0.57460626317E+01 -0.93535546506E+01  0.57940980674E+01  0.12412807621E+02  0.51100000000E-03 0. -1.
        -11    1    3    3    0    0  0.16250691501E+02 -0.12778329769E+02 -0.33413736781E+01  0.20941238366E+02  0.51100000000E-03 0.  1.
        -12    1    3    3    0    0  0.60779503531E+01 -0.10535465295E+02 -0.77704857620E+01  0.14433224118E+02  0.00000000000E+00 0.  1.
</event>
<event>
 7    1  0.1265344E-009  0.4778726E+02  0.7816164E-02  0.1312668E+00
        -11   -1    0    0    0    0  0.00000000000E+00  0.00000000000E+00  0.45593999997E+02  0.45594000000E+02  0.51100000000E-03 0.  1.
         11   -1    0    0    0    0 -0.00000000000E+00 -0.00000000000E+00 -0.45593999997E+02  0.45594000000E+02  0.51100000000E-03 0. -1.
    9900012    2    1    2    0    0  0.39002120591E+02  0.12682886525E+02  0.14198690602E+02  0.47787264568E+02  0.19999970471E+02 0.  0.
         12    1    1    2    0    0 -0.39002120591E+02 -0.12682886525E+02 -0.14198690602E+02  0.43400735432E+02  0.00000000000E+00 0. -1.
         11    1    3    3    0    0  0.64753484277E+01  0.83946245858E+01  0.20913199720E+01  0.10806177802E+02  0.51100000000E-03 0. -1.
        -11    1    3    3    0    0  0.25444919858E+02  0.83481028033E+01  0.93699327177E+01  0.28371295465E+02  0.51100000000E-03 0.  1.
         12    1    3    3    0    0  0.70818523060E+01 -0.40598408640E+01  0.27374379123E+01  0.86097913011E+01  0.00000000000E+00 0. -1.
</event>
<event>
 7    1  0.1265344E-009  0.4778727E+02  0.7816164E-02  0.1312668E+00
        -11   -1    0    0    0    0  0.00000000000E+00  0.00000000000E+00  0.45593999997E+02  0.45594000000E+02  0.51100000000E-03 0. -1.
         11   -1    0    0    0    0 -0.00000000000E+00 -0.00000000000E+00 -0.45593999997E+02  0.45594000000E+02  0.51100000000E-03 0.  1.
    9900012    2    1    2    0    0 -0.31517286469E+02  0.27371305448E+02 -0.11878360364E+02  0.47787272434E+02  0.20000006335E+02 0.  0.
         12    1    1    2    0    0  0.31517286469E+02 -0.27371305448E+02  0.11878360364E+02  0.43400727566E+02  0.00000000000E+00 0. -1.
         11    1    3    3    0    0 -0.14414473426E+02  0.14033188056E+02 -0.70645603329E+01  0.21321712504E+02  0.51100000000E-03 0. -1.
        -11    1    3    3    0    0  0.22944258318E+00  0.77978940565E+01 -0.19951992721E+01  0.80523671062E+01  0.51100000000E-03 0.  1.
         12    1    3    3    0    0 -0.17332255627E+02  0.55402233356E+01 -0.28186007592E+01  0.18413192824E+02  0.00000000000E+00 0. -1.
</event>
<event>
 7    1  0.1265344E-009  0.4778727E+02  0.7816164E-02  0.1312668E+00
        -11   -1    0    0    0    0  0.00000000000E+00  0.00000000000E+00  0.45593999997E+02  0.45594000000E+02  0.51100000000E-03 0.  1.
         11   -1    0    0    0    0 -0.00000000000E+00 -0.00000000000E+00 -0.45593999997E+02  0.45594000000E+02  0.51100000000E-03 0. -1.
    9900012    2    1    2    0    0  0.29397932920E+02 -0.47225274776E+01  0.31576609938E+02  0.47787273959E+02  0.20000013288E+02 0.  0.
         12    1    1    2    0    0 -0.29397932920E+02  0.47225274776E+01 -0.31576609938E+02  0.43400726041E+02  0.00000000000E+00 0. -1.
         11    1    3    3    0    0  0.12148901407E+02 -0.92776172840E+00  0.16035077548E+02  0.20139023299E+02  0.51100000000E-03 0. -1.
        -11    1    3    3    0    0  0.86495851954E+01 -0.77243800251E+01  0.13815150232E+02  0.18037176803E+02  0.51100000000E-03 0.  1.
        -12    1    3    3    0    0  0.85994463180E+01  0.39296142759E+01  0.17263821583E+01  0.96110738572E+01  0.00000000000E+00 0.  1.
</event>
<event>
 7    1  0.1265344E-009  0.4778727E+02  0.7816164E-02  0.1312668E+00
        -11   -1    0    0    0    0  0.00000000000E+00  0.00000000000E+00  0.45593999997E+02  0.45594000000E+02  0.51100000000E-03 0.  1.
         11   -1    0    0    0    0 -0.00000000000E+00 -0.00000000000E+00 -0.45593999997E+02  0.45594000000E+02  0.51100000000E-03 0. -1.
    9900012    2    1    2    0    0 -0.89922074973E+01 -0.40718039310E+02  0.12033472197E+02  0.47787274499E+02  0.20000015751E+02 0.  0.
         12    1    1    2    0    0  0.89922074973E+01  0.40718039310E+02 -0.12033472197E+02  0.43400725501E+02  0.00000000000E+00 0. -1.
         11    1    3    3    0    0 -0.62849867693E+00 -0.20055405929E+01 -0.12668961558E+01  0.24540231840E+01  0.51100000000E-03 0. -1.
        -11    1    3    3    0    0 -0.12523737401E+02 -0.36539870163E+02  0.12267469691E+02  0.40527730296E+02  0.51100000000E-03 0.  1.
        -12    1    3    3    0    0  0.41600285806E+01 -0.21726285535E+01  0.10328986615E+01  0.48055210194E+01  0.00000000000E+00 0.  1.
</event>
<event>
 7    1  0.1265344E-009  0.4778728E+02  0.7816164E-02  0.1312668E+00
        -11   -1    0    0    0    0  0.00000000000E+00  0.00000000000E+00  0.45593999997E+02  0.45594000000E+02  0.51100000000E-03 0. -1.
         11   -1    0    0    0    0 -0.00000000000E+00 -0.00000000000E+00 -0.45593999997E+02  0.45594000000E+02  0.51100000000E-03 0.  1.
    9900012    2    1    2    0    0 -0.29716911226E+02 -0.98431597245E+01 -0.30060603158E+02  0.47787280324E+02  0.20000042309E+02 0.  0.
         12    1    1    2    0    0  0.29716911226E+02  0.98431597245E+01  0.30060603158E+02  0.43400719676E+02  0.00000000000E+00 0. -1.
         11    1    3    3    0    0  0.16894855568E+01 -0.48180617084E+00  0.13347051234E+01  0.22063401054E+01  0.51100000000E-03 0. -1.
        -11    1    3    3    0    0 -0.84514518692E+01 -0.12863635758E+01 -0.10217006954E+02  0.13321749183E+02  0.51100000000E-03 0.  1.
         12    1    3    3    0    0 -0.22954944914E+02 -0.80749899779E+01 -0.21178301328E+02  0.32259191035E+02  0.00000000000E+00 0. -1.
</event>
<event>
 7    1  0.1265344E-009  0.4778727E+02  0.7816164E-02  0.1312668E+00
        -11   -1    0    0    0    0  0.00000000000E+00  0.00000000000E+00  0.45593999997E+02  0.45594000000E+02  0.51100000000E-03 0.  1.
         11   -1    0    0    0    0 -0.00000000000E+00 -0.00000000000E+00 -0.45593999997E+02  0.45594000000E+02  0.51100000000E-03 0. -1.
    9900012    2    1    2    0    0  0.23629552216E+02  0.14493089250E+02  0.33394879413E+02  0.47787270226E+02  0.19999996269E+02 0.  0.
         12    1    1    2    0    0 -0.23629552216E+02 -0.14493089250E+02 -0.33394879413E+02  0.43400729774E+02  0.00000000000E+00 0. -1.
         11    1    3    3    0    0  0.10946295348E+02  0.15080519899E+02  0.16519889547E+02  0.24902815366E+02  0.51100000000E-03 0. -1.
        -11    1    3    3    0    0  0.12394907550E+02  0.85689889995E+00  0.17347353510E+02  0.21337729096E+02  0.51100000000E-03 0.  1.
        -12    1    3    3    0    0  0.28834931709E+00 -0.14443295497E+01 -0.47236364353E+00  0.15467257638E+01  0.00000000000E+00 0.  1.
</event>
<event>
 7    1  0.1265344E-009  0.4778727E+02  0.7816164E-02  0.1312668E+00
        -11   -1    0    0    0    0  0.00000000000E+00  0.00000000000E+00  0.45593999997E+02  0.45594000000E+02  0.51100000000E-03 0. -1.
         11   -1    0    0    0    0 -0.00000000000E+00 -0.00000000000E+00 -0.45593999997E+02  0.45594000000E+02  0.51100000000E-03 0.  1.
    9900012    2    1    2    0    0  0.68068221313E+01 -0.39978434693E+02 -0.15460115630E+02  0.47787271396E+02  0.20000001604E+02 0.  0.
         12    1    1    2    0    0 -0.68068221313E+01  0.39978434693E+02  0.15460115630E+02  0.43400728604E+02  0.00000000000E+00 0. -1.
         11    1    3    3    0    0  0.30250359287E+01 -0.66882386861E+01  0.16787252846E+01  0.75300397033E+01  0.51100000000E-03 0. -1.
        -11    1    3    3    0    0  0.56566673642E+01 -0.16299012477E+02 -0.19006865284E+01  0.17357082212E+02  0.51100000000E-03 0.  1.
        -12    1    3    3    0    0 -0.18748811616E+01 -0.16991183530E+02 -0.15238154387E+02  0.22900149481E+02  0.00000000000E+00 0.  1.
</event>
<event>
 7    1  0.1265344E-009  0.4778727E+02  0.7816164E-02  0.1312668E+00
        -11   -1    0    0    0    0  0.00000000000E+00  0.00000000000E+00  0.45593999997E+02  0.45594000000E+02  0.51100000000E-03 0.  1.
         11   -1    0    0    0    0 -0.00000000000E+00 -0.00000000000E+00 -0.45593999997E+02  0.45594000000E+02  0.51100000000E-03 0. -1.
    9900012    2    1    2    0    0  0.39657716575E+02 -0.11462560103E+02  0.13397697789E+02  0.47787273346E+02  0.20000010495E+02 0.  0.
         12    1    1    2    0    0 -0.39657716575E+02  0.11462560103E+02 -0.13397697789E+02  0.43400726654E+02  0.00000000000E+00 0. -1.
         11    1    3    3    0    0  0.27003799613E+02 -0.15748942766E+02  0.13745931556E+02  0.34149451334E+02  0.51100000000E-03 0. -1.
        -11    1    3    3    0    0  0.37161037860E+01  0.77951389590E+00 -0.12424509221E+01  0.39950912151E+01  0.51100000000E-03 0.  1.
         12    1    3    3    0    0  0.89378131752E+01  0.35068687671E+01  0.89421715483E+00  0.96427307971E+01  0.00000000000E+00 0. -1.
</event>
<event>
 7    1  0.1265344E-009  0.4778727E+02  0.7816164E-02  0.1312668E+00
        -11   -1    0    0    0    0  0.00000000000E+00  0.00000000000E+00  0.45593999997E+02  0.45594000000E+02  0.51100000000E-03 0.  1.
         11   -1    0    0    0    0 -0.00000000000E+00 -0.00000000000E+00 -0.45593999997E+02  0.45594000000E+02  0.51100000000E-03 0. -1.
    9900012    2    1    2    0    0 -0.31998592065E+02  0.49837973659E+01  0.28894205514E+02  0.47787271405E+02  0.20000001644E+02 0.  0.
         12    1    1    2    0    0  0.31998592065E+02 -0.49837973659E+01 -0.28894205514E+02  0.43400728595E+02  0.00000000000E+00 0. -1.
         11    1    3    3    0    0 -0.66750526134E+01  0.81986868019E+01  0.76348476075E+01  0.13040923699E+02  0.51100000000E-03 0. -1.
        -11    1    3    3    0    0 -0.18497263237E+02  0.21538075202E+01  0.16283033095E+02  0.24737113840E+02  0.51100000000E-03 0.  1.
         12    1    3    3    0    0 -0.68262762145E+01 -0.53686969562E+01  0.49763248112E+01  0.10009233866E+02  0.00000000000E+00 0. -1.
</event>
<event>
 7    1  0.1265344E-009  0.4778727E+02  0.7816164E-02  0.1312668E+00
        -11   -1    0    0    0    0  0.00000000000E+00  0.00000000000E+00  0.45593999997E+02  0.45594000000E+02  0.51100000000E-03 0.  1.
         11   -1    0    0    0    0 -0.00000000000E+00 -0.00000000000E+00 -0.45593999997E+02  0.45594000000E+02  0.51100000000E-03 0. -1.
    9900012    2    1    2    0    0  0.80425896964E+01 -0.31918284630E+02  0.28287155176E+02  0.47787270851E+02  0.19999999118E+02 0.  0.
         12    1    1    2    0    0 -0.80425896964E+01  0.31918284630E+02 -0.28287155176E+02  0.43400729149E+02  0.00000000000E+00 0. -1.
         11    1    3    3    0    0  0.21588012029E+01 -0.15570484485E+02  0.40192025386E+01  0.16225116302E+02  0.51100000000E-03 0. -1.
        -11    1    3    3    0    0  0.23894402705E+01 -0.42831433374E+01  0.83500176560E+00  0.49751351605E+01  0.51100000000E-03 0.  1.
        -12    1    3    3    0    0  0.34943482230E+01 -0.12064656808E+02  0.23432950872E+02  0.26587019388E+02  0.00000000000E+00 0.  1.
</event>
<event>
 7    1  0.1265344E-009  0.4778727E+02  0.7816164E-02  0.1312668E+00
        -11   -1    0    0    0    0  0.00000000000E+00  0.00000000000E+00  0.45593999997E+02  0.45594000000E+02  0.51100000000E-03 0.  1.
         11   -1    0    0    0    0 -0.00000000000E+00 -0.00000000000E+00 -0.45593999997E+02  0.45594000000E+02  0.51100000000E-03 0. -1.
    9900012    2    1    2    0    0  0.33973444697E+01  0.77054067905E+01  0.42575911055E+02  0.47787269068E+02  0.19999990988E+02 0.  0.
         12    1    1    2    0    0 -0.33973444697E+01 -0.77054067905E+01 -0.42575911055E+02  0.43400730932E+02  0.00000000000E+00 0. -1.
         11    1    3    3    0    0  0.61787012461E+01 -0.13386853869E+01  0.95706012647E+01  0.11470171598E+02  0.51100000000E-03 0. -1.
        -11    1    3    3    0    0  0.19960530733E+01  0.73245843870E+01  0.28614522121E+02  0.29604469946E+02  0.51100000000E-03 0.  1.
         12    1    3    3    0    0 -0.47774098497E+01  0.17195077904E+01  0.43907876694E+01  0.67126275237E+01  0.00000000000E+00 0. -1.
</event>
<event>
 7    1  0.1265344E-009  0.4778727E+02  0.7816164E-02  0.1312668E+00
        -11   -1    0    0    0    0  0.00000000000E+00  0.00000000000E+00  0.45593999997E+02  0.45594000000E+02  0.51100000000E-03 0.  1.
         11   -1    0    0    0    0 -0.00000000000E+00 -0.00000000000E+00 -0.45593999997E+02  0.45594000000E+02  0.51100000000E-03 0. -1.
    9900012    2    1    2    0    0 -0.40444633318E+02 -0.12322353797E+02  0.97987072487E+01  0.47787269234E+02  0.19999991745E+02 0.  0.
         12    1    1    2    0    0  0.40444633318E+02  0.12322353797E+02 -0.97987072487E+01  0.43400730766E+02  0.00000000000E+00 0. -1.
         11    1    3    3    0    0 -0.11100380574E+02  0.24170076733E+01  0.10960830306E+01  0.11413227995E+02  0.51100000000E-03 0. -1.
        -11    1    3    3    0    0 -0.15069538828E+02 -0.64744317416E+00  0.55343588090E+01  0.16066714376E+02  0.51100000000E-03 0.  1.
        -12    1    3    3    0    0 -0.14274713915E+02 -0.14091918296E+02  0.31682654091E+01  0.20307326863E+02  0.00000000000E+00 0.  1.
</event>
<event>
 7    1  0.1265344E-009  0.4778727E+02  0.7816164E-02  0.1312668E+00
        -11   -1    0    0    0    0  0.00000000000E+00  0.00000000000E+00  0.45593999997E+02  0.45594000000E+02  0.51100000000E-03 0.  1.
         11   -1    0    0    0    0 -0.00000000000E+00 -0.00000000000E+00 -0.45593999997E+02  0.45594000000E+02  0.51100000000E-03 0. -1.
    9900012    2    1    2    0    0  0.18292283631E+02 -0.33029803690E+02  0.21402049656E+02  0.47787270723E+02  0.19999998536E+02 0.  0.
         12    1    1    2    0    0 -0.18292283631E+02  0.33029803690E+02 -0.21402049656E+02  0.43400729277E+02  0.00000000000E+00 0. -1.
         11    1    3    3    0    0  0.33480053555E+00 -0.13834073353E+02  0.12836817256E+02  0.18875316009E+02  0.51100000000E-03 0. -1.
        -11    1    3    3    0    0  0.41873003033E+01 -0.72781364987E+01 -0.79831798517E+00  0.84345756615E+01  0.51100000000E-03 0.  1.
        -12    1    3    3    0    0  0.13770182792E+02 -0.11917593839E+02  0.93635503855E+01  0.20477379053E+02  0.00000000000E+00 0.  1.
</event>
<event>
 7    1  0.1265344E-009  0.4778727E+02  0.7816164E-02  0.1312668E+00
        -11   -1    0    0    0    0  0.00000000000E+00  0.00000000000E+00  0.45593999997E+02  0.45594000000E+02  0.51100000000E-03 0.  1.
         11   -1    0    0    0    0 -0.00000000000E+00 -0.00000000000E+00 -0.45593999997E+02  0.45594000000E+02  0.51100000000E-03 0. -1.
    9900012    2    1    2    0    0  0.56058713548E+01  0.26780231460E+02  0.33690010476E+02  0.47787269630E+02  0.19999993553E+02 0.  0.
         12    1    1    2    0    0 -0.56058713548E+01 -0.26780231460E+02 -0.33690010476E+02  0.43400730370E+02  0.00000000000E+00 0. -1.
         11    1    3    3    0    0  0.29925572527E+01  0.50820803734E+01  0.16859388878E-01  0.58977304392E+01  0.51100000000E-03 0. -1.
        -11    1    3    3    0    0  0.37918082249E+01  0.41377821321E+01  0.15965457510E+02  0.16923205498E+02  0.51100000000E-03 0.  1.
        -12    1    3    3    0    0 -0.11784941228E+01  0.17560368955E+02  0.17707693578E+02  0.24966333693E+02  0.00000000000E+00 0.  1.
</event>
<event>
 7    1  0.1265344E-009  0.4778727E+02  0.7816164E-02  0.1312668E+00
        -11   -1    0    0    0    0  0.00000000000E+00  0.00000000000E+00  0.45593999997E+02  0.45594000000E+02  0.51100000000E-03 0.  1.
         11   -1    0    0    0    0 -0.00000000000E+00 -0.00000000000E+00 -0.45593999997E+02  0.45594000000E+02  0.51100000000E-03 0. -1.
    9900012    2    1    2    0    0 -0.38548693162E+02 -0.11118165822E+02  0.16553182053E+02  0.47787271989E+02  0.20000004309E+02 0.  0.
         12    1    1    2    0    0  0.38548693162E+02  0.11118165822E+02 -0.16553182053E+02  0.43400728011E+02  0.00000000000E+00 0. -1.
         11    1    3    3    0    0 -0.46415864252E+01 -0.83662976061E+00 -0.16791606885E+01  0.50063814056E+01  0.51100000000E-03 0. -1.
        -11    1    3    3    0    0 -0.14414326971E+02  0.61428393501E+00  0.13898497879E+02  0.20032933144E+02  0.51100000000E-03 0.  1.
        -12    1    3    3    0    0 -0.19492779766E+02 -0.10895819996E+02  0.43338448621E+01  0.22747957440E+02  0.00000000000E+00 0.  1.
</event>
<event>
 7    1  0.1265344E-009  0.4778728E+02  0.7816164E-02  0.1312668E+00
        -11   -1    0    0    0    0  0.00000000000E+00  0.00000000000E+00  0.45593999997E+02  0.45594000000E+02  0.51100000000E-03 0.  1.
         11   -1    0    0    0    0 -0.00000000000E+00 -0.00000000000E+00 -0.45593999997E+02  0.45594000000E+02  0.51100000000E-03 0. -1.
    9900012    2    1    2    0    0  0.36209983644E+02  0.20113760531E+02  0.12957480268E+02  0.47787279117E+02  0.20000036807E+02 0.  0.
         12    1    1    2    0    0 -0.36209983644E+02 -0.20113760531E+02 -0.12957480268E+02  0.43400720883E+02  0.00000000000E+00 0. -1.
         11    1    3    3    0    0  0.52961811349E+01  0.64334021773E+01  0.55866536165E+00  0.83516648301E+01  0.51100000000E-03 0. -1.
        -11    1    3    3    0    0  0.26175004529E+02  0.76500267797E+01  0.15260551789E+02  0.31249611405E+02  0.51100000000E-03 0.  1.
        -12    1    3    3    0    0  0.47387979805E+01  0.60303315744E+01 -0.28617368822E+01  0.81860028818E+01  0.00000000000E+00 0.  1.
</event>
<event>
 7    1  0.1265344E-009  0.4778726E+02  0.7816164E-02  0.1312668E+00
        -11   -1    0    0    0    0  0.00000000000E+00  0.00000000000E+00  0.45593999997E+02  0.45594000000E+02  0.51100000000E-03 0.  1.
         11   -1    0    0    0    0 -0.00000000000E+00 -0.00000000000E+00 -0.45593999997E+02  0.45594000000E+02  0.51100000000E-03 0. -1.
    9900012    2    1    2    0    0  0.11315660539E+02  0.23557608429E+02  0.34649947496E+02  0.47787263257E+02  0.19999964495E+02 0.  0.
         12    1    1    2    0    0 -0.11315660539E+02 -0.23557608429E+02 -0.34649947496E+02  0.43400736743E+02  0.00000000000E+00 0. -1.
         11    1    3    3    0    0  0.28571678446E+00 -0.23750976458E+01  0.19110992872E-01  0.23922977238E+01  0.51100000000E-03 0. -1.
        -11    1    3    3    0    0  0.18829430718E+01  0.82928351035E+01  0.16182576653E+02  0.18280929300E+02  0.51100000000E-03 0.  1.
         12    1    3    3    0    0  0.91470006830E+01  0.17639870972E+02  0.18448259850E+02  0.27114036233E+02  0.00000000000E+00 0. -1.
</event>
<event>
 7    1  0.1471341E-009  0.4778727E+02  0.7816164E-02  0.1312668E+00
        -11   -1    0    0    0    0  0.00000000000E+00  0.00000000000E+00  0.45593999997E+02  0.45594000000E+02  0.51100000000E-03 0. -1.
         11   -1    0    0    0    0 -0.00000000000E+00 -0.00000000000E+00 -0.45593999997E+02  0.45594000000E+02  0.51100000000E-03 0.  1.
    9900012    2    1    2    0    0 -0.43145286902E+02 -0.46114029856E+01 -0.91787407736E+00  0.47787270603E+02  0.19999997988E+02 0.  0.
         12    1    1    2    0    0  0.43145286902E+02  0.46114029856E+01  0.91787407736E+00  0.43400729397E+02  0.00000000000E+00 0. -1.
         11    1    3    3    0    0 -0.98659815153E+01 -0.54473121954E+01  0.43977586966E+01  0.12097565178E+02  0.51100000000E-03 0. -1.
        -11    1    3    3    0    0 -0.39539028969E+01  0.11351366298E+01 -0.48493172919E+01  0.63590692515E+01  0.51100000000E-03 0.  1.
        -12    1    3    3    0    0 -0.29325402490E+02 -0.29922742004E+00 -0.46631548199E+00  0.29330636174E+02  0.00000000000E+00 0.  1.
</event>
<event>
 7    1  0.1265344E-009  0.4778727E+02  0.7816164E-02  0.1312668E+00
        -11   -1    0    0    0    0  0.00000000000E+00  0.00000000000E+00  0.45593999997E+02  0.45594000000E+02  0.51100000000E-03 0.  1.
         11   -1    0    0    0    0 -0.00000000000E+00 -0.00000000000E+00 -0.45593999997E+02  0.45594000000E+02  0.51100000000E-03 0. -1.
    9900012    2    1    2    0    0 -0.34056631200E+02  0.69905749976E+01  0.25978859557E+02  0.47787269461E+02  0.19999992779E+02 0.  0.
         12    1    1    2    0    0  0.34056631200E+02 -0.69905749976E+01 -0.25978859557E+02  0.43400730539E+02  0.00000000000E+00 0. -1.
         11    1    3    3    0    0 -0.10831360066E+02  0.16576746784E+01  0.11870134950E+02  0.16154452953E+02  0.51100000000E-03 0.  1.
        -11    1    3    3    0    0 -0.59670300694E+01 -0.38453519597E+01 -0.66636130834E+00  0.71299521174E+01  0.51100000000E-03 0. -1.
         12    1    3    3    0    0 -0.17258241064E+02  0.91782522789E+01  0.14775085915E+02  0.24502864391E+02  0.00000000000E+00 0. -1.
</event>
<event>
 7    1  0.1265344E-009  0.4778727E+02  0.7816164E-02  0.1312668E+00
        -11   -1    0    0    0    0  0.00000000000E+00  0.00000000000E+00  0.45593999997E+02  0.45594000000E+02  0.51100000000E-03 0. -1.
         11   -1    0    0    0    0 -0.00000000000E+00 -0.00000000000E+00 -0.45593999997E+02  0.45594000000E+02  0.51100000000E-03 0.  1.
    9900012    2    1    2    0    0 -0.39784167937E+02 -0.73116358489E+00 -0.17329416585E+02  0.47787270769E+02  0.19999998744E+02 0.  0.
         12    1    1    2    0    0  0.39784167937E+02  0.73116358489E+00  0.17329416585E+02  0.43400729231E+02  0.00000000000E+00 0. -1.
         11    1    3    3    0    0 -0.38223666731E+01  0.36214481389E+01  0.25296283678E+01  0.58416088149E+01  0.51100000000E-03 0. -1.
        -11    1    3    3    0    0 -0.14791024389E+02 -0.40026054491E+01 -0.51542028369E+01  0.16166665086E+02  0.51100000000E-03 0.  1.
         12    1    3    3    0    0 -0.21170776875E+02 -0.35000627468E+00 -0.14704842116E+02  0.25778996868E+02  0.00000000000E+00 0. -1.
</event>
<event>
 7    1  0.1265344E-009  0.4778727E+02  0.7816164E-02  0.1312668E+00
        -11   -1    0    0    0    0  0.00000000000E+00  0.00000000000E+00  0.45593999997E+02  0.45594000000E+02  0.51100000000E-03 0.  1.
         11   -1    0    0    0    0 -0.00000000000E+00 -0.00000000000E+00 -0.45593999997E+02  0.45594000000E+02  0.51100000000E-03 0. -1.
    9900012    2    1    2    0    0  0.54532475210E+01 -0.23275268021E+02  0.36223574614E+02  0.47787269962E+02  0.19999995066E+02 0.  0.
         12    1    1    2    0    0 -0.54532475210E+01  0.23275268021E+02 -0.36223574614E+02  0.43400730038E+02  0.00000000000E+00 0. -1.
         11    1    3    3    0    0  0.58404572550E+00 -0.97512235725E+01  0.28296299553E+01  0.10170264329E+02  0.51100000000E-03 0. -1.
        -11    1    3    3    0    0  0.31249861649E+01 -0.51081582009E-01  0.30328760574E+01  0.43550528469E+01  0.51100000000E-03 0.  1.
         12    1    3    3    0    0  0.17442156306E+01 -0.13472962866E+02  0.30361068602E+02  0.33261952787E+02  0.00000000000E+00 0. -1.
</event>
<event>
 7    1  0.1578160E-009  0.4778728E+02  0.7816164E-02  0.1312668E+00
        -11   -1    0    0    0    0  0.00000000000E+00  0.00000000000E+00  0.45593999997E+02  0.45594000000E+02  0.51100000000E-03 0.  1.
         11   -1    0    0    0    0 -0.00000000000E+00 -0.00000000000E+00 -0.45593999997E+02  0.45594000000E+02  0.51100000000E-03 0. -1.
    9900012    2    1    2    0    0  0.60167156827E+01  0.42702306308E+02 -0.48922928343E+01  0.47787281563E+02  0.20000047960E+02 0.  0.
         12    1    1    2    0    0 -0.60167156827E+01 -0.42702306308E+02  0.48922928343E+01  0.43400718437E+02  0.00000000000E+00 0. -1.
         11    1    3    3    0    0  0.21002395432E+00  0.83172361938E+01  0.53493922968E+01  0.98912348153E+01  0.51100000000E-03 0. -1.
        -11    1    3    3    0    0 -0.20364555583E+01  0.19415174317E+02 -0.43683789756E+01  0.20004471503E+02  0.51100000000E-03 0.  1.
         12    1    3    3    0    0  0.78431472867E+01  0.14969895797E+02 -0.58733061555E+01  0.17891575245E+02  0.00000000000E+00 0. -1.
</event>
<event>
 7    1  0.1265344E-009  0.4778727E+02  0.7816164E-02  0.1312668E+00
        -11   -1    0    0    0    0  0.00000000000E+00  0.00000000000E+00  0.45593999997E+02  0.45594000000E+02  0.51100000000E-03 0.  1.
         11   -1    0    0    0    0 -0.00000000000E+00 -0.00000000000E+00 -0.45593999997E+02  0.45594000000E+02  0.51100000000E-03 0. -1.
    9900012    2    1    2    0    0  0.32908795601E+02 -0.25927452205E+02 -0.11331448986E+02  0.47787270261E+02  0.19999996428E+02 0.  0.
         12    1    1    2    0    0 -0.32908795601E+02  0.25927452205E+02  0.11331448986E+02  0.43400729739E+02  0.00000000000E+00 0. -1.
         11    1    3    3    0    0  0.24128941224E+01  0.14393818671E+01 -0.34590223704E+01  0.44563117289E+01  0.51100000000E-03 0. -1.
        -11    1    3    3    0    0  0.20961884258E+02 -0.12728041691E+02 -0.82000169553E+01  0.25858149881E+02  0.51100000000E-03 0.  1.
        -12    1    3    3    0    0  0.95340172211E+01 -0.14638792381E+02  0.32759033978E+00  0.17472808651E+02  0.00000000000E+00 0.  1.
</event>
<event>
 7    1  0.1265344E-009  0.4778724E+02  0.7816164E-02  0.1312668E+00
        -11   -1    0    0    0    0  0.00000000000E+00  0.00000000000E+00  0.45593999997E+02  0.45594000000E+02  0.51100000000E-03 0.  1.
         11   -1    0    0    0    0 -0.00000000000E+00 -0.00000000000E+00 -0.45593999997E+02  0.45594000000E+02  0.51100000000E-03 0. -1.
    9900012    2    1    2    0    0  0.27923407915E+02 -0.15033288459E+02  0.29629534073E+02  0.47787242393E+02  0.19999869367E+02 0.  0.
         12    1    1    2    0    0 -0.27923407915E+02  0.15033288459E+02 -0.29629534073E+02  0.43400757607E+02  0.00000000000E+00 0. -1.
         11    1    3    3    0    0  0.91301607144E+00 -0.53580474114E+01  0.25282100808E+00  0.54411569664E+01  0.51100000000E-03 0. -1.
        -11    1    3    3    0    0  0.12319130137E+02 -0.96967875848E+01  0.17115029024E+02  0.23210189046E+02  0.51100000000E-03 0.  1.
         12    1    3    3    0    0  0.14691261707E+02  0.21546537294E-01  0.12261684041E+02  0.19135896381E+02  0.00000000000E+00 0. -1.
</event>
<event>
 7    1  0.1265344E-009  0.4778727E+02  0.7816164E-02  0.1312668E+00
        -11   -1    0    0    0    0  0.00000000000E+00  0.00000000000E+00  0.45593999997E+02  0.45594000000E+02  0.51100000000E-03 0.  1.
         11   -1    0    0    0    0 -0.00000000000E+00 -0.00000000000E+00 -0.45593999997E+02  0.45594000000E+02  0.51100000000E-03 0. -1.
    9900012    2    1    2    0    0 -0.12476222471E+02 -0.20712981478E+02  0.36040806574E+02  0.47787268815E+02  0.19999989836E+02 0.  0.
         12    1    1    2    0    0  0.12476222471E+02  0.20712981478E+02 -0.36040806574E+02  0.43400731185E+02  0.00000000000E+00 0. -1.
         11    1    3    3    0    0 -0.97891837284E+00 -0.11464295365E+02  0.21438177712E+02  0.24330717484E+02  0.51100000000E-03 0. -1.
        -11    1    3    3    0    0 -0.60267307350E+01 -0.10333665409E+02  0.64841939875E+01  0.13607016428E+02  0.51100000000E-03 0.  1.
         12    1    3    3    0    0 -0.54705733628E+01  0.10849792966E+01  0.81184348745E+01  0.98495349029E+01  0.00000000000E+00 0. -1.
</event>
<event>
 7    1  0.1265344E-009  0.4778727E+02  0.7816164E-02  0.1312668E+00
        -11   -1    0    0    0    0  0.00000000000E+00  0.00000000000E+00  0.45593999997E+02  0.45594000000E+02  0.51100000000E-03 0.  1.
         11   -1    0    0    0    0 -0.00000000000E+00 -0.00000000000E+00 -0.45593999997E+02  0.45594000000E+02  0.51100000000E-03 0. -1.
    9900012    2    1    2    0    0  0.31928026269E+02  0.21676425361E+02  0.19858423441E+02  0.47787271211E+02  0.20000000759E+02 0.  0.
         12    1    1    2    0    0 -0.31928026269E+02 -0.21676425361E+02 -0.19858423441E+02  0.43400728789E+02  0.00000000000E+00 0. -1.
         11    1    3    3    0    0 -0.75885918167E+00  0.97249330426E+00  0.26650163618E+01  0.29366516569E+01  0.51100000000E-03 0. -1.
        -11    1    3    3    0    0  0.53414028962E+01  0.94887047235E+01  0.48684370283E+00  0.10899684366E+02  0.51100000000E-03 0.  1.
        -12    1    3    3    0    0  0.27345482554E+02  0.11215227333E+02  0.16706563376E+02  0.33950935188E+02  0.00000000000E+00 0.  1.
</event>
<event>
 7    1  0.1265344E-009  0.4778727E+02  0.7816164E-02  0.1312668E+00
        -11   -1    0    0    0    0  0.00000000000E+00  0.00000000000E+00  0.45593999997E+02  0.45594000000E+02  0.51100000000E-03 0.  1.
         11   -1    0    0    0    0 -0.00000000000E+00 -0.00000000000E+00 -0.45593999997E+02  0.45594000000E+02  0.51100000000E-03 0. -1.
    9900012    2    1    2    0    0 -0.49239891669E+01  0.36434434027E+02  0.23063170574E+02  0.47787268565E+02  0.19999988695E+02 0.  0.
         12    1    1    2    0    0  0.49239891669E+01 -0.36434434027E+02 -0.23063170574E+02  0.43400731435E+02  0.00000000000E+00 0. -1.
         11    1    3    3    0    0 -0.54408221503E+01  0.31139081118E+02  0.22971232730E+02  0.39075855102E+02  0.51100000000E-03 0.  1.
        -11    1    3    3    0    0 -0.18554516030E+01  0.59522559991E+01 -0.16156699133E+00  0.62368386450E+01  0.51100000000E-03 0. -1.
         12    1    3    3    0    0  0.23722845863E+01 -0.65690309028E+00  0.25350483557E+00  0.24745748181E+01  0.00000000000E+00 0. -1.
</event>
<event>
 7    1  0.1265344E-009  0.4778726E+02  0.7816164E-02  0.1312668E+00
        -11   -1    0    0    0    0  0.00000000000E+00  0.00000000000E+00  0.45593999997E+02  0.45594000000E+02  0.51100000000E-03 0. -1.
         11   -1    0    0    0    0 -0.00000000000E+00 -0.00000000000E+00 -0.45593999997E+02  0.45594000000E+02  0.51100000000E-03 0.  1.
    9900012    2    1    2    0    0  0.41123279439E+02 -0.38372829008E+01 -0.13333229321E+02  0.47787264338E+02  0.19999969422E+02 0.  0.
         12    1    1    2    0    0 -0.41123279439E+02  0.38372829008E+01  0.13333229321E+02  0.43400735662E+02  0.00000000000E+00 0. -1.
         11    1    3    3    0    0  0.10999161411E+02 -0.61744504372E+01 -0.87715148156E+01  0.15363751572E+02  0.51100000000E-03 0. -1.
        -11    1    3    3    0    0  0.28385255747E+02  0.18603538585E+01 -0.70916583962E+01  0.29316808820E+02  0.51100000000E-03 0.  1.
         12    1    3    3    0    0  0.17388622809E+01  0.47681367794E+00  0.25299438910E+01  0.31067039459E+01  0.00000000000E+00 0. -1.
</event>
<event>
 7    1  0.1265344E-009  0.4778727E+02  0.7816164E-02  0.1312668E+00
        -11   -1    0    0    0    0  0.00000000000E+00  0.00000000000E+00  0.45593999997E+02  0.45594000000E+02  0.51100000000E-03 0.  1.
         11   -1    0    0    0    0 -0.00000000000E+00 -0.00000000000E+00 -0.45593999997E+02  0.45594000000E+02  0.51100000000E-03 0. -1.
    9900012    2    1    2    0    0  0.23374301092E+02 -0.35291582465E+02  0.95796491529E+01  0.47787269335E+02  0.19999992204E+02 0.  0.
         12    1    1    2    0    0 -0.23374301092E+02  0.35291582465E+02 -0.95796491529E+01  0.43400730665E+02  0.00000000000E+00 0. -1.
         11    1    3    3    0    0 -0.38317479319E+00 -0.70552647699E+01  0.21126328382E+01  0.73747407863E+01  0.51100000000E-03 0. -1.
        -11    1    3    3    0    0  0.14190708891E+02 -0.87671524370E+01  0.84477912530E+01  0.18697709966E+02  0.51100000000E-03 0.  1.
        -12    1    3    3    0    0  0.95667669943E+01 -0.19469165258E+02 -0.98077493822E+00  0.21714818582E+02  0.00000000000E+00 0.  1.
</event>
<event>
 7    1  0.1265344E-009  0.4778726E+02  0.7816164E-02  0.1312668E+00
        -11   -1    0    0    0    0  0.00000000000E+00  0.00000000000E+00  0.45593999997E+02  0.45594000000E+02  0.51100000000E-03 0.  1.
         11   -1    0    0    0    0 -0.00000000000E+00 -0.00000000000E+00 -0.45593999997E+02  0.45594000000E+02  0.51100000000E-03 0. -1.
    9900012    2    1    2    0    0  0.27326846180E+02  0.22461027772E+02  0.25146962787E+02  0.47787262355E+02  0.19999960381E+02 0.  0.
         12    1    1    2    0    0 -0.27326846180E+02 -0.22461027772E+02 -0.25146962787E+02  0.43400737645E+02  0.00000000000E+00 0. -1.
         11    1    3    3    0    0  0.78353499989E+01 -0.25073312704E+01  0.46037396545E+01  0.94272922291E+01  0.51100000000E-03 0. -1.
        -11    1    3    3    0    0  0.83206070939E+01  0.95300262288E+01  0.12138759906E+02  0.17532923163E+02  0.51100000000E-03 0.  1.
         12    1    3    3    0    0  0.11170889088E+02  0.15438332813E+02  0.84044632261E+01  0.20827046963E+02  0.00000000000E+00 0. -1.
</event>
<event>
 7    1  0.1265344E-009  0.4778727E+02  0.7816164E-02  0.1312668E+00
        -11   -1    0    0    0    0  0.00000000000E+00  0.00000000000E+00  0.45593999997E+02  0.45594000000E+02  0.51100000000E-03 0. -1.
         11   -1    0    0    0    0 -0.00000000000E+00 -0.00000000000E+00 -0.45593999997E+02  0.45594000000E+02  0.51100000000E-03 0.  1.
    9900012    2    1    2    0    0  0.23063394841E+02  0.30180641857E+02 -0.20995995851E+02  0.47787272284E+02  0.20000005650E+02 0.  0.
         12    1    1    2    0    0 -0.23063394841E+02 -0.30180641857E+02  0.20995995851E+02  0.43400727716E+02  0.00000000000E+00 0. -1.
         11    1    3    3    0    0 -0.16967666879E+01  0.29588800690E+01 -0.21373786212E+01  0.40252175205E+01  0.51100000000E-03 0. -1.
        -11    1    3    3    0    0  0.14898516107E+02  0.11227382612E+02 -0.24493729702E+01  0.18815401423E+02  0.51100000000E-03 0.  1.
        -12    1    3    3    0    0  0.98616454218E+01  0.15994379177E+02 -0.16409244260E+02  0.24946653340E+02  0.00000000000E+00 0.  1.
</event>
<event>
 7    1  0.1265344E-009  0.4778727E+02  0.7816164E-02  0.1312668E+00
        -11   -1    0    0    0    0  0.00000000000E+00  0.00000000000E+00  0.45593999997E+02  0.45594000000E+02  0.51100000000E-03 0.  1.
         11   -1    0    0    0    0 -0.00000000000E+00 -0.00000000000E+00 -0.45593999997E+02  0.45594000000E+02  0.51100000000E-03 0. -1.
    9900012    2    1    2    0    0  0.42206674461E+02 -0.97440120813E+01 -0.26970942490E+01  0.47787268924E+02  0.19999990334E+02 0.  0.
         12    1    1    2    0    0 -0.42206674461E+02  0.97440120813E+01  0.26970942490E+01  0.43400731076E+02  0.00000000000E+00 0. -1.
         11    1    3    3    0    0  0.49788293220E+01  0.58422738463E+00  0.24975881983E+01  0.56007151440E+01  0.51100000000E-03 0. -1.
        -11    1    3    3    0    0  0.12500575122E+02 -0.99769746648E+01  0.27149162180E+01  0.16222674631E+02  0.51100000000E-03 0.  1.
         12    1    3    3    0    0  0.24727270017E+02 -0.35126480118E+00 -0.79095986653E+01  0.25963879150E+02  0.00000000000E+00 0. -1.
</event>
<event>
 7    1  0.1265344E-009  0.4778730E+02  0.7816164E-02  0.1312668E+00
        -11   -1    0    0    0    0  0.00000000000E+00  0.00000000000E+00  0.45593999997E+02  0.45594000000E+02  0.51100000000E-03 0.  1.
         11   -1    0    0    0    0 -0.00000000000E+00 -0.00000000000E+00 -0.45593999997E+02  0.45594000000E+02  0.51100000000E-03 0. -1.
    9900012    2    1    2    0    0  0.56165639416E+01 -0.42854333496E+02  0.39473370722E+01  0.47787295399E+02  0.20000111043E+02 0.  0.
         12    1    1    2    0    0 -0.56165639416E+01  0.42854333496E+02 -0.39473370722E+01  0.43400704601E+02  0.00000000000E+00 0. -1.
         11    1    3    3    0    0 -0.69923950012E+00 -0.49094068378E+01  0.42804341630E+01  0.65508265327E+01  0.51100000000E-03 0. -1.
        -11    1    3    3    0    0  0.11052105287E+02 -0.25074526162E+02  0.12529911446E+01  0.27430838131E+02  0.51100000000E-03 0.  1.
        -12    1    3    3    0    0 -0.47363018457E+01 -0.12870400496E+02 -0.15860882354E+01  0.13805630735E+02  0.00000000000E+00 0.  1.
</event>
<event>
 7    1  0.1265344E-009  0.4778727E+02  0.7816164E-02  0.1312668E+00
        -11   -1    0    0    0    0  0.00000000000E+00  0.00000000000E+00  0.45593999997E+02  0.45594000000E+02  0.51100000000E-03 0. -1.
         11   -1    0    0    0    0 -0.00000000000E+00 -0.00000000000E+00 -0.45593999997E+02  0.45594000000E+02  0.51100000000E-03 0.  1.
    9900012    2    1    2    0    0  0.41441910783E+02  0.64453863633E+01 -0.11164595285E+02  0.47787272326E+02  0.20000005845E+02 0.  0.
         12    1    1    2    0    0 -0.41441910783E+02 -0.64453863633E+01  0.11164595285E+02  0.43400727674E+02  0.00000000000E+00 0. -1.
         11    1    3    3    0    0  0.34914213057E+01  0.29836224478E+01 -0.54415206600E+01  0.71205458358E+01  0.51100000000E-03 0. -1.
        -11    1    3    3    0    0  0.18467149397E+02  0.80012539770E+01 -0.45079065009E+01  0.20624667108E+02  0.51100000000E-03 0.  1.
        -12    1    3    3    0    0  0.19483340081E+02 -0.45394900614E+01 -0.12151681244E+01  0.20042059382E+02  0.00000000000E+00 0.  1.
</event>
<event>
 7    1  0.1265344E-009  0.4778725E+02  0.7816164E-02  0.1312668E+00
        -11   -1    0    0    0    0  0.00000000000E+00  0.00000000000E+00  0.45593999997E+02  0.45594000000E+02  0.51100000000E-03 0.  1.
         11   -1    0    0    0    0 -0.00000000000E+00 -0.00000000000E+00 -0.45593999997E+02  0.45594000000E+02  0.51100000000E-03 0. -1.
    9900012    2    1    2    0    0  0.23854750814E+02 -0.83054045283E+01  0.35293002822E+02  0.47787251977E+02  0.19999913064E+02 0.  0.
         12    1    1    2    0    0 -0.23854750814E+02  0.83054045283E+01 -0.35293002822E+02  0.43400748023E+02  0.00000000000E+00 0. -1.
         11    1    3    3    0    0 -0.29622554487E+01  0.21769830669E-01  0.56463932247E+01  0.63762989248E+01  0.51100000000E-03 0. -1.
        -11    1    3    3    0    0  0.88530135110E+01 -0.13179497354E+01  0.54836087948E+01  0.10496799770E+02  0.51100000000E-03 0.  1.
        -12    1    3    3    0    0  0.17963992751E+02 -0.70092246236E+01  0.24163000802E+02  0.30914153282E+02  0.00000000000E+00 0.  1.
</event>
<event>
 7    1  0.1265344E-009  0.4778726E+02  0.7816164E-02  0.1312668E+00
        -11   -1    0    0    0    0  0.00000000000E+00  0.00000000000E+00  0.45593999997E+02  0.45594000000E+02  0.51100000000E-03 0.  1.
         11   -1    0    0    0    0 -0.00000000000E+00 -0.00000000000E+00 -0.45593999997E+02  0.45594000000E+02  0.51100000000E-03 0. -1.
    9900012    2    1    2    0    0 -0.38429809107E+02 -0.47300862877E+00 -0.20163088879E+02  0.47787261316E+02  0.19999955646E+02 0.  0.
         12    1    1    2    0    0  0.38429809107E+02  0.47300862877E+00  0.20163088879E+02  0.43400738684E+02  0.00000000000E+00 0. -1.
         11    1    3    3    0    0 -0.25361648402E+01 -0.44605656003E+01 -0.50760577127E+01  0.72176962900E+01  0.51100000000E-03 0. -1.
        -11    1    3    3    0    0 -0.10880048072E+02  0.24598549874E+01  0.30695018068E+00  0.11158877689E+02  0.51100000000E-03 0.  1.
         12    1    3    3    0    0 -0.25013596195E+02  0.15277019841E+01 -0.15393981347E+02  0.29410687337E+02  0.00000000000E+00 0. -1.
</event>
<event>
 7    1  0.1265344E-009  0.4778727E+02  0.7816164E-02  0.1312668E+00
        -11   -1    0    0    0    0  0.00000000000E+00  0.00000000000E+00  0.45593999997E+02  0.45594000000E+02  0.51100000000E-03 0.  1.
         11   -1    0    0    0    0 -0.00000000000E+00 -0.00000000000E+00 -0.45593999997E+02  0.45594000000E+02  0.51100000000E-03 0. -1.
    9900012    2    1    2    0    0 -0.23833139205E+01 -0.28773627177E+02  0.32404040641E+02  0.47787266642E+02  0.19999979926E+02 0.  0.
         12    1    1    2    0    0  0.23833139205E+01  0.28773627177E+02 -0.32404040641E+02  0.43400733358E+02  0.00000000000E+00 0. -1.
         11    1    3    3    0    0  0.24324163685E+01 -0.26792220493E+01  0.36399145154E+01  0.51326268245E+01  0.51100000000E-03 0. -1.
        -11    1    3    3    0    0 -0.19362452521E+00 -0.64393016088E+01  0.19316382170E+02  0.20362335722E+02  0.51100000000E-03 0.  1.
         12    1    3    3    0    0 -0.46221057638E+01 -0.19655103519E+02  0.94477439565E+01  0.22292304095E+02  0.00000000000E+00 0. -1.
</event>
<event>
 7    1  0.1265344E-009  0.4778727E+02  0.7816164E-02  0.1312668E+00
        -11   -1    0    0    0    0  0.00000000000E+00  0.00000000000E+00  0.45593999997E+02  0.45594000000E+02  0.51100000000E-03 0.  1.
         11   -1    0    0    0    0 -0.00000000000E+00 -0.00000000000E+00 -0.45593999997E+02  0.45594000000E+02  0.51100000000E-03 0. -1.
    9900012    2    1    2    0    0 -0.59296403594E+00  0.11028628843E+02  0.41971907891E+02  0.47787270600E+02  0.19999997973E+02 0.  0.
         12    1    1    2    0    0  0.59296403594E+00 -0.11028628843E+02 -0.41971907891E+02  0.43400729400E+02  0.00000000000E+00 0. -1.
         11    1    3    3    0    0  0.42046990148E+01  0.82825385487E+00  0.11164696179E+02  0.11958927179E+02  0.51100000000E-03 0. -1.
        -11    1    3    3    0    0 -0.64294396850E+01  0.33104724941E+01  0.26658434631E+02  0.27621894577E+02  0.51100000000E-03 0.  1.
         12    1    3    3    0    0  0.16317766342E+01  0.68899024936E+01  0.41487770812E+01  0.82064488437E+01  0.00000000000E+00 0. -1.
</event>
<event>
 7    1  0.1265344E-009  0.4778727E+02  0.7816164E-02  0.1312668E+00
        -11   -1    0    0    0    0  0.00000000000E+00  0.00000000000E+00  0.45593999997E+02  0.45594000000E+02  0.51100000000E-03 0. -1.
         11   -1    0    0    0    0 -0.00000000000E+00 -0.00000000000E+00 -0.45593999997E+02  0.45594000000E+02  0.51100000000E-03 0.  1.
    9900012    2    1    2    0    0  0.13960030053E+02 -0.17962240858E+02 -0.36960777807E+02  0.47787266920E+02  0.19999981196E+02 0.  0.
         12    1    1    2    0    0 -0.13960030053E+02  0.17962240858E+02  0.36960777807E+02  0.43400733080E+02  0.00000000000E+00 0. -1.
         11    1    3    3    0    0  0.42154800876E+01  0.33863980235E+01 -0.12591210933E+02  0.13703158649E+02  0.51100000000E-03 0.  1.
        -11    1    3    3    0    0  0.10709174107E+01 -0.66351723354E+01 -0.61398387612E+01  0.91032959029E+01  0.51100000000E-03 0. -1.
        -12    1    3    3    0    0  0.86736325545E+01 -0.14713466546E+02 -0.18229728114E+02  0.24980812369E+02  0.00000000000E+00 0.  1.
</event>
<event>
 7    1  0.1265344E-009  0.4778727E+02  0.7816164E-02  0.1312668E+00
        -11   -1    0    0    0    0  0.00000000000E+00  0.00000000000E+00  0.45593999997E+02  0.45594000000E+02  0.51100000000E-03 0.  1.
         11   -1    0    0    0    0 -0.00000000000E+00 -0.00000000000E+00 -0.45593999997E+02  0.45594000000E+02  0.51100000000E-03 0. -1.
    9900012    2    1    2    0    0  0.20725605711E+02  0.36959780271E+02  0.93833531301E+01  0.47787269525E+02  0.19999993072E+02 0.  0.
         12    1    1    2    0    0 -0.20725605711E+02 -0.36959780271E+02 -0.93833531301E+01  0.43400730475E+02  0.00000000000E+00 0. -1.
         11    1    3    3    0    0  0.55399757265E+01  0.17523177032E+02 -0.44271574794E+01  0.18903777082E+02  0.51100000000E-03 0. -1.
        -11    1    3    3    0    0  0.30547251903E+01  0.28310442737E+01  0.50096119746E+01  0.65147808916E+01  0.51100000000E-03 0.  1.
         12    1    3    3    0    0  0.12130904795E+02  0.16605558966E+02  0.88008986349E+01  0.22368711551E+02  0.00000000000E+00 0. -1.
</event>
<event>
 7    1  0.1265344E-009  0.4778728E+02  0.7816164E-02  0.1312668E+00
        -11   -1    0    0    0    0  0.00000000000E+00  0.00000000000E+00  0.45593999997E+02  0.45594000000E+02  0.51100000000E-03 0.  1.
         11   -1    0    0    0    0 -0.00000000000E+00 -0.00000000000E+00 -0.45593999997E+02  0.45594000000E+02  0.51100000000E-03 0. -1.
    9900012    2    1    2    0    0 -0.18321069107E+01  0.39847776050E+02  0.17100319392E+02  0.47787276559E+02  0.20000025145E+02 0.  0.
         12    1    1    2    0    0  0.18321069107E+01 -0.39847776050E+02 -0.17100319392E+02  0.43400723441E+02  0.00000000000E+00 0. -1.
         11    1    3    3    0    0 -0.90441167483E+00 -0.20542123357E+01  0.93937433894E+00  0.24331406058E+01  0.51100000000E-03 0. -1.
        -11    1    3    3    0    0 -0.22465597227E+00  0.16281737126E+01 -0.56719257209E+00  0.17387143582E+01  0.51100000000E-03 0.  1.
        -12    1    3    3    0    0 -0.70303926360E+00  0.40273814673E+02  0.16728137625E+02  0.43615421595E+02  0.00000000000E+00 0.  1.
</event>
<event>
 7    1  0.1265344E-009  0.4778726E+02  0.7816164E-02  0.1312668E+00
        -11   -1    0    0    0    0  0.00000000000E+00  0.00000000000E+00  0.45593999997E+02  0.45594000000E+02  0.51100000000E-03 0.  1.
         11   -1    0    0    0    0 -0.00000000000E+00 -0.00000000000E+00 -0.45593999997E+02  0.45594000000E+02  0.51100000000E-03 0. -1.
    9900012    2    1    2    0    0 -0.17800936843E+02 -0.34316366338E+02  0.19726579257E+02  0.47787259450E+02  0.19999947134E+02 0.  0.
         12    1    1    2    0    0  0.17800936843E+02  0.34316366338E+02 -0.19726579257E+02  0.43400740550E+02  0.00000000000E+00 0. -1.
         11    1    3    3    0    0 -0.11123959917E+02 -0.13115923746E+02  0.62627824292E+01  0.18302797162E+02  0.51100000000E-03 0. -1.
        -11    1    3    3    0    0 -0.34178276429E+01 -0.12852895744E+02  0.15367404365E+02  0.20323277098E+02  0.51100000000E-03 0.  1.
         12    1    3    3    0    0 -0.32591492838E+01 -0.83475468477E+01 -0.19036075371E+01  0.91611851900E+01  0.00000000000E+00 0. -1.
</event>
<event>
 7    1  0.1265344E-009  0.4778728E+02  0.7816164E-02  0.1312668E+00
        -11   -1    0    0    0    0  0.00000000000E+00  0.00000000000E+00  0.45593999997E+02  0.45594000000E+02  0.51100000000E-03 0.  1.
         11   -1    0    0    0    0 -0.00000000000E+00 -0.00000000000E+00 -0.45593999997E+02  0.45594000000E+02  0.51100000000E-03 0. -1.
    9900012    2    1    2    0    0 -0.38476651255E+02 -0.17658738314E+02 -0.95571213750E+01  0.47787282268E+02  0.20000051173E+02 0.  0.
         12    1    1    2    0    0  0.38476651255E+02  0.17658738314E+02  0.95571213750E+01  0.43400717732E+02  0.00000000000E+00 0. -1.
         11    1    3    3    0    0 -0.34570707223E+02 -0.95708710346E+01 -0.30815466779E+01  0.36003212363E+02  0.51100000000E-03 0.  1.
        -11    1    3    3    0    0 -0.41233819587E+01 -0.69492012294E+01 -0.39268256874E+01  0.89840768443E+01  0.51100000000E-03 0. -1.
        -12    1    3    3    0    0  0.21743792663E+00 -0.11386660500E+01 -0.25487490096E+01  0.27999930606E+01  0.00000000000E+00 0.  1.
</event>
<event>
 7    1  0.1265344E-009  0.4778727E+02  0.7816164E-02  0.1312668E+00
        -11   -1    0    0    0    0  0.00000000000E+00  0.00000000000E+00  0.45593999997E+02  0.45594000000E+02  0.51100000000E-03 0. -1.
         11   -1    0    0    0    0 -0.00000000000E+00 -0.00000000000E+00 -0.45593999997E+02  0.45594000000E+02  0.51100000000E-03 0.  1.
    9900012    2    1    2    0    0 -0.33551187149E+02  0.26528958593E+02 -0.73590638960E+01  0.47787267005E+02  0.19999981583E+02 0.  0.
         12    1    1    2    0    0  0.33551187149E+02 -0.26528958593E+02  0.73590638960E+01  0.43400732995E+02  0.00000000000E+00 0. -1.
         11    1    3    3    0    0 -0.20321617284E+02  0.24255401683E+02 -0.38441369782E+01  0.31875853388E+02  0.51100000000E-03 0. -1.
        -11    1    3    3    0    0  0.32774170892E+00  0.34671558890E+00 -0.20901803974E+01  0.21439404568E+01  0.51100000000E-03 0.  1.
         12    1    3    3    0    0 -0.13557311574E+02  0.19268413209E+01 -0.14247465204E+01  0.13767473161E+02  0.00000000000E+00 0. -1.
</event>
<event>
 7    1  0.1265344E-009  0.4778727E+02  0.7816164E-02  0.1312668E+00
        -11   -1    0    0    0    0  0.00000000000E+00  0.00000000000E+00  0.45593999997E+02  0.45594000000E+02  0.51100000000E-03 0. -1.
         11   -1    0    0    0    0 -0.00000000000E+00 -0.00000000000E+00 -0.45593999997E+02  0.45594000000E+02  0.51100000000E-03 0.  1.
    9900012    2    1    2    0    0 -0.40161412657E+01  0.25149030243E+02 -0.35142859135E+02  0.47787266584E+02  0.19999979665E+02 0.  0.
         12    1    1    2    0    0  0.40161412657E+01 -0.25149030243E+02  0.35142859135E+02  0.43400733416E+02  0.00000000000E+00 0. -1.
         11    1    3    3    0    0  0.16389273921E+01 -0.11612276002E+01 -0.33882417781E+01  0.39388723188E+01  0.51100000000E-03 0. -1.
        -11    1    3    3    0    0  0.19102709610E+01  0.20683232833E+02 -0.20807078902E+02  0.29400336533E+02  0.51100000000E-03 0.  1.
         12    1    3    3    0    0 -0.75653396188E+01  0.56270250096E+01 -0.10947538455E+02  0.14448057732E+02  0.00000000000E+00 0. -1.
</event>
<event>
 7    1  0.1265344E-009  0.4778728E+02  0.7816164E-02  0.1312668E+00
        -11   -1    0    0    0    0  0.00000000000E+00  0.00000000000E+00  0.45593999997E+02  0.45594000000E+02  0.51100000000E-03 0. -1.
         11   -1    0    0    0    0 -0.00000000000E+00 -0.00000000000E+00 -0.45593999997E+02  0.45594000000E+02  0.51100000000E-03 0.  1.
    9900012    2    1    2    0    0  0.10720801681E+02 -0.41956943143E+02  0.28813254017E+01  0.47787277625E+02  0.20000030005E+02 0.  0.
         12    1    1    2    0    0 -0.10720801681E+02  0.41956943143E+02 -0.28813254017E+01  0.43400722375E+02  0.00000000000E+00 0. -1.
         11    1    3    3    0    0 -0.55355713992E+01 -0.72888784331E+01  0.96224376891E+00  0.92030545397E+01  0.51100000000E-03 0. -1.
        -11    1    3    3    0    0  0.67102757905E+01 -0.19371729693E+02  0.13236166263E+01  0.20543701558E+02  0.51100000000E-03 0.  1.
         12    1    3    3    0    0  0.95460972898E+01 -0.15296335017E+02  0.59546500651E+00  0.18040521527E+02  0.00000000000E+00 0. -1.
</event>
<event>
 7    1  0.1482913E-009  0.4778727E+02  0.7816164E-02  0.1312668E+00
        -11   -1    0    0    0    0  0.00000000000E+00  0.00000000000E+00  0.45593999997E+02  0.45594000000E+02  0.51100000000E-03 0.  1.
         11   -1    0    0    0    0 -0.00000000000E+00 -0.00000000000E+00 -0.45593999997E+02  0.45594000000E+02  0.51100000000E-03 0. -1.
    9900012    2    1    2    0    0 -0.29994551323E+02  0.28978804458E+02  0.12007463964E+02  0.47787269502E+02  0.19999992966E+02 0.  0.
         12    1    1    2    0    0  0.29994551323E+02 -0.28978804458E+02 -0.12007463964E+02  0.43400730498E+02  0.00000000000E+00 0. -1.
         11    1    3    3    0    0  0.51382335049E+00  0.31976182014E+01 -0.22654264446E+01  0.39523327080E+01  0.51100000000E-03 0. -1.
        -11    1    3    3    0    0 -0.12412630671E+02  0.39913200689E+01  0.58025834038E+01  0.14271440379E+02  0.51100000000E-03 0.  1.
        -12    1    3    3    0    0 -0.18095744003E+02  0.21789866188E+02  0.84703070048E+01  0.29563496415E+02  0.00000000000E+00 0.  1.
</event>
<event>
 7    1  0.1265344E-009  0.4778727E+02  0.7816164E-02  0.1312668E+00
        -11   -1    0    0    0    0  0.00000000000E+00  0.00000000000E+00  0.45593999997E+02  0.45594000000E+02  0.51100000000E-03 0. -1.
         11   -1    0    0    0    0 -0.00000000000E+00 -0.00000000000E+00 -0.45593999997E+02  0.45594000000E+02  0.51100000000E-03 0.  1.
    9900012    2    1    2    0    0  0.10514659645E+02  0.37306703418E+02 -0.19526274174E+02  0.47787267627E+02  0.19999984421E+02 0.  0.
         12    1    1    2    0    0 -0.10514659645E+02 -0.37306703418E+02  0.19526274174E+02  0.43400732373E+02  0.00000000000E+00 0. -1.
         11    1    3    3    0    0  0.15891786658E+01  0.82042369339E+01  0.71695063929E+00  0.83874317273E+01  0.51100000000E-03 0. -1.
        -11    1    3    3    0    0  0.10500676215E+02  0.17277669914E+02 -0.18383571247E+02  0.27326503082E+02  0.51100000000E-03 0.  1.
         12    1    3    3    0    0 -0.15751952360E+01  0.11824796570E+02 -0.18596535661E+01  0.12073332818E+02  0.00000000000E+00 0. -1.
</event>
<event>
 7    1  0.1265344E-009  0.4778727E+02  0.7816164E-02  0.1312668E+00
        -11   -1    0    0    0    0  0.00000000000E+00  0.00000000000E+00  0.45593999997E+02  0.45594000000E+02  0.51100000000E-03 0.  1.
         11   -1    0    0    0    0 -0.00000000000E+00 -0.00000000000E+00 -0.45593999997E+02  0.45594000000E+02  0.51100000000E-03 0. -1.
    9900012    2    1    2    0    0  0.29991209425E+02 -0.24203816167E+02  0.19958111438E+02  0.47787267609E+02  0.19999984338E+02 0.  0.
         12    1    1    2    0    0 -0.29991209425E+02  0.24203816167E+02 -0.19958111438E+02  0.43400732391E+02  0.00000000000E+00 0. -1.
         11    1    3    3    0    0  0.45674936268E+01 -0.11483134592E+02  0.40954249062E+01  0.13019096877E+02  0.51100000000E-03 0. -1.
        -11    1    3    3    0    0  0.12681551708E+02 -0.10595544012E+02  0.35089595784E+01  0.16893788924E+02  0.51100000000E-03 0.  1.
        -12    1    3    3    0    0  0.12742164091E+02 -0.21251375641E+01  0.12353726953E+02  0.17874381808E+02  0.00000000000E+00 0.  1.
</event>
<event>
 7    1  0.1265344E-009  0.4778727E+02  0.7816164E-02  0.1312668E+00
        -11   -1    0    0    0    0  0.00000000000E+00  0.00000000000E+00  0.45593999997E+02  0.45594000000E+02  0.51100000000E-03 0. -1.
         11   -1    0    0    0    0 -0.00000000000E+00 -0.00000000000E+00 -0.45593999997E+02  0.45594000000E+02  0.51100000000E-03 0.  1.
    9900012    2    1    2    0    0 -0.25163592259E+01  0.26803458944E+02 -0.34042117434E+02  0.47787271498E+02  0.20000002066E+02 0.  0.
         12    1    1    2    0    0  0.25163592259E+01 -0.26803458944E+02  0.34042117434E+02  0.43400728502E+02  0.00000000000E+00 0. -1.
         11    1    3    3    0    0  0.88838850303E+00  0.11690340795E+01 -0.48825448004E+01  0.50985408501E+01  0.51100000000E-03 0. -1.
        -11    1    3    3    0    0  0.45053342115E+01  0.17991396286E+02 -0.24535935523E+02  0.30757121272E+02  0.51100000000E-03 0.  1.
         12    1    3    3    0    0 -0.79100819404E+01  0.76430285786E+01 -0.46236371107E+01  0.11931609375E+02  0.00000000000E+00 0. -1.
</event>
<event>
 7    1  0.1265344E-009  0.4778728E+02  0.7816164E-02  0.1312668E+00
        -11   -1    0    0    0    0  0.00000000000E+00  0.00000000000E+00  0.45593999997E+02  0.45594000000E+02  0.51100000000E-03 0.  1.
         11   -1    0    0    0    0 -0.00000000000E+00 -0.00000000000E+00 -0.45593999997E+02  0.45594000000E+02  0.51100000000E-03 0. -1.
    9900012    2    1    2    0    0  0.13036484264E+02 -0.13141667488E+02  0.39255178892E+02  0.47787280925E+02  0.20000045050E+02 0.  0.
         12    1    1    2    0    0 -0.13036484264E+02  0.13141667488E+02 -0.39255178892E+02  0.43400719075E+02  0.00000000000E+00 0. -1.
         11    1    3    3    0    0  0.29425157216E-01 -0.30313729439E+01  0.10604415301E+02  0.11029220820E+02  0.51100000000E-03 0. -1.
        -11    1    3    3    0    0  0.64176373017E+00 -0.95330224840E+01  0.18208892519E+02  0.20563417649E+02  0.51100000000E-03 0.  1.
         12    1    3    3    0    0  0.12365295377E+02 -0.57727206015E+00  0.10441871072E+02  0.16194642456E+02  0.00000000000E+00 0. -1.
</event>
<event>
 7    1  0.1265344E-009  0.4778727E+02  0.7816164E-02  0.1312668E+00
        -11   -1    0    0    0    0  0.00000000000E+00  0.00000000000E+00  0.45593999997E+02  0.45594000000E+02  0.51100000000E-03 0. -1.
         11   -1    0    0    0    0 -0.00000000000E+00 -0.00000000000E+00 -0.45593999997E+02  0.45594000000E+02  0.51100000000E-03 0.  1.
    9900012    2    1    2    0    0 -0.42198705194E+02  0.10078008504E+02 -0.11516287131E+01  0.47787271617E+02  0.20000002610E+02 0.  0.
         12    1    1    2    0    0  0.42198705194E+02 -0.10078008504E+02  0.11516287131E+01  0.43400728383E+02  0.00000000000E+00 0. -1.
         11    1    3    3    0    0 -0.14352003247E+02  0.11429861875E+02  0.30656713359E+01  0.18601615002E+02  0.51100000000E-03 0. -1.
        -11    1    3    3    0    0 -0.22624043073E+02  0.59625645692E+00 -0.79726645677E+00  0.22645937401E+02  0.51100000000E-03 0.  1.
         12    1    3    3    0    0 -0.52226588749E+01 -0.19481098276E+01 -0.34200335923E+01  0.65397192139E+01  0.00000000000E+00 0. -1.
</event>
<event>
 7    1  0.1265344E-009  0.4778727E+02  0.7816164E-02  0.1312668E+00
        -11   -1    0    0    0    0  0.00000000000E+00  0.00000000000E+00  0.45593999997E+02  0.45594000000E+02  0.51100000000E-03 0. -1.
         11   -1    0    0    0    0 -0.00000000000E+00 -0.00000000000E+00 -0.45593999997E+02  0.45594000000E+02  0.51100000000E-03 0.  1.
    9900012    2    1    2    0    0 -0.26365881462E+02 -0.33955024937E+02 -0.59598561409E+01  0.47787270640E+02  0.19999998157E+02 0.  0.
         12    1    1    2    0    0  0.26365881462E+02  0.33955024937E+02  0.59598561409E+01  0.43400729360E+02  0.00000000000E+00 0. -1.
         11    1    3    3    0    0 -0.14092023835E+02 -0.11954205388E+02  0.40434442060E+01  0.18916595982E+02  0.51100000000E-03 0. -1.
        -11    1    3    3    0    0  0.16555051099E+00 -0.85963793594E+01 -0.16014682531E+01  0.87458473511E+01  0.51100000000E-03 0.  1.
        -12    1    3    3    0    0 -0.12439408138E+02 -0.13404440189E+02 -0.84018320939E+01  0.20124827307E+02  0.00000000000E+00 0.  1.
</event>
<event>
 7    1  0.1265344E-009  0.4778727E+02  0.7816164E-02  0.1312668E+00
        -11   -1    0    0    0    0  0.00000000000E+00  0.00000000000E+00  0.45593999997E+02  0.45594000000E+02  0.51100000000E-03 0.  1.
         11   -1    0    0    0    0 -0.00000000000E+00 -0.00000000000E+00 -0.45593999997E+02  0.45594000000E+02  0.51100000000E-03 0. -1.
    9900012    2    1    2    0    0  0.36283289801E+02 -0.11040020580E+02  0.21101285400E+02  0.47787269376E+02  0.19999992391E+02 0.  0.
         12    1    1    2    0    0 -0.36283289801E+02  0.11040020580E+02 -0.21101285400E+02  0.43400730624E+02  0.00000000000E+00 0. -1.
         11    1    3    3    0    0  0.22166204074E+01 -0.81973818946E+00  0.19631566719E+01  0.30723543268E+01  0.51100000000E-03 0. -1.
        -11    1    3    3    0    0  0.33451534704E+02 -0.11877925714E+02  0.21697836030E+02  0.41603922676E+02  0.51100000000E-03 0.  1.
         12    1    3    3    0    0  0.61513468915E+00  0.16576433235E+01 -0.25597073020E+01  0.31109923732E+01  0.00000000000E+00 0. -1.
</event>
<event>
 7    1  0.1265344E-009  0.4778727E+02  0.7816164E-02  0.1312668E+00
        -11   -1    0    0    0    0  0.00000000000E+00  0.00000000000E+00  0.45593999997E+02  0.45594000000E+02  0.51100000000E-03 0.  1.
         11   -1    0    0    0    0 -0.00000000000E+00 -0.00000000000E+00 -0.45593999997E+02  0.45594000000E+02  0.51100000000E-03 0. -1.
    9900012    2    1    2    0    0  0.17263207008E+02 -0.15554758003E+02  0.36655894761E+02  0.47787269206E+02  0.19999991616E+02 0.  0.
         12    1    1    2    0    0 -0.17263207008E+02  0.15554758003E+02 -0.36655894761E+02  0.43400730794E+02  0.00000000000E+00 0. -1.
         11    1    3    3    0    0 -0.34522347840E+01 -0.17746756643E+01  0.34351822683E+01  0.51834232120E+01  0.51100000000E-03 0. -1.
        -11    1    3    3    0    0  0.50211496884E+01  0.16473532170E+00  0.10667233124E+02  0.11791053588E+02  0.51100000000E-03 0.  1.
        -12    1    3    3    0    0  0.15694292104E+02 -0.13944817661E+02  0.22553479369E+02  0.30812792406E+02  0.00000000000E+00 0.  1.
</event>
<event>
 7    1  0.1265344E-009  0.4778727E+02  0.7816164E-02  0.1312668E+00
        -11   -1    0    0    0    0  0.00000000000E+00  0.00000000000E+00  0.45593999997E+02  0.45594000000E+02  0.51100000000E-03 0.  1.
         11   -1    0    0    0    0 -0.00000000000E+00 -0.00000000000E+00 -0.45593999997E+02  0.45594000000E+02  0.51100000000E-03 0. -1.
    9900012    2    1    2    0    0  0.32075329161E+02  0.18390046308E+02  0.22728890456E+02  0.47787274138E+02  0.20000014106E+02 0.  0.
         12    1    1    2    0    0 -0.32075329161E+02 -0.18390046308E+02 -0.22728890456E+02  0.43400725862E+02  0.00000000000E+00 0. -1.
         11    1    3    3    0    0  0.19203388567E+02  0.55096103066E+01  0.15925409822E+02  0.25548867225E+02  0.51100000000E-03 0. -1.
        -11    1    3    3    0    0  0.11317853276E+02  0.51017050688E+01  0.10895608090E+01  0.12462276694E+02  0.51100000000E-03 0.  1.
         12    1    3    3    0    0  0.15540873178E+01  0.77787309322E+01  0.57139198242E+01  0.97761302193E+01  0.00000000000E+00 0. -1.
</event>
<event>
 7    1  0.1265344E-009  0.4778727E+02  0.7816164E-02  0.1312668E+00
        -11   -1    0    0    0    0  0.00000000000E+00  0.00000000000E+00  0.45593999997E+02  0.45594000000E+02  0.51100000000E-03 0. -1.
         11   -1    0    0    0    0 -0.00000000000E+00 -0.00000000000E+00 -0.45593999997E+02  0.45594000000E+02  0.51100000000E-03 0.  1.
    9900012    2    1    2    0    0 -0.18835180299E+02 -0.19128289091E+02 -0.34102313054E+02  0.47787271710E+02  0.20000003034E+02 0.  0.
         12    1    1    2    0    0  0.18835180299E+02  0.19128289091E+02  0.34102313054E+02  0.43400728290E+02  0.00000000000E+00 0. -1.
         11    1    3    3    0    0  0.33592095781E+00  0.34609191482E+01 -0.59391614968E+01  0.68821830684E+01  0.51100000000E-03 0. -1.
        -11    1    3    3    0    0 -0.63269647998E+01 -0.82395083767E+01 -0.10572553882E+02  0.14822242668E+02  0.51100000000E-03 0.  1.
         12    1    3    3    0    0 -0.12844136457E+02 -0.14349699863E+02 -0.17590597675E+02  0.26082845973E+02  0.00000000000E+00 0. -1.
</event>
<event>
 7    1  0.1265344E-009  0.4778728E+02  0.7816164E-02  0.1312668E+00
        -11   -1    0    0    0    0  0.00000000000E+00  0.00000000000E+00  0.45593999997E+02  0.45594000000E+02  0.51100000000E-03 0.  1.
         11   -1    0    0    0    0 -0.00000000000E+00 -0.00000000000E+00 -0.45593999997E+02  0.45594000000E+02  0.51100000000E-03 0. -1.
    9900012    2    1    2    0    0 -0.38810410204E+02 -0.10141061591E+02  0.16569059101E+02  0.47787276620E+02  0.20000025422E+02 0.  0.
         12    1    1    2    0    0  0.38810410204E+02  0.10141061591E+02 -0.16569059101E+02  0.43400723380E+02  0.00000000000E+00 0. -1.
         11    1    3    3    0    0 -0.23275208627E+01 -0.57444974393E+01 -0.60788055790E-01  0.61984110581E+01  0.51100000000E-03 0. -1.
        -11    1    3    3    0    0 -0.24154315441E+02 -0.50080228608E+01  0.62161724727E+01  0.25439183317E+02  0.51100000000E-03 0.  1.
        -12    1    3    3    0    0 -0.12328573901E+02  0.61145870940E+00  0.10413674684E+02  0.16149682245E+02  0.00000000000E+00 0.  1.
</event>
<event>
 7    1  0.1265344E-009  0.4778727E+02  0.7816164E-02  0.1312668E+00
        -11   -1    0    0    0    0  0.00000000000E+00  0.00000000000E+00  0.45593999997E+02  0.45594000000E+02  0.51100000000E-03 0.  1.
         11   -1    0    0    0    0 -0.00000000000E+00 -0.00000000000E+00 -0.45593999997E+02  0.45594000000E+02  0.51100000000E-03 0. -1.
    9900012    2    1    2    0    0 -0.31830825563E+02 -0.28305479755E+02 -0.83199429846E+01  0.47787273146E+02  0.20000009580E+02 0.  0.
         12    1    1    2    0    0  0.31830825563E+02  0.28305479755E+02  0.83199429846E+01  0.43400726854E+02  0.00000000000E+00 0. -1.
         11    1    3    3    0    0 -0.90794557206E+01 -0.11342445892E+02  0.58701027428E+01  0.15669897940E+02  0.51100000000E-03 0. -1.
        -11    1    3    3    0    0 -0.10987000327E+02 -0.91171723662E+01 -0.44787673318E+01  0.14963166952E+02  0.51100000000E-03 0.  1.
         12    1    3    3    0    0 -0.11764369515E+02 -0.78458614977E+01 -0.97112783956E+01  0.17154208254E+02  0.00000000000E+00 0. -1.
</event>
<event>
 7    1  0.1265344E-009  0.4778727E+02  0.7816164E-02  0.1312668E+00
        -11   -1    0    0    0    0  0.00000000000E+00  0.00000000000E+00  0.45593999997E+02  0.45594000000E+02  0.51100000000E-03 0. -1.
         11   -1    0    0    0    0 -0.00000000000E+00 -0.00000000000E+00 -0.45593999997E+02  0.45594000000E+02  0.51100000000E-03 0.  1.
    9900012    2    1    2    0    0 -0.10308657800E+02  0.33885455999E+02 -0.25082474175E+02  0.47787273455E+02  0.20000010991E+02 0.  0.
         12    1    1    2    0    0  0.10308657800E+02 -0.33885455999E+02  0.25082474175E+02  0.43400726545E+02  0.00000000000E+00 0. -1.
         11    1    3    3    0    0  0.78330272449E+00 -0.11273766085E+01  0.17391170006E+01  0.22156419788E+01  0.51100000000E-03 0. -1.
        -11    1    3    3    0    0 -0.32712478345E+01  0.13584706728E+02 -0.89491171902E+01  0.16593131652E+02  0.51100000000E-03 0.  1.
         12    1    3    3    0    0 -0.78207126902E+01  0.21428125879E+02 -0.17872473986E+02  0.28978499824E+02  0.00000000000E+00 0. -1.
</event>
<event>
 7    1  0.1265344E-009  0.4778727E+02  0.7816164E-02  0.1312668E+00
        -11   -1    0    0    0    0  0.00000000000E+00  0.00000000000E+00  0.45593999997E+02  0.45594000000E+02  0.51100000000E-03 0.  1.
         11   -1    0    0    0    0 -0.00000000000E+00 -0.00000000000E+00 -0.45593999997E+02  0.45594000000E+02  0.51100000000E-03 0. -1.
    9900012    2    1    2    0    0 -0.35213720201E-01 -0.21906300085E+02 -0.37466469086E+02  0.47787268103E+02  0.19999986588E+02 0.  0.
         12    1    1    2    0    0  0.35213720201E-01  0.21906300085E+02  0.37466469086E+02  0.43400731897E+02  0.00000000000E+00 0. -1.
         11    1    3    3    0    0  0.45793373269E+01 -0.61112656224E+00 -0.46884711820E+01  0.65822160641E+01  0.51100000000E-03 0. -1.
        -11    1    3    3    0    0  0.33734787561E+01 -0.12309973328E+02 -0.14385082944E+02  0.19231391365E+02  0.51100000000E-03 0.  1.
         12    1    3    3    0    0 -0.79880298032E+01 -0.89852001942E+01 -0.18392914960E+02  0.21973660674E+02  0.00000000000E+00 0. -1.
</event>
<event>
 7    1  0.1265344E-009  0.4778727E+02  0.7816164E-02  0.1312668E+00
        -11   -1    0    0    0    0  0.00000000000E+00  0.00000000000E+00  0.45593999997E+02  0.45594000000E+02  0.51100000000E-03 0. -1.
         11   -1    0    0    0    0 -0.00000000000E+00 -0.00000000000E+00 -0.45593999997E+02  0.45594000000E+02  0.51100000000E-03 0.  1.
    9900012    2    1    2    0    0  0.15661264919E+01 -0.30710409521E+02 -0.30627454740E+02  0.47787274326E+02  0.20000014963E+02 0.  0.
         12    1    1    2    0    0 -0.15661264919E+01  0.30710409521E+02  0.30627454740E+02  0.43400725674E+02  0.00000000000E+00 0. -1.
         11    1    3    3    0    0 -0.57126766123E+01 -0.73539903617E+01 -0.44045107568E+01  0.10301240876E+02  0.51100000000E-03 0. -1.
        -11    1    3    3    0    0  0.20211130255E+01 -0.20730913940E+02 -0.21618810565E+02  0.30020470702E+02  0.51100000000E-03 0.  1.
        -12    1    3    3    0    0  0.52576900787E+01 -0.26255052197E+01 -0.46041334182E+01  0.74655627487E+01  0.00000000000E+00 0.  1.
</event>
<event>
 7    1  0.1265344E-009  0.4778730E+02  0.7816164E-02  0.1312668E+00
        -11   -1    0    0    0    0  0.00000000000E+00  0.00000000000E+00  0.45593999997E+02  0.45594000000E+02  0.51100000000E-03 0.  1.
         11   -1    0    0    0    0 -0.00000000000E+00 -0.00000000000E+00 -0.45593999997E+02  0.45594000000E+02  0.51100000000E-03 0. -1.
    9900012    2    1    2    0    0 -0.36646215451E+02 -0.54914123242E+01  0.22594698622E+02  0.47787295835E+02  0.20000113030E+02 0.  0.
         12    1    1    2    0    0  0.36646215451E+02  0.54914123242E+01 -0.22594698622E+02  0.43400704165E+02  0.00000000000E+00 0. -1.
         11    1    3    3    0    0 -0.43425523097E+00 -0.24685561078E+01  0.25939825854E+01  0.36070892389E+01  0.51100000000E-03 0. -1.
        -11    1    3    3    0    0 -0.69539128117E+01  0.96645580977E+00  0.11462654272E+02  0.13441851935E+02  0.51100000000E-03 0.  1.
         12    1    3    3    0    0 -0.29258047408E+02 -0.39893120261E+01  0.85380617651E+01  0.30738354661E+02  0.00000000000E+00 0. -1.
</event>
<event>
 7    1  0.1265344E-009  0.4778727E+02  0.7816164E-02  0.1312668E+00
        -11   -1    0    0    0    0  0.00000000000E+00  0.00000000000E+00  0.45593999997E+02  0.45594000000E+02  0.51100000000E-03 0.  1.
         11   -1    0    0    0    0 -0.00000000000E+00 -0.00000000000E+00 -0.45593999997E+02  0.45594000000E+02  0.51100000000E-03 0. -1.
    9900012    2    1    2    0    0 -0.94956421606E+01  0.37912742548E+02  0.18870074668E+02  0.47787274367E+02  0.20000015147E+02 0.  0.
         12    1    1    2    0    0  0.94956421606E+01 -0.37912742548E+02 -0.18870074668E+02  0.43400725633E+02  0.00000000000E+00 0. -1.
         11    1    3    3    0    0  0.32360626593E+01  0.40585396036E+01  0.89266918015E+00  0.52669444439E+01  0.51100000000E-03 0. -1.
        -11    1    3    3    0    0 -0.91781898825E+01  0.23575112736E+02  0.18938311135E+02  0.31601973656E+02  0.51100000000E-03 0.  1.
        -12    1    3    3    0    0 -0.35535149374E+01  0.10279090208E+02 -0.96090564682E+00  0.10918356267E+02  0.00000000000E+00 0.  1.
</event>
<event>
 7    1  0.1265344E-009  0.4778727E+02  0.7816164E-02  0.1312668E+00
        -11   -1    0    0    0    0  0.00000000000E+00  0.00000000000E+00  0.45593999997E+02  0.45594000000E+02  0.51100000000E-03 0.  1.
         11   -1    0    0    0    0 -0.00000000000E+00 -0.00000000000E+00 -0.45593999997E+02  0.45594000000E+02  0.51100000000E-03 0. -1.
    9900012    2    1    2    0    0 -0.83841129477E+01  0.42456791925E+02  0.32788412283E+01  0.47787270395E+02  0.19999997038E+02 0.  0.
         12    1    1    2    0    0  0.83841129477E+01 -0.42456791925E+02 -0.32788412283E+01  0.43400729605E+02  0.00000000000E+00 0. -1.
         11    1    3    3    0    0  0.25164268732E+01  0.37463385904E+01  0.16009628990E+01  0.47885842904E+01  0.51100000000E-03 0.  1.
        -11    1    3    3    0    0 -0.12235772733E+02  0.36484288750E+02  0.49757092000E+01  0.38801741485E+02  0.51100000000E-03 0. -1.
         12    1    3    3    0    0  0.13352329122E+01  0.22261645843E+01 -0.32978308706E+01  0.41969446193E+01  0.00000000000E+00 0. -1.
</event>
<event>
 7    1  0.1265344E-009  0.4778727E+02  0.7816164E-02  0.1312668E+00
        -11   -1    0    0    0    0  0.00000000000E+00  0.00000000000E+00  0.45593999997E+02  0.45594000000E+02  0.51100000000E-03 0.  1.
         11   -1    0    0    0    0 -0.00000000000E+00 -0.00000000000E+00 -0.45593999997E+02  0.45594000000E+02  0.51100000000E-03 0. -1.
    9900012    2    1    2    0    0  0.39370939904E+02  0.14179966038E+02  0.11510029104E+02  0.47787272866E+02  0.20000008305E+02 0.  0.
         12    1    1    2    0    0 -0.39370939904E+02 -0.14179966038E+02 -0.11510029104E+02  0.43400727134E+02  0.00000000000E+00 0. -1.
         11    1    3    3    0    0 -0.39576079103E+00 -0.85131990952E+00  0.23828361716E+01  0.25611092663E+01  0.51100000000E-03 0. -1.
        -11    1    3    3    0    0  0.17975938844E+02  0.92541432486E+01 -0.15588085247E+01  0.20278151515E+02  0.51100000000E-03 0.  1.
        -12    1    3    3    0    0  0.21790761852E+02  0.57771426988E+01  0.10686001457E+02  0.24948012085E+02  0.00000000000E+00 0.  1.
</event>
<event>
 7    1  0.1265344E-009  0.4778727E+02  0.7816164E-02  0.1312668E+00
        -11   -1    0    0    0    0  0.00000000000E+00  0.00000000000E+00  0.45593999997E+02  0.45594000000E+02  0.51100000000E-03 0.  1.
         11   -1    0    0    0    0 -0.00000000000E+00 -0.00000000000E+00 -0.45593999997E+02  0.45594000000E+02  0.51100000000E-03 0. -1.
    9900012    2    1    2    0    0  0.19703823023E+02 -0.36500142600E+02  0.12771935617E+02  0.47787269695E+02  0.19999993849E+02 0.  0.
         12    1    1    2    0    0 -0.19703823023E+02  0.36500142600E+02 -0.12771935617E+02  0.43400730305E+02  0.00000000000E+00 0. -1.
         11    1    3    3    0    0  0.67602256549E+01 -0.53658741955E+01  0.64991193514E+01  0.10804249599E+02  0.51100000000E-03 0. -1.
        -11    1    3    3    0    0  0.67005883293E+01 -0.24851212888E+02  0.96718338102E+01  0.27495909432E+02  0.51100000000E-03 0.  1.
        -12    1    3    3    0    0  0.62430090392E+01 -0.62830555165E+01 -0.33990175452E+01  0.94871106645E+01  0.00000000000E+00 0.  1.
</event>
<event>
 7    1  0.1265344E-009  0.4778728E+02  0.7816164E-02  0.1312668E+00
        -11   -1    0    0    0    0  0.00000000000E+00  0.00000000000E+00  0.45593999997E+02  0.45594000000E+02  0.51100000000E-03 0. -1.
         11   -1    0    0    0    0 -0.00000000000E+00 -0.00000000000E+00 -0.45593999997E+02  0.45594000000E+02  0.51100000000E-03 0.  1.
    9900012    2    1    2    0    0 -0.40478876974E+02 -0.61360383854E+00 -0.15643106167E+02  0.47787276949E+02  0.20000026921E+02 0.  0.
         12    1    1    2    0    0  0.40478876974E+02  0.61360383854E+00  0.15643106167E+02  0.43400723051E+02  0.00000000000E+00 0. -1.
         11    1    3    3    0    0 -0.16408477617E+02 -0.65220825443E+01 -0.58807892722E+01  0.18610732955E+02  0.51100000000E-03 0. -1.
        -11    1    3    3    0    0 -0.20566513007E+02  0.24076792200E+01 -0.11785784665E+02  0.23826101169E+02  0.51100000000E-03 0.  1.
         12    1    3    3    0    0 -0.35038863508E+01  0.35007994858E+01  0.20234677702E+01  0.53504428243E+01  0.00000000000E+00 0. -1.
</event>
<event>
 7    1  0.1265344E-009  0.4778727E+02  0.7816164E-02  0.1312668E+00
        -11   -1    0    0    0    0  0.00000000000E+00  0.00000000000E+00  0.45593999997E+02  0.45594000000E+02  0.51100000000E-03 0.  1.
         11   -1    0    0    0    0 -0.00000000000E+00 -0.00000000000E+00 -0.45593999997E+02  0.45594000000E+02  0.51100000000E-03 0. -1.
    9900012    2    1    2    0    0 -0.31187358349E+02  0.51768292962E+01  0.29735043535E+02  0.47787266177E+02  0.19999977808E+02 0.  0.
         12    1    1    2    0    0  0.31187358349E+02 -0.51768292962E+01 -0.29735043535E+02  0.43400733823E+02  0.00000000000E+00 0. -1.
         11    1    3    3    0    0 -0.95897429602E+01  0.25162934726E+01  0.89071631557E+00  0.99543095541E+01  0.51100000000E-03 0. -1.
        -11    1    3    3    0    0 -0.14110066890E+01 -0.28376364703E+01  0.18139084202E+01  0.36514907410E+01  0.51100000000E-03 0.  1.
        -12    1    3    3    0    0 -0.20186608699E+02  0.54981722939E+01  0.27030418800E+02  0.34181465882E+02  0.00000000000E+00 0.  1.
</event>
<event>
 7    1  0.1265344E-009  0.4778728E+02  0.7816164E-02  0.1312668E+00
        -11   -1    0    0    0    0  0.00000000000E+00  0.00000000000E+00  0.45593999997E+02  0.45594000000E+02  0.51100000000E-03 0. -1.
         11   -1    0    0    0    0 -0.00000000000E+00 -0.00000000000E+00 -0.45593999997E+02  0.45594000000E+02  0.51100000000E-03 0.  1.
    9900012    2    1    2    0    0  0.38756929322E+02 -0.19399587419E+02 -0.22756970737E+01  0.47787281576E+02  0.20000048018E+02 0.  0.
         12    1    1    2    0    0 -0.38756929322E+02  0.19399587419E+02  0.22756970737E+01  0.43400718424E+02  0.00000000000E+00 0. -1.
         11    1    3    3    0    0  0.19537126483E+01  0.19105061740E+01 -0.25914718356E+01  0.37659996666E+01  0.51100000000E-03 0. -1.
        -11    1    3    3    0    0  0.97142385816E+01 -0.10162150155E+02  0.36897816048E+01  0.14534449269E+02  0.51100000000E-03 0.  1.
        -12    1    3    3    0    0  0.27088978093E+02 -0.11147943438E+02 -0.33740068428E+01  0.29486832640E+02  0.00000000000E+00 0.  1.
</event>
<event>
 7    1  0.1265344E-009  0.4778728E+02  0.7816164E-02  0.1312668E+00
        -11   -1    0    0    0    0  0.00000000000E+00  0.00000000000E+00  0.45593999997E+02  0.45594000000E+02  0.51100000000E-03 0.  1.
         11   -1    0    0    0    0 -0.00000000000E+00 -0.00000000000E+00 -0.45593999997E+02  0.45594000000E+02  0.51100000000E-03 0. -1.
    9900012    2    1    2    0    0 -0.36980470915E+02 -0.13000430974E+02  0.18629440152E+02  0.47787280248E+02  0.20000041962E+02 0.  0.
         12    1    1    2    0    0  0.36980470915E+02  0.13000430974E+02 -0.18629440152E+02  0.43400719752E+02  0.00000000000E+00 0. -1.
         11    1    3    3    0    0 -0.45105105272E+01  0.19397834248E+01 -0.51711054787E+00  0.49370911001E+01  0.51100000000E-03 0. -1.
        -11    1    3    3    0    0 -0.13084212861E+02 -0.60318085378E+01  0.34279435522E+00  0.14411691388E+02  0.51100000000E-03 0.  1.
        -12    1    3    3    0    0 -0.19385747527E+02 -0.89084058606E+01  0.18803756345E+02  0.28438497760E+02  0.00000000000E+00 0.  1.
</event>
<event>
 7    1  0.1265344E-009  0.4778727E+02  0.7816164E-02  0.1312668E+00
        -11   -1    0    0    0    0  0.00000000000E+00  0.00000000000E+00  0.45593999997E+02  0.45594000000E+02  0.51100000000E-03 0. -1.
         11   -1    0    0    0    0 -0.00000000000E+00 -0.00000000000E+00 -0.45593999997E+02  0.45594000000E+02  0.51100000000E-03 0.  1.
    9900012    2    1    2    0    0  0.12614545998E+02 -0.38597530437E+02 -0.15320820315E+02  0.47787266577E+02  0.19999979629E+02 0.  0.
         12    1    1    2    0    0 -0.12614545998E+02  0.38597530437E+02  0.15320820315E+02  0.43400733423E+02  0.00000000000E+00 0. -1.
         11    1    3    3    0    0 -0.44598528218E+01 -0.90530552159E+01 -0.23570502096E+01  0.10363579588E+02  0.51100000000E-03 0. -1.
        -11    1    3    3    0    0  0.50207722096E+01 -0.62705142379E+01 -0.67372628232E+01  0.10484188714E+02  0.51100000000E-03 0.  1.
        -12    1    3    3    0    0  0.12053626611E+02 -0.23273960983E+02 -0.62265072824E+01  0.26939498274E+02  0.00000000000E+00 0.  1.
</event>
<event>
 7    1  0.1265344E-009  0.4778727E+02  0.7816164E-02  0.1312668E+00
        -11   -1    0    0    0    0  0.00000000000E+00  0.00000000000E+00  0.45593999997E+02  0.45594000000E+02  0.51100000000E-03 0. -1.
         11   -1    0    0    0    0 -0.00000000000E+00 -0.00000000000E+00 -0.45593999997E+02  0.45594000000E+02  0.51100000000E-03 0.  1.
    9900012    2    1    2    0    0 -0.18124121527E+01  0.25021167872E+02 -0.35415810240E+02  0.47787270807E+02  0.19999998918E+02 0.  0.
         12    1    1    2    0    0  0.18124121527E+01 -0.25021167872E+02  0.35415810240E+02  0.43400729193E+02  0.00000000000E+00 0. -1.
         11    1    3    3    0    0  0.53369280231E+01  0.12965384225E+02 -0.13575396008E+02  0.19516028434E+02  0.51100000000E-03 0. -1.
        -11    1    3    3    0    0 -0.48913827263E+01  0.87203740800E+01 -0.54382903598E+01  0.11381807913E+02  0.51100000000E-03 0.  1.
        -12    1    3    3    0    0 -0.22579574495E+01  0.33354095668E+01 -0.16402123873E+02  0.16889434460E+02  0.00000000000E+00 0.  1.
</event>
<event>
 7    1  0.1265344E-009  0.4778727E+02  0.7816164E-02  0.1312668E+00
        -11   -1    0    0    0    0  0.00000000000E+00  0.00000000000E+00  0.45593999997E+02  0.45594000000E+02  0.51100000000E-03 0. -1.
         11   -1    0    0    0    0 -0.00000000000E+00 -0.00000000000E+00 -0.45593999997E+02  0.45594000000E+02  0.51100000000E-03 0.  1.
    9900012    2    1    2    0    0  0.97976727841E+01 -0.37717818240E+02 -0.19104836165E+02  0.47787274549E+02  0.20000015981E+02 0.  0.
         12    1    1    2    0    0 -0.97976727841E+01  0.37717818240E+02  0.19104836165E+02  0.43400725451E+02  0.00000000000E+00 0. -1.
         11    1    3    3    0    0  0.26926078916E+01 -0.14096995521E+02 -0.46474277492E+01  0.15085556169E+02  0.51100000000E-03 0.  1.
        -11    1    3    3    0    0  0.10354050897E+02 -0.12416872117E+02 -0.31817641615E+01  0.16477521251E+02  0.51100000000E-03 0. -1.
         12    1    3    3    0    0 -0.32489860048E+01 -0.11203950602E+02 -0.11275644254E+02  0.16224197130E+02  0.00000000000E+00 0. -1.
</event>
<event>
 7    1  0.1265344E-009  0.4778727E+02  0.7816164E-02  0.1312668E+00
        -11   -1    0    0    0    0  0.00000000000E+00  0.00000000000E+00  0.45593999997E+02  0.45594000000E+02  0.51100000000E-03 0. -1.
         11   -1    0    0    0    0 -0.00000000000E+00 -0.00000000000E+00 -0.45593999997E+02  0.45594000000E+02  0.51100000000E-03 0.  1.
    9900012    2    1    2    0    0 -0.13288702450E+02 -0.46044803609E+01 -0.41058889236E+02  0.47787271463E+02  0.20000001910E+02 0.  0.
         12    1    1    2    0    0  0.13288702450E+02  0.46044803609E+01  0.41058889236E+02  0.43400728537E+02  0.00000000000E+00 0. -1.
         11    1    3    3    0    0  0.47187038816E+01 -0.33097154268E+00 -0.12101993231E+02  0.12993611850E+02  0.51100000000E-03 0. -1.
        -11    1    3    3    0    0 -0.74192938482E+01 -0.44808763306E+01 -0.12037157780E+02  0.14832981547E+02  0.51100000000E-03 0.  1.
         12    1    3    3    0    0 -0.10588112484E+02  0.20736751231E+00 -0.16919738225E+02  0.19960678066E+02  0.00000000000E+00 0. -1.
</event>
<event>
 7    1  0.1265344E-009  0.4778727E+02  0.7816164E-02  0.1312668E+00
        -11   -1    0    0    0    0  0.00000000000E+00  0.00000000000E+00  0.45593999997E+02  0.45594000000E+02  0.51100000000E-03 0.  1.
         11   -1    0    0    0    0 -0.00000000000E+00 -0.00000000000E+00 -0.45593999997E+02  0.45594000000E+02  0.51100000000E-03 0. -1.
    9900012    2    1    2    0    0 -0.25324674260E+02 -0.61545526518E+01  0.34704547758E+02  0.47787270977E+02  0.19999999691E+02 0.  0.
         12    1    1    2    0    0  0.25324674260E+02  0.61545526518E+01 -0.34704547758E+02  0.43400729023E+02  0.00000000000E+00 0. -1.
         11    1    3    3    0    0 -0.12405740965E+01  0.28157365657E+01  0.19690795797E+01  0.36530358811E+01  0.51100000000E-03 0. -1.
        -11    1    3    3    0    0 -0.24589488788E+02 -0.10234925392E+02  0.25853223658E+02  0.37118537557E+02  0.51100000000E-03 0.  1.
        -12    1    3    3    0    0  0.50538862467E+00  0.12646361743E+01  0.68822445200E+01  0.70156975382E+01  0.00000000000E+00 0.  1.
</event>
<event>
 7    1  0.1552980E-009  0.4778729E+02  0.7816164E-02  0.1312668E+00
        -11   -1    0    0    0    0  0.00000000000E+00  0.00000000000E+00  0.45593999997E+02  0.45594000000E+02  0.51100000000E-03 0. -1.
         11   -1    0    0    0    0 -0.00000000000E+00 -0.00000000000E+00 -0.45593999997E+02  0.45594000000E+02  0.51100000000E-03 0.  1.
    9900012    2    1    2    0    0  0.37709288596E+02  0.54653236631E+01 -0.20778877303E+02  0.47787286283E+02  0.20000069478E+02 0.  0.
         12    1    1    2    0    0 -0.37709288596E+02 -0.54653236631E+01  0.20778877303E+02  0.43400713717E+02  0.00000000000E+00 0. -1.
         11    1    3    3    0    0  0.12282571103E+02 -0.31309916086E+01 -0.54371043843E+01  0.13792271956E+02  0.51100000000E-03 0.  1.
        -11    1    3    3    0    0  0.22635592537E+02  0.22931865266E+01 -0.14665328631E+02  0.27068443215E+02  0.51100000000E-03 0. -1.
         12    1    3    3    0    0  0.27911249563E+01  0.63031287452E+01 -0.67644428745E+00  0.69265711123E+01  0.00000000000E+00 0. -1.
</event>
<event>
 7    1  0.1265344E-009  0.4778727E+02  0.7816164E-02  0.1312668E+00
        -11   -1    0    0    0    0  0.00000000000E+00  0.00000000000E+00  0.45593999997E+02  0.45594000000E+02  0.51100000000E-03 0.  1.
         11   -1    0    0    0    0 -0.00000000000E+00 -0.00000000000E+00 -0.45593999997E+02  0.45594000000E+02  0.51100000000E-03 0. -1.
    9900012    2    1    2    0    0 -0.11830950778E+02 -0.10096456796E+02  0.40518064449E+02  0.47787269789E+02  0.19999994275E+02 0.  0.
         12    1    1    2    0    0  0.11830950778E+02  0.10096456796E+02 -0.40518064449E+02  0.43400730211E+02  0.00000000000E+00 0. -1.
         11    1    3    3    0    0 -0.16220331355E+01  0.35205715316E+01  0.55702919276E+01  0.67862779063E+01  0.51100000000E-03 0. -1.
        -11    1    3    3    0    0 -0.22930205508E+01 -0.81315005454E+01  0.56572546018E+01  0.10167781187E+02  0.51100000000E-03 0.  1.
         12    1    3    3    0    0 -0.79158970920E+01 -0.54855277819E+01  0.29290517920E+02  0.30833210696E+02  0.00000000000E+00 0. -1.
</event>
<event>
 7    1  0.1265344E-009  0.4778727E+02  0.7816164E-02  0.1312668E+00
        -11   -1    0    0    0    0  0.00000000000E+00  0.00000000000E+00  0.45593999997E+02  0.45594000000E+02  0.51100000000E-03 0. -1.
         11   -1    0    0    0    0 -0.00000000000E+00 -0.00000000000E+00 -0.45593999997E+02  0.45594000000E+02  0.51100000000E-03 0.  1.
    9900012    2    1    2    0    0  0.17097219581E+02 -0.27017109394E+02 -0.29349349956E+02  0.47787268897E+02  0.19999990209E+02 0.  0.
         12    1    1    2    0    0 -0.17097219581E+02  0.27017109394E+02  0.29349349956E+02  0.43400731103E+02  0.00000000000E+00 0. -1.
         11    1    3    3    0    0  0.24336483918E+01 -0.19080013636E+02 -0.10140110393E+02  0.21743767013E+02  0.51100000000E-03 0. -1.
        -11    1    3    3    0    0  0.79339289428E+01 -0.67250210608E+01 -0.89895273077E+01  0.13747172008E+02  0.51100000000E-03 0.  1.
         12    1    3    3    0    0  0.67296422468E+01 -0.12120746969E+01 -0.10219712256E+02  0.12296329876E+02  0.00000000000E+00 0. -1.
</event>
<event>
 7    1  0.1265344E-009  0.4778727E+02  0.7816164E-02  0.1312668E+00
        -11   -1    0    0    0    0  0.00000000000E+00  0.00000000000E+00  0.45593999997E+02  0.45594000000E+02  0.51100000000E-03 0. -1.
         11   -1    0    0    0    0 -0.00000000000E+00 -0.00000000000E+00 -0.45593999997E+02  0.45594000000E+02  0.51100000000E-03 0.  1.
    9900012    2    1    2    0    0 -0.28291189820E+02  0.16793718836E+02 -0.28305532415E+02  0.47787267529E+02  0.19999983969E+02 0.  0.
         12    1    1    2    0    0  0.28291189820E+02 -0.16793718836E+02  0.28305532415E+02  0.43400732471E+02  0.00000000000E+00 0. -1.
         11    1    3    3    0    0 -0.16420170626E+02  0.82119505036E+01 -0.80085535217E+01  0.20029854324E+02  0.51100000000E-03 0. -1.
        -11    1    3    3    0    0 -0.12173625119E+02  0.10959087528E+02 -0.18786949840E+02  0.24924851705E+02  0.51100000000E-03 0.  1.
         12    1    3    3    0    0  0.30260592520E+00 -0.23773191960E+01 -0.15100290539E+01  0.28325614996E+01  0.00000000000E+00 0. -1.
</event>
<event>
 7    1  0.1265344E-009  0.4778727E+02  0.7816164E-02  0.1312668E+00
        -11   -1    0    0    0    0  0.00000000000E+00  0.00000000000E+00  0.45593999997E+02  0.45594000000E+02  0.51100000000E-03 0. -1.
         11   -1    0    0    0    0 -0.00000000000E+00 -0.00000000000E+00 -0.45593999997E+02  0.45594000000E+02  0.51100000000E-03 0.  1.
    9900012    2    1    2    0    0  0.41292831066E+02 -0.18850446459E+01 -0.13227695692E+02  0.47787271618E+02  0.20000002614E+02 0.  0.
         12    1    1    2    0    0 -0.41292831066E+02  0.18850446459E+01  0.13227695692E+02  0.43400728382E+02  0.00000000000E+00 0. -1.
         11    1    3    3    0    0  0.43119596906E+01  0.21786877827E+01  0.18015151468E+01  0.51560773766E+01  0.51100000000E-03 0. -1.
        -11    1    3    3    0    0  0.10905319436E+02  0.14150566808E+00  0.21597685531E+01  0.11118031135E+02  0.51100000000E-03 0.  1.
        -12    1    3    3    0    0  0.26075551940E+02 -0.42052380967E+01 -0.17188979392E+02  0.31513163106E+02  0.00000000000E+00 0.  1.
</event>
<event>
 7    1  0.1265344E-009  0.4778728E+02  0.7816164E-02  0.1312668E+00
        -11   -1    0    0    0    0  0.00000000000E+00  0.00000000000E+00  0.45593999997E+02  0.45594000000E+02  0.51100000000E-03 0. -1.
         11   -1    0    0    0    0 -0.00000000000E+00 -0.00000000000E+00 -0.45593999997E+02  0.45594000000E+02  0.51100000000E-03 0.  1.
    9900012    2    1    2    0    0  0.29735345834E+02 -0.17756167180E+02  0.26156267833E+02  0.47787278673E+02  0.20000034781E+02 0.  0.
         12    1    1    2    0    0 -0.29735345834E+02  0.17756167180E+02 -0.26156267833E+02  0.43400721327E+02  0.00000000000E+00 0. -1.
         11    1    3    3    0    0  0.10236717212E+02 -0.91813697264E+01  0.12281012501E+02  0.18436680765E+02  0.51100000000E-03 0. -1.
        -11    1    3    3    0    0  0.16441496187E+02  0.25494408371E+00  0.77532073051E+01  0.18179659434E+02  0.51100000000E-03 0.  1.
         12    1    3    3    0    0  0.30571324347E+01 -0.88297415370E+01  0.61220480270E+01  0.11170938474E+02  0.00000000000E+00 0. -1.
</event>
<event>
 7    1  0.1265344E-009  0.4778727E+02  0.7816164E-02  0.1312668E+00
        -11   -1    0    0    0    0  0.00000000000E+00  0.00000000000E+00  0.45593999997E+02  0.45594000000E+02  0.51100000000E-03 0.  1.
         11   -1    0    0    0    0 -0.00000000000E+00 -0.00000000000E+00 -0.45593999997E+02  0.45594000000E+02  0.51100000000E-03 0. -1.
    9900012    2    1    2    0    0  0.30597003068E+02  0.29777740503E+02 -0.77931220174E+01  0.47787272161E+02  0.20000005090E+02 0.  0.
         12    1    1    2    0    0 -0.30597003068E+02 -0.29777740503E+02  0.77931220174E+01  0.43400727839E+02  0.00000000000E+00 0. -1.
         11    1    3    3    0    0  0.10545550600E+02  0.54095451340E+01  0.48912364472E+00  0.11862169203E+02  0.51100000000E-03 0. -1.
        -11    1    3    3    0    0  0.18930018865E+02  0.26212394855E+02 -0.91435685226E+01  0.33601192000E+02  0.51100000000E-03 0.  1.
         12    1    3    3    0    0  0.11214336031E+01 -0.18441994853E+01  0.86132286042E+00  0.23239109573E+01  0.00000000000E+00 0. -1.
</event>
<event>
 7    1  0.1265344E-009  0.4778727E+02  0.7816164E-02  0.1312668E+00
        -11   -1    0    0    0    0  0.00000000000E+00  0.00000000000E+00  0.45593999997E+02  0.45594000000E+02  0.51100000000E-03 0. -1.
         11   -1    0    0    0    0 -0.00000000000E+00 -0.00000000000E+00 -0.45593999997E+02  0.45594000000E+02  0.51100000000E-03 0.  1.
    9900012    2    1    2    0    0  0.42547348130E+02 -0.79177018414E+01  0.32644830835E+01  0.47787266306E+02  0.19999978396E+02 0.  0.
         12    1    1    2    0    0 -0.42547348130E+02  0.79177018414E+01 -0.32644830835E+01  0.43400733694E+02  0.00000000000E+00 0. -1.
         11    1    3    3    0    0  0.24956324233E+02  0.46372562825E+00 -0.81683436655E+00  0.24973994060E+02  0.51100000000E-03 0. -1.
        -11    1    3    3    0    0  0.15736654553E+02 -0.10856170722E+02  0.23302748071E+01  0.19259515056E+02  0.51100000000E-03 0.  1.
         12    1    3    3    0    0  0.18543693447E+01  0.24747432520E+01  0.17510426429E+01  0.35537571902E+01  0.00000000000E+00 0. -1.
</event>
<event>
 7    1  0.1265344E-009  0.4778727E+02  0.7816164E-02  0.1312668E+00
        -11   -1    0    0    0    0  0.00000000000E+00  0.00000000000E+00  0.45593999997E+02  0.45594000000E+02  0.51100000000E-03 0. -1.
         11   -1    0    0    0    0 -0.00000000000E+00 -0.00000000000E+00 -0.45593999997E+02  0.45594000000E+02  0.51100000000E-03 0.  1.
    9900012    2    1    2    0    0 -0.25860017903E+02 -0.23947338331E+02 -0.25326031806E+02  0.47787269291E+02  0.19999992003E+02 0.  0.
         12    1    1    2    0    0  0.25860017903E+02  0.23947338331E+02  0.25326031806E+02  0.43400730709E+02  0.00000000000E+00 0. -1.
         11    1    3    3    0    0 -0.90107183919E+01 -0.24744296346E+01 -0.55347707294E+01  0.10860457414E+02  0.51100000000E-03 0. -1.
        -11    1    3    3    0    0 -0.82944006882E+01 -0.15701665081E+02 -0.42298570109E+01  0.18254617489E+02  0.51100000000E-03 0.  1.
        -12    1    3    3    0    0 -0.85548988224E+01 -0.57712436161E+01 -0.15561404066E+02  0.18672194387E+02  0.00000000000E+00 0.  1.
</event>
<event>
 7    1  0.1265344E-009  0.4778728E+02  0.7816164E-02  0.1312668E+00
        -11   -1    0    0    0    0  0.00000000000E+00  0.00000000000E+00  0.45593999997E+02  0.45594000000E+02  0.51100000000E-03 0.  1.
         11   -1    0    0    0    0 -0.00000000000E+00 -0.00000000000E+00 -0.45593999997E+02  0.45594000000E+02  0.51100000000E-03 0. -1.
    9900012    2    1    2    0    0 -0.40130473404E+02 -0.15794964614E+02  0.48669310709E+01  0.47787276264E+02  0.20000023798E+02 0.  0.
         12    1    1    2    0    0  0.40130473404E+02  0.15794964614E+02 -0.48669310709E+01  0.43400723736E+02  0.00000000000E+00 0. -1.
         11    1    3    3    0    0 -0.17979885188E+02 -0.12332238670E+02  0.64513066166E+00  0.21812303313E+02  0.51100000000E-03 0. -1.
        -11    1    3    3    0    0 -0.22926088054E+02 -0.33060930266E+01  0.60863474728E+01  0.23949517540E+02  0.51100000000E-03 0.  1.
        -12    1    3    3    0    0  0.77549983852E+00 -0.15663291716E+00 -0.18645470635E+01  0.20254554111E+01  0.00000000000E+00 0.  1.
</event>
<event>
 7    1  0.1265344E-009  0.4778725E+02  0.7816164E-02  0.1312668E+00
        -11   -1    0    0    0    0  0.00000000000E+00  0.00000000000E+00  0.45593999997E+02  0.45594000000E+02  0.51100000000E-03 0.  1.
         11   -1    0    0    0    0 -0.00000000000E+00 -0.00000000000E+00 -0.45593999997E+02  0.45594000000E+02  0.51100000000E-03 0. -1.
    9900012    2    1    2    0    0  0.23237761013E+02  0.36655376878E+02  0.12198692034E+00  0.47787250332E+02  0.19999905562E+02 0.  0.
         12    1    1    2    0    0 -0.23237761013E+02 -0.36655376878E+02 -0.12198692034E+00  0.43400749668E+02  0.00000000000E+00 0. -1.
         11    1    3    3    0    0 -0.55864784591E+00  0.69779530683E+01  0.49965480636E+01  0.86005470322E+01  0.51100000000E-03 0. -1.
        -11    1    3    3    0    0  0.10772252558E+02  0.73922803515E+01 -0.13223292362E+01  0.13131480832E+02  0.51100000000E-03 0.  1.
        -12    1    3    3    0    0  0.13024156301E+02  0.22285143458E+02 -0.35522319071E+01  0.26055222467E+02  0.00000000000E+00 0.  1.
</event>
<event>
 7    1  0.1265344E-009  0.4778727E+02  0.7816164E-02  0.1312668E+00
        -11   -1    0    0    0    0  0.00000000000E+00  0.00000000000E+00  0.45593999997E+02  0.45594000000E+02  0.51100000000E-03 0. -1.
         11   -1    0    0    0    0 -0.00000000000E+00 -0.00000000000E+00 -0.45593999997E+02  0.45594000000E+02  0.51100000000E-03 0.  1.
    9900012    2    1    2    0    0  0.40267936600E+02 -0.16037896493E+02  0.22141414337E+01  0.47787271156E+02  0.20000000508E+02 0.  0.
         12    1    1    2    0    0 -0.40267936600E+02  0.16037896493E+02 -0.22141414337E+01  0.43400728844E+02  0.00000000000E+00 0. -1.
         11    1    3    3    0    0  0.34298200992E+02 -0.18017082070E+02  0.74218756081E+00  0.38749615227E+02  0.51100000000E-03 0. -1.
        -11    1    3    3    0    0  0.52536915037E+01 -0.23370406354E+00  0.31857700797E+01  0.61485789633E+01  0.51100000000E-03 0.  1.
         12    1    3    3    0    0  0.71604410367E+00  0.22128896409E+01 -0.17138162067E+01  0.28890769654E+01  0.00000000000E+00 0. -1.
</event>
<event>
 7    1  0.1265344E-009  0.4778727E+02  0.7816164E-02  0.1312668E+00
        -11   -1    0    0    0    0  0.00000000000E+00  0.00000000000E+00  0.45593999997E+02  0.45594000000E+02  0.51100000000E-03 0.  1.
         11   -1    0    0    0    0 -0.00000000000E+00 -0.00000000000E+00 -0.45593999997E+02  0.45594000000E+02  0.51100000000E-03 0. -1.
    9900012    2    1    2    0    0 -0.36802469521E+02  0.34947695826E+01  0.22737369939E+02  0.47787272253E+02  0.20000005508E+02 0.  0.
         12    1    1    2    0    0  0.36802469521E+02 -0.34947695826E+01 -0.22737369939E+02  0.43400727747E+02  0.00000000000E+00 0. -1.
         11    1    3    3    0    0  0.80912367250E-01 -0.22373871699E+00  0.28608351026E+00  0.37208851181E+00  0.51100000000E-03 0. -1.
        -11    1    3    3    0    0 -0.14682912068E+01  0.56448573129E+01  0.58281071731E+01  0.82454306517E+01  0.51100000000E-03 0.  1.
        -12    1    3    3    0    0 -0.35415090682E+02 -0.19263490133E+01  0.16623179255E+02  0.39169753089E+02  0.00000000000E+00 0.  1.
</event>
<event>
 7    1  0.1265344E-009  0.4778733E+02  0.7816164E-02  0.1312668E+00
        -11   -1    0    0    0    0  0.00000000000E+00  0.00000000000E+00  0.45593999997E+02  0.45594000000E+02  0.51100000000E-03 0.  1.
         11   -1    0    0    0    0 -0.00000000000E+00 -0.00000000000E+00 -0.45593999997E+02  0.45594000000E+02  0.51100000000E-03 0. -1.
    9900012    2    1    2    0    0 -0.66874397172E+01 -0.10638888321E+02  0.41541673568E+02  0.47787326762E+02  0.20000254035E+02 0.  0.
         12    1    1    2    0    0  0.66874397172E+01  0.10638888321E+02 -0.41541673568E+02  0.43400673238E+02  0.00000000000E+00 0. -1.
         11    1    3    3    0    0  0.90375281504E+00 -0.69438935125E+01  0.52905897790E+01  0.87763754896E+01  0.51100000000E-03 0. -1.
        -11    1    3    3    0    0 -0.85391425185E+01 -0.19059041765E+01  0.12988838502E+02  0.15660758333E+02  0.51100000000E-03 0.  1.
        -12    1    3    3    0    0  0.94794998625E+00 -0.17890906324E+01  0.23262245287E+02  0.23350192939E+02  0.00000000000E+00 0.  1.
</event>
<event>
 7    1  0.1265344E-009  0.4778727E+02  0.7816164E-02  0.1312668E+00
        -11   -1    0    0    0    0  0.00000000000E+00  0.00000000000E+00  0.45593999997E+02  0.45594000000E+02  0.51100000000E-03 0. -1.
         11   -1    0    0    0    0 -0.00000000000E+00 -0.00000000000E+00 -0.45593999997E+02  0.45594000000E+02  0.51100000000E-03 0.  1.
    9900012    2    1    2    0    0 -0.53954244861E+00 -0.39434211471E+02 -0.18118368852E+02  0.47787269243E+02  0.19999991787E+02 0.  0.
         12    1    1    2    0    0  0.53954244861E+00  0.39434211471E+02  0.18118368852E+02  0.43400730757E+02  0.00000000000E+00 0. -1.
         11    1    3    3    0    0  0.58228987979E+01 -0.15713940920E+02 -0.79780796744E+01  0.18560276000E+02  0.51100000000E-03 0. -1.
        -11    1    3    3    0    0 -0.66751432244E+01 -0.22310992326E+02 -0.12522555015E+02  0.26441488234E+02  0.51100000000E-03 0.  1.
         12    1    3    3    0    0  0.31270197788E+00 -0.14092782245E+01  0.23822658369E+01  0.27855050096E+01  0.00000000000E+00 0. -1.
</event>
<event>
 7    1  0.1265344E-009  0.4778726E+02  0.7816164E-02  0.1312668E+00
        -11   -1    0    0    0    0  0.00000000000E+00  0.00000000000E+00  0.45593999997E+02  0.45594000000E+02  0.51100000000E-03 0.  1.
         11   -1    0    0    0    0 -0.00000000000E+00 -0.00000000000E+00 -0.45593999997E+02  0.45594000000E+02  0.51100000000E-03 0. -1.
    9900012    2    1    2    0    0  0.62284778313E+01 -0.57341129966E+01  0.42567009508E+02  0.47787259380E+02  0.19999946816E+02 0.  0.
         12    1    1    2    0    0 -0.62284778313E+01  0.57341129966E+01 -0.42567009508E+02  0.43400740620E+02  0.00000000000E+00 0. -1.
         11    1    3    3    0    0 -0.36265449121E+01 -0.52559749376E+01  0.13329349086E+02  0.14780008385E+02  0.51100000000E-03 0. -1.
        -11    1    3    3    0    0  0.24843367902E+01 -0.33786728019E+01  0.21601879091E+02  0.22005193471E+02  0.51100000000E-03 0.  1.
         12    1    3    3    0    0  0.73706859532E+01  0.29005347428E+01  0.76357813310E+01  0.11002057523E+02  0.00000000000E+00 0. -1.
</event>
<event>
 7    1  0.1265344E-009  0.4778727E+02  0.7816164E-02  0.1312668E+00
        -11   -1    0    0    0    0  0.00000000000E+00  0.00000000000E+00  0.45593999997E+02  0.45594000000E+02  0.51100000000E-03 0.  1.
         11   -1    0    0    0    0 -0.00000000000E+00 -0.00000000000E+00 -0.45593999997E+02  0.45594000000E+02  0.51100000000E-03 0. -1.
    9900012    2    1    2    0    0 -0.27056005113E+02  0.25066811573E+02  0.22874680302E+02  0.47787268969E+02  0.19999990538E+02 0.  0.
         12    1    1    2    0    0  0.27056005113E+02 -0.25066811573E+02 -0.22874680302E+02  0.43400731031E+02  0.00000000000E+00 0. -1.
         11    1    3    3    0    0 -0.91515670144E+00 -0.61568646316E+00 -0.98046327113E+00  0.14757676295E+01  0.51100000000E-03 0. -1.
        -11    1    3    3    0    0 -0.16908538867E+02  0.25321864600E+02  0.18675505795E+02  0.35719322928E+02  0.51100000000E-03 0.  1.
        -12    1    3    3    0    0 -0.92323095444E+01  0.36063343584E+00  0.51796377777E+01  0.10592178412E+02  0.00000000000E+00 0.  1.
</event>
<event>
 7    1  0.1265344E-009  0.4778727E+02  0.7816164E-02  0.1312668E+00
        -11   -1    0    0    0    0  0.00000000000E+00  0.00000000000E+00  0.45593999997E+02  0.45594000000E+02  0.51100000000E-03 0.  1.
         11   -1    0    0    0    0 -0.00000000000E+00 -0.00000000000E+00 -0.45593999997E+02  0.45594000000E+02  0.51100000000E-03 0. -1.
    9900012    2    1    2    0    0  0.41467427002E+02  0.11563576593E+02 -0.55099238006E+01  0.47787273438E+02  0.20000010914E+02 0.  0.
         12    1    1    2    0    0 -0.41467427002E+02 -0.11563576593E+02  0.55099238006E+01  0.43400726562E+02  0.00000000000E+00 0. -1.
         11    1    3    3    0    0  0.35176352572E+01 -0.11396730439E+01 -0.62288546379E+01  0.72437036667E+01  0.51100000000E-03 0. -1.
        -11    1    3    3    0    0  0.15340305717E+02  0.21689948753E+01 -0.11161130851E+01  0.15533036630E+02  0.51100000000E-03 0.  1.
        -12    1    3    3    0    0  0.22609486028E+02  0.10534254761E+02  0.18350439225E+01  0.25010533141E+02  0.00000000000E+00 0.  1.
</event>
<event>
 7    1  0.1265344E-009  0.4778727E+02  0.7816164E-02  0.1312668E+00
        -11   -1    0    0    0    0  0.00000000000E+00  0.00000000000E+00  0.45593999997E+02  0.45594000000E+02  0.51100000000E-03 0. -1.
         11   -1    0    0    0    0 -0.00000000000E+00 -0.00000000000E+00 -0.45593999997E+02  0.45594000000E+02  0.51100000000E-03 0.  1.
    9900012    2    1    2    0    0  0.37040307260E+02  0.22215860521E+02  0.42537374078E+01  0.47787273018E+02  0.20000008999E+02 0.  0.
         12    1    1    2    0    0 -0.37040307260E+02 -0.22215860521E+02 -0.42537374078E+01  0.43400726982E+02  0.00000000000E+00 0. -1.
         11    1    3    3    0    0  0.89459260903E+01 -0.20770782292E+01 -0.60553065239E+00  0.92038315508E+01  0.51100000000E-03 0. -1.
        -11    1    3    3    0    0  0.20899892577E+02  0.13226682562E+02  0.69710063553E+00  0.24743415101E+02  0.51100000000E-03 0.  1.
        -12    1    3    3    0    0  0.71944885933E+01  0.11066256188E+02  0.41621674247E+01  0.13840026366E+02  0.00000000000E+00 0.  1.
</event>
<event>
 7    1  0.1265344E-009  0.4778727E+02  0.7816164E-02  0.1312668E+00
        -11   -1    0    0    0    0  0.00000000000E+00  0.00000000000E+00  0.45593999997E+02  0.45594000000E+02  0.51100000000E-03 0.  1.
         11   -1    0    0    0    0 -0.00000000000E+00 -0.00000000000E+00 -0.45593999997E+02  0.45594000000E+02  0.51100000000E-03 0. -1.
    9900012    2    1    2    0    0  0.11412931465E+02  0.40562114097E+02  0.10396321873E+02  0.47787267136E+02  0.19999982181E+02 0.  0.
         12    1    1    2    0    0 -0.11412931465E+02 -0.40562114097E+02 -0.10396321873E+02  0.43400732864E+02  0.00000000000E+00 0. -1.
         11    1    3    3    0    0  0.63998274255E+01  0.37131194862E+02  0.37407095739E+01  0.37863918595E+02  0.51100000000E-03 0.  1.
        -11    1    3    3    0    0  0.15502153937E+01 -0.86801829971E+00  0.10897918372E+01  0.20842912572E+01  0.51100000000E-03 0. -1.
        -12    1    3    3    0    0  0.34628886454E+01  0.42989375344E+01  0.55658204618E+01  0.78390572844E+01  0.00000000000E+00 0.  1.
</event>
<event>
 7    1  0.1265344E-009  0.4778727E+02  0.7816164E-02  0.1312668E+00
        -11   -1    0    0    0    0  0.00000000000E+00  0.00000000000E+00  0.45593999997E+02  0.45594000000E+02  0.51100000000E-03 0.  1.
         11   -1    0    0    0    0 -0.00000000000E+00 -0.00000000000E+00 -0.45593999997E+02  0.45594000000E+02  0.51100000000E-03 0. -1.
    9900012    2    1    2    0    0  0.13541364488E+02 -0.21336378283E+02  0.35284751579E+02  0.47787270922E+02  0.19999999444E+02 0.  0.
         12    1    1    2    0    0 -0.13541364488E+02  0.21336378283E+02 -0.35284751579E+02  0.43400729078E+02  0.00000000000E+00 0. -1.
         11    1    3    3    0    0  0.13503890813E+02 -0.97214958174E+01  0.17779858843E+02  0.24351302404E+02  0.51100000000E-03 0. -1.
        -11    1    3    3    0    0  0.99873992931E+00 -0.42665431948E+01  0.14978405669E+02  0.15606200977E+02  0.51100000000E-03 0.  1.
        -12    1    3    3    0    0 -0.96126625484E+00 -0.73483392712E+01  0.25264870674E+01  0.78297675419E+01  0.00000000000E+00 0.  1.
</event>
<event>
 7    1  0.1265344E-009  0.4778727E+02  0.7816164E-02  0.1312668E+00
        -11   -1    0    0    0    0  0.00000000000E+00  0.00000000000E+00  0.45593999997E+02  0.45594000000E+02  0.51100000000E-03 0.  1.
         11   -1    0    0    0    0 -0.00000000000E+00 -0.00000000000E+00 -0.45593999997E+02  0.45594000000E+02  0.51100000000E-03 0. -1.
    9900012    2    1    2    0    0  0.14027666070E+02 -0.11494425863E+02  0.39430017437E+02  0.47787268251E+02  0.19999987264E+02 0.  0.
         12    1    1    2    0    0 -0.14027666070E+02  0.11494425863E+02 -0.39430017437E+02  0.43400731749E+02  0.00000000000E+00 0. -1.
         11    1    3    3    0    0  0.50228245800E+01  0.12113216697E+01  0.23291911883E+01  0.56675566871E+01  0.51100000000E-03 0. -1.
        -11    1    3    3    0    0  0.78614466017E+01 -0.43955479276E+01  0.29341630899E+02  0.30692906157E+02  0.51100000000E-03 0.  1.
        -12    1    3    3    0    0  0.11433948879E+01 -0.83101996053E+01  0.77591953491E+01  0.11426805407E+02  0.00000000000E+00 0.  1.
</event>
<event>
 7    1  0.1265344E-009  0.4778727E+02  0.7816164E-02  0.1312668E+00
        -11   -1    0    0    0    0  0.00000000000E+00  0.00000000000E+00  0.45593999997E+02  0.45594000000E+02  0.51100000000E-03 0. -1.
         11   -1    0    0    0    0 -0.00000000000E+00 -0.00000000000E+00 -0.45593999997E+02  0.45594000000E+02  0.51100000000E-03 0.  1.
    9900012    2    1    2    0    0 -0.10839079336E+01 -0.11744453387E+02 -0.41767405646E+02  0.47787271710E+02  0.20000003033E+02 0.  0.
         12    1    1    2    0    0  0.10839079336E+01  0.11744453387E+02  0.41767405646E+02  0.43400728290E+02  0.00000000000E+00 0. -1.
         11    1    3    3    0    0 -0.92964100136E+01 -0.93763328109E+01 -0.17491193861E+02  0.21915307871E+02  0.51100000000E-03 0. -1.
        -11    1    3    3    0    0  0.31691181746E+01 -0.17051624697E+01 -0.71241064309E+01  0.79814648876E+01  0.51100000000E-03 0.  1.
         12    1    3    3    0    0  0.50433839054E+01 -0.66295810630E+00 -0.17152105354E+02  0.17890498952E+02  0.00000000000E+00 0. -1.
</event>
<event>
 7    1  0.1265344E-009  0.4778727E+02  0.7816164E-02  0.1312668E+00
        -11   -1    0    0    0    0  0.00000000000E+00  0.00000000000E+00  0.45593999997E+02  0.45594000000E+02  0.51100000000E-03 0. -1.
         11   -1    0    0    0    0 -0.00000000000E+00 -0.00000000000E+00 -0.45593999997E+02  0.45594000000E+02  0.51100000000E-03 0.  1.
    9900012    2    1    2    0    0  0.12603083642E+02 -0.26580336608E+02 -0.31910362396E+02  0.47787271438E+02  0.20000001793E+02 0.  0.
         12    1    1    2    0    0 -0.12603083642E+02  0.26580336608E+02  0.31910362396E+02  0.43400728562E+02  0.00000000000E+00 0. -1.
         11    1    3    3    0    0  0.84054373625E+01 -0.11330216936E+02 -0.12263524625E+02  0.18692758747E+02  0.51100000000E-03 0.  1.
        -11    1    3    3    0    0 -0.14515440173E+01  0.45687854154E+00  0.15113294779E+01  0.21447226133E+01  0.51100000000E-03 0. -1.
         12    1    3    3    0    0  0.56491902968E+01 -0.15706998213E+02 -0.21158167249E+02  0.26949790078E+02  0.00000000000E+00 0. -1.
</event>
<event>
 7    1  0.1265344E-009  0.4778727E+02  0.7816164E-02  0.1312668E+00
        -11   -1    0    0    0    0  0.00000000000E+00  0.00000000000E+00  0.45593999997E+02  0.45594000000E+02  0.51100000000E-03 0.  1.
         11   -1    0    0    0    0 -0.00000000000E+00 -0.00000000000E+00 -0.45593999997E+02  0.45594000000E+02  0.51100000000E-03 0. -1.
    9900012    2    1    2    0    0  0.73135039379E+01 -0.81793423693E+01  0.41990881305E+02  0.47787273114E+02  0.20000009436E+02 0.  0.
         12    1    1    2    0    0 -0.73135039379E+01  0.81793423693E+01 -0.41990881305E+02  0.43400726886E+02  0.00000000000E+00 0. -1.
         11    1    3    3    0    0  0.53553034554E+01  0.15381173799E+01  0.28524128276E+01  0.62594999300E+01  0.51100000000E-03 0. -1.
        -11    1    3    3    0    0  0.38760112435E+01 -0.73958645839E-01  0.14238633859E+02  0.14756951835E+02  0.51100000000E-03 0.  1.
        -12    1    3    3    0    0 -0.19178107610E+01 -0.96435011034E+01  0.24899834619E+02  0.26770821349E+02  0.00000000000E+00 0.  1.
</event>
<event>
 7    1  0.1265344E-009  0.4778727E+02  0.7816164E-02  0.1312668E+00
        -11   -1    0    0    0    0  0.00000000000E+00  0.00000000000E+00  0.45593999997E+02  0.45594000000E+02  0.51100000000E-03 0.  1.
         11   -1    0    0    0    0 -0.00000000000E+00 -0.00000000000E+00 -0.45593999997E+02  0.45594000000E+02  0.51100000000E-03 0. -1.
    9900012    2    1    2    0    0  0.28899608796E+02 -0.15875972349E+02  0.28220371349E+02  0.47787271370E+02  0.20000001483E+02 0.  0.
         12    1    1    2    0    0 -0.28899608796E+02  0.15875972349E+02 -0.28220371349E+02  0.43400728630E+02  0.00000000000E+00 0. -1.
         11    1    3    3    0    0  0.74911520918E+00 -0.24125725177E+01 -0.74910685402E+00  0.26349271507E+01  0.51100000000E-03 0. -1.
        -11    1    3    3    0    0  0.24678831660E+02 -0.51042779938E+01  0.18209194781E+02  0.31091367946E+02  0.51100000000E-03 0.  1.
         12    1    3    3    0    0  0.34716619273E+01 -0.83591218371E+01  0.10760283422E+02  0.14060976273E+02  0.00000000000E+00 0. -1.
</event>
<event>
 7    1  0.1265344E-009  0.4778727E+02  0.7816164E-02  0.1312668E+00
        -11   -1    0    0    0    0  0.00000000000E+00  0.00000000000E+00  0.45593999997E+02  0.45594000000E+02  0.51100000000E-03 0.  1.
         11   -1    0    0    0    0 -0.00000000000E+00 -0.00000000000E+00 -0.45593999997E+02  0.45594000000E+02  0.51100000000E-03 0. -1.
    9900012    2    1    2    0    0  0.33204326576E+02  0.16592564378E+02  0.22489614992E+02  0.47787270991E+02  0.19999999759E+02 0.  0.
         12    1    1    2    0    0 -0.33204326576E+02 -0.16592564378E+02 -0.22489614992E+02  0.43400729009E+02  0.00000000000E+00 0. -1.
         11    1    3    3    0    0  0.33805017609E+01  0.48980893413E+01  0.26008281158E+01  0.64948732475E+01  0.51100000000E-03 0. -1.
        -11    1    3    3    0    0  0.27647087555E+02  0.40123580668E+01  0.17470593117E+02  0.32949690312E+02  0.51100000000E-03 0.  1.
        -12    1    3    3    0    0  0.21767372595E+01  0.76821169701E+01  0.24181937591E+01  0.83427074320E+01  0.00000000000E+00 0.  1.
</event>
<event>
 7    1  0.1265344E-009  0.4778727E+02  0.7816164E-02  0.1312668E+00
        -11   -1    0    0    0    0  0.00000000000E+00  0.00000000000E+00  0.45593999997E+02  0.45594000000E+02  0.51100000000E-03 0.  1.
         11   -1    0    0    0    0 -0.00000000000E+00 -0.00000000000E+00 -0.45593999997E+02  0.45594000000E+02  0.51100000000E-03 0. -1.
    9900012    2    1    2    0    0 -0.29384999016E+02  0.28949967584E+02  0.13492386898E+02  0.47787270807E+02  0.19999998919E+02 0.  0.
         12    1    1    2    0    0  0.29384999016E+02 -0.28949967584E+02 -0.13492386898E+02  0.43400729193E+02  0.00000000000E+00 0. -1.
         11    1    3    3    0    0 -0.91544464972E+01  0.15000390703E+02  0.11668335815E+02  0.21094209463E+02  0.51100000000E-03 0. -1.
        -11    1    3    3    0    0 -0.16524041152E+02  0.11384867687E+02  0.55779965391E+01  0.20827222424E+02  0.51100000000E-03 0.  1.
        -12    1    3    3    0    0 -0.37065113669E+01  0.25647091927E+01 -0.37539454558E+01  0.58658389205E+01  0.00000000000E+00 0.  1.
</event>
<event>
 7    1  0.1265344E-009  0.4778725E+02  0.7816164E-02  0.1312668E+00
        -11   -1    0    0    0    0  0.00000000000E+00  0.00000000000E+00  0.45593999997E+02  0.45594000000E+02  0.51100000000E-03 0.  1.
         11   -1    0    0    0    0 -0.00000000000E+00 -0.00000000000E+00 -0.45593999997E+02  0.45594000000E+02  0.51100000000E-03 0. -1.
    9900012    2    1    2    0    0  0.39923681668E+02  0.38675122530E+01  0.16576111533E+02  0.47787245600E+02  0.19999883988E+02 0.  0.
         12    1    1    2    0    0 -0.39923681668E+02 -0.38675122530E+01 -0.16576111533E+02  0.43400754400E+02  0.00000000000E+00 0. -1.
         11    1    3    3    0    0  0.55802996522E+01 -0.48163024352E+01  0.61900107847E+01  0.96256297005E+01  0.51100000000E-03 0. -1.
        -11    1    3    3    0    0  0.89533991896E+01  0.59679579568E+01  0.47433700766E+00  0.10770555932E+02  0.51100000000E-03 0.  1.
        -12    1    3    3    0    0  0.25389982826E+02  0.27158567314E+01  0.99117637409E+01  0.27391059967E+02  0.00000000000E+00 0.  1.
</event>
<event>
 7    1  0.1265344E-009  0.4778727E+02  0.7816164E-02  0.1312668E+00
        -11   -1    0    0    0    0  0.00000000000E+00  0.00000000000E+00  0.45593999997E+02  0.45594000000E+02  0.51100000000E-03 0.  1.
         11   -1    0    0    0    0 -0.00000000000E+00 -0.00000000000E+00 -0.45593999997E+02  0.45594000000E+02  0.51100000000E-03 0. -1.
    9900012    2    1    2    0    0  0.22255041321E+02  0.34761082835E+02  0.13416552389E+02  0.47787267033E+02  0.19999981711E+02 0.  0.
         12    1    1    2    0    0 -0.22255041321E+02 -0.34761082835E+02 -0.13416552389E+02  0.43400732967E+02  0.00000000000E+00 0. -1.
         11    1    3    3    0    0  0.50711906584E+01  0.36679809936E+01 -0.13452092260E+01  0.64016128738E+01  0.51100000000E-03 0. -1.
        -11    1    3    3    0    0  0.91105064542E+01  0.28836237845E+02  0.10779030569E+02  0.32104788446E+02  0.51100000000E-03 0.  1.
        -12    1    3    3    0    0  0.80733442081E+01  0.22568639966E+01  0.39827310461E+01  0.92808657132E+01  0.00000000000E+00 0.  1.
</event>
<event>
 7    1  0.1265344E-009  0.4778727E+02  0.7816164E-02  0.1312668E+00
        -11   -1    0    0    0    0  0.00000000000E+00  0.00000000000E+00  0.45593999997E+02  0.45594000000E+02  0.51100000000E-03 0. -1.
         11   -1    0    0    0    0 -0.00000000000E+00 -0.00000000000E+00 -0.45593999997E+02  0.45594000000E+02  0.51100000000E-03 0.  1.
    9900012    2    1    2    0    0 -0.15210019833E+02 -0.11212344370E+02 -0.39071242776E+02  0.47787269803E+02  0.19999994338E+02 0.  0.
         12    1    1    2    0    0  0.15210019833E+02  0.11212344370E+02  0.39071242776E+02  0.43400730197E+02  0.00000000000E+00 0. -1.
         11    1    3    3    0    0  0.73761935114E+00 -0.44372599468E+01 -0.70807883915E+01  0.83887378460E+01  0.51100000000E-03 0.  1.
        -11    1    3    3    0    0 -0.67235592643E+01  0.43651663685E+01 -0.76241215174E+01  0.11062918050E+02  0.51100000000E-03 0. -1.
         12    1    3    3    0    0 -0.92240799193E+01 -0.11140250792E+02 -0.24366332867E+02  0.28335613907E+02  0.00000000000E+00 0. -1.
</event>
<event>
 7    1  0.1265344E-009  0.4778728E+02  0.7816164E-02  0.1312668E+00
        -11   -1    0    0    0    0  0.00000000000E+00  0.00000000000E+00  0.45593999997E+02  0.45594000000E+02  0.51100000000E-03 0. -1.
         11   -1    0    0    0    0 -0.00000000000E+00 -0.00000000000E+00 -0.45593999997E+02  0.45594000000E+02  0.51100000000E-03 0.  1.
    9900012    2    1    2    0    0 -0.15028935006E+02  0.32079224388E+02  0.25073434341E+02  0.47787278412E+02  0.20000033591E+02 0.  0.
         12    1    1    2    0    0  0.15028935006E+02 -0.32079224388E+02 -0.25073434341E+02  0.43400721588E+02  0.00000000000E+00 0. -1.
         11    1    3    3    0    0  0.19194184468E+01  0.26671439363E+01  0.43433734077E+01  0.54463489395E+01  0.51100000000E-03 0.  1.
        -11    1    3    3    0    0 -0.34836806109E+01  0.54037463934E+01  0.11737391598E+02  0.13382931946E+02  0.51100000000E-03 0. -1.
        -12    1    3    3    0    0 -0.13464672842E+02  0.24008334058E+02  0.89926693352E+01  0.28957997527E+02  0.00000000000E+00 0.  1.
</event>
<event>
 7    1  0.1265344E-009  0.4778724E+02  0.7816164E-02  0.1312668E+00
        -11   -1    0    0    0    0  0.00000000000E+00  0.00000000000E+00  0.45593999997E+02  0.45594000000E+02  0.51100000000E-03 0. -1.
         11   -1    0    0    0    0 -0.00000000000E+00 -0.00000000000E+00 -0.45593999997E+02  0.45594000000E+02  0.51100000000E-03 0.  1.
    9900012    2    1    2    0    0 -0.32627558791E+02  0.19413543534E+01 -0.28553446920E+02  0.47787242168E+02  0.19999868340E+02 0.  0.
         12    1    1    2    0    0  0.32627558791E+02 -0.19413543534E+01  0.28553446920E+02  0.43400757832E+02  0.00000000000E+00 0. -1.
         11    1    3    3    0    0 -0.20518379366E+02  0.79018198336E+00 -0.12315957756E+02  0.23943915617E+02  0.51100000000E-03 0. -1.
        -11    1    3    3    0    0 -0.71898918351E+01 -0.54020729080E+01 -0.10580582163E+02  0.13886167775E+02  0.51100000000E-03 0.  1.
         12    1    3    3    0    0 -0.49192875895E+01  0.65532452781E+01 -0.56569070007E+01  0.99571587753E+01  0.00000000000E+00 0. -1.
</event>
<event>
 7    1  0.1265344E-009  0.4778727E+02  0.7816164E-02  0.1312668E+00
        -11   -1    0    0    0    0  0.00000000000E+00  0.00000000000E+00  0.45593999997E+02  0.45594000000E+02  0.51100000000E-03 0.  1.
         11   -1    0    0    0    0 -0.00000000000E+00 -0.00000000000E+00 -0.45593999997E+02  0.45594000000E+02  0.51100000000E-03 0. -1.
    9900012    2    1    2    0    0 -0.13022097069E+02 -0.30544706430E+01  0.41288232968E+02  0.47787274377E+02  0.20000015196E+02 0.  0.
         12    1    1    2    0    0  0.13022097069E+02  0.30544706430E+01 -0.41288232968E+02  0.43400725623E+02  0.00000000000E+00 0. -1.
         11    1    3    3    0    0 -0.22860909161E+01  0.18308551405E+00  0.12794358983E+00  0.22969766663E+01  0.51100000000E-03 0. -1.
        -11    1    3    3    0    0 -0.55461229355E+01  0.50624664726E+01  0.28580545826E+02  0.29550560847E+02  0.51100000000E-03 0.  1.
        -12    1    3    3    0    0 -0.51898832170E+01 -0.83000226296E+01  0.12579743552E+02  0.15939736864E+02  0.00000000000E+00 0.  1.
</event>
<event>
 7    1  0.1265344E-009  0.4778727E+02  0.7816164E-02  0.1312668E+00
        -11   -1    0    0    0    0  0.00000000000E+00  0.00000000000E+00  0.45593999997E+02  0.45594000000E+02  0.51100000000E-03 0. -1.
         11   -1    0    0    0    0 -0.00000000000E+00 -0.00000000000E+00 -0.45593999997E+02  0.45594000000E+02  0.51100000000E-03 0.  1.
    9900012    2    1    2    0    0  0.37121088027E+02 -0.10232086457E+02  0.20023794173E+02  0.47787273017E+02  0.20000008993E+02 0.  0.
         12    1    1    2    0    0 -0.37121088027E+02  0.10232086457E+02 -0.20023794173E+02  0.43400726983E+02  0.00000000000E+00 0. -1.
         11    1    3    3    0    0  0.15120058587E+02 -0.11294523253E+02  0.20564228743E+01  0.18984501639E+02  0.51100000000E-03 0. -1.
        -11    1    3    3    0    0  0.10504377096E+02  0.21942055957E+00  0.56377223478E+01  0.11923673809E+02  0.51100000000E-03 0.  1.
         12    1    3    3    0    0  0.11496652343E+02  0.84301623649E+00  0.12329648951E+02  0.16879097569E+02  0.00000000000E+00 0. -1.
</event>
<event>
 7    1  0.1265344E-009  0.4778728E+02  0.7816164E-02  0.1312668E+00
        -11   -1    0    0    0    0  0.00000000000E+00  0.00000000000E+00  0.45593999997E+02  0.45594000000E+02  0.51100000000E-03 0.  1.
         11   -1    0    0    0    0 -0.00000000000E+00 -0.00000000000E+00 -0.45593999997E+02  0.45594000000E+02  0.51100000000E-03 0. -1.
    9900012    2    1    2    0    0 -0.51634261030E+01  0.19588691165E+02  0.38382867242E+02  0.47787282397E+02  0.20000051763E+02 0.  0.
         12    1    1    2    0    0  0.51634261030E+01 -0.19588691165E+02 -0.38382867242E+02  0.43400717603E+02  0.00000000000E+00 0. -1.
         11    1    3    3    0    0 -0.82762132281E+01  0.14343603966E+02  0.11713026664E+02  0.20283729293E+02  0.51100000000E-03 0. -1.
        -11    1    3    3    0    0  0.22456834392E+01  0.32693503670E+01  0.11150076925E+02  0.11834524141E+02  0.51100000000E-03 0.  1.
         12    1    3    3    0    0  0.86710368589E+00  0.19757368315E+01  0.15519763653E+02  0.15669028964E+02  0.00000000000E+00 0. -1.
</event>
<event>
 7    1  0.1265344E-009  0.4778727E+02  0.7816164E-02  0.1312668E+00
        -11   -1    0    0    0    0  0.00000000000E+00  0.00000000000E+00  0.45593999997E+02  0.45594000000E+02  0.51100000000E-03 0.  1.
         11   -1    0    0    0    0 -0.00000000000E+00 -0.00000000000E+00 -0.45593999997E+02  0.45594000000E+02  0.51100000000E-03 0. -1.
    9900012    2    1    2    0    0 -0.33857364914E+02 -0.10003831500E+02  0.25243333212E+02  0.47787266420E+02  0.19999978916E+02 0.  0.
         12    1    1    2    0    0  0.33857364914E+02  0.10003831500E+02 -0.25243333212E+02  0.43400733580E+02  0.00000000000E+00 0. -1.
         11    1    3    3    0    0 -0.68039875798E+01 -0.65301484666E+01  0.70449988387E+01  0.11771537490E+02  0.51100000000E-03 0. -1.
        -11    1    3    3    0    0 -0.28029914515E+02 -0.17523659579E+01  0.18970497623E+02  0.33891395287E+02  0.51100000000E-03 0.  1.
        -12    1    3    3    0    0  0.97653718105E+00 -0.17213170760E+01 -0.77216324983E+00  0.21243336429E+01  0.00000000000E+00 0.  1.
</event>
<event>
 7    1  0.1265344E-009  0.4778727E+02  0.7816164E-02  0.1312668E+00
        -11   -1    0    0    0    0  0.00000000000E+00  0.00000000000E+00  0.45593999997E+02  0.45594000000E+02  0.51100000000E-03 0. -1.
         11   -1    0    0    0    0 -0.00000000000E+00 -0.00000000000E+00 -0.45593999997E+02  0.45594000000E+02  0.51100000000E-03 0.  1.
    9900012    2    1    2    0    0 -0.17232769970E+02  0.19967679484E+02 -0.34466600250E+02  0.47787272845E+02  0.20000008209E+02 0.  0.
         12    1    1    2    0    0  0.17232769970E+02 -0.19967679484E+02  0.34466600250E+02  0.43400727155E+02  0.00000000000E+00 0. -1.
         11    1    3    3    0    0 -0.42304703081E+01  0.92707260529E+01 -0.46502536987E+01  0.11201254407E+02  0.51100000000E-03 0. -1.
        -11    1    3    3    0    0 -0.49815343586E+01  0.11117824582E+02 -0.23101508415E+02  0.26117071033E+02  0.51100000000E-03 0.  1.
         12    1    3    3    0    0 -0.80207653032E+01 -0.42087115080E+00 -0.67148381359E+01  0.10468947405E+02  0.00000000000E+00 0. -1.
</event>
<event>
 7    1  0.1265344E-009  0.4778726E+02  0.7816164E-02  0.1312668E+00
        -11   -1    0    0    0    0  0.00000000000E+00  0.00000000000E+00  0.45593999997E+02  0.45594000000E+02  0.51100000000E-03 0.  1.
         11   -1    0    0    0    0 -0.00000000000E+00 -0.00000000000E+00 -0.45593999997E+02  0.45594000000E+02  0.51100000000E-03 0. -1.
    9900012    2    1    2    0    0 -0.24917516703E+02  0.35507466761E+02 -0.14005972678E+01  0.47787256836E+02  0.19999935220E+02 0.  0.
         12    1    1    2    0    0  0.24917516703E+02 -0.35507466761E+02  0.14005972678E+01  0.43400743164E+02  0.00000000000E+00 0. -1.
         11    1    3    3    0    0  0.14931701467E+01  0.21771548274E+01 -0.11496093810E+01  0.28794378305E+01  0.51100000000E-03 0. -1.
        -11    1    3    3    0    0 -0.22243010208E+02  0.24397227826E+02  0.55382296242E+01  0.33476084245E+02  0.51100000000E-03 0.  1.
         12    1    3    3    0    0 -0.41676766415E+01  0.89330841077E+01 -0.57892175111E+01  0.11431734761E+02  0.00000000000E+00 0. -1.
</event>
<event>
 7    1  0.1265344E-009  0.4778727E+02  0.7816164E-02  0.1312668E+00
        -11   -1    0    0    0    0  0.00000000000E+00  0.00000000000E+00  0.45593999997E+02  0.45594000000E+02  0.51100000000E-03 0.  1.
         11   -1    0    0    0    0 -0.00000000000E+00 -0.00000000000E+00 -0.45593999997E+02  0.45594000000E+02  0.51100000000E-03 0. -1.
    9900012    2    1    2    0    0 -0.15308977818E+02  0.62879567984E+01  0.40121318168E+02  0.47787269890E+02  0.19999994736E+02 0.  0.
         12    1    1    2    0    0  0.15308977818E+02 -0.62879567984E+01 -0.40121318168E+02  0.43400730110E+02  0.00000000000E+00 0. -1.
         11    1    3    3    0    0 -0.69103055640E+00  0.54346745775E+01  0.10173580809E+02  0.11554867274E+02  0.51100000000E-03 0.  1.
        -11    1    3    3    0    0 -0.12062779480E+02  0.40779639359E+01  0.10949620095E+02  0.16793886362E+02  0.51100000000E-03 0. -1.
         12    1    3    3    0    0 -0.25551677817E+01 -0.32246817151E+01  0.18998117264E+02  0.19438516253E+02  0.00000000000E+00 0. -1.
</event>
<event>
 7    1  0.1265344E-009  0.4778727E+02  0.7816164E-02  0.1312668E+00
        -11   -1    0    0    0    0  0.00000000000E+00  0.00000000000E+00  0.45593999997E+02  0.45594000000E+02  0.51100000000E-03 0.  1.
         11   -1    0    0    0    0 -0.00000000000E+00 -0.00000000000E+00 -0.45593999997E+02  0.45594000000E+02  0.51100000000E-03 0. -1.
    9900012    2    1    2    0    0 -0.20245163714E+02 -0.38153214701E+02  0.42530798780E+01  0.47787272653E+02  0.20000007334E+02 0.  0.
         12    1    1    2    0    0  0.20245163714E+02  0.38153214701E+02 -0.42530798780E+01  0.43400727347E+02  0.00000000000E+00 0. -1.
         11    1    3    3    0    0  0.11870013988E+01 -0.45878188650E-01  0.14354135397E+01  0.18631933395E+01  0.51100000000E-03 0. -1.
        -11    1    3    3    0    0 -0.10962682802E+02 -0.19032808994E+02 -0.54786923374E+01  0.22637232658E+02  0.51100000000E-03 0.  1.
        -12    1    3    3    0    0 -0.10469482311E+02 -0.19074527518E+02  0.82963586757E+01  0.23286846656E+02  0.00000000000E+00 0.  1.
</event>
<event>
 7    1  0.1265344E-009  0.4778727E+02  0.7816164E-02  0.1312668E+00
        -11   -1    0    0    0    0  0.00000000000E+00  0.00000000000E+00  0.45593999997E+02  0.45594000000E+02  0.51100000000E-03 0.  1.
         11   -1    0    0    0    0 -0.00000000000E+00 -0.00000000000E+00 -0.45593999997E+02  0.45594000000E+02  0.51100000000E-03 0. -1.
    9900012    2    1    2    0    0 -0.35919489681E+02  0.19359653649E+02  0.14785707111E+02  0.47787273473E+02  0.20000011071E+02 0.  0.
         12    1    1    2    0    0  0.35919489681E+02 -0.19359653649E+02 -0.14785707111E+02  0.43400726527E+02  0.00000000000E+00 0. -1.
         11    1    3    3    0    0 -0.14043851651E+02  0.49589818589E+01 -0.28594976265E+01  0.15165684857E+02  0.51100000000E-03 0. -1.
        -11    1    3    3    0    0 -0.68879725601E+01  0.90620220105E+01  0.90246560866E+01  0.14526142869E+02  0.51100000000E-03 0.  1.
        -12    1    3    3    0    0 -0.14987665470E+02  0.53386497797E+01  0.86205486509E+01  0.18095445746E+02  0.00000000000E+00 0.  1.
</event>
<event>
 7    1  0.1265344E-009  0.4778727E+02  0.7816164E-02  0.1312668E+00
        -11   -1    0    0    0    0  0.00000000000E+00  0.00000000000E+00  0.45593999997E+02  0.45594000000E+02  0.51100000000E-03 0. -1.
         11   -1    0    0    0    0 -0.00000000000E+00 -0.00000000000E+00 -0.45593999997E+02  0.45594000000E+02  0.51100000000E-03 0.  1.
    9900012    2    1    2    0    0  0.19987495183E+02 -0.37743656973E+02 -0.77162056449E+01  0.47787269189E+02  0.19999991538E+02 0.  0.
         12    1    1    2    0    0 -0.19987495183E+02  0.37743656973E+02  0.77162056449E+01  0.43400730811E+02  0.00000000000E+00 0. -1.
         11    1    3    3    0    0  0.79833017085E+00  0.52833775741E+00 -0.22604338595E+01  0.24547980247E+01  0.51100000000E-03 0. -1.
        -11    1    3    3    0    0  0.93884356739E+01 -0.31957120889E+02 -0.48373323266E+01  0.33657095599E+02  0.51100000000E-03 0.  1.
         12    1    3    3    0    0  0.98007293383E+01 -0.63148738422E+01 -0.61843945878E+00  0.11675375564E+02  0.00000000000E+00 0. -1.
</event>
<event>
 7    1  0.1265344E-009  0.4778727E+02  0.7816164E-02  0.1312668E+00
        -11   -1    0    0    0    0  0.00000000000E+00  0.00000000000E+00  0.45593999997E+02  0.45594000000E+02  0.51100000000E-03 0.  1.
         11   -1    0    0    0    0 -0.00000000000E+00 -0.00000000000E+00 -0.45593999997E+02  0.45594000000E+02  0.51100000000E-03 0. -1.
    9900012    2    1    2    0    0 -0.33875943679E+02  0.91074583972E+00  0.27114835778E+02  0.47787270313E+02  0.19999996664E+02 0.  0.
         12    1    1    2    0    0  0.33875943679E+02 -0.91074583972E+00 -0.27114835778E+02  0.43400729687E+02  0.00000000000E+00 0. -1.
         11    1    3    3    0    0 -0.15086492865E+01  0.41357577936E+01  0.56017435599E+00  0.44378272575E+01  0.51100000000E-03 0. -1.
        -11    1    3    3    0    0 -0.13138495393E+02 -0.44280844232E+01  0.57947721101E+01  0.15026888464E+02  0.51100000000E-03 0.  1.
         12    1    3    3    0    0 -0.19228798999E+02  0.12030724693E+01  0.20759889312E+02  0.28322554591E+02  0.00000000000E+00 0. -1.
</event>
<event>
 7    1  0.1265344E-009  0.4778729E+02  0.7816164E-02  0.1312668E+00
        -11   -1    0    0    0    0  0.00000000000E+00  0.00000000000E+00  0.45593999997E+02  0.45594000000E+02  0.51100000000E-03 0.  1.
         11   -1    0    0    0    0 -0.00000000000E+00 -0.00000000000E+00 -0.45593999997E+02  0.45594000000E+02  0.51100000000E-03 0. -1.
    9900012    2    1    2    0    0  0.35092051089E+02  0.24554392039E+02  0.70179572622E+01  0.47787286386E+02  0.20000069949E+02 0.  0.
         12    1    1    2    0    0 -0.35092051089E+02 -0.24554392039E+02 -0.70179572622E+01  0.43400713614E+02  0.00000000000E+00 0. -1.
         11    1    3    3    0    0  0.85585207490E+01  0.75564501358E+01 -0.40931800627E+01  0.12128575322E+02  0.51100000000E-03 0. -1.
        -11    1    3    3    0    0  0.26050464893E+02  0.16939765668E+02  0.74355411774E+01  0.31951050920E+02  0.51100000000E-03 0.  1.
         12    1    3    3    0    0  0.48306544720E+00  0.58176235009E-01  0.36755961475E+01  0.37076601436E+01  0.00000000000E+00 0. -1.
</event>
<event>
 7    1  0.1265344E-009  0.4778727E+02  0.7816164E-02  0.1312668E+00
        -11   -1    0    0    0    0  0.00000000000E+00  0.00000000000E+00  0.45593999997E+02  0.45594000000E+02  0.51100000000E-03 0. -1.
         11   -1    0    0    0    0 -0.00000000000E+00 -0.00000000000E+00 -0.45593999997E+02  0.45594000000E+02  0.51100000000E-03 0.  1.
    9900012    2    1    2    0    0  0.36484002116E+02 -0.63190082630E+01 -0.22640918151E+02  0.47787269009E+02  0.19999990721E+02 0.  0.
         12    1    1    2    0    0 -0.36484002116E+02  0.63190082630E+01  0.22640918151E+02  0.43400730991E+02  0.00000000000E+00 0. -1.
         11    1    3    3    0    0  0.23911717710E+02 -0.12258998621E+02 -0.11440152259E+02  0.29204971751E+02  0.51100000000E-03 0. -1.
        -11    1    3    3    0    0  0.93266595490E+01  0.18087171214E+01 -0.63141223320E+01  0.11407286139E+02  0.51100000000E-03 0.  1.
         12    1    3    3    0    0  0.32456248565E+01  0.41312732369E+01 -0.48866435609E+01  0.71750111191E+01  0.00000000000E+00 0. -1.
</event>
<event>
 7    1  0.1296129E-009  0.4778727E+02  0.7816164E-02  0.1312668E+00
        -11   -1    0    0    0    0  0.00000000000E+00  0.00000000000E+00  0.45593999997E+02  0.45594000000E+02  0.51100000000E-03 0.  1.
         11   -1    0    0    0    0 -0.00000000000E+00 -0.00000000000E+00 -0.45593999997E+02  0.45594000000E+02  0.51100000000E-03 0. -1.
    9900012    2    1    2    0    0 -0.22291983818E+02 -0.24566034106E+02  0.27985727096E+02  0.47787268493E+02  0.19999988367E+02 0.  0.
         12    1    1    2    0    0  0.22291983818E+02  0.24566034106E+02 -0.27985727096E+02  0.43400731507E+02  0.00000000000E+00 0. -1.
         11    1    3    3    0    0  0.35867023246E+00 -0.65786910468E+01  0.78849662146E+00  0.66354764266E+01  0.51100000000E-03 0. -1.
        -11    1    3    3    0    0 -0.10091949690E+02 -0.13802046576E+02  0.19095306657E+02  0.25631517216E+02  0.51100000000E-03 0.  1.
        -12    1    3    3    0    0 -0.12558704361E+02 -0.41852964830E+01  0.81019238179E+01  0.15520274850E+02  0.00000000000E+00 0.  1.
</event>
<event>
 7    1  0.1265344E-009  0.4778728E+02  0.7816164E-02  0.1312668E+00
        -11   -1    0    0    0    0  0.00000000000E+00  0.00000000000E+00  0.45593999997E+02  0.45594000000E+02  0.51100000000E-03 0.  1.
         11   -1    0    0    0    0 -0.00000000000E+00 -0.00000000000E+00 -0.45593999997E+02  0.45594000000E+02  0.51100000000E-03 0. -1.
    9900012    2    1    2    0    0  0.81985957208E+01  0.31105367369E+02  0.29135224522E+02  0.47787283890E+02  0.20000058566E+02 0.  0.
         12    1    1    2    0    0 -0.81985957208E+01 -0.31105367369E+02 -0.29135224522E+02  0.43400716110E+02  0.00000000000E+00 0. -1.
         11    1    3    3    0    0 -0.18938567296E+01  0.43186370205E+01  0.87006850048E+01  0.98964255588E+01  0.51100000000E-03 0. -1.
        -11    1    3    3    0    0 -0.21851125365E+01  0.61804812357E+01  0.94687939870E+01  0.11516558728E+02  0.51100000000E-03 0.  1.
         12    1    3    3    0    0  0.12277564987E+02  0.20606249113E+02  0.10965745530E+02  0.26374299603E+02  0.00000000000E+00 0. -1.
</event>
<event>
 7    1  0.1265344E-009  0.4778727E+02  0.7816164E-02  0.1312668E+00
        -11   -1    0    0    0    0  0.00000000000E+00  0.00000000000E+00  0.45593999997E+02  0.45594000000E+02  0.51100000000E-03 0.  1.
         11   -1    0    0    0    0 -0.00000000000E+00 -0.00000000000E+00 -0.45593999997E+02  0.45594000000E+02  0.51100000000E-03 0. -1.
    9900012    2    1    2    0    0  0.19034118836E+02  0.29504873382E+02  0.25510554160E+02  0.47787267210E+02  0.19999982517E+02 0.  0.
         12    1    1    2    0    0 -0.19034118836E+02 -0.29504873382E+02 -0.25510554160E+02  0.43400732790E+02  0.00000000000E+00 0. -1.
         11    1    3    3    0    0 -0.95589436179E+00  0.34664897542E+01  0.47734832104E+00  0.36274160125E+01  0.51100000000E-03 0. -1.
        -11    1    3    3    0    0  0.51664514049E+01  0.14056009432E+02  0.34553574828E+01  0.15368900965E+02  0.51100000000E-03 0.  1.
        -12    1    3    3    0    0  0.14823561793E+02  0.11982374196E+02  0.21577848357E+02  0.28790950233E+02  0.00000000000E+00 0.  1.
</event>
<event>
 7    1  0.1265344E-009  0.4778725E+02  0.7816164E-02  0.1312668E+00
        -11   -1    0    0    0    0  0.00000000000E+00  0.00000000000E+00  0.45593999997E+02  0.45594000000E+02  0.51100000000E-03 0. -1.
         11   -1    0    0    0    0 -0.00000000000E+00 -0.00000000000E+00 -0.45593999997E+02  0.45594000000E+02  0.51100000000E-03 0.  1.
    9900012    2    1    2    0    0 -0.38925625824E+02  0.13092463110E+02  0.14035969174E+02  0.47787246934E+02  0.19999890071E+02 0.  0.
         12    1    1    2    0    0  0.38925625824E+02 -0.13092463110E+02 -0.14035969174E+02  0.43400753066E+02  0.00000000000E+00 0. -1.
         11    1    3    3    0    0 -0.21544256717E+02  0.47910027356E+01  0.40154904469E+01  0.22432852438E+02  0.51100000000E-03 0.  1.
        -11    1    3    3    0    0 -0.17386366509E+01 -0.30209793969E+01 -0.22782221210E+00  0.34930040283E+01  0.51100000000E-03 0. -1.
        -12    1    3    3    0    0 -0.15642732455E+02  0.11322439771E+02  0.10248300939E+02  0.21861390468E+02  0.00000000000E+00 0.  1.
</event>
<event>
 7    1  0.1265344E-009  0.4778727E+02  0.7816164E-02  0.1312668E+00
        -11   -1    0    0    0    0  0.00000000000E+00  0.00000000000E+00  0.45593999997E+02  0.45594000000E+02  0.51100000000E-03 0.  1.
         11   -1    0    0    0    0 -0.00000000000E+00 -0.00000000000E+00 -0.45593999997E+02  0.45594000000E+02  0.51100000000E-03 0. -1.
    9900012    2    1    2    0    0 -0.15663115983E+02  0.36330073040E+02  0.17844205186E+02  0.47787273415E+02  0.20000010810E+02 0.  0.
         12    1    1    2    0    0  0.15663115983E+02 -0.36330073040E+02 -0.17844205186E+02  0.43400726585E+02  0.00000000000E+00 0. -1.
         11    1    3    3    0    0 -0.68774483052E+01  0.21202197175E+02  0.81713449199E+01  0.23740331470E+02  0.51100000000E-03 0. -1.
        -11    1    3    3    0    0 -0.55054495746E+01  0.15080580967E+02  0.11984262369E+02  0.20033882352E+02  0.51100000000E-03 0.  1.
         12    1    3    3    0    0 -0.32802181031E+01  0.47294897429E-01 -0.23114021034E+01  0.40130595927E+01  0.00000000000E+00 0. -1.
</event>
<event>
 7    1  0.1265344E-009  0.4778727E+02  0.7816164E-02  0.1312668E+00
        -11   -1    0    0    0    0  0.00000000000E+00  0.00000000000E+00  0.45593999997E+02  0.45594000000E+02  0.51100000000E-03 0. -1.
         11   -1    0    0    0    0 -0.00000000000E+00 -0.00000000000E+00 -0.45593999997E+02  0.45594000000E+02  0.51100000000E-03 0.  1.
    9900012    2    1    2    0    0  0.11642594470E+02 -0.38108146067E+02  0.17200071200E+02  0.47787271298E+02  0.20000001154E+02 0.  0.
         12    1    1    2    0    0 -0.11642594470E+02  0.38108146067E+02 -0.17200071200E+02  0.43400728702E+02  0.00000000000E+00 0. -1.
         11    1    3    3    0    0  0.85695524615E+01 -0.24494350161E+02  0.31908165912E+01  0.26145587199E+02  0.51100000000E-03 0. -1.
        -11    1    3    3    0    0  0.25656817396E+01 -0.14535840604E+02  0.10871158590E+02  0.18331815900E+02  0.51100000000E-03 0.  1.
        -12    1    3    3    0    0  0.50736026868E+00  0.92204469808E+00  0.31380960190E+01  0.33098681986E+01  0.00000000000E+00 0.  1.
</event>
<event>
 7    1  0.1265344E-009  0.4778727E+02  0.7816164E-02  0.1312668E+00
        -11   -1    0    0    0    0  0.00000000000E+00  0.00000000000E+00  0.45593999997E+02  0.45594000000E+02  0.51100000000E-03 0.  1.
         11   -1    0    0    0    0 -0.00000000000E+00 -0.00000000000E+00 -0.45593999997E+02  0.45594000000E+02  0.51100000000E-03 0. -1.
    9900012    2    1    2    0    0  0.22888835779E+02 -0.34828370385E+02  0.12112356811E+02  0.47787269885E+02  0.19999994714E+02 0.  0.
         12    1    1    2    0    0 -0.22888835779E+02  0.34828370385E+02 -0.12112356811E+02  0.43400730115E+02  0.00000000000E+00 0. -1.
         11    1    3    3    0    0 -0.20173266433E+01 -0.62344195952E+01 -0.22989136571E+01  0.69442493286E+01  0.51100000000E-03 0. -1.
        -11    1    3    3    0    0  0.75776282688E+01 -0.12196137925E+02  0.55013848990E+01  0.15376328122E+02  0.51100000000E-03 0.  1.
        -12    1    3    3    0    0  0.17328534154E+02 -0.16397812865E+02  0.89098855693E+01  0.25466692434E+02  0.00000000000E+00 0.  1.
</event>
<event>
 7    1  0.1265344E-009  0.4778727E+02  0.7816164E-02  0.1312668E+00
        -11   -1    0    0    0    0  0.00000000000E+00  0.00000000000E+00  0.45593999997E+02  0.45594000000E+02  0.51100000000E-03 0.  1.
         11   -1    0    0    0    0 -0.00000000000E+00 -0.00000000000E+00 -0.45593999997E+02  0.45594000000E+02  0.51100000000E-03 0. -1.
    9900012    2    1    2    0    0  0.42380760876E+02  0.12449610291E+01 -0.92706095147E+01  0.47787273956E+02  0.20000013276E+02 0.  0.
         12    1    1    2    0    0 -0.42380760876E+02 -0.12449610291E+01  0.92706095147E+01  0.43400726044E+02  0.00000000000E+00 0. -1.
         11    1    3    3    0    0  0.20411733106E+02  0.39705969926E+01 -0.11979572809E+02  0.23998221889E+02  0.51100000000E-03 0.  1.
        -11    1    3    3    0    0  0.18195527042E+01 -0.29422932255E+01  0.77994513427E+00  0.35462904763E+01  0.51100000000E-03 0. -1.
        -12    1    3    3    0    0  0.20149475065E+02  0.21665726198E+00  0.19290181603E+01  0.20242761591E+02  0.00000000000E+00 0.  1.
</event>
<event>
 7    1  0.1265344E-009  0.4778727E+02  0.7816164E-02  0.1312668E+00
        -11   -1    0    0    0    0  0.00000000000E+00  0.00000000000E+00  0.45593999997E+02  0.45594000000E+02  0.51100000000E-03 0.  1.
         11   -1    0    0    0    0 -0.00000000000E+00 -0.00000000000E+00 -0.45593999997E+02  0.45594000000E+02  0.51100000000E-03 0. -1.
    9900012    2    1    2    0    0  0.28133559275E+02  0.32995397014E+02 -0.18519845408E+01  0.47787271569E+02  0.20000002394E+02 0.  0.
         12    1    1    2    0    0 -0.28133559275E+02 -0.32995397014E+02  0.18519845408E+01  0.43400728431E+02  0.00000000000E+00 0. -1.
         11    1    3    3    0    0  0.17681106323E+02  0.11939367196E+02 -0.23874499578E+01  0.21467881297E+02  0.51100000000E-03 0. -1.
        -11    1    3    3    0    0  0.48309745046E+01  0.14179487400E+02 -0.50723314669E+01  0.15815331940E+02  0.51100000000E-03 0.  1.
         12    1    3    3    0    0  0.56214784478E+01  0.68765424172E+01  0.56077968840E+01  0.10504058332E+02  0.00000000000E+00 0. -1.
</event>
<event>
 7    1  0.1265344E-009  0.4778732E+02  0.7816164E-02  0.1312668E+00
        -11   -1    0    0    0    0  0.00000000000E+00  0.00000000000E+00  0.45593999997E+02  0.45594000000E+02  0.51100000000E-03 0.  1.
         11   -1    0    0    0    0 -0.00000000000E+00 -0.00000000000E+00 -0.45593999997E+02  0.45594000000E+02  0.51100000000E-03 0. -1.
    9900012    2    1    2    0    0  0.35981379261E+02  0.63636146062E+01  0.23419295839E+02  0.47787324176E+02  0.20000242247E+02 0.  0.
         12    1    1    2    0    0 -0.35981379261E+02 -0.63636146062E+01 -0.23419295839E+02  0.43400675824E+02  0.00000000000E+00 0. -1.
         11    1    3    3    0    0  0.12716795053E+02  0.93751358318E+00  0.11745341662E+02  0.17336345034E+02  0.51100000000E-03 0. -1.
        -11    1    3    3    0    0  0.69411899174E+01 -0.71973170342E+00 -0.30589066742E+01  0.76193859002E+01  0.51100000000E-03 0.  1.
        -12    1    3    3    0    0  0.16323394290E+02  0.61458327264E+01  0.14732860852E+02  0.22831593241E+02  0.00000000000E+00 0.  1.
</event>
<event>
 7    1  0.1265344E-009  0.4778726E+02  0.7816164E-02  0.1312668E+00
        -11   -1    0    0    0    0  0.00000000000E+00  0.00000000000E+00  0.45593999997E+02  0.45594000000E+02  0.51100000000E-03 0.  1.
         11   -1    0    0    0    0 -0.00000000000E+00 -0.00000000000E+00 -0.45593999997E+02  0.45594000000E+02  0.51100000000E-03 0. -1.
    9900012    2    1    2    0    0  0.32346740231E+02  0.14401253886E+02  0.25098132737E+02  0.47787262864E+02  0.19999962701E+02 0.  0.
         12    1    1    2    0    0 -0.32346740231E+02 -0.14401253886E+02 -0.25098132737E+02  0.43400737136E+02  0.00000000000E+00 0. -1.
         11    1    3    3    0    0  0.20756057568E+02  0.61210029450E+01  0.43523005097E+01  0.22073131242E+02  0.51100000000E-03 0. -1.
        -11    1    3    3    0    0  0.17950946797E+01  0.31190065342E+01  0.83553816820E+01  0.90974155661E+01  0.51100000000E-03 0.  1.
        -12    1    3    3    0    0  0.97955879836E+01  0.51612444068E+01  0.12390450545E+02  0.16616716056E+02  0.00000000000E+00 0.  1.
</event>
<event>
 7    1  0.1265344E-009  0.4778727E+02  0.7816164E-02  0.1312668E+00
        -11   -1    0    0    0    0  0.00000000000E+00  0.00000000000E+00  0.45593999997E+02  0.45594000000E+02  0.51100000000E-03 0.  1.
         11   -1    0    0    0    0 -0.00000000000E+00 -0.00000000000E+00 -0.45593999997E+02  0.45594000000E+02  0.51100000000E-03 0. -1.
    9900012    2    1    2    0    0 -0.19162957893E+01  0.33584511234E+02  0.27423197036E+02  0.47787270513E+02  0.19999997577E+02 0.  0.
         12    1    1    2    0    0  0.19162957893E+01 -0.33584511234E+02 -0.27423197036E+02  0.43400729487E+02  0.00000000000E+00 0. -1.
         11    1    3    3    0    0 -0.49635527255E+00 -0.14906466439E+01  0.27081288497E+01  0.31308717797E+01  0.51100000000E-03 0.  1.
        -11    1    3    3    0    0  0.98397025767E+00  0.24536941125E+02  0.10276588201E+02  0.26620254367E+02  0.51100000000E-03 0. -1.
         12    1    3    3    0    0 -0.24039107744E+01  0.10538216752E+02  0.14438479985E+02  0.18036144366E+02  0.00000000000E+00 0. -1.
</event>
<event>
 7    1  0.1265344E-009  0.4778727E+02  0.7816164E-02  0.1312668E+00
        -11   -1    0    0    0    0  0.00000000000E+00  0.00000000000E+00  0.45593999997E+02  0.45594000000E+02  0.51100000000E-03 0.  1.
         11   -1    0    0    0    0 -0.00000000000E+00 -0.00000000000E+00 -0.45593999997E+02  0.45594000000E+02  0.51100000000E-03 0. -1.
    9900012    2    1    2    0    0 -0.20029190157E+02  0.37834217986E+02  0.71433035630E+01  0.47787270804E+02  0.19999998905E+02 0.  0.
         12    1    1    2    0    0  0.20029190157E+02 -0.37834217986E+02 -0.71433035630E+01  0.43400729196E+02  0.00000000000E+00 0. -1.
         11    1    3    3    0    0  0.70659428241E+00  0.12515471908E+02  0.29255253423E+01  0.12872257430E+02  0.51100000000E-03 0. -1.
        -11    1    3    3    0    0 -0.13053679129E+02  0.14927117989E+02  0.81020107418E+01  0.21421016983E+02  0.51100000000E-03 0.  1.
         12    1    3    3    0    0 -0.76821053100E+01  0.10391628089E+02 -0.38842325212E+01  0.13493996391E+02  0.00000000000E+00 0. -1.
</event>
<event>
 7    1  0.1265344E-009  0.4778727E+02  0.7816164E-02  0.1312668E+00
        -11   -1    0    0    0    0  0.00000000000E+00  0.00000000000E+00  0.45593999997E+02  0.45594000000E+02  0.51100000000E-03 0.  1.
         11   -1    0    0    0    0 -0.00000000000E+00 -0.00000000000E+00 -0.45593999997E+02  0.45594000000E+02  0.51100000000E-03 0. -1.
    9900012    2    1    2    0    0  0.16048632308E+02  0.95589394182E+01  0.39175135518E+02  0.47787272303E+02  0.20000005738E+02 0.  0.
         12    1    1    2    0    0 -0.16048632308E+02 -0.95589394182E+01 -0.39175135518E+02  0.43400727697E+02  0.00000000000E+00 0. -1.
         11    1    3    3    0    0  0.15750401740E+02  0.39481946839E+01  0.16533027617E+02  0.23173355361E+02  0.51100000000E-03 0. -1.
        -11    1    3    3    0    0  0.32859855023E+01  0.56448499406E+01  0.17316270123E+02  0.18507167336E+02  0.51100000000E-03 0.  1.
         12    1    3    3    0    0 -0.29877549343E+01 -0.34105206345E-01  0.53258377775E+01  0.61067496056E+01  0.00000000000E+00 0. -1.
</event>
<event>
 7    1  0.1265344E-009  0.4778728E+02  0.7816164E-02  0.1312668E+00
        -11   -1    0    0    0    0  0.00000000000E+00  0.00000000000E+00  0.45593999997E+02  0.45594000000E+02  0.51100000000E-03 0.  1.
         11   -1    0    0    0    0 -0.00000000000E+00 -0.00000000000E+00 -0.45593999997E+02  0.45594000000E+02  0.51100000000E-03 0. -1.
    9900012    2    1    2    0    0  0.20619086375E+02 -0.17025709599E+02  0.34184810783E+02  0.47787276520E+02  0.20000024966E+02 0.  0.
         12    1    1    2    0    0 -0.20619086375E+02  0.17025709599E+02 -0.34184810783E+02  0.43400723480E+02  0.00000000000E+00 0. -1.
         11    1    3    3    0    0  0.61873386274E+01 -0.28924928909E+01  0.33911877961E+01  0.76256035396E+01  0.51100000000E-03 0. -1.
        -11    1    3    3    0    0  0.41069345344E+01 -0.90727883387E-01  0.18201315834E+02  0.18659127557E+02  0.51100000000E-03 0.  1.
        -12    1    3    3    0    0  0.10324813214E+02 -0.14042488824E+02  0.12592307153E+02  0.21502545424E+02  0.00000000000E+00 0.  1.
</event>
<event>
 7    1  0.1265344E-009  0.4778727E+02  0.7816164E-02  0.1312668E+00
        -11   -1    0    0    0    0  0.00000000000E+00  0.00000000000E+00  0.45593999997E+02  0.45594000000E+02  0.51100000000E-03 0.  1.
         11   -1    0    0    0    0 -0.00000000000E+00 -0.00000000000E+00 -0.45593999997E+02  0.45594000000E+02  0.51100000000E-03 0. -1.
    9900012    2    1    2    0    0  0.26049701728E+02 -0.15397965261E+02  0.31111719390E+02  0.47787269848E+02  0.19999994547E+02 0.  0.
         12    1    1    2    0    0 -0.26049701728E+02  0.15397965261E+02 -0.31111719390E+02  0.43400730152E+02  0.00000000000E+00 0. -1.
         11    1    3    3    0    0 -0.21806590836E+01 -0.33125288662E+01  0.24834350034E+01  0.46792703711E+01  0.51100000000E-03 0. -1.
        -11    1    3    3    0    0  0.11350424562E+02 -0.79551291690E+00  0.14202318451E+02  0.18198099577E+02  0.51100000000E-03 0.  1.
         12    1    3    3    0    0  0.16879936249E+02 -0.11289923478E+02  0.14425965935E+02  0.24909899901E+02  0.00000000000E+00 0. -1.
</event>
<event>
 7    1  0.1265344E-009  0.4778726E+02  0.7816164E-02  0.1312668E+00
        -11   -1    0    0    0    0  0.00000000000E+00  0.00000000000E+00  0.45593999997E+02  0.45594000000E+02  0.51100000000E-03 0. -1.
         11   -1    0    0    0    0 -0.00000000000E+00 -0.00000000000E+00 -0.45593999997E+02  0.45594000000E+02  0.51100000000E-03 0.  1.
    9900012    2    1    2    0    0  0.31729365500E+02 -0.14256155309E+02 -0.25954450619E+02  0.47787261456E+02  0.19999956281E+02 0.  0.
         12    1    1    2    0    0 -0.31729365500E+02  0.14256155309E+02  0.25954450619E+02  0.43400738544E+02  0.00000000000E+00 0. -1.
         11    1    3    3    0    0  0.66347061940E+01  0.24199685919E+00  0.20355414999E+01  0.69441571280E+01  0.51100000000E-03 0. -1.
        -11    1    3    3    0    0  0.53699045193E+01 -0.65505492009E+01 -0.84104740129E+01  0.11936567461E+02  0.51100000000E-03 0.  1.
        -12    1    3    3    0    0  0.19724754787E+02 -0.79476029675E+01 -0.19579518106E+02  0.28906536866E+02  0.00000000000E+00 0.  1.
</event>
<event>
 7    1  0.1265344E-009  0.4778727E+02  0.7816164E-02  0.1312668E+00
        -11   -1    0    0    0    0  0.00000000000E+00  0.00000000000E+00  0.45593999997E+02  0.45594000000E+02  0.51100000000E-03 0.  1.
         11   -1    0    0    0    0 -0.00000000000E+00 -0.00000000000E+00 -0.45593999997E+02  0.45594000000E+02  0.51100000000E-03 0. -1.
    9900012    2    1    2    0    0 -0.20933937808E+02  0.23507788722E+02  0.29879377468E+02  0.47787273271E+02  0.20000010153E+02 0.  0.
         12    1    1    2    0    0  0.20933937808E+02 -0.23507788722E+02 -0.29879377468E+02  0.43400726729E+02  0.00000000000E+00 0. -1.
         11    1    3    3    0    0  0.15131060689E+01  0.64452544591E+01  0.22780563335E+01  0.70014524163E+01  0.51100000000E-03 0. -1.
        -11    1    3    3    0    0 -0.61370934692E+01  0.65833567563E+01  0.15526879213E+02  0.17946823696E+02  0.51100000000E-03 0.  1.
        -12    1    3    3    0    0 -0.16309950408E+02  0.10479177506E+02  0.12074441922E+02  0.22838997159E+02  0.00000000000E+00 0.  1.
</event>
<event>
 7    1  0.1265344E-009  0.4778728E+02  0.7816164E-02  0.1312668E+00
        -11   -1    0    0    0    0  0.00000000000E+00  0.00000000000E+00  0.45593999997E+02  0.45594000000E+02  0.51100000000E-03 0.  1.
         11   -1    0    0    0    0 -0.00000000000E+00 -0.00000000000E+00 -0.45593999997E+02  0.45594000000E+02  0.51100000000E-03 0. -1.
    9900012    2    1    2    0    0  0.30633676987E+02 -0.21483720032E+02  0.21992051219E+02  0.47787277552E+02  0.20000029672E+02 0.  0.
         12    1    1    2    0    0 -0.30633676987E+02  0.21483720032E+02 -0.21992051219E+02  0.43400722448E+02  0.00000000000E+00 0. -1.
         11    1    3    3    0    0  0.46534747533E+01  0.41963394809E+00  0.90802250292E+00  0.47597715341E+01  0.51100000000E-03 0. -1.
        -11    1    3    3    0    0  0.22495241552E+02 -0.23549034414E+02  0.15069886522E+02  0.35884458953E+02  0.51100000000E-03 0.  1.
        -12    1    3    3    0    0  0.34849606815E+01  0.16456804335E+01  0.60141421948E+01  0.71430470655E+01  0.00000000000E+00 0.  1.
</event>
<event>
 7    1  0.1265344E-009  0.4778727E+02  0.7816164E-02  0.1312668E+00
        -11   -1    0    0    0    0  0.00000000000E+00  0.00000000000E+00  0.45593999997E+02  0.45594000000E+02  0.51100000000E-03 0.  1.
         11   -1    0    0    0    0 -0.00000000000E+00 -0.00000000000E+00 -0.45593999997E+02  0.45594000000E+02  0.51100000000E-03 0. -1.
    9900012    2    1    2    0    0  0.18206577403E+02 -0.18600247403E+01  0.39353329587E+02  0.47787266108E+02  0.19999977492E+02 0.  0.
         12    1    1    2    0    0 -0.18206577403E+02  0.18600247403E+01 -0.39353329587E+02  0.43400733892E+02  0.00000000000E+00 0. -1.
         11    1    3    3    0    0  0.13660731671E+02  0.49105657555E+01  0.29549078677E+02  0.32922291790E+02  0.51100000000E-03 0. -1.
        -11    1    3    3    0    0  0.30086760536E+01 -0.43477747984E+01  0.10635867495E+02  0.11877582032E+02  0.51100000000E-03 0.  1.
         12    1    3    3    0    0  0.15371696788E+01 -0.24228156974E+01 -0.83161658444E+00  0.29873922857E+01  0.00000000000E+00 0. -1.
</event>
<event>
 7    1  0.1265344E-009  0.4778728E+02  0.7816164E-02  0.1312668E+00
        -11   -1    0    0    0    0  0.00000000000E+00  0.00000000000E+00  0.45593999997E+02  0.45594000000E+02  0.51100000000E-03 0.  1.
         11   -1    0    0    0    0 -0.00000000000E+00 -0.00000000000E+00 -0.45593999997E+02  0.45594000000E+02  0.51100000000E-03 0. -1.
    9900012    2    1    2    0    0  0.15550585822E+02  0.21692309954E+02  0.34223462113E+02  0.47787281232E+02  0.20000046451E+02 0.  0.
         12    1    1    2    0    0 -0.15550585822E+02 -0.21692309954E+02 -0.34223462113E+02  0.43400718768E+02  0.00000000000E+00 0. -1.
         11    1    3    3    0    0  0.78333248948E+01  0.48492672360E+01  0.16471391730E+02  0.18872814242E+02  0.51100000000E-03 0. -1.
        -11    1    3    3    0    0  0.10140638347E+02  0.17359344383E+02  0.14325964453E+02  0.24686284477E+02  0.51100000000E-03 0.  1.
        -12    1    3    3    0    0 -0.24233774192E+01 -0.51630166525E+00  0.34261059295E+01  0.42281825133E+01  0.00000000000E+00 0.  1.
</event>
<event>
 7    1  0.1265344E-009  0.4778727E+02  0.7816164E-02  0.1312668E+00
        -11   -1    0    0    0    0  0.00000000000E+00  0.00000000000E+00  0.45593999997E+02  0.45594000000E+02  0.51100000000E-03 0.  1.
         11   -1    0    0    0    0 -0.00000000000E+00 -0.00000000000E+00 -0.45593999997E+02  0.45594000000E+02  0.51100000000E-03 0. -1.
    9900012    2    1    2    0    0  0.22503467434E+02  0.26536261767E+02  0.25943099297E+02  0.47787266870E+02  0.19999980968E+02 0.  0.
         12    1    1    2    0    0 -0.22503467434E+02 -0.26536261767E+02 -0.25943099297E+02  0.43400733130E+02  0.00000000000E+00 0. -1.
         11    1    3    3    0    0  0.60988934742E+01  0.19287631794E+00  0.33573085498E+01  0.69645691786E+01  0.51100000000E-03 0. -1.
        -11    1    3    3    0    0  0.15447478191E+02  0.19029865468E+02  0.22755199981E+02  0.33444872382E+02  0.51100000000E-03 0.  1.
         12    1    3    3    0    0  0.95709576859E+00  0.73135199804E+01 -0.16940923394E+00  0.73778253098E+01  0.00000000000E+00 0. -1.
</event>
<event>
 7    1  0.1265344E-009  0.4778727E+02  0.7816164E-02  0.1312668E+00
        -11   -1    0    0    0    0  0.00000000000E+00  0.00000000000E+00  0.45593999997E+02  0.45594000000E+02  0.51100000000E-03 0.  1.
         11   -1    0    0    0    0 -0.00000000000E+00 -0.00000000000E+00 -0.45593999997E+02  0.45594000000E+02  0.51100000000E-03 0. -1.
    9900012    2    1    2    0    0  0.22600759195E+02  0.16330975814E+02  0.33258505872E+02  0.47787270743E+02  0.19999998625E+02 0.  0.
         12    1    1    2    0    0 -0.22600759195E+02 -0.16330975814E+02 -0.33258505872E+02  0.43400729257E+02  0.00000000000E+00 0. -1.
         11    1    3    3    0    0  0.16872707099E+02  0.55321546182E+01  0.13816958738E+02  0.22498918387E+02  0.51100000000E-03 0. -1.
        -11    1    3    3    0    0  0.74616718729E+01  0.10263334254E+02  0.19722937669E+02  0.23452224792E+02  0.51100000000E-03 0.  1.
         12    1    3    3    0    0 -0.17336197769E+01  0.53548694242E+00 -0.28139053551E+00  0.18361275636E+01  0.00000000000E+00 0. -1.
</event>
<event>
 7    1  0.1265344E-009  0.4778726E+02  0.7816164E-02  0.1312668E+00
        -11   -1    0    0    0    0  0.00000000000E+00  0.00000000000E+00  0.45593999997E+02  0.45594000000E+02  0.51100000000E-03 0.  1.
         11   -1    0    0    0    0 -0.00000000000E+00 -0.00000000000E+00 -0.45593999997E+02  0.45594000000E+02  0.51100000000E-03 0. -1.
    9900012    2    1    2    0    0 -0.40844224987E+02 -0.64320900719E+01  0.13190959799E+02  0.47787263625E+02  0.19999966171E+02 0.  0.
         12    1    1    2    0    0  0.40844224987E+02  0.64320900719E+01 -0.13190959799E+02  0.43400736375E+02  0.00000000000E+00 0. -1.
         11    1    3    3    0    0 -0.77769370402E+01 -0.59937304788E+00 -0.13031547751E-01  0.78000107603E+01  0.51100000000E-03 0. -1.
        -11    1    3    3    0    0 -0.26632225510E+02 -0.10626773441E+02  0.62016067924E+01  0.29337070005E+02  0.51100000000E-03 0.  1.
         12    1    3    3    0    0 -0.64350624363E+01  0.47940564171E+01  0.70023845547E+01  0.10650182860E+02  0.00000000000E+00 0. -1.
</event>
<event>
 7    1  0.1265344E-009  0.4778727E+02  0.7816164E-02  0.1312668E+00
        -11   -1    0    0    0    0  0.00000000000E+00  0.00000000000E+00  0.45593999997E+02  0.45594000000E+02  0.51100000000E-03 0. -1.
         11   -1    0    0    0    0 -0.00000000000E+00 -0.00000000000E+00 -0.45593999997E+02  0.45594000000E+02  0.51100000000E-03 0.  1.
    9900012    2    1    2    0    0 -0.18256155778E+02 -0.36808511166E+02 -0.13981039905E+02  0.47787271955E+02  0.20000004150E+02 0.  0.
         12    1    1    2    0    0  0.18256155778E+02  0.36808511166E+02  0.13981039905E+02  0.43400728045E+02  0.00000000000E+00 0. -1.
         11    1    3    3    0    0 -0.16821532732E+01 -0.17458364367E+02 -0.79789013336E+01  0.19268808805E+02  0.51100000000E-03 0. -1.
        -11    1    3    3    0    0 -0.25600926744E+01 -0.11021130956E+02 -0.54712334245E+00  0.11327786468E+02  0.51100000000E-03 0.  1.
        -12    1    3    3    0    0 -0.14013909830E+02 -0.83290158434E+01 -0.54550152291E+01  0.17190676682E+02  0.00000000000E+00 0.  1.
</event>
<event>
 7    1  0.1265344E-009  0.4778726E+02  0.7816164E-02  0.1312668E+00
        -11   -1    0    0    0    0  0.00000000000E+00  0.00000000000E+00  0.45593999997E+02  0.45594000000E+02  0.51100000000E-03 0.  1.
         11   -1    0    0    0    0 -0.00000000000E+00 -0.00000000000E+00 -0.45593999997E+02  0.45594000000E+02  0.51100000000E-03 0. -1.
    9900012    2    1    2    0    0  0.92308107888E+01 -0.37556837839E+01  0.42241105778E+02  0.47787262151E+02  0.19999959451E+02 0.  0.
         12    1    1    2    0    0 -0.92308107888E+01  0.37556837839E+01 -0.42241105778E+02  0.43400737849E+02  0.00000000000E+00 0. -1.
         11    1    3    3    0    0  0.36265376774E+01 -0.36849658624E+01  0.70906310071E+01  0.87754086670E+01  0.51100000000E-03 0. -1.
        -11    1    3    3    0    0 -0.45322966661E+01  0.47930192491E-01  0.21704202462E+02  0.22172424656E+02  0.51100000000E-03 0.  1.
         12    1    3    3    0    0  0.10136569778E+02 -0.11864811401E+00  0.13446272309E+02  0.16839428827E+02  0.00000000000E+00 0. -1.
</event>
<event>
 7    1  0.1265344E-009  0.4778728E+02  0.7816164E-02  0.1312668E+00
        -11   -1    0    0    0    0  0.00000000000E+00  0.00000000000E+00  0.45593999997E+02  0.45594000000E+02  0.51100000000E-03 0.  1.
         11   -1    0    0    0    0 -0.00000000000E+00 -0.00000000000E+00 -0.45593999997E+02  0.45594000000E+02  0.51100000000E-03 0. -1.
    9900012    2    1    2    0    0  0.28536018364E+01  0.41523271099E+00  0.43304817623E+02  0.47787277759E+02  0.20000030614E+02 0.  0.
         12    1    1    2    0    0 -0.28536018364E+01 -0.41523271099E+00 -0.43304817623E+02  0.43400722241E+02  0.00000000000E+00 0. -1.
         11    1    3    3    0    0  0.10647433683E+01  0.41496538627E+01  0.54789895098E+01  0.69550436325E+01  0.51100000000E-03 0. -1.
        -11    1    3    3    0    0 -0.45120401994E+01 -0.58061017893E+01  0.11240375480E+02  0.13431878720E+02  0.51100000000E-03 0.  1.
        -12    1    3    3    0    0  0.63008986676E+01  0.20716806376E+01  0.26585452633E+02  0.27400355407E+02  0.00000000000E+00 0.  1.
</event>
<event>
 7    1  0.1265344E-009  0.4778727E+02  0.7816164E-02  0.1312668E+00
        -11   -1    0    0    0    0  0.00000000000E+00  0.00000000000E+00  0.45593999997E+02  0.45594000000E+02  0.51100000000E-03 0.  1.
         11   -1    0    0    0    0 -0.00000000000E+00 -0.00000000000E+00 -0.45593999997E+02  0.45594000000E+02  0.51100000000E-03 0. -1.
    9900012    2    1    2    0    0  0.36714110297E+02 -0.22829271954E+02 -0.38107765318E+01  0.47787267625E+02  0.19999984411E+02 0.  0.
         12    1    1    2    0    0 -0.36714110297E+02  0.22829271954E+02  0.38107765318E+01  0.43400732375E+02  0.00000000000E+00 0. -1.
         11    1    3    3    0    0  0.84738617026E+00 -0.52663918392E+01  0.15427824575E+01  0.55527582603E+01  0.51100000000E-03 0. -1.
        -11    1    3    3    0    0  0.26097945501E+02 -0.12556919076E+02  0.19865655075E+01  0.29029733358E+02  0.51100000000E-03 0.  1.
         12    1    3    3    0    0  0.97687786258E+01 -0.50059610389E+01 -0.73401244967E+01  0.13204776007E+02  0.00000000000E+00 0. -1.
</event>
<event>
 7    1  0.1265344E-009  0.4778727E+02  0.7816164E-02  0.1312668E+00
        -11   -1    0    0    0    0  0.00000000000E+00  0.00000000000E+00  0.45593999997E+02  0.45594000000E+02  0.51100000000E-03 0.  1.
         11   -1    0    0    0    0 -0.00000000000E+00 -0.00000000000E+00 -0.45593999997E+02  0.45594000000E+02  0.51100000000E-03 0. -1.
    9900012    2    1    2    0    0 -0.16436037227E+01 -0.11058449866E+02  0.41936053041E+02  0.47787270844E+02  0.19999999088E+02 0.  0.
         12    1    1    2    0    0  0.16436037227E+01  0.11058449866E+02 -0.41936053041E+02  0.43400729156E+02  0.00000000000E+00 0. -1.
         11    1    3    3    0    0 -0.10579250812E+01 -0.66292341209E+01  0.84814502555E+01  0.10816697703E+02  0.51100000000E-03 0.  1.
        -11    1    3    3    0    0  0.52984032460E+01  0.25895816210E+01  0.81534736649E+01  0.10062710519E+02  0.51100000000E-03 0. -1.
        -12    1    3    3    0    0 -0.58840818875E+01 -0.70187973658E+01  0.25301129120E+02  0.26907862622E+02  0.00000000000E+00 0.  1.
</event>
<event>
 7    1  0.1265344E-009  0.4778727E+02  0.7816164E-02  0.1312668E+00
        -11   -1    0    0    0    0  0.00000000000E+00  0.00000000000E+00  0.45593999997E+02  0.45594000000E+02  0.51100000000E-03 0.  1.
         11   -1    0    0    0    0 -0.00000000000E+00 -0.00000000000E+00 -0.45593999997E+02  0.45594000000E+02  0.51100000000E-03 0. -1.
    9900012    2    1    2    0    0  0.35082218572E+02 -0.22306762882E+02 -0.12460719000E+02  0.47787271340E+02  0.20000001348E+02 0.  0.
         12    1    1    2    0    0 -0.35082218572E+02  0.22306762882E+02  0.12460719000E+02  0.43400728660E+02  0.00000000000E+00 0. -1.
         11    1    3    3    0    0  0.43945290744E+01 -0.43858667722E+01 -0.82929101161E+01  0.10359540124E+02  0.51100000000E-03 0. -1.
        -11    1    3    3    0    0  0.19151137012E+02 -0.16590667489E+02 -0.48365016919E+01  0.25795504365E+02  0.51100000000E-03 0.  1.
        -12    1    3    3    0    0  0.11536552486E+02 -0.13302286210E+01  0.66869280794E+00  0.11632226851E+02  0.00000000000E+00 0.  1.
</event>
<event>
 7    1  0.1265344E-009  0.4778724E+02  0.7816164E-02  0.1312668E+00
        -11   -1    0    0    0    0  0.00000000000E+00  0.00000000000E+00  0.45593999997E+02  0.45594000000E+02  0.51100000000E-03 0.  1.
         11   -1    0    0    0    0 -0.00000000000E+00 -0.00000000000E+00 -0.45593999997E+02  0.45594000000E+02  0.51100000000E-03 0. -1.
    9900012    2    1    2    0    0  0.12239673488E+02  0.41584851787E+02 -0.21252541184E+01  0.47787237215E+02  0.19999845757E+02 0.  0.
         12    1    1    2    0    0 -0.12239673488E+02 -0.41584851787E+02  0.21252541184E+01  0.43400762785E+02  0.00000000000E+00 0. -1.
         11    1    3    3    0    0  0.15346545122E+02  0.24646936294E+02 -0.41900588186E+01  0.29335038930E+02  0.51100000000E-03 0.  1.
        -11    1    3    3    0    0  0.10482345250E+01  0.17009685700E+01 -0.11919770737E+01  0.23265638398E+01  0.51100000000E-03 0. -1.
        -12    1    3    3    0    0 -0.41551061592E+01  0.15236946923E+02  0.32567817739E+01  0.16125634445E+02  0.00000000000E+00 0.  1.
</event>
<event>
 7    1  0.1265344E-009  0.4778727E+02  0.7816164E-02  0.1312668E+00
        -11   -1    0    0    0    0  0.00000000000E+00  0.00000000000E+00  0.45593999997E+02  0.45594000000E+02  0.51100000000E-03 0.  1.
         11   -1    0    0    0    0 -0.00000000000E+00 -0.00000000000E+00 -0.45593999997E+02  0.45594000000E+02  0.51100000000E-03 0. -1.
    9900012    2    1    2    0    0  0.17958733631E+02  0.37714524049E+02  0.11778038548E+02  0.47787266942E+02  0.19999981296E+02 0.  0.
         12    1    1    2    0    0 -0.17958733631E+02 -0.37714524049E+02 -0.11778038548E+02  0.43400733058E+02  0.00000000000E+00 0. -1.
         11    1    3    3    0    0  0.56491910989E+01  0.25662749230E+02  0.61499048351E+00  0.26284373146E+02  0.51100000000E-03 0. -1.
        -11    1    3    3    0    0  0.77421257144E+01  0.10730278526E+02  0.61419718392E+01  0.14587775916E+02  0.51100000000E-03 0.  1.
         12    1    3    3    0    0  0.45674168180E+01  0.13214962929E+01  0.50210762254E+01  0.69151178806E+01  0.00000000000E+00 0. -1.
</event>
<event>
 7    1  0.1265344E-009  0.4778726E+02  0.7816164E-02  0.1312668E+00
        -11   -1    0    0    0    0  0.00000000000E+00  0.00000000000E+00  0.45593999997E+02  0.45594000000E+02  0.51100000000E-03 0. -1.
         11   -1    0    0    0    0 -0.00000000000E+00 -0.00000000000E+00 -0.45593999997E+02  0.45594000000E+02  0.51100000000E-03 0.  1.
    9900012    2    1    2    0    0  0.33380470652E+02 -0.92893477279E+01 -0.26135736347E+02  0.47787256728E+02  0.19999934725E+02 0.  0.
         12    1    1    2    0    0 -0.33380470652E+02  0.92893477279E+01  0.26135736347E+02  0.43400743272E+02  0.00000000000E+00 0. -1.
         11    1    3    3    0    0  0.13855156803E+02 -0.68336308260E+01 -0.49611239177E+01  0.16225801401E+02  0.51100000000E-03 0. -1.
        -11    1    3    3    0    0  0.11987705380E+02 -0.31120412912E+01 -0.43722914279E+01  0.13134184933E+02  0.51100000000E-03 0.  1.
        -12    1    3    3    0    0  0.75376084692E+01  0.65632438932E+00 -0.16802321001E+02  0.18427270394E+02  0.00000000000E+00 0.  1.
</event>
<event>
 7    1  0.1265344E-009  0.4778726E+02  0.7816164E-02  0.1312668E+00
        -11   -1    0    0    0    0  0.00000000000E+00  0.00000000000E+00  0.45593999997E+02  0.45594000000E+02  0.51100000000E-03 0.  1.
         11   -1    0    0    0    0 -0.00000000000E+00 -0.00000000000E+00 -0.45593999997E+02  0.45594000000E+02  0.51100000000E-03 0. -1.
    9900012    2    1    2    0    0 -0.11383450263E+02  0.40767395305E+02  0.95948335859E+01  0.47787259322E+02  0.19999946554E+02 0.  0.
         12    1    1    2    0    0  0.11383450263E+02 -0.40767395305E+02 -0.95948335859E+01  0.43400740678E+02  0.00000000000E+00 0. -1.
         11    1    3    3    0    0 -0.46371753013E+01  0.28793326687E+02  0.12194425656E+00  0.29164600582E+02  0.51100000000E-03 0. -1.
        -11    1    3    3    0    0 -0.74600330785E+01  0.12574715196E+02  0.74824305612E+01  0.16424442857E+02  0.51100000000E-03 0.  1.
        -12    1    3    3    0    0  0.71375811680E+00 -0.60064657813E+00  0.19904587681E+01  0.21982158831E+01  0.00000000000E+00 0.  1.
</event>
<event>
 7    1  0.1265344E-009  0.4778727E+02  0.7816164E-02  0.1312668E+00
        -11   -1    0    0    0    0  0.00000000000E+00  0.00000000000E+00  0.45593999997E+02  0.45594000000E+02  0.51100000000E-03 0. -1.
         11   -1    0    0    0    0 -0.00000000000E+00 -0.00000000000E+00 -0.45593999997E+02  0.45594000000E+02  0.51100000000E-03 0.  1.
    9900012    2    1    2    0    0  0.35872586078E+02  0.46759586694E+01 -0.23977405395E+02  0.47787274305E+02  0.20000014866E+02 0.  0.
         12    1    1    2    0    0 -0.35872586078E+02 -0.46759586694E+01  0.23977405395E+02  0.43400725695E+02  0.00000000000E+00 0. -1.
         11    1    3    3    0    0  0.68108412725E+01 -0.10365861926E+00 -0.68785392376E+01  0.96805271681E+01  0.51100000000E-03 0. -1.
        -11    1    3    3    0    0  0.43801875015E+01  0.79349968135E+01 -0.59400150809E+01  0.10836696748E+02  0.51100000000E-03 0.  1.
         12    1    3    3    0    0  0.24681557304E+02 -0.31553795249E+01 -0.11158851077E+02  0.27270050389E+02  0.00000000000E+00 0. -1.
</event>
<event>
 7    1  0.1281657E-009  0.4778727E+02  0.7816164E-02  0.1312668E+00
        -11   -1    0    0    0    0  0.00000000000E+00  0.00000000000E+00  0.45593999997E+02  0.45594000000E+02  0.51100000000E-03 0.  1.
         11   -1    0    0    0    0 -0.00000000000E+00 -0.00000000000E+00 -0.45593999997E+02  0.45594000000E+02  0.51100000000E-03 0. -1.
    9900012    2    1    2    0    0  0.41032608465E+02  0.38164934522E+01  0.13615523925E+02  0.47787273376E+02  0.20000010632E+02 0.  0.
         12    1    1    2    0    0 -0.41032608465E+02 -0.38164934522E+01 -0.13615523925E+02  0.43400726624E+02  0.00000000000E+00 0. -1.
         11    1    3    3    0    0  0.18964722231E+01  0.39202843592E+01  0.12229768182E+01  0.45233736203E+01  0.51100000000E-03 0. -1.
        -11    1    3    3    0    0  0.14581794545E+02 -0.53827845932E+01  0.69792183398E+00  0.15559247966E+02  0.51100000000E-03 0.  1.
        -12    1    3    3    0    0  0.24554341697E+02  0.52789936862E+01  0.11694625273E+02  0.27704651790E+02  0.00000000000E+00 0.  1.
</event>
<event>
 7    1  0.1265344E-009  0.4778727E+02  0.7816164E-02  0.1312668E+00
        -11   -1    0    0    0    0  0.00000000000E+00  0.00000000000E+00  0.45593999997E+02  0.45594000000E+02  0.51100000000E-03 0. -1.
         11   -1    0    0    0    0 -0.00000000000E+00 -0.00000000000E+00 -0.45593999997E+02  0.45594000000E+02  0.51100000000E-03 0.  1.
    9900012    2    1    2    0    0  0.33018147535E+02 -0.73208165190E+01 -0.27199828309E+02  0.47787273264E+02  0.20000010120E+02 0.  0.
         12    1    1    2    0    0 -0.33018147535E+02  0.73208165190E+01  0.27199828309E+02  0.43400726736E+02  0.00000000000E+00 0. -1.
         11    1    3    3    0    0  0.67729288196E+01  0.86319996617E+00 -0.83364540003E+00  0.68784187057E+01  0.51100000000E-03 0. -1.
        -11    1    3    3    0    0  0.11988255479E+02 -0.45610207180E+00 -0.20328731079E+02  0.23604736941E+02  0.51100000000E-03 0.  1.
         12    1    3    3    0    0  0.14256963237E+02 -0.77279144134E+01 -0.60374518306E+01  0.17304117617E+02  0.00000000000E+00 0. -1.
</event>
<event>
 7    1  0.1265344E-009  0.4778727E+02  0.7816164E-02  0.1312668E+00
        -11   -1    0    0    0    0  0.00000000000E+00  0.00000000000E+00  0.45593999997E+02  0.45594000000E+02  0.51100000000E-03 0.  1.
         11   -1    0    0    0    0 -0.00000000000E+00 -0.00000000000E+00 -0.45593999997E+02  0.45594000000E+02  0.51100000000E-03 0. -1.
    9900012    2    1    2    0    0  0.22776073093E+02  0.31015693831E+01  0.36813775681E+02  0.47787270536E+02  0.19999997681E+02 0.  0.
         12    1    1    2    0    0 -0.22776073093E+02 -0.31015693831E+01 -0.36813775681E+02  0.43400729464E+02  0.00000000000E+00 0. -1.
         11    1    3    3    0    0 -0.45877053583E+00 -0.17592315845E+01  0.11035725336E+02  0.11184480324E+02  0.51100000000E-03 0. -1.
        -11    1    3    3    0    0  0.14109964229E+00 -0.71410943932E+00 -0.71333361662E+00  0.10191695198E+01  0.51100000000E-03 0.  1.
        -12    1    3    3    0    0  0.23093743986E+02  0.55749104069E+01  0.26491383961E+02  0.35583620692E+02  0.00000000000E+00 0.  1.
</event>
<event>
 7    1  0.1265344E-009  0.4778727E+02  0.7816164E-02  0.1312668E+00
        -11   -1    0    0    0    0  0.00000000000E+00  0.00000000000E+00  0.45593999997E+02  0.45594000000E+02  0.51100000000E-03 0.  1.
         11   -1    0    0    0    0 -0.00000000000E+00 -0.00000000000E+00 -0.45593999997E+02  0.45594000000E+02  0.51100000000E-03 0. -1.
    9900012    2    1    2    0    0  0.13572736128E+01  0.38861723890E+02  0.19275577324E+02  0.47787266636E+02  0.19999979899E+02 0.  0.
         12    1    1    2    0    0 -0.13572736128E+01 -0.38861723890E+02 -0.19275577324E+02  0.43400733364E+02  0.00000000000E+00 0. -1.
         11    1    3    3    0    0 -0.54511194963E+00 -0.21773725893E+00 -0.72606626833E+00  0.93366430728E+00  0.51100000000E-03 0. -1.
        -11    1    3    3    0    0  0.31120294858E+01  0.23977852582E+02  0.20493687637E+02  0.31695636532E+02  0.51100000000E-03 0.  1.
        -12    1    3    3    0    0 -0.12096439234E+01  0.15101608567E+02 -0.49204404436E+00  0.15157965796E+02  0.00000000000E+00 0.  1.
</event>
<event>
 7    1  0.1265344E-009  0.4778727E+02  0.7816164E-02  0.1312668E+00
        -11   -1    0    0    0    0  0.00000000000E+00  0.00000000000E+00  0.45593999997E+02  0.45594000000E+02  0.51100000000E-03 0.  1.
         11   -1    0    0    0    0 -0.00000000000E+00 -0.00000000000E+00 -0.45593999997E+02  0.45594000000E+02  0.51100000000E-03 0. -1.
    9900012    2    1    2    0    0 -0.22400109855E+02 -0.14074736740E+02  0.34405818185E+02  0.47787268891E+02  0.19999990183E+02 0.  0.
         12    1    1    2    0    0  0.22400109855E+02  0.14074736740E+02 -0.34405818185E+02  0.43400731109E+02  0.00000000000E+00 0. -1.
         11    1    3    3    0    0 -0.65177607851E+01  0.16855662095E+01  0.72459300739E+01  0.98906947175E+01  0.51100000000E-03 0. -1.
        -11    1    3    3    0    0 -0.33652245330E+01 -0.11662671477E+02  0.18524826383E+02  0.22147501776E+02  0.51100000000E-03 0.  1.
        -12    1    3    3    0    0 -0.12517124537E+02 -0.40976314731E+01  0.86350617273E+01  0.15749072398E+02  0.00000000000E+00 0.  1.
</event>
<event>
 7    1  0.1444249E-009  0.4778727E+02  0.7816164E-02  0.1312668E+00
        -11   -1    0    0    0    0  0.00000000000E+00  0.00000000000E+00  0.45593999997E+02  0.45594000000E+02  0.51100000000E-03 0. -1.
         11   -1    0    0    0    0 -0.00000000000E+00 -0.00000000000E+00 -0.45593999997E+02  0.45594000000E+02  0.51100000000E-03 0.  1.
    9900012    2    1    2    0    0  0.73602599238E+01  0.37482513079E+02 -0.20603659747E+02  0.47787274109E+02  0.20000013972E+02 0.  0.
         12    1    1    2    0    0 -0.73602599238E+01 -0.37482513079E+02  0.20603659747E+02  0.43400725891E+02  0.00000000000E+00 0. -1.
         11    1    3    3    0    0  0.33236105867E+01  0.27578098561E+01 -0.87067512923E+01  0.97190236579E+01  0.51100000000E-03 0. -1.
        -11    1    3    3    0    0  0.64635299020E+01  0.17984742282E+02 -0.79521599183E+01  0.20699396642E+02  0.51100000000E-03 0.  1.
        -12    1    3    3    0    0 -0.24268805649E+01  0.16739960942E+02 -0.39447485368E+01  0.17368853809E+02  0.00000000000E+00 0.  1.
</event>
<event>
 7    1  0.1265344E-009  0.4778727E+02  0.7816164E-02  0.1312668E+00
        -11   -1    0    0    0    0  0.00000000000E+00  0.00000000000E+00  0.45593999997E+02  0.45594000000E+02  0.51100000000E-03 0. -1.
         11   -1    0    0    0    0 -0.00000000000E+00 -0.00000000000E+00 -0.45593999997E+02  0.45594000000E+02  0.51100000000E-03 0.  1.
    9900012    2    1    2    0    0 -0.30431400194E+02  0.24677702519E+02  0.18669884354E+02  0.47787266122E+02  0.19999977555E+02 0.  0.
         12    1    1    2    0    0  0.30431400194E+02 -0.24677702519E+02 -0.18669884354E+02  0.43400733878E+02  0.00000000000E+00 0. -1.
         11    1    3    3    0    0 -0.95439120592E+01  0.14013588044E+02 -0.26816200104E+00  0.16956969611E+02  0.51100000000E-03 0. -1.
        -11    1    3    3    0    0 -0.30875610737E+01  0.38701879030E+01  0.20079324232E+01  0.53425818352E+01  0.51100000000E-03 0.  1.
        -12    1    3    3    0    0 -0.17799927061E+02  0.67939265721E+01  0.16930113932E+02  0.25487714676E+02  0.00000000000E+00 0.  1.
</event>
<event>
 7    1  0.2564542E-009  0.4778727E+02  0.7816164E-02  0.1312668E+00
        -11   -1    0    0    0    0  0.00000000000E+00  0.00000000000E+00  0.45593999997E+02  0.45594000000E+02  0.51100000000E-03 0. -1.
         11   -1    0    0    0    0 -0.00000000000E+00 -0.00000000000E+00 -0.45593999997E+02  0.45594000000E+02  0.51100000000E-03 0.  1.
    9900012    2    1    2    0    0  0.23499763881E+02 -0.13281622325E+01 -0.36463958653E+02  0.47787271918E+02  0.20000003984E+02 0.  0.
         12    1    1    2    0    0 -0.23499763881E+02  0.13281622325E+01  0.36463958653E+02  0.43400728082E+02  0.00000000000E+00 0. -1.
         11    1    3    3    0    0  0.25283242085E+01 -0.11323247584E+01  0.88052795564E+00  0.29068733036E+01  0.51100000000E-03 0. -1.
        -11    1    3    3    0    0  0.69586174694E+01  0.63219036705E+01 -0.15318015536E+02  0.17973047135E+02  0.51100000000E-03 0.  1.
        -12    1    3    3    0    0  0.14012822203E+02 -0.65177411446E+01 -0.22026471073E+02  0.26907351479E+02  0.00000000000E+00 0.  1.
</event>
<event>
 7    1  0.1316265E-009  0.4778727E+02  0.7816164E-02  0.1312668E+00
        -11   -1    0    0    0    0  0.00000000000E+00  0.00000000000E+00  0.45593999997E+02  0.45594000000E+02  0.51100000000E-03 0. -1.
         11   -1    0    0    0    0 -0.00000000000E+00 -0.00000000000E+00 -0.45593999997E+02  0.45594000000E+02  0.51100000000E-03 0.  1.
    9900012    2    1    2    0    0 -0.42583581088E+02  0.13015937045E+01 -0.82805703489E+01  0.47787269940E+02  0.19999994966E+02 0.  0.
         12    1    1    2    0    0  0.42583581088E+02 -0.13015937045E+01  0.82805703489E+01  0.43400730060E+02  0.00000000000E+00 0. -1.
         11    1    3    3    0    0 -0.30185531398E+01 -0.19258466839E+00  0.48957961427E+01  0.57547868809E+01  0.51100000000E-03 0. -1.
        -11    1    3    3    0    0 -0.10360985694E+02 -0.87964747094E+00 -0.54045623298E+01  0.11718920533E+02  0.51100000000E-03 0.  1.
         12    1    3    3    0    0 -0.29204042254E+02  0.23738258438E+01 -0.77718041619E+01  0.30313562527E+02  0.00000000000E+00 0. -1.
</event>
<event>
 7    1  0.1265344E-009  0.4778727E+02  0.7816164E-02  0.1312668E+00
        -11   -1    0    0    0    0  0.00000000000E+00  0.00000000000E+00  0.45593999997E+02  0.45594000000E+02  0.51100000000E-03 0.  1.
         11   -1    0    0    0    0 -0.00000000000E+00 -0.00000000000E+00 -0.45593999997E+02  0.45594000000E+02  0.51100000000E-03 0. -1.
    9900012    2    1    2    0    0  0.18704617235E+02  0.12040753800E+02  0.37266350764E+02  0.47787270084E+02  0.19999995620E+02 0.  0.
         12    1    1    2    0    0 -0.18704617235E+02 -0.12040753800E+02 -0.37266350764E+02  0.43400729916E+02  0.00000000000E+00 0. -1.
         11    1    3    3    0    0  0.43746170587E+01  0.68379721719E+01  0.76696738268E+01  0.11167767669E+02  0.51100000000E-03 0. -1.
        -11    1    3    3    0    0  0.87866493386E+01 -0.36797634370E+01  0.73497481755E+01  0.12031818817E+02  0.51100000000E-03 0.  1.
         12    1    3    3    0    0  0.55433508376E+01  0.88825450657E+01  0.22246928762E+02  0.24587683597E+02  0.00000000000E+00 0. -1.
</event>
<event>
 7    1  0.1265344E-009  0.4778727E+02  0.7816164E-02  0.1312668E+00
        -11   -1    0    0    0    0  0.00000000000E+00  0.00000000000E+00  0.45593999997E+02  0.45594000000E+02  0.51100000000E-03 0.  1.
         11   -1    0    0    0    0 -0.00000000000E+00 -0.00000000000E+00 -0.45593999997E+02  0.45594000000E+02  0.51100000000E-03 0. -1.
    9900012    2    1    2    0    0  0.37671722865E+02 -0.20785800980E+02  0.56934529416E+01  0.47787266914E+02  0.19999981169E+02 0.  0.
         12    1    1    2    0    0 -0.37671722865E+02  0.20785800980E+02 -0.56934529416E+01  0.43400733086E+02  0.00000000000E+00 0. -1.
         11    1    3    3    0    0  0.34192627268E+01 -0.10434197196E+02  0.46054981236E+01  0.11906907321E+02  0.51100000000E-03 0. -1.
        -11    1    3    3    0    0  0.15281397679E+02 -0.51139057976E+01  0.15940944445E+01  0.16193031986E+02  0.51100000000E-03 0.  1.
         12    1    3    3    0    0  0.18971062459E+02 -0.52376979864E+01 -0.50613962657E+00  0.19687327608E+02  0.00000000000E+00 0. -1.
</event>
<event>
 7    1  0.1265344E-009  0.4778727E+02  0.7816164E-02  0.1312668E+00
        -11   -1    0    0    0    0  0.00000000000E+00  0.00000000000E+00  0.45593999997E+02  0.45594000000E+02  0.51100000000E-03 0.  1.
         11   -1    0    0    0    0 -0.00000000000E+00 -0.00000000000E+00 -0.45593999997E+02  0.45594000000E+02  0.51100000000E-03 0. -1.
    9900012    2    1    2    0    0 -0.12718073937E+02  0.27075274080E+02  0.31445248879E+02  0.47787267884E+02  0.19999985589E+02 0.  0.
         12    1    1    2    0    0  0.12718073937E+02 -0.27075274080E+02 -0.31445248879E+02  0.43400732116E+02  0.00000000000E+00 0. -1.
         11    1    3    3    0    0 -0.35817527094E+00  0.95510460458E+01  0.67487232544E+00  0.95815563981E+01  0.51100000000E-03 0. -1.
        -11    1    3    3    0    0 -0.14570649739E+01  0.75401594882E+01  0.12900711363E+02  0.15013507165E+02  0.51100000000E-03 0.  1.
        -12    1    3    3    0    0 -0.10902833692E+02  0.99840685458E+01  0.17869665191E+02  0.23192204321E+02  0.00000000000E+00 0.  1.
</event>
<event>
 7    1  0.1265344E-009  0.4778727E+02  0.7816164E-02  0.1312668E+00
        -11   -1    0    0    0    0  0.00000000000E+00  0.00000000000E+00  0.45593999997E+02  0.45594000000E+02  0.51100000000E-03 0. -1.
         11   -1    0    0    0    0 -0.00000000000E+00 -0.00000000000E+00 -0.45593999997E+02  0.45594000000E+02  0.51100000000E-03 0.  1.
    9900012    2    1    2    0    0  0.27333394876E+02  0.24152541304E+02 -0.23519433192E+02  0.47787268848E+02  0.19999989986E+02 0.  0.
         12    1    1    2    0    0 -0.27333394876E+02 -0.24152541304E+02  0.23519433192E+02  0.43400731152E+02  0.00000000000E+00 0. -1.
         11    1    3    3    0    0  0.27253822434E+01  0.90873856157E+01 -0.13326163957E+02  0.16358329125E+02  0.51100000000E-03 0. -1.
        -11    1    3    3    0    0  0.64936536384E+01  0.40693833616E+01 -0.62182502338E+01  0.98688426246E+01  0.51100000000E-03 0.  1.
        -12    1    3    3    0    0  0.18114358994E+02  0.10995772326E+02 -0.39750190007E+01  0.21560097098E+02  0.00000000000E+00 0.  1.
</event>
<event>
 7    1  0.1484083E-009  0.4778729E+02  0.7816164E-02  0.1312668E+00
        -11   -1    0    0    0    0  0.00000000000E+00  0.00000000000E+00  0.45593999997E+02  0.45594000000E+02  0.51100000000E-03 0.  1.
         11   -1    0    0    0    0 -0.00000000000E+00 -0.00000000000E+00 -0.45593999997E+02  0.45594000000E+02  0.51100000000E-03 0. -1.
    9900012    2    1    2    0    0 -0.46161577085E+01 -0.20577239374E+02  0.37932707260E+02  0.47787286039E+02  0.20000068365E+02 0.  0.
         12    1    1    2    0    0  0.46161577085E+01  0.20577239374E+02 -0.37932707260E+02  0.43400713961E+02  0.00000000000E+00 0. -1.
         11    1    3    3    0    0  0.13423559543E+01  0.13755302627E+01 -0.29746292101E+00  0.19448618106E+01  0.51100000000E-03 0. -1.
        -11    1    3    3    0    0 -0.63989601899E+01 -0.62806884887E+01  0.19164539111E+02  0.21158291495E+02  0.51100000000E-03 0.  1.
        -12    1    3    3    0    0  0.44044652702E+00 -0.15672081148E+02  0.19065631071E+02  0.24684132733E+02  0.00000000000E+00 0.  1.
</event>
<event>
 7    1  0.1265344E-009  0.4778727E+02  0.7816164E-02  0.1312668E+00
        -11   -1    0    0    0    0  0.00000000000E+00  0.00000000000E+00  0.45593999997E+02  0.45594000000E+02  0.51100000000E-03 0. -1.
         11   -1    0    0    0    0 -0.00000000000E+00 -0.00000000000E+00 -0.45593999997E+02  0.45594000000E+02  0.51100000000E-03 0.  1.
    9900012    2    1    2    0    0 -0.34626168888E+02  0.12853504860E+02 -0.22791210551E+02  0.47787269160E+02  0.19999991410E+02 0.  0.
         12    1    1    2    0    0  0.34626168888E+02 -0.12853504860E+02  0.22791210551E+02  0.43400730840E+02  0.00000000000E+00 0. -1.
         11    1    3    3    0    0 -0.43611938800E+00  0.43066513165E+01 -0.34006503534E+00  0.43420145293E+01  0.51100000000E-03 0. -1.
        -11    1    3    3    0    0 -0.87443915923E+01 -0.12940042897E+01 -0.10317653452E+02  0.13586493456E+02  0.51100000000E-03 0.  1.
         12    1    3    3    0    0 -0.25445657908E+02  0.98408578330E+01 -0.12133492064E+02  0.29858761175E+02  0.00000000000E+00 0. -1.
</event>
<event>
 7    1  0.1265344E-009  0.4778728E+02  0.7816164E-02  0.1312668E+00
        -11   -1    0    0    0    0  0.00000000000E+00  0.00000000000E+00  0.45593999997E+02  0.45594000000E+02  0.51100000000E-03 0.  1.
         11   -1    0    0    0    0 -0.00000000000E+00 -0.00000000000E+00 -0.45593999997E+02  0.45594000000E+02  0.51100000000E-03 0. -1.
    9900012    2    1    2    0    0  0.56971680343E+01  0.58353596574E+01  0.42627614888E+02  0.47787277690E+02  0.20000030300E+02 0.  0.
         12    1    1    2    0    0 -0.56971680343E+01 -0.58353596574E+01 -0.42627614888E+02  0.43400722310E+02  0.00000000000E+00 0. -1.
         11    1    3    3    0    0  0.41647369568E+01  0.90342209781E+00  0.86589360433E+00  0.43486753617E+01  0.51100000000E-03 0. -1.
        -11    1    3    3    0    0 -0.35309286086E+01  0.38917493115E+01  0.10383347392E+02  0.11637313817E+02  0.51100000000E-03 0.  1.
        -12    1    3    3    0    0  0.50633596861E+01  0.10401882480E+01  0.31378373892E+02  0.31801288512E+02  0.00000000000E+00 0.  1.
</event>
<event>
 7    1  0.1265344E-009  0.4778727E+02  0.7816164E-02  0.1312668E+00
        -11   -1    0    0    0    0  0.00000000000E+00  0.00000000000E+00  0.45593999997E+02  0.45594000000E+02  0.51100000000E-03 0. -1.
         11   -1    0    0    0    0 -0.00000000000E+00 -0.00000000000E+00 -0.45593999997E+02  0.45594000000E+02  0.51100000000E-03 0.  1.
    9900012    2    1    2    0    0 -0.41786440190E+02  0.10339056915E+02 -0.55335792265E+01  0.47787272118E+02  0.20000004893E+02 0.  0.
         12    1    1    2    0    0  0.41786440190E+02 -0.10339056915E+02  0.55335792265E+01  0.43400727882E+02  0.00000000000E+00 0. -1.
         11    1    3    3    0    0 -0.23261889718E+02  0.10096179812E+02 -0.98050213483E+00  0.25377347078E+02  0.51100000000E-03 0.  1.
        -11    1    3    3    0    0 -0.19082010580E+02  0.52622224679E+00 -0.66556938861E+01  0.20216287962E+02  0.51100000000E-03 0. -1.
         12    1    3    3    0    0  0.55746010695E+00 -0.28334514425E+00  0.21026167944E+01  0.21936370771E+01  0.00000000000E+00 0. -1.
</event>
<event>
 7    1  0.1265344E-009  0.4778727E+02  0.7816164E-02  0.1312668E+00
        -11   -1    0    0    0    0  0.00000000000E+00  0.00000000000E+00  0.45593999997E+02  0.45594000000E+02  0.51100000000E-03 0. -1.
         11   -1    0    0    0    0 -0.00000000000E+00 -0.00000000000E+00 -0.45593999997E+02  0.45594000000E+02  0.51100000000E-03 0.  1.
    9900012    2    1    2    0    0  0.34308797031E+02 -0.13681011029E+02 -0.22789463759E+02  0.47787271033E+02  0.19999999947E+02 0.  0.
         12    1    1    2    0    0 -0.34308797031E+02  0.13681011029E+02  0.22789463759E+02  0.43400728967E+02  0.00000000000E+00 0. -1.
         11    1    3    3    0    0  0.10902870036E+02  0.35308692029E+01 -0.13399494305E+01  0.11538417443E+02  0.51100000000E-03 0. -1.
        -11    1    3    3    0    0  0.10678186842E+02 -0.62429571193E+01 -0.10149424771E+02  0.16000281600E+02  0.51100000000E-03 0.  1.
         12    1    3    3    0    0  0.12727740153E+02 -0.10968923112E+02 -0.11300089557E+02  0.20248571990E+02  0.00000000000E+00 0. -1.
</event>
<event>
 7    1  0.1265344E-009  0.4778727E+02  0.7816164E-02  0.1312668E+00
        -11   -1    0    0    0    0  0.00000000000E+00  0.00000000000E+00  0.45593999997E+02  0.45594000000E+02  0.51100000000E-03 0. -1.
         11   -1    0    0    0    0 -0.00000000000E+00 -0.00000000000E+00 -0.45593999997E+02  0.45594000000E+02  0.51100000000E-03 0.  1.
    9900012    2    1    2    0    0  0.13973423174E+02 -0.17753661306E+02 -0.37056366628E+02  0.47787270137E+02  0.19999995861E+02 0.  0.
         12    1    1    2    0    0 -0.13973423174E+02  0.17753661306E+02  0.37056366628E+02  0.43400729863E+02  0.00000000000E+00 0. -1.
         11    1    3    3    0    0  0.74734466448E+01 -0.88997249272E+01 -0.13647808585E+02  0.17925406215E+02  0.51100000000E-03 0. -1.
        -11    1    3    3    0    0  0.18723043512E+01 -0.11696412285E+02 -0.10391796341E+02  0.15757570097E+02  0.51100000000E-03 0.  1.
         12    1    3    3    0    0  0.46276721781E+01  0.28424759059E+01 -0.13016761703E+02  0.14104293824E+02  0.00000000000E+00 0. -1.
</event>
<event>
 7    1  0.1265344E-009  0.4778728E+02  0.7816164E-02  0.1312668E+00
        -11   -1    0    0    0    0  0.00000000000E+00  0.00000000000E+00  0.45593999997E+02  0.45594000000E+02  0.51100000000E-03 0. -1.
         11   -1    0    0    0    0 -0.00000000000E+00 -0.00000000000E+00 -0.45593999997E+02  0.45594000000E+02  0.51100000000E-03 0.  1.
    9900012    2    1    2    0    0  0.15585055744E+02 -0.20716574417E+02 -0.34807355694E+02  0.47787280784E+02  0.20000044405E+02 0.  0.
         12    1    1    2    0    0 -0.15585055744E+02  0.20716574417E+02  0.34807355694E+02  0.43400719216E+02  0.00000000000E+00 0. -1.
         11    1    3    3    0    0  0.15988431867E+01  0.14973304885E+01 -0.97600059104E+00  0.23980983179E+01  0.51100000000E-03 0. -1.
        -11    1    3    3    0    0  0.38566253265E+01  0.65755141515E+00 -0.86475171022E+00  0.40067104405E+01  0.51100000000E-03 0.  1.
        -12    1    3    3    0    0  0.10129587230E+02 -0.22871456321E+02 -0.32966603392E+02  0.41382472025E+02  0.00000000000E+00 0.  1.
</event>
<event>
 7    1  0.1265344E-009  0.4778727E+02  0.7816164E-02  0.1312668E+00
        -11   -1    0    0    0    0  0.00000000000E+00  0.00000000000E+00  0.45593999997E+02  0.45594000000E+02  0.51100000000E-03 0. -1.
         11   -1    0    0    0    0 -0.00000000000E+00 -0.00000000000E+00 -0.45593999997E+02  0.45594000000E+02  0.51100000000E-03 0.  1.
    9900012    2    1    2    0    0  0.24893500840E+02  0.75704805744E+01 -0.34736501606E+02  0.47787273001E+02  0.20000008922E+02 0.  0.
         12    1    1    2    0    0 -0.24893500840E+02 -0.75704805744E+01  0.34736501606E+02  0.43400726999E+02  0.00000000000E+00 0. -1.
         11    1    3    3    0    0 -0.14863640597E+01 -0.15913652632E+01 -0.48885153645E+01  0.53515702602E+01  0.51100000000E-03 0. -1.
        -11    1    3    3    0    0  0.16075204681E+02 -0.96116068200E-01 -0.18657933563E+02  0.24628031365E+02  0.51100000000E-03 0.  1.
         12    1    3    3    0    0  0.10304660219E+02  0.92579619058E+01 -0.11190052679E+02  0.17807671376E+02  0.00000000000E+00 0. -1.
</event>
<event>
 7    1  0.1265344E-009  0.4778727E+02  0.7816164E-02  0.1312668E+00
        -11   -1    0    0    0    0  0.00000000000E+00  0.00000000000E+00  0.45593999997E+02  0.45594000000E+02  0.51100000000E-03 0.  1.
         11   -1    0    0    0    0 -0.00000000000E+00 -0.00000000000E+00 -0.45593999997E+02  0.45594000000E+02  0.51100000000E-03 0. -1.
    9900012    2    1    2    0    0  0.18941827246E+02 -0.24836595961E+02  0.30132611769E+02  0.47787267168E+02  0.19999982325E+02 0.  0.
         12    1    1    2    0    0 -0.18941827246E+02  0.24836595961E+02 -0.30132611769E+02  0.43400732832E+02  0.00000000000E+00 0. -1.
         11    1    3    3    0    0  0.71373139835E+01 -0.95216053108E+01  0.63116243724E+01  0.13469922831E+02  0.51100000000E-03 0. -1.
        -11    1    3    3    0    0  0.76246337500E+01 -0.31657327272E+01  0.18782020893E+02  0.20516364508E+02  0.51100000000E-03 0.  1.
         12    1    3    3    0    0  0.41798795122E+01 -0.12149257923E+02  0.50389665037E+01  0.13800979829E+02  0.00000000000E+00 0. -1.
</event>
<event>
 7    1  0.1265344E-009  0.4778727E+02  0.7816164E-02  0.1312668E+00
        -11   -1    0    0    0    0  0.00000000000E+00  0.00000000000E+00  0.45593999997E+02  0.45594000000E+02  0.51100000000E-03 0.  1.
         11   -1    0    0    0    0 -0.00000000000E+00 -0.00000000000E+00 -0.45593999997E+02  0.45594000000E+02  0.51100000000E-03 0. -1.
    9900012    2    1    2    0    0 -0.10150109763E+02 -0.29335581941E+02  0.30331865772E+02  0.47787272159E+02  0.20000005080E+02 0.  0.
         12    1    1    2    0    0  0.10150109763E+02  0.29335581941E+02 -0.30331865772E+02  0.43400727841E+02  0.00000000000E+00 0. -1.
         11    1    3    3    0    0 -0.13286965703E+02 -0.20246483110E+02  0.18627963978E+02  0.30552652555E+02  0.51100000000E-03 0.  1.
        -11    1    3    3    0    0  0.12786179642E+01 -0.39168354854E+01 -0.19805448370E+00  0.41250078737E+01  0.51100000000E-03 0. -1.
         12    1    3    3    0    0  0.18582379762E+01 -0.51722633455E+01  0.11901956277E+02  0.13109611730E+02  0.00000000000E+00 0. -1.
</event>
<event>
 7    1  0.1265344E-009  0.4778727E+02  0.7816164E-02  0.1312668E+00
        -11   -1    0    0    0    0  0.00000000000E+00  0.00000000000E+00  0.45593999997E+02  0.45594000000E+02  0.51100000000E-03 0.  1.
         11   -1    0    0    0    0 -0.00000000000E+00 -0.00000000000E+00 -0.45593999997E+02  0.45594000000E+02  0.51100000000E-03 0. -1.
    9900012    2    1    2    0    0 -0.31115577931E+02 -0.36332239916E+01  0.30037372095E+02  0.47787271563E+02  0.20000002363E+02 0.  0.
         12    1    1    2    0    0  0.31115577931E+02  0.36332239916E+01 -0.30037372095E+02  0.43400728437E+02  0.00000000000E+00 0. -1.
         11    1    3    3    0    0 -0.94257802169E+01  0.13333332091E+01  0.15967930174E+02  0.18590263700E+02  0.51100000000E-03 0. -1.
        -11    1    3    3    0    0 -0.17758835134E+01 -0.53794902513E+01  0.31719481886E+01  0.64926060399E+01  0.51100000000E-03 0.  1.
        -12    1    3    3    0    0 -0.19913914200E+02  0.41293305053E+00  0.10897493733E+02  0.22704401823E+02  0.00000000000E+00 0.  1.
</event>
<event>
 7    1  0.1265344E-009  0.4778727E+02  0.7816164E-02  0.1312668E+00
        -11   -1    0    0    0    0  0.00000000000E+00  0.00000000000E+00  0.45593999997E+02  0.45594000000E+02  0.51100000000E-03 0.  1.
         11   -1    0    0    0    0 -0.00000000000E+00 -0.00000000000E+00 -0.45593999997E+02  0.45594000000E+02  0.51100000000E-03 0. -1.
    9900012    2    1    2    0    0  0.54644350495E+01  0.66270084721E+01  0.42542284794E+02  0.47787270891E+02  0.19999999299E+02 0.  0.
         12    1    1    2    0    0 -0.54644350495E+01 -0.66270084721E+01 -0.42542284794E+02  0.43400729109E+02  0.00000000000E+00 0. -1.
         11    1    3    3    0    0  0.36143493861E+01 -0.40285017401E+01  0.21257927293E+01  0.58147521653E+01  0.51100000000E-03 0. -1.
        -11    1    3    3    0    0 -0.60274304565E+00  0.25403369632E+01  0.13582921951E+02  0.13831571858E+02  0.51100000000E-03 0.  1.
         12    1    3    3    0    0  0.24528287090E+01  0.81151732490E+01  0.26833570114E+02  0.28140946868E+02  0.00000000000E+00 0. -1.
</event>
<event>
 7    1  0.1265344E-009  0.4778727E+02  0.7816164E-02  0.1312668E+00
        -11   -1    0    0    0    0  0.00000000000E+00  0.00000000000E+00  0.45593999997E+02  0.45594000000E+02  0.51100000000E-03 0.  1.
         11   -1    0    0    0    0 -0.00000000000E+00 -0.00000000000E+00 -0.45593999997E+02  0.45594000000E+02  0.51100000000E-03 0. -1.
    9900012    2    1    2    0    0  0.18300099452E+02  0.31949777385E+02 -0.22976968075E+02  0.47787274467E+02  0.20000015604E+02 0.  0.
         12    1    1    2    0    0 -0.18300099452E+02 -0.31949777385E+02  0.22976968075E+02  0.43400725533E+02  0.00000000000E+00 0. -1.
         11    1    3    3    0    0  0.64966605994E+01  0.12433570189E+02 -0.13564226933E+02  0.19513803298E+02  0.51100000000E-03 0. -1.
        -11    1    3    3    0    0  0.12388126430E+02  0.19332949477E+02 -0.11794934068E+02  0.25813738239E+02  0.51100000000E-03 0.  1.
         12    1    3    3    0    0 -0.58468757785E+00  0.18325771851E+00  0.23821929256E+01  0.24597329306E+01  0.00000000000E+00 0. -1.
</event>
<event>
 7    1  0.1265344E-009  0.4778727E+02  0.7816164E-02  0.1312668E+00
        -11   -1    0    0    0    0  0.00000000000E+00  0.00000000000E+00  0.45593999997E+02  0.45594000000E+02  0.51100000000E-03 0. -1.
         11   -1    0    0    0    0 -0.00000000000E+00 -0.00000000000E+00 -0.45593999997E+02  0.45594000000E+02  0.51100000000E-03 0.  1.
    9900012    2    1    2    0    0  0.34687769133E+02  0.18774972846E+02 -0.18107522790E+02  0.47787270578E+02  0.19999997873E+02 0.  0.
         12    1    1    2    0    0 -0.34687769133E+02 -0.18774972846E+02  0.18107522790E+02  0.43400729422E+02  0.00000000000E+00 0. -1.
         11    1    3    3    0    0  0.60337160456E+01 -0.78392331335E+00 -0.26794853643E+01  0.66483010731E+01  0.51100000000E-03 0. -1.
        -11    1    3    3    0    0  0.24543708530E+02  0.19849878772E+02 -0.17945185255E+02  0.36310342738E+02  0.51100000000E-03 0.  1.
         12    1    3    3    0    0  0.41103445572E+01 -0.29098261244E+00  0.25171478293E+01  0.48286267669E+01  0.00000000000E+00 0. -1.
</event>
<event>
 7    1  0.1265344E-009  0.4778728E+02  0.7816164E-02  0.1312668E+00
        -11   -1    0    0    0    0  0.00000000000E+00  0.00000000000E+00  0.45593999997E+02  0.45594000000E+02  0.51100000000E-03 0. -1.
         11   -1    0    0    0    0 -0.00000000000E+00 -0.00000000000E+00 -0.45593999997E+02  0.45594000000E+02  0.51100000000E-03 0.  1.
    9900012    2    1    2    0    0  0.38179800398E+02 -0.20226631618E+02  0.40998779650E+01  0.47787276684E+02  0.20000025713E+02 0.  0.
         12    1    1    2    0    0 -0.38179800398E+02  0.20226631618E+02 -0.40998779650E+01  0.43400723316E+02  0.00000000000E+00 0. -1.
         11    1    3    3    0    0  0.11874112026E+01 -0.16784001118E+01 -0.28992764796E+01  0.35542617611E+01  0.51100000000E-03 0. -1.
        -11    1    3    3    0    0  0.14709302436E+02 -0.30699560111E+01  0.81172547558E+01  0.17078584049E+02  0.51100000000E-03 0.  1.
        -12    1    3    3    0    0  0.22283086759E+02 -0.15478275495E+02 -0.11181003111E+01  0.27154430874E+02  0.00000000000E+00 0.  1.
</event>
<event>
 7    1  0.1355825E-009  0.4778727E+02  0.7816164E-02  0.1312668E+00
        -11   -1    0    0    0    0  0.00000000000E+00  0.00000000000E+00  0.45593999997E+02  0.45594000000E+02  0.51100000000E-03 0.  1.
         11   -1    0    0    0    0 -0.00000000000E+00 -0.00000000000E+00 -0.45593999997E+02  0.45594000000E+02  0.51100000000E-03 0. -1.
    9900012    2    1    2    0    0 -0.23538245660E+02  0.30628252757E+02  0.19785964184E+02  0.47787271269E+02  0.20000001023E+02 0.  0.
         12    1    1    2    0    0  0.23538245660E+02 -0.30628252757E+02 -0.19785964184E+02  0.43400728731E+02  0.00000000000E+00 0. -1.
         11    1    3    3    0    0 -0.11549160955E+01 -0.20966078704E+01  0.15994441002E+01  0.28788569678E+01  0.51100000000E-03 0. -1.
        -11    1    3    3    0    0 -0.48769442873E+01  0.15504746251E+02  0.48367569603E+01  0.16958064749E+02  0.51100000000E-03 0.  1.
        -12    1    3    3    0    0 -0.17506385277E+02  0.17220114377E+02  0.13349763123E+02  0.27950349552E+02  0.00000000000E+00 0.  1.
</event>
<event>
 7    1  0.1265344E-009  0.4778727E+02  0.7816164E-02  0.1312668E+00
        -11   -1    0    0    0    0  0.00000000000E+00  0.00000000000E+00  0.45593999997E+02  0.45594000000E+02  0.51100000000E-03 0.  1.
         11   -1    0    0    0    0 -0.00000000000E+00 -0.00000000000E+00 -0.45593999997E+02  0.45594000000E+02  0.51100000000E-03 0. -1.
    9900012    2    1    2    0    0 -0.18123806129E+01  0.27324735021E+02  0.33670422264E+02  0.47787271862E+02  0.20000003727E+02 0.  0.
         12    1    1    2    0    0  0.18123806129E+01 -0.27324735021E+02 -0.33670422264E+02  0.43400728138E+02  0.00000000000E+00 0. -1.
         11    1    3    3    0    0  0.54733986934E+01  0.15754108444E+02  0.21449595768E+02  0.27170483709E+02  0.51100000000E-03 0. -1.
        -11    1    3    3    0    0 -0.50323515675E+01  0.74659388892E+01  0.13056822622E+02  0.15860183575E+02  0.51100000000E-03 0.  1.
         12    1    3    3    0    0 -0.22534277387E+01  0.41046876882E+01 -0.83599612501E+00  0.47566045781E+01  0.00000000000E+00 0. -1.
</event>
<event>
 7    1  0.1265344E-009  0.4778728E+02  0.7816164E-02  0.1312668E+00
        -11   -1    0    0    0    0  0.00000000000E+00  0.00000000000E+00  0.45593999997E+02  0.45594000000E+02  0.51100000000E-03 0.  1.
         11   -1    0    0    0    0 -0.00000000000E+00 -0.00000000000E+00 -0.45593999997E+02  0.45594000000E+02  0.51100000000E-03 0. -1.
    9900012    2    1    2    0    0  0.20837036070E+01  0.29814870170E+02  0.31469896863E+02  0.47787277511E+02  0.20000029482E+02 0.  0.
         12    1    1    2    0    0 -0.20837036070E+01 -0.29814870170E+02 -0.31469896863E+02  0.43400722489E+02  0.00000000000E+00 0. -1.
         11    1    3    3    0    0 -0.25112978888E+01  0.97134039745E+01  0.30414948299E+01  0.10483678978E+02  0.51100000000E-03 0. -1.
        -11    1    3    3    0    0  0.27461281668E+01  0.21508605646E+02  0.24310809305E+02  0.32575708528E+02  0.51100000000E-03 0.  1.
        -12    1    3    3    0    0  0.18488733290E+01 -0.14071394502E+01  0.41175927285E+01  0.47278900048E+01  0.00000000000E+00 0.  1.
</event>
<event>
 7    1  0.1265344E-009  0.4778727E+02  0.7816164E-02  0.1312668E+00
        -11   -1    0    0    0    0  0.00000000000E+00  0.00000000000E+00  0.45593999997E+02  0.45594000000E+02  0.51100000000E-03 0. -1.
         11   -1    0    0    0    0 -0.00000000000E+00 -0.00000000000E+00 -0.45593999997E+02  0.45594000000E+02  0.51100000000E-03 0.  1.
    9900012    2    1    2    0    0 -0.29167618774E+01 -0.15098546019E+02 -0.40585091556E+02  0.47787271338E+02  0.20000001341E+02 0.  0.
         12    1    1    2    0    0  0.29167618774E+01  0.15098546019E+02  0.40585091556E+02  0.43400728662E+02  0.00000000000E+00 0. -1.
         11    1    3    3    0    0 -0.56289925613E+01 -0.20272199135E+01 -0.19203605945E+02  0.20114016490E+02  0.51100000000E-03 0. -1.
        -11    1    3    3    0    0 -0.13479455729E+01 -0.13421181358E+02 -0.16675033453E+02  0.21447652720E+02  0.51100000000E-03 0.  1.
        -12    1    3    3    0    0  0.40601762567E+01  0.34985525171E+00 -0.47064521584E+01  0.62256021277E+01  0.00000000000E+00 0.  1.
</event>
<event>
 7    1  0.1265344E-009  0.4778727E+02  0.7816164E-02  0.1312668E+00
        -11   -1    0    0    0    0  0.00000000000E+00  0.00000000000E+00  0.45593999997E+02  0.45594000000E+02  0.51100000000E-03 0.  1.
         11   -1    0    0    0    0 -0.00000000000E+00 -0.00000000000E+00 -0.45593999997E+02  0.45594000000E+02  0.51100000000E-03 0. -1.
    9900012    2    1    2    0    0  0.16282919202E+02  0.14691094230E+01  0.40203624355E+02  0.47787272454E+02  0.20000006426E+02 0.  0.
         12    1    1    2    0    0 -0.16282919202E+02 -0.14691094230E+01 -0.40203624355E+02  0.43400727546E+02  0.00000000000E+00 0. -1.
         11    1    3    3    0    0  0.66410846179E+01  0.22053535675E+01  0.40683464775E+01  0.80943827796E+01  0.51100000000E-03 0. -1.
        -11    1    3    3    0    0  0.10764975916E+02  0.30900089887E+01  0.32192805291E+02  0.34085327852E+02  0.51100000000E-03 0.  1.
         12    1    3    3    0    0 -0.11231413320E+01 -0.38262531331E+01  0.39424725872E+01  0.56075618223E+01  0.00000000000E+00 0. -1.
</event>
<event>
 7    1  0.1265344E-009  0.4778727E+02  0.7816164E-02  0.1312668E+00
        -11   -1    0    0    0    0  0.00000000000E+00  0.00000000000E+00  0.45593999997E+02  0.45594000000E+02  0.51100000000E-03 0. -1.
         11   -1    0    0    0    0 -0.00000000000E+00 -0.00000000000E+00 -0.45593999997E+02  0.45594000000E+02  0.51100000000E-03 0.  1.
    9900012    2    1    2    0    0  0.24710808404E+02  0.32865539259E+02 -0.13887247010E+02  0.47787270141E+02  0.19999995882E+02 0.  0.
         12    1    1    2    0    0 -0.24710808404E+02 -0.32865539259E+02  0.13887247010E+02  0.43400729859E+02  0.00000000000E+00 0. -1.
         11    1    3    3    0    0  0.32802381285E+01  0.21136318108E+01 -0.51172498170E+00  0.39356402694E+01  0.51100000000E-03 0. -1.
        -11    1    3    3    0    0  0.19401782269E+02  0.21679354558E+02 -0.20021772192E+01  0.29162172126E+02  0.51100000000E-03 0.  1.
         12    1    3    3    0    0  0.20287880070E+01  0.90725528899E+01 -0.11373344809E+02  0.14689457746E+02  0.00000000000E+00 0. -1.
</event>
<event>
 7    1  0.1265344E-009  0.4778727E+02  0.7816164E-02  0.1312668E+00
        -11   -1    0    0    0    0  0.00000000000E+00  0.00000000000E+00  0.45593999997E+02  0.45594000000E+02  0.51100000000E-03 0.  1.
         11   -1    0    0    0    0 -0.00000000000E+00 -0.00000000000E+00 -0.45593999997E+02  0.45594000000E+02  0.51100000000E-03 0. -1.
    9900012    2    1    2    0    0 -0.42396918978E+02  0.91977899906E+01 -0.12349974414E+01  0.47787270764E+02  0.19999998723E+02 0.  0.
         12    1    1    2    0    0  0.42396918978E+02 -0.91977899906E+01  0.12349974414E+01  0.43400729236E+02  0.00000000000E+00 0. -1.
         11    1    3    3    0    0 -0.17912675907E+02  0.26013715865E+01 -0.75831747652E+01  0.19624872791E+02  0.51100000000E-03 0. -1.
        -11    1    3    3    0    0 -0.11136982032E+02 -0.23057503518E+01  0.31743631447E+01  0.11807854805E+02  0.51100000000E-03 0.  1.
         12    1    3    3    0    0 -0.13347261039E+02  0.89021687560E+01  0.31738141791E+01  0.16354543168E+02  0.00000000000E+00 0. -1.
</event>
<event>
 7    1  0.1265344E-009  0.4778727E+02  0.7816164E-02  0.1312668E+00
        -11   -1    0    0    0    0  0.00000000000E+00  0.00000000000E+00  0.45593999997E+02  0.45594000000E+02  0.51100000000E-03 0.  1.
         11   -1    0    0    0    0 -0.00000000000E+00 -0.00000000000E+00 -0.45593999997E+02  0.45594000000E+02  0.51100000000E-03 0. -1.
    9900012    2    1    2    0    0 -0.51876050809E+01  0.36756208577E+01  0.42932527284E+02  0.47787270350E+02  0.19999996835E+02 0.  0.
         12    1    1    2    0    0  0.51876050809E+01 -0.36756208577E+01 -0.42932527284E+02  0.43400729650E+02  0.00000000000E+00 0. -1.
         11    1    3    3    0    0 -0.81296866435E+01  0.37351129452E+01  0.18079005591E+02  0.20171596789E+02  0.51100000000E-03 0. -1.
        -11    1    3    3    0    0  0.21812142466E+01  0.15149274167E+01  0.25583371218E+02  0.25720839485E+02  0.51100000000E-03 0.  1.
         12    1    3    3    0    0  0.76086731595E+00 -0.15744195042E+01 -0.72984952460E+00  0.18948340762E+01  0.00000000000E+00 0. -1.
</event>
<event>
 7    1  0.1265344E-009  0.4778727E+02  0.7816164E-02  0.1312668E+00
        -11   -1    0    0    0    0  0.00000000000E+00  0.00000000000E+00  0.45593999997E+02  0.45594000000E+02  0.51100000000E-03 0.  1.
         11   -1    0    0    0    0 -0.00000000000E+00 -0.00000000000E+00 -0.45593999997E+02  0.45594000000E+02  0.51100000000E-03 0. -1.
    9900012    2    1    2    0    0 -0.42901491649E+02  0.28683758470E+01 -0.59040425510E+01  0.47787270926E+02  0.19999999459E+02 0.  0.
         12    1    1    2    0    0  0.42901491649E+02 -0.28683758470E+01  0.59040425510E+01  0.43400729074E+02  0.00000000000E+00 0. -1.
         11    1    3    3    0    0 -0.59889134432E+01  0.24497410210E+01  0.31762694087E+01  0.72081206232E+01  0.51100000000E-03 0.  1.
        -11    1    3    3    0    0 -0.27653590591E+02 -0.45867868237E+01 -0.24471714696E+01  0.28138022930E+02  0.51100000000E-03 0. -1.
         12    1    3    3    0    0 -0.92589876153E+01  0.50054216497E+01 -0.66331404900E+01  0.12441127373E+02  0.00000000000E+00 0. -1.
</event>
<event>
 7    1  0.1265344E-009  0.4778727E+02  0.7816164E-02  0.1312668E+00
        -11   -1    0    0    0    0  0.00000000000E+00  0.00000000000E+00  0.45593999997E+02  0.45594000000E+02  0.51100000000E-03 0. -1.
         11   -1    0    0    0    0 -0.00000000000E+00 -0.00000000000E+00 -0.45593999997E+02  0.45594000000E+02  0.51100000000E-03 0.  1.
    9900012    2    1    2    0    0  0.57786275314E+01  0.13612559792E+02 -0.40803542419E+02  0.47787269658E+02  0.19999993680E+02 0.  0.
         12    1    1    2    0    0 -0.57786275314E+01 -0.13612559792E+02  0.40803542419E+02  0.43400730342E+02  0.00000000000E+00 0. -1.
         11    1    3    3    0    0 -0.41873922292E+01 -0.12801803072E+01 -0.24544424467E+01  0.50197015136E+01  0.51100000000E-03 0. -1.
        -11    1    3    3    0    0  0.25808164832E+00  0.35835930043E+01 -0.43283484218E+01  0.56252417974E+01  0.51100000000E-03 0.  1.
        -12    1    3    3    0    0  0.97079381123E+01  0.11309147095E+02 -0.34020751551E+02  0.37142326347E+02  0.00000000000E+00 0.  1.
</event>
<event>
 7    1  0.1265344E-009  0.4778727E+02  0.7816164E-02  0.1312668E+00
        -11   -1    0    0    0    0  0.00000000000E+00  0.00000000000E+00  0.45593999997E+02  0.45594000000E+02  0.51100000000E-03 0.  1.
         11   -1    0    0    0    0 -0.00000000000E+00 -0.00000000000E+00 -0.45593999997E+02  0.45594000000E+02  0.51100000000E-03 0. -1.
    9900012    2    1    2    0    0 -0.26726031990E+00 -0.40247807239E+02  0.16237789241E+02  0.47787271722E+02  0.20000003088E+02 0.  0.
         12    1    1    2    0    0  0.26726031990E+00  0.40247807239E+02 -0.16237789241E+02  0.43400728278E+02  0.00000000000E+00 0. -1.
         11    1    3    3    0    0 -0.71703835850E+01 -0.15115376354E+02  0.93197532497E+01  0.19150634558E+02  0.51100000000E-03 0.  1.
        -11    1    3    3    0    0  0.16749278802E+01 -0.20801329284E+02  0.63989820117E+01  0.21827680922E+02  0.51100000000E-03 0. -1.
        -12    1    3    3    0    0  0.52281953849E+01 -0.43311016008E+01  0.51905397959E+00  0.68089562411E+01  0.00000000000E+00 0.  1.
</event>
<event>
 7    1  0.1265344E-009  0.4778727E+02  0.7816164E-02  0.1312668E+00
        -11   -1    0    0    0    0  0.00000000000E+00  0.00000000000E+00  0.45593999997E+02  0.45594000000E+02  0.51100000000E-03 0.  1.
         11   -1    0    0    0    0 -0.00000000000E+00 -0.00000000000E+00 -0.45593999997E+02  0.45594000000E+02  0.51100000000E-03 0. -1.
    9900012    2    1    2    0    0 -0.19195258360E+02  0.15044398786E+02  0.35900298321E+02  0.47787270768E+02  0.19999998740E+02 0.  0.
         12    1    1    2    0    0  0.19195258360E+02 -0.15044398786E+02 -0.35900298321E+02  0.43400729232E+02  0.00000000000E+00 0. -1.
         11    1    3    3    0    0 -0.14974820244E+01  0.10323816857E+01  0.46835652749E+00  0.18781965968E+01  0.51100000000E-03 0.  1.
        -11    1    3    3    0    0 -0.17497304451E+02  0.10769787189E+02  0.15559525867E+02  0.25772908734E+02  0.51100000000E-03 0. -1.
         12    1    3    3    0    0 -0.20047188432E+00  0.32422299116E+01  0.19872415926E+02  0.20136165437E+02  0.00000000000E+00 0. -1.
</event>
<event>
 7    1  0.1265344E-009  0.4778727E+02  0.7816164E-02  0.1312668E+00
        -11   -1    0    0    0    0  0.00000000000E+00  0.00000000000E+00  0.45593999997E+02  0.45594000000E+02  0.51100000000E-03 0.  1.
         11   -1    0    0    0    0 -0.00000000000E+00 -0.00000000000E+00 -0.45593999997E+02  0.45594000000E+02  0.51100000000E-03 0. -1.
    9900012    2    1    2    0    0  0.43290055556E+02  0.27661461610E+01 -0.13938284912E+01  0.47787271522E+02  0.20000002175E+02 0.  0.
         12    1    1    2    0    0 -0.43290055556E+02 -0.27661461610E+01  0.13938284912E+01  0.43400728478E+02  0.00000000000E+00 0. -1.
         11    1    3    3    0    0  0.27274111310E+02  0.64061022619E+01 -0.11790807048E+00  0.28016587882E+02  0.51100000000E-03 0. -1.
        -11    1    3    3    0    0  0.83051454410E+00  0.12659497940E+00  0.33514548492E+01  0.34551455200E+01  0.51100000000E-03 0.  1.
         12    1    3    3    0    0  0.15185429701E+02 -0.37665510804E+01 -0.46273752700E+01  0.16315538120E+02  0.00000000000E+00 0. -1.
</event>
<event>
 7    1  0.1265344E-009  0.4778727E+02  0.7816164E-02  0.1312668E+00
        -11   -1    0    0    0    0  0.00000000000E+00  0.00000000000E+00  0.45593999997E+02  0.45594000000E+02  0.51100000000E-03 0.  1.
         11   -1    0    0    0    0 -0.00000000000E+00 -0.00000000000E+00 -0.45593999997E+02  0.45594000000E+02  0.51100000000E-03 0. -1.
    9900012    2    1    2    0    0 -0.26452515849E+02 -0.19497655270E+02  0.28350116665E+02  0.47787271081E+02  0.20000000167E+02 0.  0.
         12    1    1    2    0    0  0.26452515849E+02  0.19497655270E+02 -0.28350116665E+02  0.43400728919E+02  0.00000000000E+00 0. -1.
         11    1    3    3    0    0 -0.16372255762E+01 -0.56166015561E+01  0.69201277627E+01  0.90617266092E+01  0.51100000000E-03 0.  1.
        -11    1    3    3    0    0 -0.10066954857E+02 -0.98774547643E+01  0.18337367779E+02  0.23133671348E+02  0.51100000000E-03 0. -1.
         12    1    3    3    0    0 -0.14748335416E+02 -0.40035989493E+01  0.30926211230E+01  0.15591873124E+02  0.00000000000E+00 0. -1.
</event>
<event>
 7    1  0.1265344E-009  0.4778728E+02  0.7816164E-02  0.1312668E+00
        -11   -1    0    0    0    0  0.00000000000E+00  0.00000000000E+00  0.45593999997E+02  0.45594000000E+02  0.51100000000E-03 0.  1.
         11   -1    0    0    0    0 -0.00000000000E+00 -0.00000000000E+00 -0.45593999997E+02  0.45594000000E+02  0.51100000000E-03 0. -1.
    9900012    2    1    2    0    0  0.74678010948E+01 -0.29986120093E+02  0.30474370440E+02  0.47787277597E+02  0.20000029874E+02 0.  0.
         12    1    1    2    0    0 -0.74678010948E+01  0.29986120093E+02 -0.30474370440E+02  0.43400722403E+02  0.00000000000E+00 0. -1.
         11    1    3    3    0    0  0.11091723887E+02 -0.10166799560E+02  0.17021033356E+02  0.22717960490E+02  0.51100000000E-03 0. -1.
        -11    1    3    3    0    0 -0.46229966957E+00 -0.16440154870E+02  0.95708249991E+01  0.19028744167E+02  0.51100000000E-03 0.  1.
         12    1    3    3    0    0 -0.31616231224E+01 -0.33791656620E+01  0.38825120856E+01  0.60405729392E+01  0.00000000000E+00 0. -1.
</event>
<event>
 7    1  0.1265344E-009  0.4778725E+02  0.7816164E-02  0.1312668E+00
        -11   -1    0    0    0    0  0.00000000000E+00  0.00000000000E+00  0.45593999997E+02  0.45594000000E+02  0.51100000000E-03 0. -1.
         11   -1    0    0    0    0 -0.00000000000E+00 -0.00000000000E+00 -0.45593999997E+02  0.45594000000E+02  0.51100000000E-03 0.  1.
    9900012    2    1    2    0    0 -0.15120203021E+02 -0.16343412809E+02 -0.37254498170E+02  0.47787247524E+02  0.19999892759E+02 0.  0.
         12    1    1    2    0    0  0.15120203021E+02  0.16343412809E+02  0.37254498170E+02  0.43400752476E+02  0.00000000000E+00 0. -1.
         11    1    3    3    0    0  0.25154050889E+01  0.24520998171E+01 -0.25187672847E+01  0.43225276367E+01  0.51100000000E-03 0. -1.
        -11    1    3    3    0    0 -0.64847126656E+01 -0.80994049092E+01 -0.17252413940E+02  0.20132005495E+02  0.51100000000E-03 0.  1.
         12    1    3    3    0    0 -0.11150895444E+02 -0.10696107717E+02 -0.17483316945E+02  0.23332714392E+02  0.00000000000E+00 0. -1.
</event>
<event>
 7    1  0.1265344E-009  0.4778727E+02  0.7816164E-02  0.1312668E+00
        -11   -1    0    0    0    0  0.00000000000E+00  0.00000000000E+00  0.45593999997E+02  0.45594000000E+02  0.51100000000E-03 0.  1.
         11   -1    0    0    0    0 -0.00000000000E+00 -0.00000000000E+00 -0.45593999997E+02  0.45594000000E+02  0.51100000000E-03 0. -1.
    9900012    2    1    2    0    0  0.26487900270E+02  0.12894442173E+02  0.31870798236E+02  0.47787270975E+02  0.19999999685E+02 0.  0.
         12    1    1    2    0    0 -0.26487900270E+02 -0.12894442173E+02 -0.31870798236E+02  0.43400729025E+02  0.00000000000E+00 0. -1.
         11    1    3    3    0    0  0.23978001020E+01  0.22804844475E+01  0.11435793531E+02  0.11904932952E+02  0.51100000000E-03 0. -1.
        -11    1    3    3    0    0  0.89702053550E+01  0.70076754302E+01  0.16150193058E+02  0.19758563589E+02  0.51100000000E-03 0.  1.
         12    1    3    3    0    0  0.15119894813E+02  0.36062822954E+01  0.42848116468E+01  0.16123774434E+02  0.00000000000E+00 0. -1.
</event>
<event>
 7    1  0.1265344E-009  0.4778728E+02  0.7816164E-02  0.1312668E+00
        -11   -1    0    0    0    0  0.00000000000E+00  0.00000000000E+00  0.45593999997E+02  0.45594000000E+02  0.51100000000E-03 0.  1.
         11   -1    0    0    0    0 -0.00000000000E+00 -0.00000000000E+00 -0.45593999997E+02  0.45594000000E+02  0.51100000000E-03 0. -1.
    9900012    2    1    2    0    0  0.80898193003E+01 -0.59778759262E+01  0.42218981431E+02  0.47787279154E+02  0.20000036975E+02 0.  0.
         12    1    1    2    0    0 -0.80898193003E+01  0.59778759262E+01 -0.42218981431E+02  0.43400720846E+02  0.00000000000E+00 0. -1.
         11    1    3    3    0    0 -0.39122211678E+01 -0.38022688732E+01  0.23839604037E+02  0.24455867271E+02  0.51100000000E-03 0. -1.
        -11    1    3    3    0    0 -0.63168889538E+00 -0.13010502811E+01  0.76218715718E+00  0.16348370617E+01  0.51100000000E-03 0.  1.
        -12    1    3    3    0    0  0.12633729363E+02 -0.87455677196E+00  0.17617190236E+02  0.21696574822E+02  0.00000000000E+00 0.  1.
</event>
<event>
 7    1  0.1265344E-009  0.4778727E+02  0.7816164E-02  0.1312668E+00
        -11   -1    0    0    0    0  0.00000000000E+00  0.00000000000E+00  0.45593999997E+02  0.45594000000E+02  0.51100000000E-03 0.  1.
         11   -1    0    0    0    0 -0.00000000000E+00 -0.00000000000E+00 -0.45593999997E+02  0.45594000000E+02  0.51100000000E-03 0. -1.
    9900012    2    1    2    0    0  0.18948840876E+02  0.43297907388E+01  0.38804867616E+02  0.47787269487E+02  0.19999992897E+02 0.  0.
         12    1    1    2    0    0 -0.18948840876E+02 -0.43297907388E+01 -0.38804867616E+02  0.43400730513E+02  0.00000000000E+00 0. -1.
         11    1    3    3    0    0 -0.21833388690E+00  0.33342525796E+01  0.10967744412E+01  0.35167917747E+01  0.51100000000E-03 0. -1.
        -11    1    3    3    0    0  0.18334837067E+02  0.54970176455E+00  0.22484367054E+02  0.29017497900E+02  0.51100000000E-03 0.  1.
         12    1    3    3    0    0  0.83233769588E+00  0.44583639468E+00  0.15223726121E+02  0.15252979812E+02  0.00000000000E+00 0. -1.
</event>
<event>
 7    1  0.1265344E-009  0.4778727E+02  0.7816164E-02  0.1312668E+00
        -11   -1    0    0    0    0  0.00000000000E+00  0.00000000000E+00  0.45593999997E+02  0.45594000000E+02  0.51100000000E-03 0. -1.
         11   -1    0    0    0    0 -0.00000000000E+00 -0.00000000000E+00 -0.45593999997E+02  0.45594000000E+02  0.51100000000E-03 0.  1.
    9900012    2    1    2    0    0  0.17357122297E+02  0.10797347567E+02 -0.38285388228E+02  0.47787270044E+02  0.19999995441E+02 0.  0.
         12    1    1    2    0    0 -0.17357122297E+02 -0.10797347567E+02  0.38285388228E+02  0.43400729956E+02  0.00000000000E+00 0. -1.
         11    1    3    3    0    0  0.24932452595E+01  0.14167492038E+01  0.11328718005E+01  0.30833178572E+01  0.51100000000E-03 0. -1.
        -11    1    3    3    0    0  0.15999814254E+02  0.66357215290E+01 -0.28163247395E+02  0.33063504963E+02  0.51100000000E-03 0.  1.
         12    1    3    3    0    0 -0.11359372166E+01  0.27448768340E+01 -0.11255012633E+02  0.11640447224E+02  0.00000000000E+00 0. -1.
</event>
<event>
 7    1  0.1265344E-009  0.4778727E+02  0.7816164E-02  0.1312668E+00
        -11   -1    0    0    0    0  0.00000000000E+00  0.00000000000E+00  0.45593999997E+02  0.45594000000E+02  0.51100000000E-03 0.  1.
         11   -1    0    0    0    0 -0.00000000000E+00 -0.00000000000E+00 -0.45593999997E+02  0.45594000000E+02  0.51100000000E-03 0. -1.
    9900012    2    1    2    0    0 -0.38571623650E+02  0.14398338787E+02  0.13731022522E+02  0.47787270855E+02  0.19999999136E+02 0.  0.
         12    1    1    2    0    0  0.38571623650E+02 -0.14398338787E+02 -0.13731022522E+02  0.43400729145E+02  0.00000000000E+00 0. -1.
         11    1    3    3    0    0 -0.12760555363E+02  0.16455010960E+01  0.81346019366E+01  0.15222062802E+02  0.51100000000E-03 0. -1.
        -11    1    3    3    0    0 -0.21537664590E+02  0.65402404731E+01 -0.10222675340E+01  0.22531994422E+02  0.51100000000E-03 0.  1.
         12    1    3    3    0    0 -0.42734036973E+01  0.62125972181E+01  0.66186881189E+01  0.10033213631E+02  0.00000000000E+00 0. -1.
</event>
<event>
 7    1  0.1265344E-009  0.4778727E+02  0.7816164E-02  0.1312668E+00
        -11   -1    0    0    0    0  0.00000000000E+00  0.00000000000E+00  0.45593999997E+02  0.45594000000E+02  0.51100000000E-03 0.  1.
         11   -1    0    0    0    0 -0.00000000000E+00 -0.00000000000E+00 -0.45593999997E+02  0.45594000000E+02  0.51100000000E-03 0. -1.
    9900012    2    1    2    0    0 -0.11895150849E+02  0.11111713701E+02  0.40232558236E+02  0.47787268010E+02  0.19999986164E+02 0.  0.
         12    1    1    2    0    0  0.11895150849E+02 -0.11111713701E+02 -0.40232558236E+02  0.43400731990E+02  0.00000000000E+00 0. -1.
         11    1    3    3    0    0  0.54963980774E+00  0.49141537671E+01  0.11635386550E+02  0.12642516822E+02  0.51100000000E-03 0. -1.
        -11    1    3    3    0    0 -0.14870349653E+02  0.84591439104E+01  0.24233524058E+02  0.29663919212E+02  0.51100000000E-03 0.  1.
        -12    1    3    3    0    0  0.24255589955E+01 -0.22615839770E+01  0.43636476272E+01  0.54808319752E+01  0.00000000000E+00 0.  1.
</event>
<event>
 7    1  0.1265344E-009  0.4778727E+02  0.7816164E-02  0.1312668E+00
        -11   -1    0    0    0    0  0.00000000000E+00  0.00000000000E+00  0.45593999997E+02  0.45594000000E+02  0.51100000000E-03 0.  1.
         11   -1    0    0    0    0 -0.00000000000E+00 -0.00000000000E+00 -0.45593999997E+02  0.45594000000E+02  0.51100000000E-03 0. -1.
    9900012    2    1    2    0    0  0.19696661688E+02 -0.21429523233E+02  0.32193790392E+02  0.47787273192E+02  0.20000009793E+02 0.  0.
         12    1    1    2    0    0 -0.19696661688E+02  0.21429523233E+02 -0.32193790392E+02  0.43400726808E+02  0.00000000000E+00 0. -1.
         11    1    3    3    0    0  0.15856611722E+01 -0.58890190420E+01 -0.10830496001E+01  0.61941797946E+01  0.51100000000E-03 0. -1.
        -11    1    3    3    0    0  0.61140155150E+01 -0.14637250859E+01  0.10669423616E+02  0.12383871664E+02  0.51100000000E-03 0.  1.
        -12    1    3    3    0    0  0.11996985001E+02 -0.14076779105E+02  0.22607416376E+02  0.29209221734E+02  0.00000000000E+00 0.  1.
</event>
<event>
 7    1  0.1265344E-009  0.4778727E+02  0.7816164E-02  0.1312668E+00
        -11   -1    0    0    0    0  0.00000000000E+00  0.00000000000E+00  0.45593999997E+02  0.45594000000E+02  0.51100000000E-03 0.  1.
         11   -1    0    0    0    0 -0.00000000000E+00 -0.00000000000E+00 -0.45593999997E+02  0.45594000000E+02  0.51100000000E-03 0. -1.
    9900012    2    1    2    0    0  0.17629559564E+02 -0.11264331347E+02  0.38025473049E+02  0.47787272682E+02  0.20000007466E+02 0.  0.
         12    1    1    2    0    0 -0.17629559564E+02  0.11264331347E+02 -0.38025473049E+02  0.43400727318E+02  0.00000000000E+00 0. -1.
         11    1    3    3    0    0  0.13755339379E+02 -0.12098518368E+02  0.23300751425E+02  0.29639644488E+02  0.51100000000E-03 0. -1.
        -11    1    3    3    0    0 -0.29570904223E+01 -0.15219513640E+01  0.55315014273E+01  0.64543185560E+01  0.51100000000E-03 0.  1.
        -12    1    3    3    0    0  0.68313106069E+01  0.23561383855E+01  0.91932201970E+01  0.11693309638E+02  0.00000000000E+00 0.  1.
</event>
<event>
 7    1  0.1265344E-009  0.4778727E+02  0.7816164E-02  0.1312668E+00
        -11   -1    0    0    0    0  0.00000000000E+00  0.00000000000E+00  0.45593999997E+02  0.45594000000E+02  0.51100000000E-03 0. -1.
         11   -1    0    0    0    0 -0.00000000000E+00 -0.00000000000E+00 -0.45593999997E+02  0.45594000000E+02  0.51100000000E-03 0.  1.
    9900012    2    1    2    0    0 -0.26751372975E+02  0.31453394625E+02 -0.13366787805E+02  0.47787274134E+02  0.20000014085E+02 0.  0.
         12    1    1    2    0    0  0.26751372975E+02 -0.31453394625E+02  0.13366787805E+02  0.43400725866E+02  0.00000000000E+00 0. -1.
         11    1    3    3    0    0 -0.69643418132E+01  0.17592492237E+01 -0.23707599868E+01  0.75642261929E+01  0.51100000000E-03 0. -1.
        -11    1    3    3    0    0 -0.18261270354E+02  0.26924362280E+02 -0.14399514182E+02  0.35577258018E+02  0.51100000000E-03 0.  1.
         12    1    3    3    0    0 -0.15257608073E+01  0.27697831217E+01  0.34034863632E+01  0.46457899228E+01  0.00000000000E+00 0. -1.
</event>
<event>
 7    1  0.1265344E-009  0.4778727E+02  0.7816164E-02  0.1312668E+00
        -11   -1    0    0    0    0  0.00000000000E+00  0.00000000000E+00  0.45593999997E+02  0.45594000000E+02  0.51100000000E-03 0.  1.
         11   -1    0    0    0    0 -0.00000000000E+00 -0.00000000000E+00 -0.45593999997E+02  0.45594000000E+02  0.51100000000E-03 0. -1.
    9900012    2    1    2    0    0 -0.64588891671E+01  0.14565077658E+02  0.40370344130E+02  0.47787269342E+02  0.19999992239E+02 0.  0.
         12    1    1    2    0    0  0.64588891671E+01 -0.14565077658E+02 -0.40370344130E+02  0.43400730658E+02  0.00000000000E+00 0. -1.
         11    1    3    3    0    0  0.13485022960E+01 -0.19366252052E+01  0.95323199315E+00  0.25451182922E+01  0.51100000000E-03 0. -1.
        -11    1    3    3    0    0 -0.11299082593E+02  0.11719731171E+02  0.29374869043E+02  0.33584286470E+02  0.51100000000E-03 0.  1.
        -12    1    3    3    0    0  0.34916911297E+01  0.47819716919E+01  0.10042243094E+02  0.11657864580E+02  0.00000000000E+00 0.  1.
</event>
<event>
 7    1  0.1473295E-009  0.4778726E+02  0.7816164E-02  0.1312668E+00
        -11   -1    0    0    0    0  0.00000000000E+00  0.00000000000E+00  0.45593999997E+02  0.45594000000E+02  0.51100000000E-03 0. -1.
         11   -1    0    0    0    0 -0.00000000000E+00 -0.00000000000E+00 -0.45593999997E+02  0.45594000000E+02  0.51100000000E-03 0.  1.
    9900012    2    1    2    0    0  0.17260934070E+02 -0.28124484274E+02 -0.28190388088E+02  0.47787257596E+02  0.19999938685E+02 0.  0.
         12    1    1    2    0    0 -0.17260934070E+02  0.28124484274E+02  0.28190388088E+02  0.43400742404E+02  0.00000000000E+00 0. -1.
         11    1    3    3    0    0  0.35186324842E+01 -0.66955479943E+01 -0.66862753902E-01  0.75640999724E+01  0.51100000000E-03 0. -1.
        -11    1    3    3    0    0  0.15058297677E+02 -0.21420592845E+02 -0.22736444653E+02  0.34677659127E+02  0.51100000000E-03 0.  1.
         12    1    3    3    0    0 -0.13159960913E+01 -0.83434343175E-02 -0.53870806804E+01  0.55454984972E+01  0.00000000000E+00 0. -1.
</event>
<event>
 7    1  0.1265344E-009  0.4778726E+02  0.7816164E-02  0.1312668E+00
        -11   -1    0    0    0    0  0.00000000000E+00  0.00000000000E+00  0.45593999997E+02  0.45594000000E+02  0.51100000000E-03 0.  1.
         11   -1    0    0    0    0 -0.00000000000E+00 -0.00000000000E+00 -0.45593999997E+02  0.45594000000E+02  0.51100000000E-03 0. -1.
    9900012    2    1    2    0    0 -0.11986968584E+02  0.22117321760E+02  0.35366094665E+02  0.47787262799E+02  0.19999962407E+02 0.  0.
         12    1    1    2    0    0  0.11986968584E+02 -0.22117321760E+02 -0.35366094665E+02  0.43400737201E+02  0.00000000000E+00 0. -1.
         11    1    3    3    0    0 -0.49251260348E+01  0.53709048823E+01  0.83432196119E+01  0.11077580939E+02  0.51100000000E-03 0. -1.
        -11    1    3    3    0    0 -0.67907018010E+01  0.19907431815E+02  0.20095462104E+02  0.29090326053E+02  0.51100000000E-03 0.  1.
         12    1    3    3    0    0 -0.27114074853E+00 -0.31610149374E+01  0.69274129499E+01  0.76193558074E+01  0.00000000000E+00 0. -1.
</event>
<event>
 7    1  0.1265344E-009  0.4778729E+02  0.7816164E-02  0.1312668E+00
        -11   -1    0    0    0    0  0.00000000000E+00  0.00000000000E+00  0.45593999997E+02  0.45594000000E+02  0.51100000000E-03 0. -1.
         11   -1    0    0    0    0 -0.00000000000E+00 -0.00000000000E+00 -0.45593999997E+02  0.45594000000E+02  0.51100000000E-03 0.  1.
    9900012    2    1    2    0    0  0.16904126650E+02 -0.39227528815E+02 -0.76859140056E+01  0.47787288152E+02  0.20000078002E+02 0.  0.
         12    1    1    2    0    0 -0.16904126650E+02  0.39227528815E+02  0.76859140056E+01  0.43400711848E+02  0.00000000000E+00 0. -1.
         11    1    3    3    0    0 -0.12723056679E+01 -0.20119936203E+01 -0.38466695046E+01  0.45236872769E+01  0.51100000000E-03 0. -1.
        -11    1    3    3    0    0 -0.34909657223E+00 -0.85196179055E+01 -0.31815735901E+01  0.91009982114E+01  0.51100000000E-03 0.  1.
        -12    1    3    3    0    0  0.18525528891E+02 -0.28695917290E+02 -0.65767091087E+00  0.34162602664E+02  0.00000000000E+00 0.  1.
</event>
<event>
 7    1  0.1265344E-009  0.4778727E+02  0.7816164E-02  0.1312668E+00
        -11   -1    0    0    0    0  0.00000000000E+00  0.00000000000E+00  0.45593999997E+02  0.45594000000E+02  0.51100000000E-03 0. -1.
         11   -1    0    0    0    0 -0.00000000000E+00 -0.00000000000E+00 -0.45593999997E+02  0.45594000000E+02  0.51100000000E-03 0.  1.
    9900012    2    1    2    0    0 -0.26795029145E+02  0.28747800712E+02 -0.18417754905E+02  0.47787270416E+02  0.19999997136E+02 0.  0.
         12    1    1    2    0    0  0.26795029145E+02 -0.28747800712E+02  0.18417754905E+02  0.43400729584E+02  0.00000000000E+00 0. -1.
         11    1    3    3    0    0 -0.24638910950E+02  0.13040736236E+02 -0.13665945839E+02  0.31046655381E+02  0.51100000000E-03 0. -1.
        -11    1    3    3    0    0 -0.18407211753E+01  0.70245360521E+01 -0.12272816980E+01  0.73646847739E+01  0.51100000000E-03 0.  1.
         12    1    3    3    0    0 -0.31539701995E+00  0.86825284234E+01 -0.35245273680E+01  0.93759302616E+01  0.00000000000E+00 0. -1.
</event>
<event>
 7    1  0.1265344E-009  0.4778728E+02  0.7816164E-02  0.1312668E+00
        -11   -1    0    0    0    0  0.00000000000E+00  0.00000000000E+00  0.45593999997E+02  0.45594000000E+02  0.51100000000E-03 0.  1.
         11   -1    0    0    0    0 -0.00000000000E+00 -0.00000000000E+00 -0.45593999997E+02  0.45594000000E+02  0.51100000000E-03 0. -1.
    9900012    2    1    2    0    0 -0.34451632100E+02  0.66483135372E+01  0.25544233861E+02  0.47787275227E+02  0.20000019072E+02 0.  0.
         12    1    1    2    0    0  0.34451632100E+02 -0.66483135372E+01 -0.25544233861E+02  0.43400724773E+02  0.00000000000E+00 0. -1.
         11    1    3    3    0    0 -0.21868516631E+01 -0.19157732327E+01  0.45387381149E+01  0.53900511327E+01  0.51100000000E-03 0. -1.
        -11    1    3    3    0    0 -0.24994905764E+02  0.12915008121E+02  0.18037649757E+02  0.33420047246E+02  0.51100000000E-03 0.  1.
        -12    1    3    3    0    0 -0.72698746727E+01 -0.43509213506E+01  0.29678459890E+01  0.89771768486E+01  0.00000000000E+00 0.  1.
</event>
<event>
 7    1  0.1265344E-009  0.4778727E+02  0.7816164E-02  0.1312668E+00
        -11   -1    0    0    0    0  0.00000000000E+00  0.00000000000E+00  0.45593999997E+02  0.45594000000E+02  0.51100000000E-03 0.  1.
         11   -1    0    0    0    0 -0.00000000000E+00 -0.00000000000E+00 -0.45593999997E+02  0.45594000000E+02  0.51100000000E-03 0. -1.
    9900012    2    1    2    0    0  0.13141545830E+02  0.17961088808E+02  0.37260196715E+02  0.47787271927E+02  0.20000004026E+02 0.  0.
         12    1    1    2    0    0 -0.13141545830E+02 -0.17961088808E+02 -0.37260196715E+02  0.43400728073E+02  0.00000000000E+00 0. -1.
         11    1    3    3    0    0  0.10328062776E+02  0.13888205855E+02  0.22502111250E+02  0.28388310157E+02  0.51100000000E-03 0.  1.
        -11    1    3    3    0    0 -0.43198458192E+01  0.32326000238E+01  0.59078216910E+01  0.80008204710E+01  0.51100000000E-03 0. -1.
         12    1    3    3    0    0  0.71333288734E+01  0.84028292869E+00  0.88502637744E+01  0.11398141300E+02  0.00000000000E+00 0. -1.
</event>
<event>
 7    1  0.1265344E-009  0.4778727E+02  0.7816164E-02  0.1312668E+00
        -11   -1    0    0    0    0  0.00000000000E+00  0.00000000000E+00  0.45593999997E+02  0.45594000000E+02  0.51100000000E-03 0.  1.
         11   -1    0    0    0    0 -0.00000000000E+00 -0.00000000000E+00 -0.45593999997E+02  0.45594000000E+02  0.51100000000E-03 0. -1.
    9900012    2    1    2    0    0  0.43415908228E+00 -0.12274752566E+02  0.41626500915E+02  0.47787267021E+02  0.19999981657E+02 0.  0.
         12    1    1    2    0    0 -0.43415908228E+00  0.12274752566E+02 -0.41626500915E+02  0.43400732979E+02  0.00000000000E+00 0. -1.
         11    1    3    3    0    0  0.39136538319E+01 -0.18512666644E+01  0.40324356004E+01  0.59164526290E+01  0.51100000000E-03 0. -1.
        -11    1    3    3    0    0 -0.61459601915E+01 -0.85796071548E+01  0.37124015964E+02  0.38595013242E+02  0.51100000000E-03 0.  1.
        -12    1    3    3    0    0  0.26664654419E+01 -0.18438787466E+01  0.47004935093E+00  0.32758011504E+01  0.00000000000E+00 0.  1.
</event>
<event>
 7    1  0.1353243E-009  0.4778727E+02  0.7816164E-02  0.1312668E+00
        -11   -1    0    0    0    0  0.00000000000E+00  0.00000000000E+00  0.45593999997E+02  0.45594000000E+02  0.51100000000E-03 0.  1.
         11   -1    0    0    0    0 -0.00000000000E+00 -0.00000000000E+00 -0.45593999997E+02  0.45594000000E+02  0.51100000000E-03 0. -1.
    9900012    2    1    2    0    0  0.20422442199E+02  0.32976067165E+02  0.19471162047E+02  0.47787270714E+02  0.19999998494E+02 0.  0.
         12    1    1    2    0    0 -0.20422442199E+02 -0.32976067165E+02 -0.19471162047E+02  0.43400729286E+02  0.00000000000E+00 0. -1.
         11    1    3    3    0    0 -0.43257000553E+00  0.31086528236E+01 -0.31576624910E+00  0.31544488857E+01  0.51100000000E-03 0. -1.
        -11    1    3    3    0    0  0.23146794828E+02  0.28407767166E+02  0.20264670593E+02  0.41874004116E+02  0.51100000000E-03 0.  1.
        -12    1    3    3    0    0 -0.22917826232E+01  0.14596471751E+01 -0.47774229691E+00  0.27588177124E+01  0.00000000000E+00 0.  1.
</event>
<event>
 7    1  0.2158794E-009  0.4778727E+02  0.7816164E-02  0.1312668E+00
        -11   -1    0    0    0    0  0.00000000000E+00  0.00000000000E+00  0.45593999997E+02  0.45594000000E+02  0.51100000000E-03 0.  1.
         11   -1    0    0    0    0 -0.00000000000E+00 -0.00000000000E+00 -0.45593999997E+02  0.45594000000E+02  0.51100000000E-03 0. -1.
    9900012    2    1    2    0    0 -0.50515886243E+01 -0.41500503050E+02  0.11653878513E+02  0.47787272063E+02  0.20000004645E+02 0.  0.
         12    1    1    2    0    0  0.50515886243E+01  0.41500503050E+02 -0.11653878513E+02  0.43400727937E+02  0.00000000000E+00 0. -1.
         11    1    3    3    0    0 -0.16582835430E+01 -0.16366344836E+01  0.43020990484E+01  0.48924976469E+01  0.51100000000E-03 0. -1.
        -11    1    3    3    0    0 -0.21460514746E+01 -0.13863018776E+02 -0.38639979975E+01  0.14550577559E+02  0.51100000000E-03 0.  1.
        -12    1    3    3    0    0 -0.12472536067E+01 -0.26000849790E+02  0.11215777463E+02  0.28344196857E+02  0.00000000000E+00 0.  1.
</event>
<event>
 7    1  0.1265344E-009  0.4778727E+02  0.7816164E-02  0.1312668E+00
        -11   -1    0    0    0    0  0.00000000000E+00  0.00000000000E+00  0.45593999997E+02  0.45594000000E+02  0.51100000000E-03 0. -1.
         11   -1    0    0    0    0 -0.00000000000E+00 -0.00000000000E+00 -0.45593999997E+02  0.45594000000E+02  0.51100000000E-03 0.  1.
    9900012    2    1    2    0    0 -0.27227061297E+02 -0.32985671393E+02  0.73658567839E+01  0.47787271547E+02  0.20000002291E+02 0.  0.
         12    1    1    2    0    0  0.27227061297E+02  0.32985671393E+02 -0.73658567839E+01  0.43400728453E+02  0.00000000000E+00 0. -1.
         11    1    3    3    0    0 -0.10836751800E+01  0.14875518192E+01 -0.61966922696E+00  0.19419455509E+01  0.51100000000E-03 0. -1.
        -11    1    3    3    0    0 -0.12431286058E+02 -0.16453164655E+02  0.10359583540E+02  0.23077358419E+02  0.51100000000E-03 0.  1.
         12    1    3    3    0    0 -0.13712100059E+02 -0.18020058557E+02 -0.23740575295E+01  0.22767967577E+02  0.00000000000E+00 0. -1.
</event>
<event>
 7    1  0.1265344E-009  0.4778727E+02  0.7816164E-02  0.1312668E+00
        -11   -1    0    0    0    0  0.00000000000E+00  0.00000000000E+00  0.45593999997E+02  0.45594000000E+02  0.51100000000E-03 0.  1.
         11   -1    0    0    0    0 -0.00000000000E+00 -0.00000000000E+00 -0.45593999997E+02  0.45594000000E+02  0.51100000000E-03 0. -1.
    9900012    2    1    2    0    0 -0.13010403590E+02 -0.33652730001E+02  0.24121498914E+02  0.47787267888E+02  0.19999985607E+02 0.  0.
         12    1    1    2    0    0  0.13010403590E+02  0.33652730001E+02 -0.24121498914E+02  0.43400732112E+02  0.00000000000E+00 0. -1.
         11    1    3    3    0    0 -0.98248588916E+00 -0.32393100057E+01  0.13039532562E+01  0.36274925487E+01  0.51100000000E-03 0. -1.
        -11    1    3    3    0    0 -0.99404412132E+01 -0.32881461691E+02  0.22107445238E+02  0.40850239041E+02  0.51100000000E-03 0.  1.
         12    1    3    3    0    0 -0.20874764874E+01  0.24680416967E+01  0.71010041943E+00  0.33095362980E+01  0.00000000000E+00 0. -1.
</event>
<event>
 7    1  0.1265344E-009  0.4778727E+02  0.7816164E-02  0.1312668E+00
        -11   -1    0    0    0    0  0.00000000000E+00  0.00000000000E+00  0.45593999997E+02  0.45594000000E+02  0.51100000000E-03 0.  1.
         11   -1    0    0    0    0 -0.00000000000E+00 -0.00000000000E+00 -0.45593999997E+02  0.45594000000E+02  0.51100000000E-03 0. -1.
    9900012    2    1    2    0    0  0.16002682372E+02  0.21937440639E+02  0.33856844744E+02  0.47787273268E+02  0.20000010139E+02 0.  0.
         12    1    1    2    0    0 -0.16002682372E+02 -0.21937440639E+02 -0.33856844744E+02  0.43400726732E+02  0.00000000000E+00 0. -1.
         11    1    3    3    0    0  0.23152516103E+01  0.58055513831E+01  0.20175539110E+02  0.21121486584E+02  0.51100000000E-03 0. -1.
        -11    1    3    3    0    0  0.89469002331E+01  0.13062646822E+02  0.13821037640E+02  0.21016680220E+02  0.51100000000E-03 0.  1.
        -12    1    3    3    0    0  0.47405305282E+01  0.30692424342E+01 -0.13973200631E+00  0.56491064640E+01  0.00000000000E+00 0.  1.
</event>
<event>
 7    1  0.1265344E-009  0.4778726E+02  0.7816164E-02  0.1312668E+00
        -11   -1    0    0    0    0  0.00000000000E+00  0.00000000000E+00  0.45593999997E+02  0.45594000000E+02  0.51100000000E-03 0.  1.
         11   -1    0    0    0    0 -0.00000000000E+00 -0.00000000000E+00 -0.45593999997E+02  0.45594000000E+02  0.51100000000E-03 0. -1.
    9900012    2    1    2    0    0  0.25928660822E+02 -0.31724510064E+02  0.14313786713E+02  0.47787257139E+02  0.19999936598E+02 0.  0.
         12    1    1    2    0    0 -0.25928660822E+02  0.31724510064E+02 -0.14313786713E+02  0.43400742861E+02  0.00000000000E+00 0. -1.
         11    1    3    3    0    0  0.12245185240E+02 -0.15816297647E+02  0.54406824032E+01  0.20729227147E+02  0.51100000000E-03 0. -1.
        -11    1    3    3    0    0  0.13342213795E+02 -0.15144921786E+02  0.21666948158E+01  0.20299701760E+02  0.51100000000E-03 0.  1.
         12    1    3    3    0    0  0.34126178720E+00 -0.76329063105E+00  0.67064094936E+01  0.67583282320E+01  0.00000000000E+00 0. -1.
</event>
<event>
 7    1  0.1265344E-009  0.4778727E+02  0.7816164E-02  0.1312668E+00
        -11   -1    0    0    0    0  0.00000000000E+00  0.00000000000E+00  0.45593999997E+02  0.45594000000E+02  0.51100000000E-03 0.  1.
         11   -1    0    0    0    0 -0.00000000000E+00 -0.00000000000E+00 -0.45593999997E+02  0.45594000000E+02  0.51100000000E-03 0. -1.
    9900012    2    1    2    0    0  0.14319611487E+02  0.14303644205E+02  0.38392421011E+02  0.47787268419E+02  0.19999988030E+02 0.  0.
         12    1    1    2    0    0 -0.14319611487E+02 -0.14303644205E+02 -0.38392421011E+02  0.43400731581E+02  0.00000000000E+00 0. -1.
         11    1    3    3    0    0  0.12174267783E+02  0.15494235210E+02  0.22649361162E+02  0.30021287149E+02  0.51100000000E-03 0. -1.
        -11    1    3    3    0    0  0.30151443384E+01  0.24632756403E+00  0.15798366439E+02  0.16085401924E+02  0.51100000000E-03 0.  1.
        -12    1    3    3    0    0 -0.86980063380E+00 -0.14369185693E+01 -0.55306590354E-01  0.16805793454E+01  0.00000000000E+00 0.  1.
</event>
<event>
 7    1  0.1265344E-009  0.4778729E+02  0.7816164E-02  0.1312668E+00
        -11   -1    0    0    0    0  0.00000000000E+00  0.00000000000E+00  0.45593999997E+02  0.45594000000E+02  0.51100000000E-03 0.  1.
         11   -1    0    0    0    0 -0.00000000000E+00 -0.00000000000E+00 -0.45593999997E+02  0.45594000000E+02  0.51100000000E-03 0. -1.
    9900012    2    1    2    0    0 -0.51939752678E+01 -0.32044400159E+02  0.28806263637E+02  0.47787288193E+02  0.20000078189E+02 0.  0.
         12    1    1    2    0    0  0.51939752678E+01  0.32044400159E+02 -0.28806263637E+02  0.43400711807E+02  0.00000000000E+00 0. -1.
         11    1    3    3    0    0 -0.54053860815E+01 -0.10593392369E+01  0.11857205058E+01  0.56343883154E+01  0.51100000000E-03 0. -1.
        -11    1    3    3    0    0  0.53413733030E+00 -0.14386313124E+02  0.80679479059E+01  0.16502820719E+02  0.51100000000E-03 0.  1.
        -12    1    3    3    0    0 -0.32272651657E+00 -0.16598747797E+02  0.19552595225E+02  0.25650079159E+02  0.00000000000E+00 0.  1.
</event>
<event>
 7    1  0.1265344E-009  0.4778730E+02  0.7816164E-02  0.1312668E+00
        -11   -1    0    0    0    0  0.00000000000E+00  0.00000000000E+00  0.45593999997E+02  0.45594000000E+02  0.51100000000E-03 0. -1.
         11   -1    0    0    0    0 -0.00000000000E+00 -0.00000000000E+00 -0.45593999997E+02  0.45594000000E+02  0.51100000000E-03 0.  1.
    9900012    2    1    2    0    0 -0.18867103799E+01 -0.46481283625E+00 -0.43357184261E+02  0.47787295465E+02  0.20000111345E+02 0.  0.
         12    1    1    2    0    0  0.18867103799E+01  0.46481283625E+00  0.43357184261E+02  0.43400704535E+02  0.00000000000E+00 0. -1.
         11    1    3    3    0    0  0.23890229020E+01  0.23758459036E+01 -0.25817274351E+01  0.42446897406E+01  0.51100000000E-03 0. -1.
        -11    1    3    3    0    0 -0.61390068137E+01  0.28348276209E+01 -0.92603727989E+01  0.11466392499E+02  0.51100000000E-03 0.  1.
        -12    1    3    3    0    0  0.18632735318E+01 -0.56754863607E+01 -0.31515084027E+02  0.32076213226E+02  0.00000000000E+00 0.  1.
</event>
<event>
 7    1  0.1265344E-009  0.4778728E+02  0.7816164E-02  0.1312668E+00
        -11   -1    0    0    0    0  0.00000000000E+00  0.00000000000E+00  0.45593999997E+02  0.45594000000E+02  0.51100000000E-03 0.  1.
         11   -1    0    0    0    0 -0.00000000000E+00 -0.00000000000E+00 -0.45593999997E+02  0.45594000000E+02  0.51100000000E-03 0. -1.
    9900012    2    1    2    0    0 -0.21345912020E+02  0.22724505509E+02  0.30192244373E+02  0.47787277300E+02  0.20000028522E+02 0.  0.
         12    1    1    2    0    0  0.21345912020E+02 -0.22724505509E+02 -0.30192244373E+02  0.43400722700E+02  0.00000000000E+00 0. -1.
         11    1    3    3    0    0 -0.11481690021E+02  0.84416883384E+01  0.13451200932E+02  0.19596584256E+02  0.51100000000E-03 0.  1.
        -11    1    3    3    0    0 -0.49906861966E+01  0.17622301202E+01 -0.15319193486E+01  0.55099165929E+01  0.51100000000E-03 0. -1.
         12    1    3    3    0    0 -0.48735358029E+01  0.12520587050E+02  0.18272962790E+02  0.22680776451E+02  0.00000000000E+00 0. -1.
</event>
<event>
 7    1  0.1265344E-009  0.4778727E+02  0.7816164E-02  0.1312668E+00
        -11   -1    0    0    0    0  0.00000000000E+00  0.00000000000E+00  0.45593999997E+02  0.45594000000E+02  0.51100000000E-03 0. -1.
         11   -1    0    0    0    0 -0.00000000000E+00 -0.00000000000E+00 -0.45593999997E+02  0.45594000000E+02  0.51100000000E-03 0.  1.
    9900012    2    1    2    0    0  0.36494982195E+02 -0.18599829828E+02  0.14345237826E+02  0.47787271396E+02  0.20000001603E+02 0.  0.
         12    1    1    2    0    0 -0.36494982195E+02  0.18599829828E+02 -0.14345237826E+02  0.43400728604E+02  0.00000000000E+00 0. -1.
         11    1    3    3    0    0  0.15013504862E+02 -0.33333568261E+01  0.53424710203E+01  0.16280620161E+02  0.51100000000E-03 0. -1.
        -11    1    3    3    0    0  0.14883593510E+02 -0.55693098925E+01  0.11371475504E+02  0.19540957598E+02  0.51100000000E-03 0.  1.
         12    1    3    3    0    0  0.65978838238E+01 -0.96971631092E+01 -0.23687086982E+01  0.11965693637E+02  0.00000000000E+00 0. -1.
</event>
<event>
 7    1  0.1265344E-009  0.4778727E+02  0.7816164E-02  0.1312668E+00
        -11   -1    0    0    0    0  0.00000000000E+00  0.00000000000E+00  0.45593999997E+02  0.45594000000E+02  0.51100000000E-03 0.  1.
         11   -1    0    0    0    0 -0.00000000000E+00 -0.00000000000E+00 -0.45593999997E+02  0.45594000000E+02  0.51100000000E-03 0. -1.
    9900012    2    1    2    0    0  0.16749531807E+02  0.39331628641E+02  0.74899668457E+01  0.47787269238E+02  0.19999991765E+02 0.  0.
         12    1    1    2    0    0 -0.16749531807E+02 -0.39331628641E+02 -0.74899668457E+01  0.43400730762E+02  0.00000000000E+00 0. -1.
         11    1    3    3    0    0  0.18116911730E+02  0.23840336428E+02  0.45390707309E+00  0.29946454941E+02  0.51100000000E-03 0. -1.
        -11    1    3    3    0    0 -0.14096093613E+01  0.67187244186E+01  0.46630093948E+00  0.68808206772E+01  0.51100000000E-03 0.  1.
         12    1    3    3    0    0  0.42229438428E-01  0.87725677937E+01  0.65697588331E+01  0.10959993620E+02  0.00000000000E+00 0. -1.
</event>
<event>
 7    1  0.1265344E-009  0.4778728E+02  0.7816164E-02  0.1312668E+00
        -11   -1    0    0    0    0  0.00000000000E+00  0.00000000000E+00  0.45593999997E+02  0.45594000000E+02  0.51100000000E-03 0.  1.
         11   -1    0    0    0    0 -0.00000000000E+00 -0.00000000000E+00 -0.45593999997E+02  0.45594000000E+02  0.51100000000E-03 0. -1.
    9900012    2    1    2    0    0 -0.56525565013E+01 -0.11051214454E+01  0.43016858831E+02  0.47787276134E+02  0.20000023207E+02 0.  0.
         12    1    1    2    0    0  0.56525565013E+01  0.11051214454E+01 -0.43016858831E+02  0.43400723866E+02  0.00000000000E+00 0. -1.
         11    1    3    3    0    0 -0.36682503885E+01 -0.48004082031E+01  0.22232391669E+02  0.23038646215E+02  0.51100000000E-03 0.  1.
        -11    1    3    3    0    0 -0.52663504367E+01  0.59479340563E+00  0.24000868520E+01  0.58179586864E+01  0.51100000000E-03 0. -1.
         12    1    3    3    0    0  0.32820443239E+01  0.31004933521E+01  0.18384380310E+02  0.18930671233E+02  0.00000000000E+00 0. -1.
</event>
<event>
 7    1  0.1526940E-009  0.4778727E+02  0.7816164E-02  0.1312668E+00
        -11   -1    0    0    0    0  0.00000000000E+00  0.00000000000E+00  0.45593999997E+02  0.45594000000E+02  0.51100000000E-03 0. -1.
         11   -1    0    0    0    0 -0.00000000000E+00 -0.00000000000E+00 -0.45593999997E+02  0.45594000000E+02  0.51100000000E-03 0.  1.
    9900012    2    1    2    0    0  0.17776528159E+02 -0.14575647924E+02 -0.36812613613E+02  0.47787274351E+02  0.20000015077E+02 0.  0.
         12    1    1    2    0    0 -0.17776528159E+02  0.14575647924E+02  0.36812613613E+02  0.43400725649E+02  0.00000000000E+00 0. -1.
         11    1    3    3    0    0  0.91696732933E+01 -0.92873911567E+01 -0.90936294514E+01  0.15906999707E+02  0.51100000000E-03 0. -1.
        -11    1    3    3    0    0  0.74837137115E+01 -0.83737350851E+01 -0.25645814561E+02  0.27997021537E+02  0.51100000000E-03 0.  1.
         12    1    3    3    0    0  0.11231411545E+01  0.30854783181E+01 -0.20731696010E+01  0.38832531078E+01  0.00000000000E+00 0. -1.
</event>
<event>
 7    1  0.1265344E-009  0.4778727E+02  0.7816164E-02  0.1312668E+00
        -11   -1    0    0    0    0  0.00000000000E+00  0.00000000000E+00  0.45593999997E+02  0.45594000000E+02  0.51100000000E-03 0. -1.
         11   -1    0    0    0    0 -0.00000000000E+00 -0.00000000000E+00 -0.45593999997E+02  0.45594000000E+02  0.51100000000E-03 0.  1.
    9900012    2    1    2    0    0  0.20844964821E+02  0.22500000947E+02 -0.30706032053E+02  0.47787274137E+02  0.20000014100E+02 0.  0.
         12    1    1    2    0    0 -0.20844964821E+02 -0.22500000947E+02  0.30706032053E+02  0.43400725863E+02  0.00000000000E+00 0. -1.
         11    1    3    3    0    0 -0.22404574618E+01  0.83469215992E+01 -0.53990653537E+01  0.10190223588E+02  0.51100000000E-03 0. -1.
        -11    1    3    3    0    0  0.67685175992E+01  0.10914023622E+01 -0.72229359782E+01  0.99586542270E+01  0.51100000000E-03 0.  1.
        -12    1    3    3    0    0  0.16316904684E+02  0.13061676986E+02 -0.18084030721E+02  0.27638396322E+02  0.00000000000E+00 0.  1.
</event>
<event>
 7    1  0.1265344E-009  0.4778727E+02  0.7816164E-02  0.1312668E+00
        -11   -1    0    0    0    0  0.00000000000E+00  0.00000000000E+00  0.45593999997E+02  0.45594000000E+02  0.51100000000E-03 0.  1.
         11   -1    0    0    0    0 -0.00000000000E+00 -0.00000000000E+00 -0.45593999997E+02  0.45594000000E+02  0.51100000000E-03 0. -1.
    9900012    2    1    2    0    0  0.42452897197E+02  0.17590723251E+01  0.88476285932E+01  0.47787270195E+02  0.19999996127E+02 0.  0.
         12    1    1    2    0    0 -0.42452897197E+02 -0.17590723251E+01 -0.88476285932E+01  0.43400729805E+02  0.00000000000E+00 0. -1.
         11    1    3    3    0    0 -0.14843867988E+01 -0.21561054289E+00  0.15734893074E+01  0.21738815368E+01  0.51100000000E-03 0. -1.
        -11    1    3    3    0    0  0.20578005158E+02  0.58793678211E+00  0.82853448646E+01  0.22191144760E+02  0.51100000000E-03 0.  1.
        -12    1    3    3    0    0  0.23359278838E+02  0.13867460859E+01 -0.10112055788E+01  0.23422243898E+02  0.00000000000E+00 0.  1.
</event>
<event>
 7    1  0.1265344E-009  0.4778727E+02  0.7816164E-02  0.1312668E+00
        -11   -1    0    0    0    0  0.00000000000E+00  0.00000000000E+00  0.45593999997E+02  0.45594000000E+02  0.51100000000E-03 0. -1.
         11   -1    0    0    0    0 -0.00000000000E+00 -0.00000000000E+00 -0.45593999997E+02  0.45594000000E+02  0.51100000000E-03 0.  1.
    9900012    2    1    2    0    0 -0.11320323227E+02  0.41046651177E+02 -0.84051139810E+01  0.47787271528E+02  0.20000002206E+02 0.  0.
         12    1    1    2    0    0  0.11320323227E+02 -0.41046651177E+02  0.84051139810E+01  0.43400728472E+02  0.00000000000E+00 0. -1.
         11    1    3    3    0    0 -0.55365325852E+01  0.87239447696E+01 -0.58610236149E+01  0.11879057348E+02  0.51100000000E-03 0. -1.
        -11    1    3    3    0    0  0.46640694057E+01  0.83765758275E+01  0.52817962634E+00  0.96020591538E+01  0.51100000000E-03 0.  1.
         12    1    3    3    0    0 -0.10447860048E+02  0.23946130580E+02 -0.30722699925E+01  0.26306155026E+02  0.00000000000E+00 0. -1.
</event>
<event>
 7    1  0.1265344E-009  0.4778727E+02  0.7816164E-02  0.1312668E+00
        -11   -1    0    0    0    0  0.00000000000E+00  0.00000000000E+00  0.45593999997E+02  0.45594000000E+02  0.51100000000E-03 0.  1.
         11   -1    0    0    0    0 -0.00000000000E+00 -0.00000000000E+00 -0.45593999997E+02  0.45594000000E+02  0.51100000000E-03 0. -1.
    9900012    2    1    2    0    0 -0.10994892524E+02 -0.33325637496E+02  0.25536990582E+02  0.47787266548E+02  0.19999979501E+02 0.  0.
         12    1    1    2    0    0  0.10994892524E+02  0.33325637496E+02 -0.25536990582E+02  0.43400733452E+02  0.00000000000E+00 0. -1.
         11    1    3    3    0    0 -0.75367831102E+01 -0.20543882103E+02  0.14720397719E+02  0.26373173885E+02  0.51100000000E-03 0. -1.
        -11    1    3    3    0    0 -0.71607035339E+01 -0.25638787743E+01  0.47556737154E+01  0.89702609895E+01  0.51100000000E-03 0.  1.
        -12    1    3    3    0    0  0.37025941199E+01 -0.10217876619E+02  0.60609191480E+01  0.12443831674E+02  0.00000000000E+00 0.  1.
</event>
<event>
 7    1  0.1265344E-009  0.4778727E+02  0.7816164E-02  0.1312668E+00
        -11   -1    0    0    0    0  0.00000000000E+00  0.00000000000E+00  0.45593999997E+02  0.45594000000E+02  0.51100000000E-03 0. -1.
         11   -1    0    0    0    0 -0.00000000000E+00 -0.00000000000E+00 -0.45593999997E+02  0.45594000000E+02  0.51100000000E-03 0.  1.
    9900012    2    1    2    0    0  0.52134799811E+00  0.15599234959E+02 -0.40497099340E+02  0.47787274315E+02  0.20000014911E+02 0.  0.
         12    1    1    2    0    0 -0.52134799811E+00 -0.15599234959E+02  0.40497099340E+02  0.43400725685E+02  0.00000000000E+00 0. -1.
         11    1    3    3    0    0 -0.49468933524E+01  0.48869572674E+01 -0.14791117009E+02  0.16344150263E+02  0.51100000000E-03 0. -1.
        -11    1    3    3    0    0  0.40974633126E+01  0.43653555247E+01 -0.12191306419E+01  0.61099766152E+01  0.51100000000E-03 0.  1.
        -12    1    3    3    0    0  0.13707780379E+01  0.63469221667E+01 -0.24486851689E+02  0.25333147437E+02  0.00000000000E+00 0.  1.
</event>
<event>
 7    1  0.1265344E-009  0.4778728E+02  0.7816164E-02  0.1312668E+00
        -11   -1    0    0    0    0  0.00000000000E+00  0.00000000000E+00  0.45593999997E+02  0.45594000000E+02  0.51100000000E-03 0.  1.
         11   -1    0    0    0    0 -0.00000000000E+00 -0.00000000000E+00 -0.45593999997E+02  0.45594000000E+02  0.51100000000E-03 0. -1.
    9900012    2    1    2    0    0  0.15584313833E+02  0.68507773292E+00  0.40500398046E+02  0.47787280984E+02  0.20000045320E+02 0.  0.
         12    1    1    2    0    0 -0.15584313833E+02 -0.68507773292E+00 -0.40500398046E+02  0.43400719016E+02  0.00000000000E+00 0. -1.
         11    1    3    3    0    0  0.42671818527E+01 -0.10828624927E+01  0.64688549791E+00  0.44497070972E+01  0.51100000000E-03 0. -1.
        -11    1    3    3    0    0  0.15597275888E+01  0.60758986327E+01  0.12711717586E+02  0.14175226932E+02  0.51100000000E-03 0.  1.
        -12    1    3    3    0    0  0.97574043919E+01 -0.43079584071E+01  0.27141794963E+02  0.29162346955E+02  0.00000000000E+00 0.  1.
</event>
<event>
 7    1  0.1265344E-009  0.4778727E+02  0.7816164E-02  0.1312668E+00
        -11   -1    0    0    0    0  0.00000000000E+00  0.00000000000E+00  0.45593999997E+02  0.45594000000E+02  0.51100000000E-03 0.  1.
         11   -1    0    0    0    0 -0.00000000000E+00 -0.00000000000E+00 -0.45593999997E+02  0.45594000000E+02  0.51100000000E-03 0. -1.
    9900012    2    1    2    0    0 -0.23564020523E+02  0.61042128574E+01  0.35931861469E+02  0.47787272513E+02  0.20000006696E+02 0.  0.
         12    1    1    2    0    0  0.23564020523E+02 -0.61042128574E+01 -0.35931861469E+02  0.43400727487E+02  0.00000000000E+00 0. -1.
         11    1    3    3    0    0 -0.11285320351E+02  0.11400009924E+02  0.14163961465E+02  0.21399450608E+02  0.51100000000E-03 0. -1.
        -11    1    3    3    0    0 -0.52802302259E+01 -0.22203983130E+01  0.15426219863E+02  0.16455371750E+02  0.51100000000E-03 0.  1.
        -12    1    3    3    0    0 -0.69984699456E+01 -0.30753987533E+01  0.63416801406E+01  0.99324501548E+01  0.00000000000E+00 0.  1.
</event>
<event>
 7    1  0.1265344E-009  0.4778727E+02  0.7816164E-02  0.1312668E+00
        -11   -1    0    0    0    0  0.00000000000E+00  0.00000000000E+00  0.45593999997E+02  0.45594000000E+02  0.51100000000E-03 0.  1.
         11   -1    0    0    0    0 -0.00000000000E+00 -0.00000000000E+00 -0.45593999997E+02  0.45594000000E+02  0.51100000000E-03 0. -1.
    9900012    2    1    2    0    0 -0.25503628769E+02  0.24245168294E+02  0.25403931226E+02  0.47787274340E+02  0.20000015027E+02 0.  0.
         12    1    1    2    0    0  0.25503628769E+02 -0.24245168294E+02 -0.25403931226E+02  0.43400725660E+02  0.00000000000E+00 0. -1.
         11    1    3    3    0    0 -0.19747427634E+01 -0.22449575559E+01  0.48363661719E+01  0.56859371627E+01  0.51100000000E-03 0. -1.
        -11    1    3    3    0    0 -0.56871489919E+01  0.11113975840E+02  0.11137641520E+02  0.16730546361E+02  0.51100000000E-03 0.  1.
        -12    1    3    3    0    0 -0.17841737014E+02  0.15376150010E+02  0.94299235342E+01  0.25370790817E+02  0.00000000000E+00 0.  1.
</event>
<event>
 7    1  0.1265344E-009  0.4778727E+02  0.7816164E-02  0.1312668E+00
        -11   -1    0    0    0    0  0.00000000000E+00  0.00000000000E+00  0.45593999997E+02  0.45594000000E+02  0.51100000000E-03 0.  1.
         11   -1    0    0    0    0 -0.00000000000E+00 -0.00000000000E+00 -0.45593999997E+02  0.45594000000E+02  0.51100000000E-03 0. -1.
    9900012    2    1    2    0    0 -0.38453528457E+01 -0.10064964462E+02  0.42042038111E+02  0.47787271704E+02  0.20000003005E+02 0.  0.
         12    1    1    2    0    0  0.38453528457E+01  0.10064964462E+02 -0.42042038111E+02  0.43400728296E+02  0.00000000000E+00 0. -1.
         11    1    3    3    0    0 -0.41749746312E+01 -0.83023518708E+01  0.94476016041E+01  0.13252042714E+02  0.51100000000E-03 0. -1.
        -11    1    3    3    0    0 -0.17591183399E+01 -0.53635733196E+01  0.26873946541E+02  0.27460360869E+02  0.51100000000E-03 0.  1.
        -12    1    3    3    0    0  0.20887401254E+01  0.36009607285E+01  0.57204899659E+01  0.70748681210E+01  0.00000000000E+00 0.  1.
</event>
<event>
 7    1  0.1265344E-009  0.4778727E+02  0.7816164E-02  0.1312668E+00
        -11   -1    0    0    0    0  0.00000000000E+00  0.00000000000E+00  0.45593999997E+02  0.45594000000E+02  0.51100000000E-03 0. -1.
         11   -1    0    0    0    0 -0.00000000000E+00 -0.00000000000E+00 -0.45593999997E+02  0.45594000000E+02  0.51100000000E-03 0.  1.
    9900012    2    1    2    0    0 -0.47322387044E+01 -0.42205586720E+02 -0.89396681429E+01  0.47787270743E+02  0.19999998627E+02 0.  0.
         12    1    1    2    0    0  0.47322387044E+01  0.42205586720E+02  0.89396681429E+01  0.43400729257E+02  0.00000000000E+00 0. -1.
         11    1    3    3    0    0  0.24263800695E+01 -0.76145219445E+00  0.22046583950E+00  0.25525938051E+01  0.51100000000E-03 0. -1.
        -11    1    3    3    0    0 -0.47408604750E+01 -0.33188844522E+01 -0.30681957732E+01  0.65501585946E+01  0.51100000000E-03 0.  1.
        -12    1    3    3    0    0 -0.24177582989E+01 -0.38125250073E+02 -0.60919382092E+01  0.38684518344E+02  0.00000000000E+00 0.  1.
</event>
<event>
 7    1  0.1265344E-009  0.4778727E+02  0.7816164E-02  0.1312668E+00
        -11   -1    0    0    0    0  0.00000000000E+00  0.00000000000E+00  0.45593999997E+02  0.45594000000E+02  0.51100000000E-03 0.  1.
         11   -1    0    0    0    0 -0.00000000000E+00 -0.00000000000E+00 -0.45593999997E+02  0.45594000000E+02  0.51100000000E-03 0. -1.
    9900012    2    1    2    0    0 -0.22994859503E+02  0.34122407476E+02 -0.13802941351E+02  0.47787269068E+02  0.19999990987E+02 0.  0.
         12    1    1    2    0    0  0.22994859503E+02 -0.34122407476E+02  0.13802941351E+02  0.43400730932E+02  0.00000000000E+00 0. -1.
         11    1    3    3    0    0 -0.29458438411E+00 -0.81135242409E+00 -0.25148473415E+01  0.26588588018E+01  0.51100000000E-03 0.  1.
        -11    1    3    3    0    0 -0.47466919567E+01  0.18157449642E+02 -0.20578678053E+01  0.18880118702E+02  0.51100000000E-03 0. -1.
        -12    1    3    3    0    0 -0.17953583162E+02  0.16776310258E+02 -0.92302262045E+01  0.26248291564E+02  0.00000000000E+00 0.  1.
</event>
<event>
 7    1  0.1265344E-009  0.4778727E+02  0.7816164E-02  0.1312668E+00
        -11   -1    0    0    0    0  0.00000000000E+00  0.00000000000E+00  0.45593999997E+02  0.45594000000E+02  0.51100000000E-03 0.  1.
         11   -1    0    0    0    0 -0.00000000000E+00 -0.00000000000E+00 -0.45593999997E+02  0.45594000000E+02  0.51100000000E-03 0. -1.
    9900012    2    1    2    0    0 -0.39542294658E+02 -0.17480906962E+02 -0.38010686741E+01  0.47787270765E+02  0.19999998725E+02 0.  0.
         12    1    1    2    0    0  0.39542294658E+02  0.17480906962E+02  0.38010686741E+01  0.43400729235E+02  0.00000000000E+00 0. -1.
         11    1    3    3    0    0  0.72869744973E-01 -0.10178474708E+01 -0.29321313252E+01  0.31046284549E+01  0.51100000000E-03 0. -1.
        -11    1    3    3    0    0 -0.64915732346E+00  0.74639181385E+00  0.17444834724E+01  0.20054248470E+01  0.51100000000E-03 0.  1.
        -12    1    3    3    0    0 -0.38966007080E+02 -0.17209451305E+02 -0.26134208213E+01  0.42677217463E+02  0.00000000000E+00 0.  1.
</event>
<event>
 7    1  0.1265344E-009  0.4778727E+02  0.7816164E-02  0.1312668E+00
        -11   -1    0    0    0    0  0.00000000000E+00  0.00000000000E+00  0.45593999997E+02  0.45594000000E+02  0.51100000000E-03 0.  1.
         11   -1    0    0    0    0 -0.00000000000E+00 -0.00000000000E+00 -0.45593999997E+02  0.45594000000E+02  0.51100000000E-03 0. -1.
    9900012    2    1    2    0    0 -0.11889406996E+02  0.26910964457E+01  0.41653611644E+02  0.47787270031E+02  0.19999995381E+02 0.  0.
         12    1    1    2    0    0  0.11889406996E+02 -0.26910964457E+01 -0.41653611644E+02  0.43400729969E+02  0.00000000000E+00 0. -1.
         11    1    3    3    0    0  0.12558098763E+01 -0.19722002394E+01  0.77979247042E+00  0.24646924327E+01  0.51100000000E-03 0. -1.
        -11    1    3    3    0    0 -0.68472632189E+01  0.29528796530E+01  0.52836223350E+01  0.91389921257E+01  0.51100000000E-03 0.  1.
         12    1    3    3    0    0 -0.62979536531E+01  0.17104170321E+01  0.35590196839E+02  0.36183585473E+02  0.00000000000E+00 0. -1.
</event>
<event>
 7    1  0.1265344E-009  0.4778727E+02  0.7816164E-02  0.1312668E+00
        -11   -1    0    0    0    0  0.00000000000E+00  0.00000000000E+00  0.45593999997E+02  0.45594000000E+02  0.51100000000E-03 0.  1.
         11   -1    0    0    0    0 -0.00000000000E+00 -0.00000000000E+00 -0.45593999997E+02  0.45594000000E+02  0.51100000000E-03 0. -1.
    9900012    2    1    2    0    0  0.41272760789E+02 -0.10164137877E+02  0.87677132399E+01  0.47787271004E+02  0.19999999817E+02 0.  0.
         12    1    1    2    0    0 -0.41272760789E+02  0.10164137877E+02 -0.87677132399E+01  0.43400728996E+02  0.00000000000E+00 0. -1.
         11    1    3    3    0    0  0.61389392510E+01 -0.38629556114E+01  0.42745001329E+01  0.84190470262E+01  0.51100000000E-03 0. -1.
        -11    1    3    3    0    0  0.19718464314E+02  0.30257993231E+01 -0.23665832972E+01  0.20089151630E+02  0.51100000000E-03 0.  1.
        -12    1    3    3    0    0  0.15415357224E+02 -0.93269815889E+01  0.68597964043E+01  0.19279072348E+02  0.00000000000E+00 0.  1.
</event>
<event>
 7    1  0.1265344E-009  0.4778727E+02  0.7816164E-02  0.1312668E+00
        -11   -1    0    0    0    0  0.00000000000E+00  0.00000000000E+00  0.45593999997E+02  0.45594000000E+02  0.51100000000E-03 0.  1.
         11   -1    0    0    0    0 -0.00000000000E+00 -0.00000000000E+00 -0.45593999997E+02  0.45594000000E+02  0.51100000000E-03 0. -1.
    9900012    2    1    2    0    0 -0.24718560183E+02 -0.28126970721E+02  0.21942873620E+02  0.47787269566E+02  0.19999993259E+02 0.  0.
         12    1    1    2    0    0  0.24718560183E+02  0.28126970721E+02 -0.21942873620E+02  0.43400730434E+02  0.00000000000E+00 0. -1.
         11    1    3    3    0    0 -0.10578822590E+02 -0.56483449554E+01  0.74777434292E+01  0.14132654923E+02  0.51100000000E-03 0. -1.
        -11    1    3    3    0    0 -0.63211349502E+01 -0.21060131429E+02  0.13091599685E+02  0.25590542499E+02  0.51100000000E-03 0.  1.
        -12    1    3    3    0    0 -0.78186026431E+01 -0.14184943374E+01  0.13735305061E+01  0.80640721430E+01  0.00000000000E+00 0.  1.
</event>
<event>
 7    1  0.1265344E-009  0.4778726E+02  0.7816164E-02  0.1312668E+00
        -11   -1    0    0    0    0  0.00000000000E+00  0.00000000000E+00  0.45593999997E+02  0.45594000000E+02  0.51100000000E-03 0.  1.
         11   -1    0    0    0    0 -0.00000000000E+00 -0.00000000000E+00 -0.45593999997E+02  0.45594000000E+02  0.51100000000E-03 0. -1.
    9900012    2    1    2    0    0 -0.27020590426E+01  0.27770609305E+02  0.33243286487E+02  0.47787263132E+02  0.19999963923E+02 0.  0.
         12    1    1    2    0    0  0.27020590426E+01 -0.27770609305E+02 -0.33243286487E+02  0.43400736868E+02  0.00000000000E+00 0. -1.
         11    1    3    3    0    0  0.56142586668E+01  0.61475910738E+01  0.90322884647E+01  0.12283933066E+02  0.51100000000E-03 0. -1.
        -11    1    3    3    0    0  0.12909071172E+01  0.11960763002E+02  0.14107693067E+02  0.18540585123E+02  0.51100000000E-03 0.  1.
        -12    1    3    3    0    0 -0.96072248266E+01  0.96622552297E+01  0.10103304955E+02  0.16962744943E+02  0.00000000000E+00 0.  1.
</event>
<event>
 7    1  0.1265344E-009  0.4778727E+02  0.7816164E-02  0.1312668E+00
        -11   -1    0    0    0    0  0.00000000000E+00  0.00000000000E+00  0.45593999997E+02  0.45594000000E+02  0.51100000000E-03 0. -1.
         11   -1    0    0    0    0 -0.00000000000E+00 -0.00000000000E+00 -0.45593999997E+02  0.45594000000E+02  0.51100000000E-03 0.  1.
    9900012    2    1    2    0    0  0.32270738752E+02  0.85778951092E+01 -0.27724396588E+02  0.47787273851E+02  0.20000012796E+02 0.  0.
         12    1    1    2    0    0 -0.32270738752E+02 -0.85778951092E+01  0.27724396588E+02  0.43400726149E+02  0.00000000000E+00 0. -1.
         11    1    3    3    0    0  0.25304056547E+01  0.84769136218E+00  0.10589151332E+01  0.28710337761E+01  0.51100000000E-03 0. -1.
        -11    1    3    3    0    0  0.31091745324E+02  0.60933032408E+01 -0.28765564595E+02  0.42793488739E+02  0.51100000000E-03 0.  1.
        -12    1    3    3    0    0 -0.13514122267E+01  0.16369005062E+01 -0.17747125520E-01  0.21227513359E+01  0.00000000000E+00 0.  1.
</event>
<event>
 7    1  0.1265344E-009  0.4778727E+02  0.7816164E-02  0.1312668E+00
        -11   -1    0    0    0    0  0.00000000000E+00  0.00000000000E+00  0.45593999997E+02  0.45594000000E+02  0.51100000000E-03 0.  1.
         11   -1    0    0    0    0 -0.00000000000E+00 -0.00000000000E+00 -0.45593999997E+02  0.45594000000E+02  0.51100000000E-03 0. -1.
    9900012    2    1    2    0    0 -0.21656616169E+02 -0.12488539562E+01  0.37590617124E+02  0.47787272404E+02  0.20000006200E+02 0.  0.
         12    1    1    2    0    0  0.21656616169E+02  0.12488539562E+01 -0.37590617124E+02  0.43400727596E+02  0.00000000000E+00 0. -1.
         11    1    3    3    0    0 -0.43200004187E+01 -0.42677450762E+01  0.21039872947E+01  0.64267265735E+01  0.51100000000E-03 0. -1.
        -11    1    3    3    0    0 -0.83908151281E+01  0.21829728872E+00  0.28385713437E+02  0.29600712150E+02  0.51100000000E-03 0.  1.
         12    1    3    3    0    0 -0.89458006223E+01  0.28005938313E+01  0.71009163921E+01  0.11759833680E+02  0.00000000000E+00 0. -1.
</event>
<event>
 7    1  0.1265344E-009  0.4778727E+02  0.7816164E-02  0.1312668E+00
        -11   -1    0    0    0    0  0.00000000000E+00  0.00000000000E+00  0.45593999997E+02  0.45594000000E+02  0.51100000000E-03 0. -1.
         11   -1    0    0    0    0 -0.00000000000E+00 -0.00000000000E+00 -0.45593999997E+02  0.45594000000E+02  0.51100000000E-03 0.  1.
    9900012    2    1    2    0    0  0.18850589781E+02 -0.39043747957E+02  0.19658289864E+01  0.47787268748E+02  0.19999989528E+02 0.  0.
         12    1    1    2    0    0 -0.18850589781E+02  0.39043747957E+02 -0.19658289864E+01  0.43400731252E+02  0.00000000000E+00 0. -1.
         11    1    3    3    0    0  0.23253914498E+01 -0.75152534419E+01 -0.33001898788E+01  0.85309866480E+01  0.51100000000E-03 0. -1.
        -11    1    3    3    0    0  0.59761938245E+01 -0.19737258989E+02  0.97513046411E+01  0.22811449482E+02  0.51100000000E-03 0.  1.
        -12    1    3    3    0    0  0.10549004507E+02 -0.11791235526E+02 -0.44852857759E+01  0.16444832617E+02  0.00000000000E+00 0.  1.
</event>
<event>
 7    1  0.1881594E-009  0.4778728E+02  0.7816164E-02  0.1312668E+00
        -11   -1    0    0    0    0  0.00000000000E+00  0.00000000000E+00  0.45593999997E+02  0.45594000000E+02  0.51100000000E-03 0. -1.
         11   -1    0    0    0    0 -0.00000000000E+00 -0.00000000000E+00 -0.45593999997E+02  0.45594000000E+02  0.51100000000E-03 0.  1.
    9900012    2    1    2    0    0  0.28051413760E+02 -0.30058276127E+02 -0.13901094189E+02  0.47787283447E+02  0.20000056549E+02 0.  0.
         12    1    1    2    0    0 -0.28051413760E+02  0.30058276127E+02  0.13901094189E+02  0.43400716553E+02  0.00000000000E+00 0. -1.
         11    1    3    3    0    0  0.35260255745E+01 -0.36539671199E+01 -0.74776653488E+01  0.90387947977E+01  0.51100000000E-03 0. -1.
        -11    1    3    3    0    0  0.20559049408E+02 -0.13610346211E+02 -0.58557961747E+01  0.25341791287E+02  0.51100000000E-03 0.  1.
        -12    1    3    3    0    0  0.39663387773E+01 -0.12793962796E+02 -0.56763266531E+00  0.13406697362E+02  0.00000000000E+00 0.  1.
</event>
<event>
 7    1  0.1265344E-009  0.4778727E+02  0.7816164E-02  0.1312668E+00
        -11   -1    0    0    0    0  0.00000000000E+00  0.00000000000E+00  0.45593999997E+02  0.45594000000E+02  0.51100000000E-03 0.  1.
         11   -1    0    0    0    0 -0.00000000000E+00 -0.00000000000E+00 -0.45593999997E+02  0.45594000000E+02  0.51100000000E-03 0. -1.
    9900012    2    1    2    0    0  0.31251007066E+02 -0.25457396322E+02  0.16090950190E+02  0.47787272492E+02  0.20000006601E+02 0.  0.
         12    1    1    2    0    0 -0.31251007066E+02  0.25457396322E+02 -0.16090950190E+02  0.43400727508E+02  0.00000000000E+00 0. -1.
         11    1    3    3    0    0  0.26304761209E+00 -0.14642415499E+01  0.35399759357E+01  0.38398733377E+01  0.51100000000E-03 0. -1.
        -11    1    3    3    0    0  0.24879331832E+02 -0.12517332071E+02  0.34181720811E+01  0.28059733698E+02  0.51100000000E-03 0.  1.
        -12    1    3    3    0    0  0.61086276223E+01 -0.11475822702E+02  0.91328021736E+01  0.15887665456E+02  0.00000000000E+00 0.  1.
</event>
<event>
 7    1  0.1265344E-009  0.4778727E+02  0.7816164E-02  0.1312668E+00
        -11   -1    0    0    0    0  0.00000000000E+00  0.00000000000E+00  0.45593999997E+02  0.45594000000E+02  0.51100000000E-03 0.  1.
         11   -1    0    0    0    0 -0.00000000000E+00 -0.00000000000E+00 -0.45593999997E+02  0.45594000000E+02  0.51100000000E-03 0. -1.
    9900012    2    1    2    0    0  0.16200010460E+02  0.35387577967E+02  0.19206829225E+02  0.47787270718E+02  0.19999998513E+02 0.  0.
         12    1    1    2    0    0 -0.16200010460E+02 -0.35387577967E+02 -0.19206829225E+02  0.43400729282E+02  0.00000000000E+00 0. -1.
         11    1    3    3    0    0  0.72590078312E+01  0.79340267043E+01 -0.10864457650E+01  0.10808438328E+02  0.51100000000E-03 0. -1.
        -11    1    3    3    0    0  0.40520187138E+01  0.13793522305E+01  0.39213045047E+01  0.58050062456E+01  0.51100000000E-03 0.  1.
         12    1    3    3    0    0  0.48889839155E+01  0.26074199032E+02  0.16371970485E+02  0.31173826144E+02  0.00000000000E+00 0. -1.
</event>
<event>
 7    1  0.1265344E-009  0.4778727E+02  0.7816164E-02  0.1312668E+00
        -11   -1    0    0    0    0  0.00000000000E+00  0.00000000000E+00  0.45593999997E+02  0.45594000000E+02  0.51100000000E-03 0.  1.
         11   -1    0    0    0    0 -0.00000000000E+00 -0.00000000000E+00 -0.45593999997E+02  0.45594000000E+02  0.51100000000E-03 0. -1.
    9900012    2    1    2    0    0  0.27083492382E+02  0.41067052020E+01  0.33663668979E+02  0.47787271938E+02  0.20000004072E+02 0.  0.
         12    1    1    2    0    0 -0.27083492382E+02 -0.41067052020E+01 -0.33663668979E+02  0.43400728062E+02  0.00000000000E+00 0. -1.
         11    1    3    3    0    0  0.92888627669E+01  0.25196527346E+01  0.58584272228E+01  0.11267332923E+02  0.51100000000E-03 0. -1.
        -11    1    3    3    0    0  0.12034400845E+02 -0.46093593530E+00  0.27918636462E+02  0.30405419382E+02  0.51100000000E-03 0.  1.
        -12    1    3    3    0    0  0.57602287699E+01  0.20479884027E+01 -0.11339470593E+00  0.61145196327E+01  0.00000000000E+00 0.  1.
</event>
<event>
 7    1  0.1265344E-009  0.4778727E+02  0.7816164E-02  0.1312668E+00
        -11   -1    0    0    0    0  0.00000000000E+00  0.00000000000E+00  0.45593999997E+02  0.45594000000E+02  0.51100000000E-03 0. -1.
         11   -1    0    0    0    0 -0.00000000000E+00 -0.00000000000E+00 -0.45593999997E+02  0.45594000000E+02  0.51100000000E-03 0.  1.
    9900012    2    1    2    0    0  0.27582476031E+02 -0.21017697036E+02 -0.26097640748E+02  0.47787269300E+02  0.19999992048E+02 0.  0.
         12    1    1    2    0    0 -0.27582476031E+02  0.21017697036E+02  0.26097640748E+02  0.43400730700E+02  0.00000000000E+00 0. -1.
         11    1    3    3    0    0  0.86609425585E+01  0.30940993428E+00 -0.18381175890E+01  0.88592514944E+01  0.51100000000E-03 0. -1.
        -11    1    3    3    0    0  0.11617217887E+02 -0.13738212608E+02 -0.83188294539E+01  0.19821734557E+02  0.51100000000E-03 0.  1.
        -12    1    3    3    0    0  0.73043155851E+01 -0.75888943620E+01 -0.15940693705E+02  0.19106283249E+02  0.00000000000E+00 0.  1.
</event>
<event>
 7    1  0.1265344E-009  0.4778727E+02  0.7816164E-02  0.1312668E+00
        -11   -1    0    0    0    0  0.00000000000E+00  0.00000000000E+00  0.45593999997E+02  0.45594000000E+02  0.51100000000E-03 0. -1.
         11   -1    0    0    0    0 -0.00000000000E+00 -0.00000000000E+00 -0.45593999997E+02  0.45594000000E+02  0.51100000000E-03 0.  1.
    9900012    2    1    2    0    0  0.38167208586E+01  0.32625060053E+02 -0.28366548035E+02  0.47787274787E+02  0.20000017065E+02 0.  0.
         12    1    1    2    0    0 -0.38167208586E+01 -0.32625060053E+02  0.28366548035E+02  0.43400725213E+02  0.00000000000E+00 0. -1.
         11    1    3    3    0    0 -0.55528476449E+01  0.69757720368E+01 -0.99926179862E+01  0.13392084489E+02  0.51100000000E-03 0. -1.
        -11    1    3    3    0    0  0.53964940674E+01  0.41822561315E+01 -0.70008476924E+01  0.97788180903E+01  0.51100000000E-03 0.  1.
         12    1    3    3    0    0  0.39730744361E+01  0.21467031884E+02 -0.11373082357E+02  0.24616372208E+02  0.00000000000E+00 0. -1.
</event>
<event>
 7    1  0.1265344E-009  0.4778726E+02  0.7816164E-02  0.1312668E+00
        -11   -1    0    0    0    0  0.00000000000E+00  0.00000000000E+00  0.45593999997E+02  0.45594000000E+02  0.51100000000E-03 0.  1.
         11   -1    0    0    0    0 -0.00000000000E+00 -0.00000000000E+00 -0.45593999997E+02  0.45594000000E+02  0.51100000000E-03 0. -1.
    9900012    2    1    2    0    0 -0.30201494785E+02  0.31066852739E+02 -0.25187707671E+01  0.47787264608E+02  0.19999970654E+02 0.  0.
         12    1    1    2    0    0  0.30201494785E+02 -0.31066852739E+02  0.25187707671E+01  0.43400735392E+02  0.00000000000E+00 0. -1.
         11    1    3    3    0    0 -0.28421668841E+01  0.11482544458E+01 -0.55257205971E+01  0.63190180604E+01  0.51100000000E-03 0. -1.
        -11    1    3    3    0    0 -0.16708643600E+02  0.17821081310E+02 -0.22060657164E+01  0.24528278297E+02  0.51100000000E-03 0.  1.
        -12    1    3    3    0    0 -0.10650684301E+02  0.12097516983E+02  0.52130155463E+01  0.16939968250E+02  0.00000000000E+00 0.  1.
</event>
<event>
 7    1  0.1265344E-009  0.4778727E+02  0.7816164E-02  0.1312668E+00
        -11   -1    0    0    0    0  0.00000000000E+00  0.00000000000E+00  0.45593999997E+02  0.45594000000E+02  0.51100000000E-03 0. -1.
         11   -1    0    0    0    0 -0.00000000000E+00 -0.00000000000E+00 -0.45593999997E+02  0.45594000000E+02  0.51100000000E-03 0.  1.
    9900012    2    1    2    0    0  0.28880202226E+01 -0.42753407116E+02  0.68868737273E+01  0.47787268318E+02  0.19999987569E+02 0.  0.
         12    1    1    2    0    0 -0.28880202226E+01  0.42753407116E+02 -0.68868737273E+01  0.43400731682E+02  0.00000000000E+00 0. -1.
         11    1    3    3    0    0  0.53500045736E+01 -0.68066125551E+01  0.36298288509E+00  0.86651185941E+01  0.51100000000E-03 0. -1.
        -11    1    3    3    0    0 -0.22827193396E+01 -0.91277658409E+01  0.78734578440E+01  0.12268588163E+02  0.51100000000E-03 0.  1.
        -12    1    3    3    0    0 -0.17926501145E+00 -0.26819028720E+02 -0.13495670019E+01  0.26853561561E+02  0.00000000000E+00 0.  1.
</event>
<event>
 7    1  0.1747047E-009  0.4778727E+02  0.7816164E-02  0.1312668E+00
        -11   -1    0    0    0    0  0.00000000000E+00  0.00000000000E+00  0.45593999997E+02  0.45594000000E+02  0.51100000000E-03 0.  1.
         11   -1    0    0    0    0 -0.00000000000E+00 -0.00000000000E+00 -0.45593999997E+02  0.45594000000E+02  0.51100000000E-03 0. -1.
    9900012    2    1    2    0    0 -0.36004048853E+02 -0.24204296473E+02 -0.12181156183E+01  0.47787270660E+02  0.19999998248E+02 0.  0.
         12    1    1    2    0    0  0.36004048853E+02  0.24204296473E+02  0.12181156183E+01  0.43400729340E+02  0.00000000000E+00 0. -1.
         11    1    3    3    0    0 -0.41211378622E+01 -0.19176490276E+01 -0.50170003965E+01  0.67698927844E+01  0.51100000000E-03 0. -1.
        -11    1    3    3    0    0 -0.14717607586E+02 -0.35941080441E+01  0.38795383181E+01  0.15638938695E+02  0.51100000000E-03 0.  1.
        -12    1    3    3    0    0 -0.17165303405E+02 -0.18692539401E+02 -0.80653539822E-01  0.25378439181E+02  0.00000000000E+00 0.  1.
</event>
<event>
 7    1  0.1265344E-009  0.4778727E+02  0.7816164E-02  0.1312668E+00
        -11   -1    0    0    0    0  0.00000000000E+00  0.00000000000E+00  0.45593999997E+02  0.45594000000E+02  0.51100000000E-03 0. -1.
         11   -1    0    0    0    0 -0.00000000000E+00 -0.00000000000E+00 -0.45593999997E+02  0.45594000000E+02  0.51100000000E-03 0.  1.
    9900012    2    1    2    0    0  0.34784204575E+02 -0.99302971194E+01 -0.23980656768E+02  0.47787267427E+02  0.19999983507E+02 0.  0.
         12    1    1    2    0    0 -0.34784204575E+02  0.99302971194E+01  0.23980656768E+02  0.43400732573E+02  0.00000000000E+00 0. -1.
         11    1    3    3    0    0  0.11923520302E+02 -0.21407436714E+01 -0.43940907637E+01  0.12886471734E+02  0.51100000000E-03 0. -1.
        -11    1    3    3    0    0  0.16876695217E+02 -0.11996736039E+02 -0.10440808369E+02  0.23189544986E+02  0.51100000000E-03 0.  1.
         12    1    3    3    0    0  0.59839890569E+01  0.42071825905E+01 -0.91457576356E+01  0.11711250707E+02  0.00000000000E+00 0. -1.
</event>
<event>
 7    1  0.1265344E-009  0.4778728E+02  0.7816164E-02  0.1312668E+00
        -11   -1    0    0    0    0  0.00000000000E+00  0.00000000000E+00  0.45593999997E+02  0.45594000000E+02  0.51100000000E-03 0.  1.
         11   -1    0    0    0    0 -0.00000000000E+00 -0.00000000000E+00 -0.45593999997E+02  0.45594000000E+02  0.51100000000E-03 0. -1.
    9900012    2    1    2    0    0 -0.81635762092E+01 -0.20266634469E+02  0.37499898337E+02  0.47787276221E+02  0.20000023602E+02 0.  0.
         12    1    1    2    0    0  0.81635762092E+01  0.20266634469E+02 -0.37499898337E+02  0.43400723779E+02  0.00000000000E+00 0. -1.
         11    1    3    3    0    0 -0.76059348907E+00 -0.13435990397E+02  0.90629621633E+01  0.16224722612E+02  0.51100000000E-03 0. -1.
        -11    1    3    3    0    0 -0.51800202657E+00 -0.35029668097E+01  0.20538165320E+01  0.40935638725E+01  0.51100000000E-03 0.  1.
        -12    1    3    3    0    0 -0.68849806936E+01 -0.33276772626E+01  0.26383119642E+02  0.27468989736E+02  0.00000000000E+00 0.  1.
</event>
<event>
 7    1  0.1265344E-009  0.4778727E+02  0.7816164E-02  0.1312668E+00
        -11   -1    0    0    0    0  0.00000000000E+00  0.00000000000E+00  0.45593999997E+02  0.45594000000E+02  0.51100000000E-03 0.  1.
         11   -1    0    0    0    0 -0.00000000000E+00 -0.00000000000E+00 -0.45593999997E+02  0.45594000000E+02  0.51100000000E-03 0. -1.
    9900012    2    1    2    0    0 -0.25473816713E+02 -0.34488906981E+02  0.67248294806E+01  0.47787269889E+02  0.19999994732E+02 0.  0.
         12    1    1    2    0    0  0.25473816713E+02  0.34488906981E+02 -0.67248294806E+01  0.43400730111E+02  0.00000000000E+00 0. -1.
         11    1    3    3    0    0 -0.73847269392E+01 -0.17851319284E+02  0.29814386478E+01  0.19547193374E+02  0.51100000000E-03 0. -1.
        -11    1    3    3    0    0 -0.12404808900E+02 -0.10214326997E+02  0.87619022357E+01  0.18302532363E+02  0.51100000000E-03 0.  1.
         12    1    3    3    0    0 -0.56842808738E+01 -0.64232606994E+01 -0.50185114029E+01  0.99375441517E+01  0.00000000000E+00 0. -1.
</event>
<event>
 7    1  0.1265344E-009  0.4778724E+02  0.7816164E-02  0.1312668E+00
        -11   -1    0    0    0    0  0.00000000000E+00  0.00000000000E+00  0.45593999997E+02  0.45594000000E+02  0.51100000000E-03 0.  1.
         11   -1    0    0    0    0 -0.00000000000E+00 -0.00000000000E+00 -0.45593999997E+02  0.45594000000E+02  0.51100000000E-03 0. -1.
    9900012    2    1    2    0    0 -0.31512778869E+02  0.28962532412E+02  0.71932266763E+01  0.47787239341E+02  0.19999855452E+02 0.  0.
         12    1    1    2    0    0  0.31512778869E+02 -0.28962532412E+02 -0.71932266763E+01  0.43400760659E+02  0.00000000000E+00 0. -1.
         11    1    3    3    0    0 -0.14215050646E+02  0.24574309363E+02  0.76449659191E+01  0.29400847772E+02  0.51100000000E-03 0. -1.
        -11    1    3    3    0    0 -0.31271821535E+01  0.46767966495E+00 -0.17714927869E+01  0.36243867682E+01  0.51100000000E-03 0.  1.
        -12    1    3    3    0    0 -0.14170546070E+02  0.39205433837E+01  0.13197535441E+01  0.14762004801E+02  0.00000000000E+00 0.  1.
</event>
<event>
 7    1  0.1265344E-009  0.4778727E+02  0.7816164E-02  0.1312668E+00
        -11   -1    0    0    0    0  0.00000000000E+00  0.00000000000E+00  0.45593999997E+02  0.45594000000E+02  0.51100000000E-03 0. -1.
         11   -1    0    0    0    0 -0.00000000000E+00 -0.00000000000E+00 -0.45593999997E+02  0.45594000000E+02  0.51100000000E-03 0.  1.
    9900012    2    1    2    0    0  0.84354205673E+01  0.37122910468E+02 -0.20841216680E+02  0.47787272881E+02  0.20000008373E+02 0.  0.
         12    1    1    2    0    0 -0.84354205673E+01 -0.37122910468E+02  0.20841216680E+02  0.43400727119E+02  0.00000000000E+00 0. -1.
         11    1    3    3    0    0 -0.33129044211E+01  0.37761900206E+01 -0.98714874662E+00  0.51195126413E+01  0.51100000000E-03 0.  1.
        -11    1    3    3    0    0  0.74442968454E+01  0.16996971741E+02 -0.30026586836E+01  0.18797089224E+02  0.51100000000E-03 0. -1.
        -12    1    3    3    0    0  0.43040281430E+01  0.16349748707E+02 -0.16851409249E+02  0.23870671015E+02  0.00000000000E+00 0.  1.
</event>
<event>
 7    1  0.1265344E-009  0.4778727E+02  0.7816164E-02  0.1312668E+00
        -11   -1    0    0    0    0  0.00000000000E+00  0.00000000000E+00  0.45593999997E+02  0.45594000000E+02  0.51100000000E-03 0.  1.
         11   -1    0    0    0    0 -0.00000000000E+00 -0.00000000000E+00 -0.45593999997E+02  0.45594000000E+02  0.51100000000E-03 0. -1.
    9900012    2    1    2    0    0  0.19319931563E+02  0.17561152206E+02  0.34669432992E+02  0.47787269518E+02  0.19999993038E+02 0.  0.
         12    1    1    2    0    0 -0.19319931563E+02 -0.17561152206E+02 -0.34669432992E+02  0.43400730482E+02  0.00000000000E+00 0. -1.
         11    1    3    3    0    0 -0.30928967336E+00  0.44675218847E+01 -0.65215976418E+00  0.45254529620E+01  0.51100000000E-03 0. -1.
        -11    1    3    3    0    0  0.49518981284E+01  0.78063190236E+01  0.15357434889E+02  0.17925142075E+02  0.51100000000E-03 0.  1.
         12    1    3    3    0    0  0.14677323108E+02  0.52873112975E+01  0.19964157868E+02  0.25336674481E+02  0.00000000000E+00 0. -1.
</event>
<event>
 7    1  0.1265344E-009  0.4778727E+02  0.7816164E-02  0.1312668E+00
        -11   -1    0    0    0    0  0.00000000000E+00  0.00000000000E+00  0.45593999997E+02  0.45594000000E+02  0.51100000000E-03 0. -1.
         11   -1    0    0    0    0 -0.00000000000E+00 -0.00000000000E+00 -0.45593999997E+02  0.45594000000E+02  0.51100000000E-03 0.  1.
    9900012    2    1    2    0    0 -0.10089410416E+02  0.41761265845E+02  0.61500862772E+01  0.47787273178E+02  0.20000009727E+02 0.  0.
         12    1    1    2    0    0  0.10089410416E+02 -0.41761265845E+02 -0.61500862772E+01  0.43400726822E+02  0.00000000000E+00 0. -1.
         11    1    3    3    0    0 -0.10786087742E+02  0.27154176919E+02  0.75084852572E+01  0.30167306211E+02  0.51100000000E-03 0. -1.
        -11    1    3    3    0    0  0.23366049694E+01  0.42822519039E+01  0.35869176110E+01  0.60550295095E+01  0.51100000000E-03 0.  1.
        -12    1    3    3    0    0 -0.16399276432E+01  0.10324837022E+02 -0.49453165910E+01  0.11564937457E+02  0.00000000000E+00 0.  1.
</event>
<event>
 7    1  0.1265344E-009  0.4778729E+02  0.7816164E-02  0.1312668E+00
        -11   -1    0    0    0    0  0.00000000000E+00  0.00000000000E+00  0.45593999997E+02  0.45594000000E+02  0.51100000000E-03 0. -1.
         11   -1    0    0    0    0 -0.00000000000E+00 -0.00000000000E+00 -0.45593999997E+02  0.45594000000E+02  0.51100000000E-03 0.  1.
    9900012    2    1    2    0    0  0.27781555964E+02  0.32638849694E+02 -0.68199598305E+01  0.47787294784E+02  0.20000108238E+02 0.  0.
         12    1    1    2    0    0 -0.27781555964E+02 -0.32638849694E+02  0.68199598305E+01  0.43400705216E+02  0.00000000000E+00 0. -1.
         11    1    3    3    0    0  0.12543986679E+02  0.90915688845E+01  0.46667876223E+00  0.15499226300E+02  0.51100000000E-03 0. -1.
        -11    1    3    3    0    0  0.15414326443E+02  0.17949242808E+02 -0.73815577825E+00  0.23671114281E+02  0.51100000000E-03 0.  1.
         12    1    3    3    0    0 -0.17675715815E+00  0.55980380021E+01 -0.65484828145E+01  0.86169542031E+01  0.00000000000E+00 0. -1.
</event>
<event>
 7    1  0.1265344E-009  0.4778727E+02  0.7816164E-02  0.1312668E+00
        -11   -1    0    0    0    0  0.00000000000E+00  0.00000000000E+00  0.45593999997E+02  0.45594000000E+02  0.51100000000E-03 0.  1.
         11   -1    0    0    0    0 -0.00000000000E+00 -0.00000000000E+00 -0.45593999997E+02  0.45594000000E+02  0.51100000000E-03 0. -1.
    9900012    2    1    2    0    0  0.12271399958E+02  0.40936462959E+02  0.75658341046E+01  0.47787273022E+02  0.20000009015E+02 0.  0.
         12    1    1    2    0    0 -0.12271399958E+02 -0.40936462959E+02 -0.75658341046E+01  0.43400726978E+02  0.00000000000E+00 0. -1.
         11    1    3    3    0    0  0.58968152431E+01  0.15990411442E+02  0.58727385604E+01  0.18026501229E+02  0.51100000000E-03 0.  1.
        -11    1    3    3    0    0  0.46644964652E-01  0.15011085181E+02 -0.54676271800E+01  0.15975913160E+02  0.51100000000E-03 0. -1.
         12    1    3    3    0    0  0.63279397503E+01  0.99349663363E+01  0.71607227242E+01  0.13784858633E+02  0.00000000000E+00 0. -1.
</event>
<event>
 7    1  0.1265344E-009  0.4778727E+02  0.7816164E-02  0.1312668E+00
        -11   -1    0    0    0    0  0.00000000000E+00  0.00000000000E+00  0.45593999997E+02  0.45594000000E+02  0.51100000000E-03 0.  1.
         11   -1    0    0    0    0 -0.00000000000E+00 -0.00000000000E+00 -0.45593999997E+02  0.45594000000E+02  0.51100000000E-03 0. -1.
    9900012    2    1    2    0    0  0.24397137521E+02  0.12275708098E+01  0.35873336271E+02  0.47787268387E+02  0.19999987884E+02 0.  0.
         12    1    1    2    0    0 -0.24397137521E+02 -0.12275708098E+01 -0.35873336271E+02  0.43400731613E+02  0.00000000000E+00 0. -1.
         11    1    3    3    0    0 -0.11088841773E+01  0.28962456008E+00  0.21601662672E+00  0.11662632416E+01  0.51100000000E-03 0. -1.
        -11    1    3    3    0    0  0.22863271511E+02 -0.31986008304E+01  0.21163739867E+02  0.31318750245E+02  0.51100000000E-03 0.  1.
        -12    1    3    3    0    0  0.26427501876E+01  0.41365470801E+01  0.14493579777E+02  0.15302254901E+02  0.00000000000E+00 0.  1.
</event>
<event>
 7    1  0.1265344E-009  0.4778727E+02  0.7816164E-02  0.1312668E+00
        -11   -1    0    0    0    0  0.00000000000E+00  0.00000000000E+00  0.45593999997E+02  0.45594000000E+02  0.51100000000E-03 0. -1.
         11   -1    0    0    0    0 -0.00000000000E+00 -0.00000000000E+00 -0.45593999997E+02  0.45594000000E+02  0.51100000000E-03 0.  1.
    9900012    2    1    2    0    0 -0.43356706112E+02 -0.13891902848E+01 -0.13747626273E+01  0.47787265135E+02  0.19999973055E+02 0.  0.
         12    1    1    2    0    0  0.43356706112E+02  0.13891902848E+01  0.13747626273E+01  0.43400734865E+02  0.00000000000E+00 0. -1.
         11    1    3    3    0    0 -0.16304945599E+02 -0.24780183608E+01  0.74003759610E+01  0.18076431910E+02  0.51100000000E-03 0. -1.
        -11    1    3    3    0    0 -0.96513484568E+01  0.44068049621E+01 -0.23445691441E+01  0.10865793194E+02  0.51100000000E-03 0.  1.
        -12    1    3    3    0    0 -0.17400412057E+02 -0.33179768862E+01 -0.64305694442E+01  0.18845040030E+02  0.00000000000E+00 0.  1.
</event>
<event>
 7    1  0.1265344E-009  0.4778727E+02  0.7816164E-02  0.1312668E+00
        -11   -1    0    0    0    0  0.00000000000E+00  0.00000000000E+00  0.45593999997E+02  0.45594000000E+02  0.51100000000E-03 0.  1.
         11   -1    0    0    0    0 -0.00000000000E+00 -0.00000000000E+00 -0.45593999997E+02  0.45594000000E+02  0.51100000000E-03 0. -1.
    9900012    2    1    2    0    0  0.19572809928E+02 -0.29107946704E+02  0.25558868406E+02  0.47787271849E+02  0.20000003670E+02 0.  0.
         12    1    1    2    0    0 -0.19572809928E+02  0.29107946704E+02 -0.25558868406E+02  0.43400728151E+02  0.00000000000E+00 0. -1.
         11    1    3    3    0    0  0.57779235619E+01 -0.57724633869E+01  0.96709683604E+01  0.12658331783E+02  0.51100000000E-03 0. -1.
        -11    1    3    3    0    0  0.61957939525E+01 -0.45408291165E+01  0.12358447299E+02  0.14551227153E+02  0.51100000000E-03 0.  1.
         12    1    3    3    0    0  0.75990924132E+01 -0.18794654201E+02  0.35294527466E+01  0.20577712913E+02  0.00000000000E+00 0. -1.
</event>
<event>
 7    1  0.1400342E-009  0.4778727E+02  0.7816164E-02  0.1312668E+00
        -11   -1    0    0    0    0  0.00000000000E+00  0.00000000000E+00  0.45593999997E+02  0.45594000000E+02  0.51100000000E-03 0. -1.
         11   -1    0    0    0    0 -0.00000000000E+00 -0.00000000000E+00 -0.45593999997E+02  0.45594000000E+02  0.51100000000E-03 0.  1.
    9900012    2    1    2    0    0  0.61468732228E+01 -0.13301414762E+01 -0.42942639878E+02  0.47787266752E+02  0.19999980430E+02 0.  0.
         12    1    1    2    0    0 -0.61468732228E+01  0.13301414762E+01  0.42942639878E+02  0.43400733248E+02  0.00000000000E+00 0. -1.
         11    1    3    3    0    0  0.79764711774E+00 -0.78391639843E+01 -0.21187824343E+02  0.22605588547E+02  0.51100000000E-03 0. -1.
        -11    1    3    3    0    0  0.27020235462E+01  0.34117658773E+01 -0.20443266817E+02  0.20901393161E+02  0.51100000000E-03 0.  1.
         12    1    3    3    0    0  0.26472025589E+01  0.30972566308E+01 -0.13115487183E+01  0.42802850449E+01  0.00000000000E+00 0. -1.
</event>
<event>
 7    1  0.1265344E-009  0.4778727E+02  0.7816164E-02  0.1312668E+00
        -11   -1    0    0    0    0  0.00000000000E+00  0.00000000000E+00  0.45593999997E+02  0.45594000000E+02  0.51100000000E-03 0.  1.
         11   -1    0    0    0    0 -0.00000000000E+00 -0.00000000000E+00 -0.45593999997E+02  0.45594000000E+02  0.51100000000E-03 0. -1.
    9900012    2    1    2    0    0 -0.40570175886E+02 -0.15394014038E+02  0.84178678241E+00  0.47787269077E+02  0.19999991031E+02 0.  0.
         12    1    1    2    0    0  0.40570175886E+02  0.15394014038E+02 -0.84178678241E+00  0.43400730923E+02  0.00000000000E+00 0. -1.
         11    1    3    3    0    0 -0.17162894480E+01 -0.35926002002E+01  0.18312072392E+01  0.43824360671E+01  0.51100000000E-03 0. -1.
        -11    1    3    3    0    0 -0.14825062894E+02 -0.11913979763E+02  0.22764139807E+01  0.19154828751E+02  0.51100000000E-03 0.  1.
        -12    1    3    3    0    0 -0.24028823544E+02  0.11256592543E+00 -0.32658344374E+01  0.24250004259E+02  0.00000000000E+00 0.  1.
</event>
<event>
 7    1  0.1265344E-009  0.4778727E+02  0.7816164E-02  0.1312668E+00
        -11   -1    0    0    0    0  0.00000000000E+00  0.00000000000E+00  0.45593999997E+02  0.45594000000E+02  0.51100000000E-03 0.  1.
         11   -1    0    0    0    0 -0.00000000000E+00 -0.00000000000E+00 -0.45593999997E+02  0.45594000000E+02  0.51100000000E-03 0. -1.
    9900012    2    1    2    0    0  0.30956896289E+02 -0.30030395490E+02  0.48445310063E+01  0.47787267727E+02  0.19999984876E+02 0.  0.
         12    1    1    2    0    0 -0.30956896289E+02  0.30030395490E+02 -0.48445310063E+01  0.43400732273E+02  0.00000000000E+00 0. -1.
         11    1    3    3    0    0  0.88068701032E+01 -0.18336195710E+02  0.45038925155E+01  0.20834156623E+02  0.51100000000E-03 0. -1.
        -11    1    3    3    0    0  0.14691774915E+02 -0.80375957795E+01  0.49377366668E+01  0.17459451301E+02  0.51100000000E-03 0.  1.
        -12    1    3    3    0    0  0.74582512702E+01 -0.36566040009E+01 -0.45970981759E+01  0.94936598037E+01  0.00000000000E+00 0.  1.
</event>
<event>
 7    1  0.1265344E-009  0.4778727E+02  0.7816164E-02  0.1312668E+00
        -11   -1    0    0    0    0  0.00000000000E+00  0.00000000000E+00  0.45593999997E+02  0.45594000000E+02  0.51100000000E-03 0. -1.
         11   -1    0    0    0    0 -0.00000000000E+00 -0.00000000000E+00 -0.45593999997E+02  0.45594000000E+02  0.51100000000E-03 0.  1.
    9900012    2    1    2    0    0  0.23533666505E+02  0.12858080427E+02 -0.34124177556E+02  0.47787272065E+02  0.20000004653E+02 0.  0.
         12    1    1    2    0    0 -0.23533666505E+02 -0.12858080427E+02  0.34124177556E+02  0.43400727935E+02  0.00000000000E+00 0. -1.
         11    1    3    3    0    0  0.60101580242E+00  0.97340403819E+01 -0.87268951104E+01  0.13087072273E+02  0.51100000000E-03 0. -1.
        -11    1    3    3    0    0  0.95438972652E+01  0.29714986575E+01 -0.13432868073E+02  0.16743886174E+02  0.51100000000E-03 0.  1.
        -12    1    3    3    0    0  0.13388753437E+02  0.15254138789E+00 -0.11964414372E+02  0.17956313618E+02  0.00000000000E+00 0.  1.
</event>
<event>
 7    1  0.1265344E-009  0.4778727E+02  0.7816164E-02  0.1312668E+00
        -11   -1    0    0    0    0  0.00000000000E+00  0.00000000000E+00  0.45593999997E+02  0.45594000000E+02  0.51100000000E-03 0. -1.
         11   -1    0    0    0    0 -0.00000000000E+00 -0.00000000000E+00 -0.45593999997E+02  0.45594000000E+02  0.51100000000E-03 0.  1.
    9900012    2    1    2    0    0 -0.18441952674E+02  0.71834411774E+01  0.38625326828E+02  0.47787270534E+02  0.19999997673E+02 0.  0.
         12    1    1    2    0    0  0.18441952674E+02 -0.71834411774E+01 -0.38625326828E+02  0.43400729466E+02  0.00000000000E+00 0. -1.
         11    1    3    3    0    0 -0.10575262005E+02 -0.32645660141E+01  0.89695422420E+01  0.14245920329E+02  0.51100000000E-03 0. -1.
        -11    1    3    3    0    0 -0.87385917261E+01  0.48864946246E+01  0.19942510091E+02  0.22314670602E+02  0.51100000000E-03 0.  1.
         12    1    3    3    0    0  0.87190105754E+00  0.55615125670E+01  0.97132744952E+01  0.11226679603E+02  0.00000000000E+00 0. -1.
</event>
<event>
 7    1  0.1265344E-009  0.4778727E+02  0.7816164E-02  0.1312668E+00
        -11   -1    0    0    0    0  0.00000000000E+00  0.00000000000E+00  0.45593999997E+02  0.45594000000E+02  0.51100000000E-03 0.  1.
         11   -1    0    0    0    0 -0.00000000000E+00 -0.00000000000E+00 -0.45593999997E+02  0.45594000000E+02  0.51100000000E-03 0. -1.
    9900012    2    1    2    0    0  0.18329454755E+02 -0.28538825744E+02  0.27077481499E+02  0.47787268546E+02  0.19999988608E+02 0.  0.
         12    1    1    2    0    0 -0.18329454755E+02  0.28538825744E+02 -0.27077481499E+02  0.43400731454E+02  0.00000000000E+00 0. -1.
         11    1    3    3    0    0  0.18293822589E+02 -0.31122943964E+02  0.25458955905E+02  0.44175332732E+02  0.51100000000E-03 0. -1.
        -11    1    3    3    0    0 -0.18563713562E+00  0.80420807233E+00  0.16202130706E+01  0.18183240704E+01  0.51100000000E-03 0.  1.
         12    1    3    3    0    0  0.22126930184E+00  0.17799101485E+01 -0.16874768274E-02  0.17936117440E+01  0.00000000000E+00 0. -1.
</event>
<event>
 7    1  0.1265344E-009  0.4778727E+02  0.7816164E-02  0.1312668E+00
        -11   -1    0    0    0    0  0.00000000000E+00  0.00000000000E+00  0.45593999997E+02  0.45594000000E+02  0.51100000000E-03 0.  1.
         11   -1    0    0    0    0 -0.00000000000E+00 -0.00000000000E+00 -0.45593999997E+02  0.45594000000E+02  0.51100000000E-03 0. -1.
    9900012    2    1    2    0    0 -0.26160282734E+02  0.34134558687E+02 -0.58390951721E+01  0.47787268187E+02  0.19999986971E+02 0.  0.
         12    1    1    2    0    0  0.26160282734E+02 -0.34134558687E+02  0.58390951721E+01  0.43400731813E+02  0.00000000000E+00 0. -1.
         11    1    3    3    0    0  0.87849448003E+00  0.10738994394E+01  0.12684050919E+01  0.18798575200E+01  0.51100000000E-03 0. -1.
        -11    1    3    3    0    0 -0.65721607304E+01  0.20023364842E+02 -0.38564197037E+01  0.21424294841E+02  0.51100000000E-03 0.  1.
        -12    1    3    3    0    0 -0.20466616484E+02  0.13037294406E+02 -0.32510805603E+01  0.24483115826E+02  0.00000000000E+00 0.  1.
</event>
<event>
 7    1  0.1265344E-009  0.4778727E+02  0.7816164E-02  0.1312668E+00
        -11   -1    0    0    0    0  0.00000000000E+00  0.00000000000E+00  0.45593999997E+02  0.45594000000E+02  0.51100000000E-03 0.  1.
         11   -1    0    0    0    0 -0.00000000000E+00 -0.00000000000E+00 -0.45593999997E+02  0.45594000000E+02  0.51100000000E-03 0. -1.
    9900012    2    1    2    0    0  0.21218992761E+02  0.37579313094E+02 -0.46014301502E+01  0.47787267451E+02  0.19999983614E+02 0.  0.
         12    1    1    2    0    0 -0.21218992761E+02 -0.37579313094E+02  0.46014301502E+01  0.43400732549E+02  0.00000000000E+00 0. -1.
         11    1    3    3    0    0  0.27651956483E+01  0.13459531193E+01 -0.85337140638E+00  0.31915732470E+01  0.51100000000E-03 0. -1.
        -11    1    3    3    0    0 -0.45807681115E+00  0.23118641887E+01  0.43276357134E+01  0.49277765291E+01  0.51100000000E-03 0.  1.
         12    1    3    3    0    0  0.18911873924E+02  0.33921495786E+02 -0.80756944572E+01  0.39667917674E+02  0.00000000000E+00 0. -1.
</event>
<event>
 7    1  0.1265344E-009  0.4778727E+02  0.7816164E-02  0.1312668E+00
        -11   -1    0    0    0    0  0.00000000000E+00  0.00000000000E+00  0.45593999997E+02  0.45594000000E+02  0.51100000000E-03 0.  1.
         11   -1    0    0    0    0 -0.00000000000E+00 -0.00000000000E+00 -0.45593999997E+02  0.45594000000E+02  0.51100000000E-03 0. -1.
    9900012    2    1    2    0    0 -0.36662341373E+02 -0.17419948658E+02 -0.15363636879E+02  0.47787271615E+02  0.20000002600E+02 0.  0.
         12    1    1    2    0    0  0.36662341373E+02  0.17419948658E+02  0.15363636879E+02  0.43400728385E+02  0.00000000000E+00 0. -1.
         11    1    3    3    0    0 -0.21600446611E+02 -0.57019526077E+01 -0.16324259035E+01  0.22399919016E+02  0.51100000000E-03 0. -1.
        -11    1    3    3    0    0 -0.18767077256E+01 -0.60892435914E+01 -0.15088812121E+01  0.65481021812E+01  0.51100000000E-03 0.  1.
         12    1    3    3    0    0 -0.13185187037E+02 -0.56287524589E+01 -0.12222329764E+02  0.18839250418E+02  0.00000000000E+00 0. -1.
</event>
<event>
 7    1  0.1265344E-009  0.4778727E+02  0.7816164E-02  0.1312668E+00
        -11   -1    0    0    0    0  0.00000000000E+00  0.00000000000E+00  0.45593999997E+02  0.45594000000E+02  0.51100000000E-03 0.  1.
         11   -1    0    0    0    0 -0.00000000000E+00 -0.00000000000E+00 -0.45593999997E+02  0.45594000000E+02  0.51100000000E-03 0. -1.
    9900012    2    1    2    0    0 -0.37775711233E+02 -0.13664974352E+02  0.16428239978E+02  0.47787274753E+02  0.20000016911E+02 0.  0.
         12    1    1    2    0    0  0.37775711233E+02  0.13664974352E+02 -0.16428239978E+02  0.43400725247E+02  0.00000000000E+00 0. -1.
         11    1    3    3    0    0 -0.21999488218E+02 -0.15431605795E+00  0.68876151046E+01  0.23052994109E+02  0.51100000000E-03 0. -1.
        -11    1    3    3    0    0 -0.16298214618E+02 -0.10272486730E+02  0.67060573999E+01  0.20399190902E+02  0.51100000000E-03 0.  1.
         12    1    3    3    0    0  0.52199160357E+00 -0.32381715637E+01  0.28345674736E+01  0.43350897421E+01  0.00000000000E+00 0. -1.
</event>
<event>
 7    1  0.1265344E-009  0.4778727E+02  0.7816164E-02  0.1312668E+00
        -11   -1    0    0    0    0  0.00000000000E+00  0.00000000000E+00  0.45593999997E+02  0.45594000000E+02  0.51100000000E-03 0. -1.
         11   -1    0    0    0    0 -0.00000000000E+00 -0.00000000000E+00 -0.45593999997E+02  0.45594000000E+02  0.51100000000E-03 0.  1.
    9900012    2    1    2    0    0 -0.23324724387E+02 -0.34609933734E+02  0.11905168187E+02  0.47787270624E+02  0.19999998084E+02 0.  0.
         12    1    1    2    0    0  0.23324724387E+02  0.34609933734E+02 -0.11905168187E+02  0.43400729376E+02  0.00000000000E+00 0. -1.
         11    1    3    3    0    0 -0.39656941558E+01 -0.56688560486E+01  0.10507406059E+02  0.12580470634E+02  0.51100000000E-03 0. -1.
        -11    1    3    3    0    0 -0.10207303462E+02 -0.11737215023E+02  0.21671918442E+01  0.15705030443E+02  0.51100000000E-03 0.  1.
         12    1    3    3    0    0 -0.91517267688E+01 -0.17203862662E+02 -0.76942971653E+00  0.19501769546E+02  0.00000000000E+00 0. -1.
</event>
<event>
 7    1  0.1265344E-009  0.4778726E+02  0.7816164E-02  0.1312668E+00
        -11   -1    0    0    0    0  0.00000000000E+00  0.00000000000E+00  0.45593999997E+02  0.45594000000E+02  0.51100000000E-03 0.  1.
         11   -1    0    0    0    0 -0.00000000000E+00 -0.00000000000E+00 -0.45593999997E+02  0.45594000000E+02  0.51100000000E-03 0. -1.
    9900012    2    1    2    0    0  0.29792696739E+02  0.99447942432E+01  0.29951963850E+02  0.47787264407E+02  0.19999969739E+02 0.  0.
         12    1    1    2    0    0 -0.29792696739E+02 -0.99447942432E+01 -0.29951963850E+02  0.43400735593E+02  0.00000000000E+00 0. -1.
         11    1    3    3    0    0  0.38658048259E+01  0.62187487061E+01  0.34422666140E+01  0.80911360219E+01  0.51100000000E-03 0. -1.
        -11    1    3    3    0    0  0.20343035010E+02  0.30972896540E+01  0.11287646240E+02  0.23470049734E+02  0.51100000000E-03 0.  1.
         12    1    3    3    0    0  0.55838569026E+01  0.62875588313E+00  0.15222050996E+02  0.16226078651E+02  0.00000000000E+00 0. -1.
</event>
<event>
 7    1  0.1265344E-009  0.4778727E+02  0.7816164E-02  0.1312668E+00
        -11   -1    0    0    0    0  0.00000000000E+00  0.00000000000E+00  0.45593999997E+02  0.45594000000E+02  0.51100000000E-03 0.  1.
         11   -1    0    0    0    0 -0.00000000000E+00 -0.00000000000E+00 -0.45593999997E+02  0.45594000000E+02  0.51100000000E-03 0. -1.
    9900012    2    1    2    0    0 -0.32891748266E+02  0.15695561961E+02  0.23567042629E+02  0.47787271117E+02  0.20000000333E+02 0.  0.
         12    1    1    2    0    0  0.32891748266E+02 -0.15695561961E+02 -0.23567042629E+02  0.43400728883E+02  0.00000000000E+00 0. -1.
         11    1    3    3    0    0 -0.47220327557E+01  0.20217628208E+01  0.12890942786E+02  0.13876653934E+02  0.51100000000E-03 0.  1.
        -11    1    3    3    0    0 -0.11513615112E+02  0.96442198526E+01  0.42513818437E+01  0.15609245893E+02  0.51100000000E-03 0. -1.
        -12    1    3    3    0    0 -0.16656100399E+02  0.40295792871E+01  0.64247179996E+01  0.18301371290E+02  0.00000000000E+00 0.  1.
</event>
<event>
 7    1  0.1265344E-009  0.4778727E+02  0.7816164E-02  0.1312668E+00
        -11   -1    0    0    0    0  0.00000000000E+00  0.00000000000E+00  0.45593999997E+02  0.45594000000E+02  0.51100000000E-03 0.  1.
         11   -1    0    0    0    0 -0.00000000000E+00 -0.00000000000E+00 -0.45593999997E+02  0.45594000000E+02  0.51100000000E-03 0. -1.
    9900012    2    1    2    0    0 -0.14395340842E+01 -0.42778369274E+02  0.71806874269E+01  0.47787269499E+02  0.19999992954E+02 0.  0.
         12    1    1    2    0    0  0.14395340842E+01  0.42778369274E+02 -0.71806874269E+01  0.43400730501E+02  0.00000000000E+00 0. -1.
         11    1    3    3    0    0 -0.31239987427E+01 -0.56950155701E+01 -0.18020355551E+01  0.67409126156E+01  0.51100000000E-03 0. -1.
        -11    1    3    3    0    0 -0.77006958902E+00 -0.36820758708E+02  0.10308535040E+02  0.38244309040E+02  0.51100000000E-03 0.  1.
        -12    1    3    3    0    0  0.24545342475E+01 -0.26259499533E+00 -0.13258120580E+01  0.28020478434E+01  0.00000000000E+00 0.  1.
</event>
<event>
 7    1  0.1265344E-009  0.4778727E+02  0.7816164E-02  0.1312668E+00
        -11   -1    0    0    0    0  0.00000000000E+00  0.00000000000E+00  0.45593999997E+02  0.45594000000E+02  0.51100000000E-03 0. -1.
         11   -1    0    0    0    0 -0.00000000000E+00 -0.00000000000E+00 -0.45593999997E+02  0.45594000000E+02  0.51100000000E-03 0.  1.
    9900012    2    1    2    0    0 -0.12455673904E+02  0.21295333877E+02 -0.35706980162E+02  0.47787268559E+02  0.19999988669E+02 0.  0.
         12    1    1    2    0    0  0.12455673904E+02 -0.21295333877E+02  0.35706980162E+02  0.43400731441E+02  0.00000000000E+00 0. -1.
         11    1    3    3    0    0 -0.49442958090E+01 -0.14953393115E+01 -0.97238456576E+00  0.52561994548E+01  0.51100000000E-03 0. -1.
        -11    1    3    3    0    0 -0.97526261140E+00  0.11155686498E+02 -0.15724075700E+02  0.19304067843E+02  0.51100000000E-03 0.  1.
        -12    1    3    3    0    0 -0.65361154836E+01  0.11634986690E+02 -0.19010519896E+02  0.23227001262E+02  0.00000000000E+00 0.  1.
</event>
<event>
 7    1  0.1265344E-009  0.4778727E+02  0.7816164E-02  0.1312668E+00
        -11   -1    0    0    0    0  0.00000000000E+00  0.00000000000E+00  0.45593999997E+02  0.45594000000E+02  0.51100000000E-03 0. -1.
         11   -1    0    0    0    0 -0.00000000000E+00 -0.00000000000E+00 -0.45593999997E+02  0.45594000000E+02  0.51100000000E-03 0.  1.
    9900012    2    1    2    0    0 -0.69788242963E+01  0.29938220179E+02 -0.30636942359E+02  0.47787271284E+02  0.20000001090E+02 0.  0.
         12    1    1    2    0    0  0.69788242963E+01 -0.29938220179E+02  0.30636942359E+02  0.43400728716E+02  0.00000000000E+00 0. -1.
         11    1    3    3    0    0 -0.10928913105E+01  0.26027958380E+02 -0.19172076035E+02  0.32345286033E+02  0.51100000000E-03 0. -1.
        -11    1    3    3    0    0 -0.49806995432E-02  0.21956668128E+01  0.26228408463E+00  0.22112826057E+01  0.51100000000E-03 0.  1.
        -12    1    3    3    0    0 -0.58809522862E+01  0.17145949862E+01 -0.11727150409E+02  0.13230702644E+02  0.00000000000E+00 0.  1.
</event>
<event>
 7    1  0.1265344E-009  0.4778727E+02  0.7816164E-02  0.1312668E+00
        -11   -1    0    0    0    0  0.00000000000E+00  0.00000000000E+00  0.45593999997E+02  0.45594000000E+02  0.51100000000E-03 0.  1.
         11   -1    0    0    0    0 -0.00000000000E+00 -0.00000000000E+00 -0.45593999997E+02  0.45594000000E+02  0.51100000000E-03 0. -1.
    9900012    2    1    2    0    0 -0.28506997346E+02 -0.31972952923E+02  0.69788784888E+01  0.47787270037E+02  0.19999995409E+02 0.  0.
         12    1    1    2    0    0  0.28506997346E+02  0.31972952923E+02 -0.69788784888E+01  0.43400729963E+02  0.00000000000E+00 0. -1.
         11    1    3    3    0    0 -0.24743463669E+02 -0.19344137009E+02 -0.23537863852E+01  0.31495633690E+02  0.51100000000E-03 0. -1.
        -11    1    3    3    0    0 -0.24258594605E+01 -0.46978770233E+01  0.41768413619E+01  0.67380150395E+01  0.51100000000E-03 0.  1.
         12    1    3    3    0    0 -0.13376742170E+01 -0.79309388909E+01  0.51558235121E+01  0.95536213076E+01  0.00000000000E+00 0. -1.
</event>
<event>
 7    1  0.1265344E-009  0.4778724E+02  0.7816164E-02  0.1312668E+00
        -11   -1    0    0    0    0  0.00000000000E+00  0.00000000000E+00  0.45593999997E+02  0.45594000000E+02  0.51100000000E-03 0. -1.
         11   -1    0    0    0    0 -0.00000000000E+00 -0.00000000000E+00 -0.45593999997E+02  0.45594000000E+02  0.51100000000E-03 0.  1.
    9900012    2    1    2    0    0  0.13650388007E+02  0.37042407582E+02 -0.18031986023E+02  0.47787244567E+02  0.19999879277E+02 0.  0.
         12    1    1    2    0    0 -0.13650388007E+02 -0.37042407582E+02  0.18031986023E+02  0.43400755433E+02  0.00000000000E+00 0. -1.
         11    1    3    3    0    0  0.58058587875E+01  0.17974387862E+02 -0.14236768248E+02  0.23653164391E+02  0.51100000000E-03 0. -1.
        -11    1    3    3    0    0  0.11065534191E+02  0.15173049283E+02 -0.29636317237E+01  0.19011853796E+02  0.51100000000E-03 0.  1.
         12    1    3    3    0    0 -0.32210049714E+01  0.38949704366E+01 -0.83158605080E+00  0.51222263800E+01  0.00000000000E+00 0. -1.
</event>
<event>
 7    1  0.1265344E-009  0.4778727E+02  0.7816164E-02  0.1312668E+00
        -11   -1    0    0    0    0  0.00000000000E+00  0.00000000000E+00  0.45593999997E+02  0.45594000000E+02  0.51100000000E-03 0. -1.
         11   -1    0    0    0    0 -0.00000000000E+00 -0.00000000000E+00 -0.45593999997E+02  0.45594000000E+02  0.51100000000E-03 0.  1.
    9900012    2    1    2    0    0  0.18018875170E+02  0.13021473907E+02 -0.37274456085E+02  0.47787265887E+02  0.19999976484E+02 0.  0.
         12    1    1    2    0    0 -0.18018875170E+02 -0.13021473907E+02  0.37274456085E+02  0.43400734113E+02  0.00000000000E+00 0. -1.
         11    1    3    3    0    0  0.37045873387E+01  0.10059703284E+02 -0.83711058181E+01  0.13601360608E+02  0.51100000000E-03 0. -1.
        -11    1    3    3    0    0  0.30943041539E+01  0.26269517801E+01 -0.18299793155E+02  0.18744546504E+02  0.51100000000E-03 0.  1.
         12    1    3    3    0    0  0.11219983678E+02  0.33481884294E+00 -0.10603557112E+02  0.15441358775E+02  0.00000000000E+00 0. -1.
</event>
<event>
 7    1  0.1265344E-009  0.4778728E+02  0.7816164E-02  0.1312668E+00
        -11   -1    0    0    0    0  0.00000000000E+00  0.00000000000E+00  0.45593999997E+02  0.45594000000E+02  0.51100000000E-03 0.  1.
         11   -1    0    0    0    0 -0.00000000000E+00 -0.00000000000E+00 -0.45593999997E+02  0.45594000000E+02  0.51100000000E-03 0. -1.
    9900012    2    1    2    0    0  0.17506653831E+02 -0.19278601512E+02  0.34719948341E+02  0.47787283215E+02  0.20000055491E+02 0.  0.
         12    1    1    2    0    0 -0.17506653831E+02  0.19278601512E+02 -0.34719948341E+02  0.43400716785E+02  0.00000000000E+00 0. -1.
         11    1    3    3    0    0 -0.12735216989E+01 -0.12176083348E+00  0.95054954475E-01  0.12828557688E+01  0.51100000000E-03 0. -1.
        -11    1    3    3    0    0  0.17352306567E+02 -0.21153113812E+02  0.26780914893E+02  0.38285430256E+02  0.51100000000E-03 0.  1.
        -12    1    3    3    0    0  0.14278689635E+01  0.19962731338E+01  0.78439784939E+01  0.82189971903E+01  0.00000000000E+00 0.  1.
</event>
<event>
 7    1  0.1265344E-009  0.4778727E+02  0.7816164E-02  0.1312668E+00
        -11   -1    0    0    0    0  0.00000000000E+00  0.00000000000E+00  0.45593999997E+02  0.45594000000E+02  0.51100000000E-03 0.  1.
         11   -1    0    0    0    0 -0.00000000000E+00 -0.00000000000E+00 -0.45593999997E+02  0.45594000000E+02  0.51100000000E-03 0. -1.
    9900012    2    1    2    0    0 -0.42295684455E+02 -0.96160770853E+01  0.14930293573E+01  0.47787274214E+02  0.20000014454E+02 0.  0.
         12    1    1    2    0    0  0.42295684455E+02  0.96160770853E+01 -0.14930293573E+01  0.43400725786E+02  0.00000000000E+00 0. -1.
         11    1    3    3    0    0 -0.10063740682E+02 -0.45959614808E+01  0.47652166509E+01  0.12046120888E+02  0.51100000000E-03 0. -1.
        -11    1    3    3    0    0 -0.15180983968E+02 -0.57054876548E+01 -0.79292518788E+01  0.18052365475E+02  0.51100000000E-03 0.  1.
        -12    1    3    3    0    0 -0.17050959805E+02  0.68537205033E+00  0.46570645852E+01  0.17688787852E+02  0.00000000000E+00 0.  1.
</event>
<event>
 7    1  0.1265344E-009  0.4778727E+02  0.7816164E-02  0.1312668E+00
        -11   -1    0    0    0    0  0.00000000000E+00  0.00000000000E+00  0.45593999997E+02  0.45594000000E+02  0.51100000000E-03 0.  1.
         11   -1    0    0    0    0 -0.00000000000E+00 -0.00000000000E+00 -0.45593999997E+02  0.45594000000E+02  0.51100000000E-03 0. -1.
    9900012    2    1    2    0    0  0.19478813238E+02 -0.80149632150E+01  0.37946800951E+02  0.47787268406E+02  0.19999987970E+02 0.  0.
         12    1    1    2    0    0 -0.19478813238E+02  0.80149632150E+01 -0.37946800951E+02  0.43400731594E+02  0.00000000000E+00 0. -1.
         11    1    3    3    0    0 -0.32500978477E+01  0.21383884601E+00  0.67315288102E+01  0.74781243274E+01  0.51100000000E-03 0. -1.
        -11    1    3    3    0    0  0.12201257330E+02 -0.14979019668E+01  0.20226788913E+02  0.23669334184E+02  0.51100000000E-03 0.  1.
        -12    1    3    3    0    0  0.10527653756E+02 -0.67309000942E+01  0.10988483228E+02  0.16639809895E+02  0.00000000000E+00 0.  1.
</event>
<event>
 7    1  0.1265344E-009  0.4778725E+02  0.7816164E-02  0.1312668E+00
        -11   -1    0    0    0    0  0.00000000000E+00  0.00000000000E+00  0.45593999997E+02  0.45594000000E+02  0.51100000000E-03 0. -1.
         11   -1    0    0    0    0 -0.00000000000E+00 -0.00000000000E+00 -0.45593999997E+02  0.45594000000E+02  0.51100000000E-03 0.  1.
    9900012    2    1    2    0    0 -0.98863525267E+01  0.32408096005E+02 -0.27121950435E+02  0.47787252906E+02  0.19999917298E+02 0.  0.
         12    1    1    2    0    0  0.98863525267E+01 -0.32408096005E+02  0.27121950435E+02  0.43400747094E+02  0.00000000000E+00 0. -1.
         11    1    3    3    0    0 -0.36724164049E+01  0.10119246501E+02 -0.33365157232E+01  0.11270232004E+02  0.51100000000E-03 0. -1.
        -11    1    3    3    0    0 -0.21538781081E+01  0.18950283541E+02 -0.24674145822E+02  0.31185988994E+02  0.51100000000E-03 0.  1.
         12    1    3    3    0    0 -0.40600580138E+01  0.33385659635E+01  0.88871111067E+00  0.53310319082E+01  0.00000000000E+00 0. -1.
</event>
<event>
 7    1  0.1265344E-009  0.4778727E+02  0.7816164E-02  0.1312668E+00
        -11   -1    0    0    0    0  0.00000000000E+00  0.00000000000E+00  0.45593999997E+02  0.45594000000E+02  0.51100000000E-03 0.  1.
         11   -1    0    0    0    0 -0.00000000000E+00 -0.00000000000E+00 -0.45593999997E+02  0.45594000000E+02  0.51100000000E-03 0. -1.
    9900012    2    1    2    0    0 -0.21016775466E+02 -0.36420654037E+02  0.10744959370E+02  0.47787273700E+02  0.20000012108E+02 0.  0.
         12    1    1    2    0    0  0.21016775466E+02  0.36420654037E+02 -0.10744959370E+02  0.43400726300E+02  0.00000000000E+00 0. -1.
         11    1    3    3    0    0 -0.24087357200E+01 -0.57229654953E+01 -0.40728888959E+01  0.74258175341E+01  0.51100000000E-03 0. -1.
        -11    1    3    3    0    0 -0.48110837535E+01 -0.17902534236E+02  0.93738009119E+01  0.20772948822E+02  0.51100000000E-03 0.  1.
         12    1    3    3    0    0 -0.13796955993E+02 -0.12795154306E+02  0.54440473544E+01  0.19588507344E+02  0.00000000000E+00 0. -1.
</event>
<event>
 7    1  0.1265344E-009  0.4778727E+02  0.7816164E-02  0.1312668E+00
        -11   -1    0    0    0    0  0.00000000000E+00  0.00000000000E+00  0.45593999997E+02  0.45594000000E+02  0.51100000000E-03 0.  1.
         11   -1    0    0    0    0 -0.00000000000E+00 -0.00000000000E+00 -0.45593999997E+02  0.45594000000E+02  0.51100000000E-03 0. -1.
    9900012    2    1    2    0    0  0.52716216455E+01  0.14278730455E+02  0.40644203345E+02  0.47787269548E+02  0.19999993179E+02 0.  0.
         12    1    1    2    0    0 -0.52716216455E+01 -0.14278730455E+02 -0.40644203345E+02  0.43400730452E+02  0.00000000000E+00 0. -1.
         11    1    3    3    0    0 -0.22889066408E+01  0.41031104730E+01  0.12176153725E+01  0.48535756531E+01  0.51100000000E-03 0. -1.
        -11    1    3    3    0    0  0.34956701269E+00  0.90447917106E+01  0.27494760793E+02  0.28946369815E+02  0.51100000000E-03 0.  1.
        -12    1    3    3    0    0  0.72109612737E+01  0.11308282717E+01  0.11931827180E+02  0.13987324080E+02  0.00000000000E+00 0.  1.
</event>
<event>
 7    1  0.1265344E-009  0.4778727E+02  0.7816164E-02  0.1312668E+00
        -11   -1    0    0    0    0  0.00000000000E+00  0.00000000000E+00  0.45593999997E+02  0.45594000000E+02  0.51100000000E-03 0.  1.
         11   -1    0    0    0    0 -0.00000000000E+00 -0.00000000000E+00 -0.45593999997E+02  0.45594000000E+02  0.51100000000E-03 0. -1.
    9900012    2    1    2    0    0  0.88686482569E+01 -0.26212729671E+02  0.33434463180E+02  0.47787269052E+02  0.19999990914E+02 0.  0.
         12    1    1    2    0    0 -0.88686482569E+01  0.26212729671E+02 -0.33434463180E+02  0.43400730948E+02  0.00000000000E+00 0. -1.
         11    1    3    3    0    0  0.79673536226E+01 -0.18206993410E+02  0.23535378072E+02  0.30804015226E+02  0.51100000000E-03 0. -1.
        -11    1    3    3    0    0 -0.33821807368E+00  0.45103798445E+00  0.82614366843E+01  0.82806499188E+01  0.51100000000E-03 0.  1.
         12    1    3    3    0    0  0.12395127081E+01 -0.84567742462E+01  0.16376484236E+01  0.87026039071E+01  0.00000000000E+00 0. -1.
</event>
<event>
 7    1  0.1265344E-009  0.4778727E+02  0.7816164E-02  0.1312668E+00
        -11   -1    0    0    0    0  0.00000000000E+00  0.00000000000E+00  0.45593999997E+02  0.45594000000E+02  0.51100000000E-03 0.  1.
         11   -1    0    0    0    0 -0.00000000000E+00 -0.00000000000E+00 -0.45593999997E+02  0.45594000000E+02  0.51100000000E-03 0. -1.
    9900012    2    1    2    0    0  0.15044356459E+01 -0.55771416383E+01  0.43014595780E+02  0.47787270909E+02  0.19999999384E+02 0.  0.
         12    1    1    2    0    0 -0.15044356459E+01  0.55771416383E+01 -0.43014595780E+02  0.43400729091E+02  0.00000000000E+00 0. -1.
         11    1    3    3    0    0 -0.85579802219E+00  0.33341821210E+01  0.77343407515E+01  0.84657656353E+01  0.51100000000E-03 0. -1.
        -11    1    3    3    0    0 -0.57799419418E+01 -0.17306777847E+01  0.17264374484E+02  0.18288291364E+02  0.51100000000E-03 0.  1.
        -12    1    3    3    0    0  0.81401756099E+01 -0.71806459746E+01  0.18015880545E+02  0.21033213910E+02  0.00000000000E+00 0.  1.
</event>
<event>
 7    1  0.1265344E-009  0.4778727E+02  0.7816164E-02  0.1312668E+00
        -11   -1    0    0    0    0  0.00000000000E+00  0.00000000000E+00  0.45593999997E+02  0.45594000000E+02  0.51100000000E-03 0. -1.
         11   -1    0    0    0    0 -0.00000000000E+00 -0.00000000000E+00 -0.45593999997E+02  0.45594000000E+02  0.51100000000E-03 0.  1.
    9900012    2    1    2    0    0 -0.35721486611E+02  0.66552544179E+01 -0.23734070358E+02  0.47787272900E+02  0.20000008459E+02 0.  0.
         12    1    1    2    0    0  0.35721486611E+02 -0.66552544179E+01  0.23734070358E+02  0.43400727100E+02  0.00000000000E+00 0. -1.
         11    1    3    3    0    0 -0.16995183321E+02 -0.31066844184E+01 -0.11744130226E+02  0.20890484418E+02  0.51100000000E-03 0. -1.
        -11    1    3    3    0    0 -0.50621412100E+01 -0.24789687371E+01 -0.38550757958E+01  0.68287750938E+01  0.51100000000E-03 0.  1.
         12    1    3    3    0    0 -0.13664162080E+02  0.12240907573E+02 -0.81348643360E+01  0.20068013388E+02  0.00000000000E+00 0. -1.
</event>
<event>
 7    1  0.1265344E-009  0.4778727E+02  0.7816164E-02  0.1312668E+00
        -11   -1    0    0    0    0  0.00000000000E+00  0.00000000000E+00  0.45593999997E+02  0.45594000000E+02  0.51100000000E-03 0.  1.
         11   -1    0    0    0    0 -0.00000000000E+00 -0.00000000000E+00 -0.45593999997E+02  0.45594000000E+02  0.51100000000E-03 0. -1.
    9900012    2    1    2    0    0  0.43272460942E+02  0.69940836125E+00  0.32601585539E+01  0.47787266344E+02  0.19999978571E+02 0.  0.
         12    1    1    2    0    0 -0.43272460942E+02 -0.69940836125E+00 -0.32601585539E+01  0.43400733656E+02  0.00000000000E+00 0. -1.
         11    1    3    3    0    0  0.14365591832E+02  0.48673197108E+00 -0.29804156808E+01  0.14679578147E+02  0.51100000000E-03 0. -1.
        -11    1    3    3    0    0 -0.17730185595E+01  0.11625158961E+00  0.80156490493E+00  0.19492603218E+01  0.51100000000E-03 0.  1.
        -12    1    3    3    0    0  0.30679887670E+02  0.96424800566E-01  0.54390093297E+01  0.31158427876E+02  0.00000000000E+00 0.  1.
</event>
<event>
 7    1  0.1265344E-009  0.4778728E+02  0.7816164E-02  0.1312668E+00
        -11   -1    0    0    0    0  0.00000000000E+00  0.00000000000E+00  0.45593999997E+02  0.45594000000E+02  0.51100000000E-03 0. -1.
         11   -1    0    0    0    0 -0.00000000000E+00 -0.00000000000E+00 -0.45593999997E+02  0.45594000000E+02  0.51100000000E-03 0.  1.
    9900012    2    1    2    0    0 -0.19047502393E+02  0.33953156724E+02 -0.19183285059E+02  0.47787278524E+02  0.20000034104E+02 0.  0.
         12    1    1    2    0    0  0.19047502393E+02 -0.33953156724E+02  0.19183285059E+02  0.43400721476E+02  0.00000000000E+00 0. -1.
         11    1    3    3    0    0 -0.12655276701E+02  0.20420294023E+02 -0.99960328307E+01  0.26020474803E+02  0.51100000000E-03 0. -1.
        -11    1    3    3    0    0 -0.82401147132E+01  0.14588334667E+02 -0.99731174433E+01  0.19498258144E+02  0.51100000000E-03 0.  1.
        -12    1    3    3    0    0  0.18478890205E+01 -0.10554719657E+01  0.78586521512E+00  0.22685455779E+01  0.00000000000E+00 0.  1.
</event>
<event>
 7    1  0.1265344E-009  0.4778728E+02  0.7816164E-02  0.1312668E+00
        -11   -1    0    0    0    0  0.00000000000E+00  0.00000000000E+00  0.45593999997E+02  0.45594000000E+02  0.51100000000E-03 0.  1.
         11   -1    0    0    0    0 -0.00000000000E+00 -0.00000000000E+00 -0.45593999997E+02  0.45594000000E+02  0.51100000000E-03 0. -1.
    9900012    2    1    2    0    0 -0.18638598103E+02 -0.27865313299E+01  0.39095533792E+02  0.47787275829E+02  0.20000021814E+02 0.  0.
         12    1    1    2    0    0  0.18638598103E+02  0.27865313299E+01 -0.39095533792E+02  0.43400724171E+02  0.00000000000E+00 0. -1.
         11    1    3    3    0    0  0.28206551935E+01 -0.36242240561E+01  0.42213028527E+01  0.62378276478E+01  0.51100000000E-03 0. -1.
        -11    1    3    3    0    0 -0.55657514077E+01  0.33137076287E+01  0.10887758162E+02  0.12668919647E+02  0.51100000000E-03 0.  1.
        -12    1    3    3    0    0 -0.15893501888E+02 -0.24760149026E+01  0.23986472778E+02  0.28880528534E+02  0.00000000000E+00 0.  1.
</event>
<event>
 7    1  0.1265344E-009  0.4778727E+02  0.7816164E-02  0.1312668E+00
        -11   -1    0    0    0    0  0.00000000000E+00  0.00000000000E+00  0.45593999997E+02  0.45594000000E+02  0.51100000000E-03 0.  1.
         11   -1    0    0    0    0 -0.00000000000E+00 -0.00000000000E+00 -0.45593999997E+02  0.45594000000E+02  0.51100000000E-03 0. -1.
    9900012    2    1    2    0    0  0.33279164537E+01  0.20489312207E+02  0.38114783111E+02  0.47787266893E+02  0.19999981072E+02 0.  0.
         12    1    1    2    0    0 -0.33279164537E+01 -0.20489312207E+02 -0.38114783111E+02  0.43400733107E+02  0.00000000000E+00 0. -1.
         11    1    3    3    0    0  0.56236192912E+00 -0.58510258402E+00 -0.56308687790E+00  0.98775658253E+00  0.51100000000E-03 0. -1.
        -11    1    3    3    0    0  0.51403588466E+01  0.21573782027E+02  0.27336199156E+02  0.35201124195E+02  0.51100000000E-03 0.  1.
         12    1    3    3    0    0 -0.23748043220E+01 -0.49936723629E+00  0.11341670833E+02  0.11598386116E+02  0.00000000000E+00 0. -1.
</event>
<event>
 7    1  0.1265344E-009  0.4778727E+02  0.7816164E-02  0.1312668E+00
        -11   -1    0    0    0    0  0.00000000000E+00  0.00000000000E+00  0.45593999997E+02  0.45594000000E+02  0.51100000000E-03 0.  1.
         11   -1    0    0    0    0 -0.00000000000E+00 -0.00000000000E+00 -0.45593999997E+02  0.45594000000E+02  0.51100000000E-03 0. -1.
    9900012    2    1    2    0    0  0.10258016278E+02 -0.24749732615E+02  0.34144501753E+02  0.47787272329E+02  0.20000005855E+02 0.  0.
         12    1    1    2    0    0 -0.10258016278E+02  0.24749732615E+02 -0.34144501753E+02  0.43400727671E+02  0.00000000000E+00 0. -1.
         11    1    3    3    0    0 -0.12087748002E+01  0.95098330336E+00  0.21223229795E+00  0.15525941421E+01  0.51100000000E-03 0. -1.
        -11    1    3    3    0    0  0.11003925780E+02 -0.25276177205E+02  0.35264921888E+02  0.44761436892E+02  0.51100000000E-03 0.  1.
        -12    1    3    3    0    0  0.46286529809E+00 -0.42453871343E+00 -0.13326524330E+01  0.14732412941E+01  0.00000000000E+00 0.  1.
</event>
<event>
 7    1  0.1265344E-009  0.4778727E+02  0.7816164E-02  0.1312668E+00
        -11   -1    0    0    0    0  0.00000000000E+00  0.00000000000E+00  0.45593999997E+02  0.45594000000E+02  0.51100000000E-03 0.  1.
         11   -1    0    0    0    0 -0.00000000000E+00 -0.00000000000E+00 -0.45593999997E+02  0.45594000000E+02  0.51100000000E-03 0. -1.
    9900012    2    1    2    0    0 -0.35539857529E+02  0.22267512292E+01  0.24810955120E+02  0.47787269727E+02  0.19999993995E+02 0.  0.
         12    1    1    2    0    0  0.35539857529E+02 -0.22267512292E+01 -0.24810955120E+02  0.43400730273E+02  0.00000000000E+00 0. -1.
         11    1    3    3    0    0 -0.19040346066E+02  0.66386305180E+01  0.13447241921E+02  0.24237048274E+02  0.51100000000E-03 0. -1.
        -11    1    3    3    0    0 -0.16121446739E+02 -0.53140744135E+01  0.13177659329E+02  0.21489326129E+02  0.51100000000E-03 0.  1.
         12    1    3    3    0    0 -0.37806472409E+00  0.90219512469E+00 -0.18139461298E+01  0.20608953250E+01  0.00000000000E+00 0. -1.
</event>
<event>
 7    1  0.1265344E-009  0.4778727E+02  0.7816164E-02  0.1312668E+00
        -11   -1    0    0    0    0  0.00000000000E+00  0.00000000000E+00  0.45593999997E+02  0.45594000000E+02  0.51100000000E-03 0.  1.
         11   -1    0    0    0    0 -0.00000000000E+00 -0.00000000000E+00 -0.45593999997E+02  0.45594000000E+02  0.51100000000E-03 0. -1.
    9900012    2    1    2    0    0  0.80379456392E+01 -0.29745084963E+02  0.30565419313E+02  0.47787268355E+02  0.19999987737E+02 0.  0.
         12    1    1    2    0    0 -0.80379456392E+01  0.29745084963E+02 -0.30565419313E+02  0.43400731645E+02  0.00000000000E+00 0. -1.
         11    1    3    3    0    0 -0.17381188138E+01 -0.29548362938E+01  0.56849026846E-01  0.34286070943E+01  0.51100000000E-03 0. -1.
        -11    1    3    3    0    0  0.84044088746E+01 -0.27725147715E+02  0.23936610406E+02  0.37580303649E+02  0.51100000000E-03 0.  1.
        -12    1    3    3    0    0  0.13716555783E+01  0.93489904550E+00  0.65719598799E+01  0.67783576118E+01  0.00000000000E+00 0.  1.
</event>
<event>
 7    1  0.1265344E-009  0.4778727E+02  0.7816164E-02  0.1312668E+00
        -11   -1    0    0    0    0  0.00000000000E+00  0.00000000000E+00  0.45593999997E+02  0.45594000000E+02  0.51100000000E-03 0.  1.
         11   -1    0    0    0    0 -0.00000000000E+00 -0.00000000000E+00 -0.45593999997E+02  0.45594000000E+02  0.51100000000E-03 0. -1.
    9900012    2    1    2    0    0  0.10228300395E+02 -0.22764428367E+02  0.35507549770E+02  0.47787269379E+02  0.19999992405E+02 0.  0.
         12    1    1    2    0    0 -0.10228300395E+02  0.22764428367E+02 -0.35507549770E+02  0.43400730621E+02  0.00000000000E+00 0. -1.
         11    1    3    3    0    0 -0.12508333567E+00  0.25288788567E+01  0.32257472166E+01  0.41007705957E+01  0.51100000000E-03 0. -1.
        -11    1    3    3    0    0  0.61077815793E+01 -0.95900607943E+01  0.62076194452E+01  0.12954103647E+02  0.51100000000E-03 0.  1.
        -12    1    3    3    0    0  0.42456021509E+01 -0.15703246429E+02  0.26074183108E+02  0.30732395136E+02  0.00000000000E+00 0.  1.
</event>
<event>
 7    1  0.1265344E-009  0.4778727E+02  0.7816164E-02  0.1312668E+00
        -11   -1    0    0    0    0  0.00000000000E+00  0.00000000000E+00  0.45593999997E+02  0.45594000000E+02  0.51100000000E-03 0.  1.
         11   -1    0    0    0    0 -0.00000000000E+00 -0.00000000000E+00 -0.45593999997E+02  0.45594000000E+02  0.51100000000E-03 0. -1.
    9900012    2    1    2    0    0 -0.51127010919E+01  0.34450451699E+02  0.25896910473E+02  0.47787270666E+02  0.19999998273E+02 0.  0.
         12    1    1    2    0    0  0.51127010919E+01 -0.34450451699E+02 -0.25896910473E+02  0.43400729334E+02  0.00000000000E+00 0. -1.
         11    1    3    3    0    0  0.22683683589E+00 -0.58248365430E-01  0.82462112006E+00  0.85723280091E+00  0.51100000000E-03 0. -1.
        -11    1    3    3    0    0 -0.11222750293E+02  0.25508739605E+02  0.22641070475E+02  0.35906322464E+02  0.51100000000E-03 0.  1.
         12    1    3    3    0    0  0.58832123650E+01  0.89999604591E+01  0.24312188776E+01  0.11023715400E+02  0.00000000000E+00 0. -1.
</event>
<event>
 7    1  0.1265344E-009  0.4778727E+02  0.7816164E-02  0.1312668E+00
        -11   -1    0    0    0    0  0.00000000000E+00  0.00000000000E+00  0.45593999997E+02  0.45594000000E+02  0.51100000000E-03 0.  1.
         11   -1    0    0    0    0 -0.00000000000E+00 -0.00000000000E+00 -0.45593999997E+02  0.45594000000E+02  0.51100000000E-03 0. -1.
    9900012    2    1    2    0    0 -0.41382461182E+02 -0.12757213548E+02 -0.28929434348E+01  0.47787265989E+02  0.19999976950E+02 0.  0.
         12    1    1    2    0    0  0.41382461182E+02  0.12757213548E+02  0.28929434348E+01  0.43400734011E+02  0.00000000000E+00 0. -1.
         11    1    3    3    0    0 -0.13345944141E+02 -0.19012328264E+01 -0.64336158636E+01  0.14937212746E+02  0.51100000000E-03 0. -1.
        -11    1    3    3    0    0 -0.15279847879E+02 -0.51698952010E+01  0.82407853975E+01  0.18113865181E+02  0.51100000000E-03 0.  1.
         12    1    3    3    0    0 -0.12756669162E+02 -0.56860855204E+01 -0.47001129687E+01  0.14736188061E+02  0.00000000000E+00 0. -1.
</event>
<event>
 7    1  0.1265344E-009  0.4778727E+02  0.7816164E-02  0.1312668E+00
        -11   -1    0    0    0    0  0.00000000000E+00  0.00000000000E+00  0.45593999997E+02  0.45594000000E+02  0.51100000000E-03 0.  1.
         11   -1    0    0    0    0 -0.00000000000E+00 -0.00000000000E+00 -0.45593999997E+02  0.45594000000E+02  0.51100000000E-03 0. -1.
    9900012    2    1    2    0    0 -0.40569380321E+02  0.10180461635E+02  0.11580455127E+02  0.47787270056E+02  0.19999995495E+02 0.  0.
         12    1    1    2    0    0  0.40569380321E+02 -0.10180461635E+02 -0.11580455127E+02  0.43400729944E+02  0.00000000000E+00 0. -1.
         11    1    3    3    0    0 -0.59457116428E+01 -0.56173147973E+00  0.57056005238E+01  0.82595948322E+01  0.51100000000E-03 0. -1.
        -11    1    3    3    0    0 -0.31600506523E+02  0.51564874020E+01  0.19852341827E+01  0.32079939679E+02  0.51100000000E-03 0.  1.
         12    1    3    3    0    0 -0.30231621550E+01  0.55857057132E+01  0.38896204202E+01  0.74477355447E+01  0.00000000000E+00 0. -1.
</event>
<event>
 7    1  0.1265344E-009  0.4778727E+02  0.7816164E-02  0.1312668E+00
        -11   -1    0    0    0    0  0.00000000000E+00  0.00000000000E+00  0.45593999997E+02  0.45594000000E+02  0.51100000000E-03 0. -1.
         11   -1    0    0    0    0 -0.00000000000E+00 -0.00000000000E+00 -0.45593999997E+02  0.45594000000E+02  0.51100000000E-03 0.  1.
    9900012    2    1    2    0    0  0.11996187439E+02  0.36633080323E+02 -0.19943224185E+02  0.47787270998E+02  0.19999999790E+02 0.  0.
         12    1    1    2    0    0 -0.11996187439E+02 -0.36633080323E+02  0.19943224185E+02  0.43400729002E+02  0.00000000000E+00 0. -1.
         11    1    3    3    0    0  0.51584057682E+01  0.13442907185E+01 -0.56275055277E+01  0.77514570456E+01  0.51100000000E-03 0. -1.
        -11    1    3    3    0    0 -0.18738946681E+01  0.10384971413E+02 -0.69769852014E+01  0.12650590312E+02  0.51100000000E-03 0.  1.
         12    1    3    3    0    0  0.87116763388E+01  0.24903818191E+02 -0.73387334558E+01  0.27385223641E+02  0.00000000000E+00 0. -1.
</event>
<event>
 7    1  0.1265344E-009  0.4778727E+02  0.7816164E-02  0.1312668E+00
        -11   -1    0    0    0    0  0.00000000000E+00  0.00000000000E+00  0.45593999997E+02  0.45594000000E+02  0.51100000000E-03 0.  1.
         11   -1    0    0    0    0 -0.00000000000E+00 -0.00000000000E+00 -0.45593999997E+02  0.45594000000E+02  0.51100000000E-03 0. -1.
    9900012    2    1    2    0    0  0.32411592583E+02  0.22802956346E+02  0.17695681931E+02  0.47787270618E+02  0.19999998055E+02 0.  0.
         12    1    1    2    0    0 -0.32411592583E+02 -0.22802956346E+02 -0.17695681931E+02  0.43400729382E+02  0.00000000000E+00 0. -1.
         11    1    3    3    0    0  0.10524205387E+02  0.32237447801E+01  0.16662928752E+01  0.11132293638E+02  0.51100000000E-03 0. -1.
        -11    1    3    3    0    0  0.11979511802E+02  0.12978084080E+01  0.43834730588E+01  0.12822162298E+02  0.51100000000E-03 0.  1.
        -12    1    3    3    0    0  0.99078753943E+01  0.18281403158E+02  0.11645915997E+02  0.23832814682E+02  0.00000000000E+00 0.  1.
</event>
<event>
 7    1  0.1265344E-009  0.4778727E+02  0.7816164E-02  0.1312668E+00
        -11   -1    0    0    0    0  0.00000000000E+00  0.00000000000E+00  0.45593999997E+02  0.45594000000E+02  0.51100000000E-03 0.  1.
         11   -1    0    0    0    0 -0.00000000000E+00 -0.00000000000E+00 -0.45593999997E+02  0.45594000000E+02  0.51100000000E-03 0. -1.
    9900012    2    1    2    0    0 -0.25655078275E+02 -0.35000205638E+02  0.65247643623E+00  0.47787272339E+02  0.20000005904E+02 0.  0.
         12    1    1    2    0    0  0.25655078275E+02  0.35000205638E+02 -0.65247643623E+00  0.43400727661E+02  0.00000000000E+00 0. -1.
         11    1    3    3    0    0 -0.18850888499E+02 -0.15444577293E+02 -0.10207607866E+01  0.24391246745E+02  0.51100000000E-03 0. -1.
        -11    1    3    3    0    0 -0.69217468492E+01 -0.15581536236E+02  0.54627355112E+01  0.17903528436E+02  0.51100000000E-03 0.  1.
        -12    1    3    3    0    0  0.11755707318E+00 -0.39740921088E+01 -0.37894982884E+01  0.54924971582E+01  0.00000000000E+00 0.  1.
</event>
<event>
 7    1  0.1265344E-009  0.4778726E+02  0.7816164E-02  0.1312668E+00
        -11   -1    0    0    0    0  0.00000000000E+00  0.00000000000E+00  0.45593999997E+02  0.45594000000E+02  0.51100000000E-03 0.  1.
         11   -1    0    0    0    0 -0.00000000000E+00 -0.00000000000E+00 -0.45593999997E+02  0.45594000000E+02  0.51100000000E-03 0. -1.
    9900012    2    1    2    0    0  0.76847213579E+01 -0.33220999423E+02  0.26850228631E+02  0.47787256659E+02  0.19999934413E+02 0.  0.
         12    1    1    2    0    0 -0.76847213579E+01  0.33220999423E+02 -0.26850228631E+02  0.43400743341E+02  0.00000000000E+00 0. -1.
         11    1    3    3    0    0 -0.19467353629E+01  0.30720092273E-01  0.39268437532E+01  0.43830154484E+01  0.51100000000E-03 0. -1.
        -11    1    3    3    0    0  0.10836380182E+02 -0.14771636681E+02  0.12070841945E+02  0.21939316562E+02  0.51100000000E-03 0.  1.
         12    1    3    3    0    0 -0.12049234609E+01 -0.18480082834E+02  0.10852542932E+02  0.21464924649E+02  0.00000000000E+00 0. -1.
</event>
<event>
 7    1  0.1273778E-009  0.4778727E+02  0.7816164E-02  0.1312668E+00
        -11   -1    0    0    0    0  0.00000000000E+00  0.00000000000E+00  0.45593999997E+02  0.45594000000E+02  0.51100000000E-03 0. -1.
         11   -1    0    0    0    0 -0.00000000000E+00 -0.00000000000E+00 -0.45593999997E+02  0.45594000000E+02  0.51100000000E-03 0.  1.
    9900012    2    1    2    0    0  0.29706001387E+02 -0.30858724260E+02 -0.69939885480E+01  0.47787271236E+02  0.20000000875E+02 0.  0.
         12    1    1    2    0    0 -0.29706001387E+02  0.30858724260E+02  0.69939885480E+01  0.43400728764E+02  0.00000000000E+00 0. -1.
         11    1    3    3    0    0  0.84566610828E+01 -0.51305971956E+01  0.41459200905E+01  0.10725054681E+02  0.51100000000E-03 0. -1.
        -11    1    3    3    0    0  0.11967887120E+01 -0.94356151388E+01 -0.29423921801E+01  0.99559433643E+01  0.51100000000E-03 0.  1.
        -12    1    3    3    0    0  0.20052551592E+02 -0.16292511926E+02 -0.81975164584E+01  0.27106273191E+02  0.00000000000E+00 0.  1.
</event>
<event>
 7    1  0.1265344E-009  0.4778727E+02  0.7816164E-02  0.1312668E+00
        -11   -1    0    0    0    0  0.00000000000E+00  0.00000000000E+00  0.45593999997E+02  0.45594000000E+02  0.51100000000E-03 0. -1.
         11   -1    0    0    0    0 -0.00000000000E+00 -0.00000000000E+00 -0.45593999997E+02  0.45594000000E+02  0.51100000000E-03 0.  1.
    9900012    2    1    2    0    0 -0.25466464140E+01 -0.43084194554E+02 -0.45705660156E+01  0.47787270720E+02  0.19999998522E+02 0.  0.
         12    1    1    2    0    0  0.25466464140E+01  0.43084194554E+02  0.45705660156E+01  0.43400729280E+02  0.00000000000E+00 0. -1.
         11    1    3    3    0    0  0.12482175312E+01 -0.23868699072E+02 -0.41665630377E+01  0.24261761894E+02  0.51100000000E-03 0. -1.
        -11    1    3    3    0    0 -0.56090865469E+01 -0.16766114250E+02  0.40413486712E+01  0.18135515936E+02  0.51100000000E-03 0.  1.
         12    1    3    3    0    0  0.18142226017E+01 -0.24493812320E+01 -0.44453516491E+01  0.53899928898E+01  0.00000000000E+00 0. -1.
</event>
<event>
 7    1  0.1265344E-009  0.4778727E+02  0.7816164E-02  0.1312668E+00
        -11   -1    0    0    0    0  0.00000000000E+00  0.00000000000E+00  0.45593999997E+02  0.45594000000E+02  0.51100000000E-03 0.  1.
         11   -1    0    0    0    0 -0.00000000000E+00 -0.00000000000E+00 -0.45593999997E+02  0.45594000000E+02  0.51100000000E-03 0. -1.
    9900012    2    1    2    0    0  0.23652616307E+02  0.35053613195E+02 -0.97683898997E+01  0.47787268469E+02  0.19999988258E+02 0.  0.
         12    1    1    2    0    0 -0.23652616307E+02 -0.35053613195E+02  0.97683898997E+01  0.43400731531E+02  0.00000000000E+00 0. -1.
         11    1    3    3    0    0  0.13648726160E+02  0.87513776074E+01 -0.10876997171E+02  0.19523918755E+02  0.51100000000E-03 0. -1.
        -11    1    3    3    0    0  0.62895282472E+01  0.13380666038E+02  0.98563789134E+00  0.14817957737E+02  0.51100000000E-03 0.  1.
        -12    1    3    3    0    0  0.37143618997E+01  0.12921569550E+02  0.12296938040E+00  0.13445391977E+02  0.00000000000E+00 0.  1.
</event>
<event>
 7    1  0.1265344E-009  0.4778728E+02  0.7816164E-02  0.1312668E+00
        -11   -1    0    0    0    0  0.00000000000E+00  0.00000000000E+00  0.45593999997E+02  0.45594000000E+02  0.51100000000E-03 0. -1.
         11   -1    0    0    0    0 -0.00000000000E+00 -0.00000000000E+00 -0.45593999997E+02  0.45594000000E+02  0.51100000000E-03 0.  1.
    9900012    2    1    2    0    0  0.21518952701E+02 -0.36949925707E+02 -0.74337145321E+01  0.47787280573E+02  0.20000043444E+02 0.  0.
         12    1    1    2    0    0 -0.21518952701E+02  0.36949925707E+02  0.74337145321E+01  0.43400719427E+02  0.00000000000E+00 0. -1.
         11    1    3    3    0    0  0.25596435442E+01 -0.14865166213E+02  0.51213626591E+01  0.15929635820E+02  0.51100000000E-03 0. -1.
        -11    1    3    3    0    0  0.77563526507E+00 -0.35535061560E+00 -0.84008161589E+00  0.11973393449E+01  0.51100000000E-03 0.  1.
        -12    1    3    3    0    0  0.18183673892E+02 -0.21729408878E+02 -0.11714995575E+02  0.30660305408E+02  0.00000000000E+00 0.  1.
</event>
<event>
 7    1  0.1265344E-009  0.4778727E+02  0.7816164E-02  0.1312668E+00
        -11   -1    0    0    0    0  0.00000000000E+00  0.00000000000E+00  0.45593999997E+02  0.45594000000E+02  0.51100000000E-03 0. -1.
         11   -1    0    0    0    0 -0.00000000000E+00 -0.00000000000E+00 -0.45593999997E+02  0.45594000000E+02  0.51100000000E-03 0.  1.
    9900012    2    1    2    0    0  0.22521613283E+01 -0.29631163525E+00 -0.43341240404E+02  0.47787272460E+02  0.20000006455E+02 0.  0.
         12    1    1    2    0    0 -0.22521613283E+01  0.29631163525E+00  0.43341240404E+02  0.43400727540E+02  0.00000000000E+00 0. -1.
         11    1    3    3    0    0 -0.21484792814E+01  0.10725375993E+01  0.12006250911E+01  0.26847348090E+01  0.51100000000E-03 0. -1.
        -11    1    3    3    0    0 -0.41896089353E+00 -0.18583668735E+01 -0.72002422763E+01  0.74479893103E+01  0.51100000000E-03 0.  1.
        -12    1    3    3    0    0  0.48196015032E+01  0.48951763893E+00 -0.37341623219E+02  0.37654548341E+02  0.00000000000E+00 0.  1.
</event>
<event>
 7    1  0.1265344E-009  0.4778727E+02  0.7816164E-02  0.1312668E+00
        -11   -1    0    0    0    0  0.00000000000E+00  0.00000000000E+00  0.45593999997E+02  0.45594000000E+02  0.51100000000E-03 0. -1.
         11   -1    0    0    0    0 -0.00000000000E+00 -0.00000000000E+00 -0.45593999997E+02  0.45594000000E+02  0.51100000000E-03 0.  1.
    9900012    2    1    2    0    0 -0.10270272919E+02  0.12352034804E+02 -0.40318382502E+02  0.47787271467E+02  0.20000001926E+02 0.  0.
         12    1    1    2    0    0  0.10270272919E+02 -0.12352034804E+02  0.40318382502E+02  0.43400728533E+02  0.00000000000E+00 0. -1.
         11    1    3    3    0    0 -0.77166987242E+01  0.10070812951E+02 -0.30041257968E+02  0.32610518138E+02  0.51100000000E-03 0.  1.
        -11    1    3    3    0    0  0.11546075593E+01 -0.24064677409E+01 -0.85474014272E+01  0.89544557078E+01  0.51100000000E-03 0. -1.
         12    1    3    3    0    0 -0.37081817542E+01  0.46876895940E+01 -0.17297231068E+01  0.62222976205E+01  0.00000000000E+00 0. -1.
</event>
<event>
 7    1  0.1265344E-009  0.4778726E+02  0.7816164E-02  0.1312668E+00
        -11   -1    0    0    0    0  0.00000000000E+00  0.00000000000E+00  0.45593999997E+02  0.45594000000E+02  0.51100000000E-03 0. -1.
         11   -1    0    0    0    0 -0.00000000000E+00 -0.00000000000E+00 -0.45593999997E+02  0.45594000000E+02  0.51100000000E-03 0.  1.
    9900012    2    1    2    0    0 -0.31485705167E+02  0.81653602314E+01 -0.28733274804E+02  0.47787264770E+02  0.19999971391E+02 0.  0.
         12    1    1    2    0    0  0.31485705167E+02 -0.81653602314E+01  0.28733274804E+02  0.43400735230E+02  0.00000000000E+00 0. -1.
         11    1    3    3    0    0 -0.55337894079E+01 -0.20393273701E+01 -0.78711599917E+01  0.98354888648E+01  0.51100000000E-03 0. -1.
        -11    1    3    3    0    0 -0.25717790460E+02  0.12495255583E+02 -0.21240031302E+02  0.35618465551E+02  0.51100000000E-03 0.  1.
         12    1    3    3    0    0 -0.23412529890E+00 -0.22905679817E+01  0.37791648944E+00  0.23333103538E+01  0.00000000000E+00 0. -1.
</event>
<event>
 7    1  0.1265344E-009  0.4778729E+02  0.7816164E-02  0.1312668E+00
        -11   -1    0    0    0    0  0.00000000000E+00  0.00000000000E+00  0.45593999997E+02  0.45594000000E+02  0.51100000000E-03 0.  1.
         11   -1    0    0    0    0 -0.00000000000E+00 -0.00000000000E+00 -0.45593999997E+02  0.45594000000E+02  0.51100000000E-03 0. -1.
    9900012    2    1    2    0    0  0.36298544576E+02  0.18874806483E+02  0.14483755709E+02  0.47787287592E+02  0.20000075446E+02 0.  0.
         12    1    1    2    0    0 -0.36298544576E+02 -0.18874806483E+02 -0.14483755709E+02  0.43400712408E+02  0.00000000000E+00 0. -1.
         11    1    3    3    0    0  0.15655023809E+02  0.16375505307E+02  0.10554406097E+02  0.24992647576E+02  0.51100000000E-03 0. -1.
        -11    1    3    3    0    0  0.97834266451E+01  0.35841223781E+01  0.54773469935E+01  0.11771265883E+02  0.51100000000E-03 0.  1.
        -12    1    3    3    0    0  0.10860094122E+02 -0.10848212026E+01 -0.15479973815E+01  0.11023374133E+02  0.00000000000E+00 0.  1.
</event>
<event>
 7    1  0.1265344E-009  0.4778727E+02  0.7816164E-02  0.1312668E+00
        -11   -1    0    0    0    0  0.00000000000E+00  0.00000000000E+00  0.45593999997E+02  0.45594000000E+02  0.51100000000E-03 0.  1.
         11   -1    0    0    0    0 -0.00000000000E+00 -0.00000000000E+00 -0.45593999997E+02  0.45594000000E+02  0.51100000000E-03 0. -1.
    9900012    2    1    2    0    0  0.30533877390E+02 -0.28214023255E+02  0.12460923912E+02  0.47787269575E+02  0.19999993300E+02 0.  0.
         12    1    1    2    0    0 -0.30533877390E+02  0.28214023255E+02 -0.12460923912E+02  0.43400730425E+02  0.00000000000E+00 0. -1.
         11    1    3    3    0    0  0.21591478892E+01  0.19648716813E+01  0.22814910701E-01  0.29194453433E+01  0.51100000000E-03 0. -1.
        -11    1    3    3    0    0  0.20781694663E+02 -0.24661414550E+02  0.14334394338E+02  0.35292195483E+02  0.51100000000E-03 0.  1.
         12    1    3    3    0    0  0.75930348375E+01 -0.55174803860E+01 -0.18962853372E+01  0.95756287487E+01  0.00000000000E+00 0. -1.
</event>
<event>
 7    1  0.1265344E-009  0.4778727E+02  0.7816164E-02  0.1312668E+00
        -11   -1    0    0    0    0  0.00000000000E+00  0.00000000000E+00  0.45593999997E+02  0.45594000000E+02  0.51100000000E-03 0.  1.
         11   -1    0    0    0    0 -0.00000000000E+00 -0.00000000000E+00 -0.45593999997E+02  0.45594000000E+02  0.51100000000E-03 0. -1.
    9900012    2    1    2    0    0 -0.36442947168E+02 -0.60738987496E+01  0.22773727608E+02  0.47787270588E+02  0.19999997918E+02 0.  0.
         12    1    1    2    0    0  0.36442947168E+02  0.60738987496E+01 -0.22773727608E+02  0.43400729412E+02  0.00000000000E+00 0. -1.
         11    1    3    3    0    0  0.48126858143E+00 -0.12985765861E+01  0.15553855292E+01  0.20825813316E+01  0.51100000000E-03 0. -1.
        -11    1    3    3    0    0 -0.26942858013E+02  0.32299037009E+01  0.17827700710E+02  0.32468088775E+02  0.51100000000E-03 0.  1.
        -12    1    3    3    0    0 -0.99813577371E+01 -0.80052258644E+01  0.33906413687E+01  0.13236600481E+02  0.00000000000E+00 0.  1.
</event>
<event>
 7    1  0.1265344E-009  0.4778727E+02  0.7816164E-02  0.1312668E+00
        -11   -1    0    0    0    0  0.00000000000E+00  0.00000000000E+00  0.45593999997E+02  0.45594000000E+02  0.51100000000E-03 0.  1.
         11   -1    0    0    0    0 -0.00000000000E+00 -0.00000000000E+00 -0.45593999997E+02  0.45594000000E+02  0.51100000000E-03 0. -1.
    9900012    2    1    2    0    0 -0.15486840041E+00 -0.17222343974E+02  0.39837042719E+02  0.47787273177E+02  0.20000009722E+02 0.  0.
         12    1    1    2    0    0  0.15486840041E+00  0.17222343974E+02 -0.39837042719E+02  0.43400726823E+02  0.00000000000E+00 0. -1.
         11    1    3    3    0    0 -0.36552719812E-01  0.11399697831E+01 -0.15017790588E+00  0.11504003096E+01  0.51100000000E-03 0. -1.
        -11    1    3    3    0    0  0.26890577008E+01 -0.11708492808E+02  0.95275401235E+01  0.15332770663E+02  0.51100000000E-03 0.  1.
        -12    1    3    3    0    0 -0.28073733814E+01 -0.66538209498E+01  0.30459680502E+02  0.31304102204E+02  0.00000000000E+00 0.  1.
</event>
<event>
 7    1  0.1265344E-009  0.4778727E+02  0.7816164E-02  0.1312668E+00
        -11   -1    0    0    0    0  0.00000000000E+00  0.00000000000E+00  0.45593999997E+02  0.45594000000E+02  0.51100000000E-03 0.  1.
         11   -1    0    0    0    0 -0.00000000000E+00 -0.00000000000E+00 -0.45593999997E+02  0.45594000000E+02  0.51100000000E-03 0. -1.
    9900012    2    1    2    0    0  0.39787977269E+02 -0.10915272139E+02  0.13468368488E+02  0.47787271311E+02  0.20000001215E+02 0.  0.
         12    1    1    2    0    0 -0.39787977269E+02  0.10915272139E+02 -0.13468368488E+02  0.43400728689E+02  0.00000000000E+00 0. -1.
         11    1    3    3    0    0 -0.16039357454E+01 -0.14049411156E+01  0.94401548703E+00  0.23318736918E+01  0.51100000000E-03 0. -1.
        -11    1    3    3    0    0  0.27191562610E+02 -0.64068424182E+01  0.13213622208E+02  0.30903535705E+02  0.51100000000E-03 0.  1.
         12    1    3    3    0    0  0.14200350404E+02 -0.31034886051E+01 -0.68926920764E+00  0.14551861914E+02  0.00000000000E+00 0. -1.
</event>
<event>
 7    1  0.1265344E-009  0.4778727E+02  0.7816164E-02  0.1312668E+00
        -11   -1    0    0    0    0  0.00000000000E+00  0.00000000000E+00  0.45593999997E+02  0.45594000000E+02  0.51100000000E-03 0.  1.
         11   -1    0    0    0    0 -0.00000000000E+00 -0.00000000000E+00 -0.45593999997E+02  0.45594000000E+02  0.51100000000E-03 0. -1.
    9900012    2    1    2    0    0  0.20738592036E+02  0.72180447692E+01  0.37435732932E+02  0.47787268784E+02  0.19999989695E+02 0.  0.
         12    1    1    2    0    0 -0.20738592036E+02 -0.72180447692E+01 -0.37435732932E+02  0.43400731216E+02  0.00000000000E+00 0. -1.
         11    1    3    3    0    0 -0.12265661770E+01 -0.29377118686E+01  0.69302377604E+01  0.76264546997E+01  0.51100000000E-03 0. -1.
        -11    1    3    3    0    0 -0.41910655864E+00  0.10737028085E+00  0.40716676661E+01  0.40945886886E+01  0.51100000000E-03 0.  1.
        -12    1    3    3    0    0  0.22384264771E+02  0.10048386357E+02  0.26433827505E+02  0.36066225396E+02  0.00000000000E+00 0.  1.
</event>
<event>
 7    1  0.1265344E-009  0.4778727E+02  0.7816164E-02  0.1312668E+00
        -11   -1    0    0    0    0  0.00000000000E+00  0.00000000000E+00  0.45593999997E+02  0.45594000000E+02  0.51100000000E-03 0.  1.
         11   -1    0    0    0    0 -0.00000000000E+00 -0.00000000000E+00 -0.45593999997E+02  0.45594000000E+02  0.51100000000E-03 0. -1.
    9900012    2    1    2    0    0  0.83851551617E+01  0.21765498583E+01  0.42527343486E+02  0.47787272583E+02  0.20000007014E+02 0.  0.
         12    1    1    2    0    0 -0.83851551617E+01 -0.21765498583E+01 -0.42527343486E+02  0.43400727417E+02  0.00000000000E+00 0. -1.
         11    1    3    3    0    0  0.23027666385E+01 -0.66898124097E+01  0.64404831843E+01  0.95674525438E+01  0.51100000000E-03 0. -1.
        -11    1    3    3    0    0  0.22283587838E+01  0.40358659977E+01  0.63464489459E+01  0.78441833039E+01  0.51100000000E-03 0.  1.
         12    1    3    3    0    0  0.38540297394E+01  0.48304962703E+01  0.29740411356E+02  0.30375636735E+02  0.00000000000E+00 0. -1.
</event>
<event>
 7    1  0.1265344E-009  0.4778726E+02  0.7816164E-02  0.1312668E+00
        -11   -1    0    0    0    0  0.00000000000E+00  0.00000000000E+00  0.45593999997E+02  0.45594000000E+02  0.51100000000E-03 0. -1.
         11   -1    0    0    0    0 -0.00000000000E+00 -0.00000000000E+00 -0.45593999997E+02  0.45594000000E+02  0.51100000000E-03 0.  1.
    9900012    2    1    2    0    0 -0.42892126355E+02 -0.29297793094E+01  0.59419158638E+01  0.47787257216E+02  0.19999936951E+02 0.  0.
         12    1    1    2    0    0  0.42892126355E+02  0.29297793094E+01 -0.59419158638E+01  0.43400742784E+02  0.00000000000E+00 0. -1.
         11    1    3    3    0    0 -0.25667546355E+01  0.20019005121E+01 -0.15733023255E+01  0.36153997688E+01  0.51100000000E-03 0. -1.
        -11    1    3    3    0    0 -0.14337559937E+02 -0.36287894320E+01 -0.45731153121E+01  0.15480540094E+02  0.51100000000E-03 0.  1.
         12    1    3    3    0    0 -0.25987811783E+02 -0.13028903896E+01  0.12088333501E+02  0.28691317353E+02  0.00000000000E+00 0. -1.
</event>
<event>
 7    1  0.1265344E-009  0.4778727E+02  0.7816164E-02  0.1312668E+00
        -11   -1    0    0    0    0  0.00000000000E+00  0.00000000000E+00  0.45593999997E+02  0.45594000000E+02  0.51100000000E-03 0.  1.
         11   -1    0    0    0    0 -0.00000000000E+00 -0.00000000000E+00 -0.45593999997E+02  0.45594000000E+02  0.51100000000E-03 0. -1.
    9900012    2    1    2    0    0  0.24746353322E+02 -0.87002338129E+01  0.34576685497E+02  0.47787271307E+02  0.20000001196E+02 0.  0.
         12    1    1    2    0    0 -0.24746353322E+02  0.87002338129E+01 -0.34576685497E+02  0.43400728693E+02  0.00000000000E+00 0. -1.
         11    1    3    3    0    0  0.16937108346E+02 -0.58542386909E+01  0.12859131931E+02  0.22056632201E+02  0.51100000000E-03 0. -1.
        -11    1    3    3    0    0  0.93557291066E+01 -0.39757956559E+01  0.21526363170E+02  0.23805901155E+02  0.51100000000E-03 0.  1.
         12    1    3    3    0    0 -0.15464841306E+01  0.11298005339E+01  0.19119039648E+00  0.19247379511E+01  0.00000000000E+00 0. -1.
</event>
<event>
 7    1  0.1265344E-009  0.4778728E+02  0.7816164E-02  0.1312668E+00
        -11   -1    0    0    0    0  0.00000000000E+00  0.00000000000E+00  0.45593999997E+02  0.45594000000E+02  0.51100000000E-03 0. -1.
         11   -1    0    0    0    0 -0.00000000000E+00 -0.00000000000E+00 -0.45593999997E+02  0.45594000000E+02  0.51100000000E-03 0.  1.
    9900012    2    1    2    0    0 -0.68097852634E+01 -0.41722640605E+02 -0.98219571124E+01  0.47787277012E+02  0.20000027208E+02 0.  0.
         12    1    1    2    0    0  0.68097852634E+01  0.41722640605E+02  0.98219571124E+01  0.43400722988E+02  0.00000000000E+00 0. -1.
         11    1    3    3    0    0  0.26301813860E-01 -0.54159011250E+01  0.30623351806E+01  0.62217822046E+01  0.51100000000E-03 0. -1.
        -11    1    3    3    0    0 -0.92751421395E+01 -0.23281585491E+02 -0.13169840312E+02  0.28310866797E+02  0.51100000000E-03 0.  1.
        -12    1    3    3    0    0  0.24390550622E+01 -0.13025153989E+02  0.28554801912E+00  0.13254628011E+02  0.00000000000E+00 0.  1.
</event>
<event>
 7    1  0.1265344E-009  0.4778727E+02  0.7816164E-02  0.1312668E+00
        -11   -1    0    0    0    0  0.00000000000E+00  0.00000000000E+00  0.45593999997E+02  0.45594000000E+02  0.51100000000E-03 0.  1.
         11   -1    0    0    0    0 -0.00000000000E+00 -0.00000000000E+00 -0.45593999997E+02  0.45594000000E+02  0.51100000000E-03 0. -1.
    9900012    2    1    2    0    0 -0.13105928441E+02  0.45702533695E+01  0.41121416526E+02  0.47787268747E+02  0.19999989524E+02 0.  0.
         12    1    1    2    0    0  0.13105928441E+02 -0.45702533695E+01 -0.41121416526E+02  0.43400731253E+02  0.00000000000E+00 0. -1.
         11    1    3    3    0    0 -0.43854636245E+01  0.74774386586E+01  0.10388556320E+02  0.13530206309E+02  0.51100000000E-03 0. -1.
        -11    1    3    3    0    0 -0.57098460908E+01  0.14592373778E+01  0.42947909457E+01  0.72922524390E+01  0.51100000000E-03 0.  1.
         12    1    3    3    0    0 -0.30106187262E+01 -0.43664226670E+01  0.26438069261E+02  0.26964809999E+02  0.00000000000E+00 0. -1.
</event>
<event>
 7    1  0.1265344E-009  0.4778727E+02  0.7816164E-02  0.1312668E+00
        -11   -1    0    0    0    0  0.00000000000E+00  0.00000000000E+00  0.45593999997E+02  0.45594000000E+02  0.51100000000E-03 0.  1.
         11   -1    0    0    0    0 -0.00000000000E+00 -0.00000000000E+00 -0.45593999997E+02  0.45594000000E+02  0.51100000000E-03 0. -1.
    9900012    2    1    2    0    0 -0.31132609803E+02 -0.10282948258E+02  0.28436678301E+02  0.47787273154E+02  0.20000009616E+02 0.  0.
         12    1    1    2    0    0  0.31132609803E+02  0.10282948258E+02 -0.28436678301E+02  0.43400726846E+02  0.00000000000E+00 0. -1.
         11    1    3    3    0    0 -0.71044886217E+01  0.11928338679E+01  0.11116679447E+01  0.72891986592E+01  0.51100000000E-03 0. -1.
        -11    1    3    3    0    0 -0.24219355563E+02 -0.11721894742E+02  0.20912613085E+02  0.34078107144E+02  0.51100000000E-03 0.  1.
        -12    1    3    3    0    0  0.19123438255E+00  0.24611261540E+00  0.64123972714E+01  0.64199673499E+01  0.00000000000E+00 0.  1.
</event>
<event>
 7    1  0.1265344E-009  0.4778727E+02  0.7816164E-02  0.1312668E+00
        -11   -1    0    0    0    0  0.00000000000E+00  0.00000000000E+00  0.45593999997E+02  0.45594000000E+02  0.51100000000E-03 0.  1.
         11   -1    0    0    0    0 -0.00000000000E+00 -0.00000000000E+00 -0.45593999997E+02  0.45594000000E+02  0.51100000000E-03 0. -1.
    9900012    2    1    2    0    0  0.40125851159E+02  0.71152489857E+01 -0.14930255589E+02  0.47787271534E+02  0.20000002233E+02 0.  0.
         12    1    1    2    0    0 -0.40125851159E+02 -0.71152489857E+01  0.14930255589E+02  0.43400728466E+02  0.00000000000E+00 0. -1.
         11    1    3    3    0    0  0.26578591367E+01  0.20969091940E+01 -0.43754272164E+01  0.55322334500E+01  0.51100000000E-03 0. -1.
        -11    1    3    3    0    0  0.21949341304E+02 -0.54235777578E+00  0.12308044945E+01  0.21990511945E+02  0.51100000000E-03 0.  1.
        -12    1    3    3    0    0  0.15518650719E+02  0.55606975676E+01 -0.11785632867E+02  0.20264526139E+02  0.00000000000E+00 0.  1.
</event>
<event>
 7    1  0.1265344E-009  0.4778727E+02  0.7816164E-02  0.1312668E+00
        -11   -1    0    0    0    0  0.00000000000E+00  0.00000000000E+00  0.45593999997E+02  0.45594000000E+02  0.51100000000E-03 0.  1.
         11   -1    0    0    0    0 -0.00000000000E+00 -0.00000000000E+00 -0.45593999997E+02  0.45594000000E+02  0.51100000000E-03 0. -1.
    9900012    2    1    2    0    0  0.18823211246E+02  0.36162195268E+02 -0.14886426845E+02  0.47787270139E+02  0.19999995874E+02 0.  0.
         12    1    1    2    0    0 -0.18823211246E+02 -0.36162195268E+02  0.14886426845E+02  0.43400729861E+02  0.00000000000E+00 0. -1.
         11    1    3    3    0    0  0.30502879346E+01 -0.17493663268E+01  0.73991899196E+00  0.35933298492E+01  0.51100000000E-03 0. -1.
        -11    1    3    3    0    0  0.27443750981E+01  0.12103761192E+02 -0.40957174777E+01  0.13069335545E+02  0.51100000000E-03 0.  1.
        -12    1    3    3    0    0  0.13028548213E+02  0.25807800403E+02 -0.11530628359E+02  0.31124604745E+02  0.00000000000E+00 0.  1.
</event>
<event>
 7    1  0.1265344E-009  0.4778727E+02  0.7816164E-02  0.1312668E+00
        -11   -1    0    0    0    0  0.00000000000E+00  0.00000000000E+00  0.45593999997E+02  0.45594000000E+02  0.51100000000E-03 0.  1.
         11   -1    0    0    0    0 -0.00000000000E+00 -0.00000000000E+00 -0.45593999997E+02  0.45594000000E+02  0.51100000000E-03 0. -1.
    9900012    2    1    2    0    0 -0.21270416487E+02  0.30274360338E+02  0.22686025047E+02  0.47787271391E+02  0.20000001579E+02 0.  0.
         12    1    1    2    0    0  0.21270416487E+02 -0.30274360338E+02 -0.22686025047E+02  0.43400728609E+02  0.00000000000E+00 0. -1.
         11    1    3    3    0    0  0.82962938200E+00 -0.11126634510E+01 -0.22567705059E+00  0.14061419768E+01  0.51100000000E-03 0. -1.
        -11    1    3    3    0    0 -0.43005449801E+01  0.16384420823E+02  0.79788325651E+01  0.18724468008E+02  0.51100000000E-03 0.  1.
         12    1    3    3    0    0 -0.17799500889E+02  0.15002602966E+02  0.14932869532E+02  0.27656661406E+02  0.00000000000E+00 0. -1.
</event>
<event>
 7    1  0.1265344E-009  0.4778727E+02  0.7816164E-02  0.1312668E+00
        -11   -1    0    0    0    0  0.00000000000E+00  0.00000000000E+00  0.45593999997E+02  0.45594000000E+02  0.51100000000E-03 0.  1.
         11   -1    0    0    0    0 -0.00000000000E+00 -0.00000000000E+00 -0.45593999997E+02  0.45594000000E+02  0.51100000000E-03 0. -1.
    9900012    2    1    2    0    0 -0.16929208703E+02 -0.22530541465E+01  0.39899236158E+02  0.47787269519E+02  0.19999993045E+02 0.  0.
         12    1    1    2    0    0  0.16929208703E+02  0.22530541465E+01 -0.39899236158E+02  0.43400730481E+02  0.00000000000E+00 0. -1.
         11    1    3    3    0    0 -0.37450141874E-01 -0.39730662420E+01  0.52639485259E+01  0.65951354967E+01  0.51100000000E-03 0. -1.
        -11    1    3    3    0    0 -0.88158396747E+01  0.56700710455E+01  0.28341877672E+02  0.30218053628E+02  0.51100000000E-03 0.  1.
         12    1    3    3    0    0 -0.80759188867E+01 -0.39500589500E+01  0.62934099601E+01  0.10974080394E+02  0.00000000000E+00 0. -1.
</event>
<event>
 7    1  0.1265344E-009  0.4778727E+02  0.7816164E-02  0.1312668E+00
        -11   -1    0    0    0    0  0.00000000000E+00  0.00000000000E+00  0.45593999997E+02  0.45594000000E+02  0.51100000000E-03 0.  1.
         11   -1    0    0    0    0 -0.00000000000E+00 -0.00000000000E+00 -0.45593999997E+02  0.45594000000E+02  0.51100000000E-03 0. -1.
    9900012    2    1    2    0    0 -0.41872983855E+02 -0.76435032806E+01 -0.84766248251E+01  0.47787273189E+02  0.20000009778E+02 0.  0.
         12    1    1    2    0    0  0.41872983855E+02  0.76435032806E+01  0.84766248251E+01  0.43400726811E+02  0.00000000000E+00 0. -1.
         11    1    3    3    0    0 -0.68248908059E+01 -0.63102310755E+01  0.86853334259E+00  0.93355503944E+01  0.51100000000E-03 0. -1.
        -11    1    3    3    0    0 -0.98609022020E+01  0.52750338387E+01 -0.39403730947E+01  0.11857061804E+02  0.51100000000E-03 0.  1.
         12    1    3    3    0    0 -0.25187190847E+02 -0.66083060438E+01 -0.54047850729E+01  0.26594660991E+02  0.00000000000E+00 0. -1.
</event>
<event>
 7    1  0.1265344E-009  0.4778727E+02  0.7816164E-02  0.1312668E+00
        -11   -1    0    0    0    0  0.00000000000E+00  0.00000000000E+00  0.45593999997E+02  0.45594000000E+02  0.51100000000E-03 0.  1.
         11   -1    0    0    0    0 -0.00000000000E+00 -0.00000000000E+00 -0.45593999997E+02  0.45594000000E+02  0.51100000000E-03 0. -1.
    9900012    2    1    2    0    0 -0.20580290781E+02 -0.65814951084E+01  0.37639858695E+02  0.47787269487E+02  0.19999992897E+02 0.  0.
         12    1    1    2    0    0  0.20580290781E+02  0.65814951084E+01 -0.37639858695E+02  0.43400730513E+02  0.00000000000E+00 0. -1.
         11    1    3    3    0    0  0.18164886770E-03  0.81741145850E+00  0.66888207704E+01  0.67385818305E+01  0.51100000000E-03 0. -1.
        -11    1    3    3    0    0 -0.18675973725E+02 -0.10908490469E+02  0.29930593588E+02  0.36927328520E+02  0.51100000000E-03 0.  1.
        -12    1    3    3    0    0 -0.19044987054E+01  0.35095839018E+01  0.10204443372E+01  0.41213591360E+01  0.00000000000E+00 0.  1.
</event>
<event>
 7    1  0.1265344E-009  0.4778726E+02  0.7816164E-02  0.1312668E+00
        -11   -1    0    0    0    0  0.00000000000E+00  0.00000000000E+00  0.45593999997E+02  0.45594000000E+02  0.51100000000E-03 0.  1.
         11   -1    0    0    0    0 -0.00000000000E+00 -0.00000000000E+00 -0.45593999997E+02  0.45594000000E+02  0.51100000000E-03 0. -1.
    9900012    2    1    2    0    0 -0.23627254759E+02  0.33750126462E+02  0.13649400488E+02  0.47787258793E+02  0.19999944140E+02 0.  0.
         12    1    1    2    0    0  0.23627254759E+02 -0.33750126462E+02 -0.13649400488E+02  0.43400741207E+02  0.00000000000E+00 0. -1.
         11    1    3    3    0    0 -0.12010797509E+02  0.16780643166E+02  0.94037045968E+00  0.20657529831E+02  0.51100000000E-03 0. -1.
        -11    1    3    3    0    0 -0.80115716819E+01  0.18306611428E+02  0.11694013015E+02  0.23153125997E+02  0.51100000000E-03 0.  1.
        -12    1    3    3    0    0 -0.36048855681E+01 -0.13371281316E+01  0.10150170129E+01  0.39766029643E+01  0.00000000000E+00 0.  1.
</event>
<event>
 7    1  0.1265344E-009  0.4778727E+02  0.7816164E-02  0.1312668E+00
        -11   -1    0    0    0    0  0.00000000000E+00  0.00000000000E+00  0.45593999997E+02  0.45594000000E+02  0.51100000000E-03 0.  1.
         11   -1    0    0    0    0 -0.00000000000E+00 -0.00000000000E+00 -0.45593999997E+02  0.45594000000E+02  0.51100000000E-03 0. -1.
    9900012    2    1    2    0    0  0.18154013343E+02 -0.34980451008E+02  0.18177543063E+02  0.47787271608E+02  0.20000002568E+02 0.  0.
         12    1    1    2    0    0 -0.18154013343E+02  0.34980451008E+02 -0.18177543063E+02  0.43400728392E+02  0.00000000000E+00 0. -1.
         11    1    3    3    0    0  0.96175952529E+00  0.21678240754E+01 -0.80142558977E+00  0.25033429336E+01  0.51100000000E-03 0. -1.
        -11    1    3    3    0    0  0.66079482744E+01 -0.17869644350E+02  0.10125187364E+02  0.21575648055E+02  0.51100000000E-03 0.  1.
         12    1    3    3    0    0  0.10584305544E+02 -0.19278630733E+02  0.88537812891E+01  0.23708280619E+02  0.00000000000E+00 0. -1.
</event>
<event>
 7    1  0.1265344E-009  0.4778724E+02  0.7816164E-02  0.1312668E+00
        -11   -1    0    0    0    0  0.00000000000E+00  0.00000000000E+00  0.45593999997E+02  0.45594000000E+02  0.51100000000E-03 0. -1.
         11   -1    0    0    0    0 -0.00000000000E+00 -0.00000000000E+00 -0.45593999997E+02  0.45594000000E+02  0.51100000000E-03 0.  1.
    9900012    2    1    2    0    0  0.38536672044E+02  0.15249025280E+01 -0.19905422846E+02  0.47787236428E+02  0.19999842167E+02 0.  0.
         12    1    1    2    0    0 -0.38536672044E+02 -0.15249025280E+01  0.19905422846E+02  0.43400763572E+02  0.00000000000E+00 0. -1.
         11    1    3    3    0    0  0.95132269986E+01 -0.30431385583E+01 -0.10071140321E+02  0.14184147765E+02  0.51100000000E-03 0.  1.
        -11    1    3    3    0    0  0.24439316320E+02 -0.86977274653E+00 -0.10164722797E+02  0.26483169686E+02  0.51100000000E-03 0. -1.
         12    1    3    3    0    0  0.45841287257E+01  0.54378138328E+01  0.33044027084E+00  0.71199189761E+01  0.00000000000E+00 0. -1.
</event>
<event>
 7    1  0.1265344E-009  0.4778727E+02  0.7816164E-02  0.1312668E+00
        -11   -1    0    0    0    0  0.00000000000E+00  0.00000000000E+00  0.45593999997E+02  0.45594000000E+02  0.51100000000E-03 0.  1.
         11   -1    0    0    0    0 -0.00000000000E+00 -0.00000000000E+00 -0.45593999997E+02  0.45594000000E+02  0.51100000000E-03 0. -1.
    9900012    2    1    2    0    0 -0.31028100861E+02 -0.30329708162E+02  0.99444299868E+00  0.47787272390E+02  0.20000006134E+02 0.  0.
         12    1    1    2    0    0  0.31028100861E+02  0.30329708162E+02 -0.99444299868E+00  0.43400727610E+02  0.00000000000E+00 0. -1.
         11    1    3    3    0    0 -0.15815789368E+02 -0.36975629074E+01  0.28280837178E+01  0.16486637697E+02  0.51100000000E-03 0.  1.
        -11    1    3    3    0    0 -0.19671645087E+00 -0.44016106668E+01 -0.58911398134E+00  0.44452142095E+01  0.51100000000E-03 0. -1.
        -12    1    3    3    0    0 -0.15015595042E+02 -0.22230534588E+02 -0.12445267377E+01  0.26855420483E+02  0.00000000000E+00 0.  1.
</event>
<event>
 7    1  0.1265344E-009  0.4778727E+02  0.7816164E-02  0.1312668E+00
        -11   -1    0    0    0    0  0.00000000000E+00  0.00000000000E+00  0.45593999997E+02  0.45594000000E+02  0.51100000000E-03 0. -1.
         11   -1    0    0    0    0 -0.00000000000E+00 -0.00000000000E+00 -0.45593999997E+02  0.45594000000E+02  0.51100000000E-03 0.  1.
    9900012    2    1    2    0    0  0.34342226569E+02 -0.13693432812E+02 -0.22731583708E+02  0.47787268143E+02  0.19999986769E+02 0.  0.
         12    1    1    2    0    0 -0.34342226569E+02  0.13693432812E+02  0.22731583708E+02  0.43400731857E+02  0.00000000000E+00 0. -1.
         11    1    3    3    0    0  0.73852284019E+01  0.33407716015E+01 -0.33653406826E+01  0.87765523762E+01  0.51100000000E-03 0. -1.
        -11    1    3    3    0    0  0.23098347025E+02 -0.10486118553E+02 -0.10833029745E+02  0.27583452491E+02  0.51100000000E-03 0.  1.
         12    1    3    3    0    0  0.38586511416E+01 -0.65480858607E+01 -0.85332132806E+01  0.11427263275E+02  0.00000000000E+00 0. -1.
</event>
<event>
 7    1  0.1265344E-009  0.4778727E+02  0.7816164E-02  0.1312668E+00
        -11   -1    0    0    0    0  0.00000000000E+00  0.00000000000E+00  0.45593999997E+02  0.45594000000E+02  0.51100000000E-03 0. -1.
         11   -1    0    0    0    0 -0.00000000000E+00 -0.00000000000E+00 -0.45593999997E+02  0.45594000000E+02  0.51100000000E-03 0.  1.
    9900012    2    1    2    0    0  0.62473548796E+00  0.40613629911E+02  0.15289416071E+02  0.47787268753E+02  0.19999989553E+02 0.  0.
         12    1    1    2    0    0 -0.62473548796E+00 -0.40613629911E+02 -0.15289416071E+02  0.43400731247E+02  0.00000000000E+00 0. -1.
         11    1    3    3    0    0 -0.13297442247E+01  0.22639728226E+01 -0.14930373231E+01  0.30204227111E+01  0.51100000000E-03 0. -1.
        -11    1    3    3    0    0  0.70510108800E+00  0.23111268480E+02  0.18180450354E+02  0.29413545751E+02  0.51100000000E-03 0.  1.
        -12    1    3    3    0    0  0.12493786246E+01  0.15238388608E+02 -0.13979969601E+01  0.15353300291E+02  0.00000000000E+00 0.  1.
</event>
<event>
 7    1  0.1265344E-009  0.4778727E+02  0.7816164E-02  0.1312668E+00
        -11   -1    0    0    0    0  0.00000000000E+00  0.00000000000E+00  0.45593999997E+02  0.45594000000E+02  0.51100000000E-03 0.  1.
         11   -1    0    0    0    0 -0.00000000000E+00 -0.00000000000E+00 -0.45593999997E+02  0.45594000000E+02  0.51100000000E-03 0. -1.
    9900012    2    1    2    0    0  0.19057752266E+02  0.33045226623E+02  0.20698749961E+02  0.47787272196E+02  0.20000005249E+02 0.  0.
         12    1    1    2    0    0 -0.19057752266E+02 -0.33045226623E+02 -0.20698749961E+02  0.43400727804E+02  0.00000000000E+00 0. -1.
         11    1    3    3    0    0  0.30231814948E+01  0.10605505365E+01  0.39658722671E+01  0.50982876430E+01  0.51100000000E-03 0. -1.
        -11    1    3    3    0    0  0.17302737517E+02  0.31249852453E+02  0.11918100265E+02  0.37656063497E+02  0.51100000000E-03 0.  1.
        -12    1    3    3    0    0 -0.12681667453E+01  0.73482363344E+00  0.48147774286E+01  0.50329210557E+01  0.00000000000E+00 0.  1.
</event>
<event>
 7    1  0.1265344E-009  0.4778727E+02  0.7816164E-02  0.1312668E+00
        -11   -1    0    0    0    0  0.00000000000E+00  0.00000000000E+00  0.45593999997E+02  0.45594000000E+02  0.51100000000E-03 0.  1.
         11   -1    0    0    0    0 -0.00000000000E+00 -0.00000000000E+00 -0.45593999997E+02  0.45594000000E+02  0.51100000000E-03 0. -1.
    9900012    2    1    2    0    0 -0.62484540129E+01 -0.40701370832E+02  0.13710527814E+02  0.47787270305E+02  0.19999996628E+02 0.  0.
         12    1    1    2    0    0  0.62484540129E+01  0.40701370832E+02 -0.13710527814E+02  0.43400729695E+02  0.00000000000E+00 0. -1.
         11    1    3    3    0    0  0.21934450718E+01  0.48909403726E+00 -0.39360218362E+00  0.22815208087E+01  0.51100000000E-03 0. -1.
        -11    1    3    3    0    0 -0.70199497012E+01 -0.14967465737E+02  0.22196812289E+01  0.16680279057E+02  0.51100000000E-03 0.  1.
         12    1    3    3    0    0 -0.14219493835E+01 -0.26222999132E+02  0.11884448769E+02  0.28825470439E+02  0.00000000000E+00 0. -1.
</event>
<event>
 7    1  0.1265344E-009  0.4778727E+02  0.7816164E-02  0.1312668E+00
        -11   -1    0    0    0    0  0.00000000000E+00  0.00000000000E+00  0.45593999997E+02  0.45594000000E+02  0.51100000000E-03 0.  1.
         11   -1    0    0    0    0 -0.00000000000E+00 -0.00000000000E+00 -0.45593999997E+02  0.45594000000E+02  0.51100000000E-03 0. -1.
    9900012    2    1    2    0    0  0.70908070363E+01 -0.25936209762E+02  0.34068415729E+02  0.47787268767E+02  0.19999989617E+02 0.  0.
         12    1    1    2    0    0 -0.70908070363E+01  0.25936209762E+02 -0.34068415729E+02  0.43400731233E+02  0.00000000000E+00 0. -1.
         11    1    3    3    0    0  0.14110609886E+01  0.13518636798E+01 -0.63077759617E+00  0.20534140253E+01  0.51100000000E-03 0. -1.
        -11    1    3    3    0    0 -0.20435612971E+01 -0.11035660999E+01  0.15588025905E+01  0.27971175680E+01  0.51100000000E-03 0.  1.
        -12    1    3    3    0    0  0.77233073448E+01 -0.26184507342E+02  0.33140390735E+02  0.42936737174E+02  0.00000000000E+00 0.  1.
</event>
<event>
 7    1  0.1265344E-009  0.4778727E+02  0.7816164E-02  0.1312668E+00
        -11   -1    0    0    0    0  0.00000000000E+00  0.00000000000E+00  0.45593999997E+02  0.45594000000E+02  0.51100000000E-03 0. -1.
         11   -1    0    0    0    0 -0.00000000000E+00 -0.00000000000E+00 -0.45593999997E+02  0.45594000000E+02  0.51100000000E-03 0.  1.
    9900012    2    1    2    0    0 -0.37850334134E+02 -0.38089305618E+01 -0.20891801822E+02  0.47787272708E+02  0.20000007586E+02 0.  0.
         12    1    1    2    0    0  0.37850334134E+02  0.38089305618E+01  0.20891801822E+02  0.43400727292E+02  0.00000000000E+00 0. -1.
         11    1    3    3    0    0 -0.31579268387E+02 -0.70433305998E+01 -0.17937355918E+02  0.36994694692E+02  0.51100000000E-03 0. -1.
        -11    1    3    3    0    0 -0.29021230885E+01 -0.22732367594E+01  0.14191710236E-01  0.36864787333E+01  0.51100000000E-03 0.  1.
        -12    1    3    3    0    0 -0.33689426587E+01  0.55076367975E+01 -0.29686376145E+01  0.71060992828E+01  0.00000000000E+00 0.  1.
</event>
<event>
 7    1  0.1265344E-009  0.4778728E+02  0.7816164E-02  0.1312668E+00
        -11   -1    0    0    0    0  0.00000000000E+00  0.00000000000E+00  0.45593999997E+02  0.45594000000E+02  0.51100000000E-03 0.  1.
         11   -1    0    0    0    0 -0.00000000000E+00 -0.00000000000E+00 -0.45593999997E+02  0.45594000000E+02  0.51100000000E-03 0. -1.
    9900012    2    1    2    0    0  0.32187886633E+02  0.28279379282E+02  0.69166127898E+01  0.47787275686E+02  0.20000021163E+02 0.  0.
         12    1    1    2    0    0 -0.32187886633E+02 -0.28279379282E+02 -0.69166127898E+01  0.43400724314E+02  0.00000000000E+00 0. -1.
         11    1    3    3    0    0  0.65183360448E+01  0.33371198320E+01 -0.46712104610E+01  0.86859243030E+01  0.51100000000E-03 0. -1.
        -11    1    3    3    0    0  0.15302208244E+02  0.17153333784E+02  0.21985290686E+01  0.23091729416E+02  0.51100000000E-03 0.  1.
        -12    1    3    3    0    0  0.10367342344E+02  0.77889256655E+01  0.93892941822E+01  0.16009621967E+02  0.00000000000E+00 0.  1.
</event>
<event>
 7    1  0.1265344E-009  0.4778727E+02  0.7816164E-02  0.1312668E+00
        -11   -1    0    0    0    0  0.00000000000E+00  0.00000000000E+00  0.45593999997E+02  0.45594000000E+02  0.51100000000E-03 0.  1.
         11   -1    0    0    0    0 -0.00000000000E+00 -0.00000000000E+00 -0.45593999997E+02  0.45594000000E+02  0.51100000000E-03 0. -1.
    9900012    2    1    2    0    0  0.22972128949E+01  0.44529913702E+00  0.43337603192E+02  0.47787270412E+02  0.19999997115E+02 0.  0.
         12    1    1    2    0    0 -0.22972128949E+01 -0.44529913702E+00 -0.43337603192E+02  0.43400729588E+02  0.00000000000E+00 0. -1.
         11    1    3    3    0    0 -0.12089527567E+01  0.37630800453E+01  0.15384044047E+02  0.15883675573E+02  0.51100000000E-03 0. -1.
        -11    1    3    3    0    0  0.85269217450E+01 -0.32442408637E+01  0.23436232590E+02  0.25149363640E+02  0.51100000000E-03 0.  1.
        -12    1    3    3    0    0 -0.50207560934E+01 -0.73540044650E-01  0.45173265541E+01  0.67542311986E+01  0.00000000000E+00 0.  1.
</event>
<event>
 7    1  0.1265344E-009  0.4778726E+02  0.7816164E-02  0.1312668E+00
        -11   -1    0    0    0    0  0.00000000000E+00  0.00000000000E+00  0.45593999997E+02  0.45594000000E+02  0.51100000000E-03 0.  1.
         11   -1    0    0    0    0 -0.00000000000E+00 -0.00000000000E+00 -0.45593999997E+02  0.45594000000E+02  0.51100000000E-03 0. -1.
    9900012    2    1    2    0    0 -0.20884736798E+02  0.23985907080E+02  0.29531819025E+02  0.47787259171E+02  0.19999945864E+02 0.  0.
         12    1    1    2    0    0  0.20884736798E+02 -0.23985907080E+02 -0.29531819025E+02  0.43400740829E+02  0.00000000000E+00 0. -1.
         11    1    3    3    0    0 -0.12433391694E+02  0.91088630666E+01  0.17461886426E+02  0.23291159121E+02  0.51100000000E-03 0. -1.
        -11    1    3    3    0    0  0.29673710099E+01  0.40981063987E+01  0.55033678335E+01  0.74757490954E+01  0.51100000000E-03 0.  1.
         12    1    3    3    0    0 -0.11418716114E+02  0.10778937615E+02  0.65665647655E+01  0.17020350955E+02  0.00000000000E+00 0. -1.
</event>
<event>
 7    1  0.1265344E-009  0.4778727E+02  0.7816164E-02  0.1312668E+00
        -11   -1    0    0    0    0  0.00000000000E+00  0.00000000000E+00  0.45593999997E+02  0.45594000000E+02  0.51100000000E-03 0.  1.
         11   -1    0    0    0    0 -0.00000000000E+00 -0.00000000000E+00 -0.45593999997E+02  0.45594000000E+02  0.51100000000E-03 0. -1.
    9900012    2    1    2    0    0  0.23062953098E+02  0.70327586919E+01  0.36086893557E+02  0.47787269741E+02  0.19999994059E+02 0.  0.
         12    1    1    2    0    0 -0.23062953098E+02 -0.70327586919E+01 -0.36086893557E+02  0.43400730259E+02  0.00000000000E+00 0. -1.
         11    1    3    3    0    0  0.77273467424E+01 -0.40243052755E+00  0.43164130707E+01  0.88603194110E+01  0.51100000000E-03 0. -1.
        -11    1    3    3    0    0  0.14611183194E+02  0.77707737301E+01  0.15619043090E+02  0.22755792801E+02  0.51100000000E-03 0.  1.
         12    1    3    3    0    0  0.72442316099E+00 -0.33558451062E+00  0.16151437396E+02  0.16171157529E+02  0.00000000000E+00 0. -1.
</event>
<event>
 7    1  0.1265344E-009  0.4778723E+02  0.7816164E-02  0.1312668E+00
        -11   -1    0    0    0    0  0.00000000000E+00  0.00000000000E+00  0.45593999997E+02  0.45594000000E+02  0.51100000000E-03 0. -1.
         11   -1    0    0    0    0 -0.00000000000E+00 -0.00000000000E+00 -0.45593999997E+02  0.45594000000E+02  0.51100000000E-03 0.  1.
    9900012    2    1    2    0    0  0.32574386137E+02  0.78071550309E+00 -0.28669268574E+02  0.47787226856E+02  0.19999798527E+02 0.  0.
         12    1    1    2    0    0 -0.32574386137E+02 -0.78071550309E+00  0.28669268574E+02  0.43400773144E+02  0.00000000000E+00 0. -1.
         11    1    3    3    0    0  0.34449558842E+01 -0.46807125911E+01 -0.71552318912E+01  0.92181416285E+01  0.51100000000E-03 0. -1.
        -11    1    3    3    0    0  0.22110021051E+02  0.35852334890E+01 -0.21855978066E+02  0.31295218605E+02  0.51100000000E-03 0.  1.
        -12    1    3    3    0    0  0.70194092020E+01  0.18761946052E+01  0.34194138283E+00  0.72738666232E+01  0.00000000000E+00 0.  1.
</event>
<event>
 7    1  0.1307275E-009  0.4778727E+02  0.7816164E-02  0.1312668E+00
        -11   -1    0    0    0    0  0.00000000000E+00  0.00000000000E+00  0.45593999997E+02  0.45594000000E+02  0.51100000000E-03 0.  1.
         11   -1    0    0    0    0 -0.00000000000E+00 -0.00000000000E+00 -0.45593999997E+02  0.45594000000E+02  0.51100000000E-03 0. -1.
    9900012    2    1    2    0    0  0.30527890280E+02  0.21622333831E+02  0.22003316310E+02  0.47787270353E+02  0.19999996847E+02 0.  0.
         12    1    1    2    0    0 -0.30527890280E+02 -0.21622333831E+02 -0.22003316310E+02  0.43400729647E+02  0.00000000000E+00 0. -1.
         11    1    3    3    0    0  0.91579950223E+01  0.56514076867E+01 -0.64708114813E+00  0.10780816108E+02  0.51100000000E-03 0. -1.
        -11    1    3    3    0    0  0.88462428743E+00  0.62755674119E+01  0.71204121846E+01  0.95323436998E+01  0.51100000000E-03 0.  1.
        -12    1    3    3    0    0  0.20485270970E+02  0.96953587327E+01  0.15529985274E+02  0.27474110546E+02  0.00000000000E+00 0.  1.
</event>
<event>
 7    1  0.1265344E-009  0.4778727E+02  0.7816164E-02  0.1312668E+00
        -11   -1    0    0    0    0  0.00000000000E+00  0.00000000000E+00  0.45593999997E+02  0.45594000000E+02  0.51100000000E-03 0.  1.
         11   -1    0    0    0    0 -0.00000000000E+00 -0.00000000000E+00 -0.45593999997E+02  0.45594000000E+02  0.51100000000E-03 0. -1.
    9900012    2    1    2    0    0  0.15293747726E+01 -0.66187621186E+01  0.42865791844E+02  0.47787272937E+02  0.20000008628E+02 0.  0.
         12    1    1    2    0    0 -0.15293747726E+01  0.66187621186E+01 -0.42865791844E+02  0.43400727063E+02  0.00000000000E+00 0. -1.
         11    1    3    3    0    0  0.58235161225E+01 -0.21072927477E+01  0.12547802378E+02  0.13992904185E+02  0.51100000000E-03 0. -1.
        -11    1    3    3    0    0  0.44773640759E+01  0.96455786123E+00  0.87862144734E+01  0.99083160007E+01  0.51100000000E-03 0.  1.
        -12    1    3    3    0    0 -0.87715054258E+01 -0.54760272322E+01  0.21531774992E+02  0.23886052751E+02  0.00000000000E+00 0.  1.
</event>
<event>
 7    1  0.1265344E-009  0.4778727E+02  0.7816164E-02  0.1312668E+00
        -11   -1    0    0    0    0  0.00000000000E+00  0.00000000000E+00  0.45593999997E+02  0.45594000000E+02  0.51100000000E-03 0.  1.
         11   -1    0    0    0    0 -0.00000000000E+00 -0.00000000000E+00 -0.45593999997E+02  0.45594000000E+02  0.51100000000E-03 0. -1.
    9900012    2    1    2    0    0 -0.36834106268E+02  0.17112497541E+02  0.15298175247E+02  0.47787272788E+02  0.20000007950E+02 0.  0.
         12    1    1    2    0    0  0.36834106268E+02 -0.17112497541E+02 -0.15298175247E+02  0.43400727212E+02  0.00000000000E+00 0. -1.
         11    1    3    3    0    0 -0.40231082357E+01  0.25877753464E+01 -0.30362142713E+01  0.56657372408E+01  0.51100000000E-03 0. -1.
        -11    1    3    3    0    0 -0.19745148672E+02  0.14837697076E+02  0.10164612338E+02  0.26708565945E+02  0.51100000000E-03 0.  1.
        -12    1    3    3    0    0 -0.13065849360E+02 -0.31297488140E+00  0.81697771807E+01  0.15412969602E+02  0.00000000000E+00 0.  1.
</event>
<event>
 7    1  0.1265344E-009  0.4778727E+02  0.7816164E-02  0.1312668E+00
        -11   -1    0    0    0    0  0.00000000000E+00  0.00000000000E+00  0.45593999997E+02  0.45594000000E+02  0.51100000000E-03 0. -1.
         11   -1    0    0    0    0 -0.00000000000E+00 -0.00000000000E+00 -0.45593999997E+02  0.45594000000E+02  0.51100000000E-03 0.  1.
    9900012    2    1    2    0    0 -0.38873163923E+02 -0.15166899237E+02  0.11935888887E+02  0.47787272479E+02  0.20000006542E+02 0.  0.
         12    1    1    2    0    0  0.38873163923E+02  0.15166899237E+02 -0.11935888887E+02  0.43400727521E+02  0.00000000000E+00 0. -1.
         11    1    3    3    0    0 -0.20875819884E+00  0.57293917599E+00  0.99445222501E-01  0.61784213062E+00  0.51100000000E-03 0. -1.
        -11    1    3    3    0    0 -0.35126106919E+02 -0.66889330003E+01  0.11021581662E+02  0.37417381984E+02  0.51100000000E-03 0.  1.
         12    1    3    3    0    0 -0.35382988046E+01 -0.90509054124E+01  0.81486200295E+00  0.97520483643E+01  0.00000000000E+00 0. -1.
</event>
<event>
 7    1  0.1265344E-009  0.4778727E+02  0.7816164E-02  0.1312668E+00
        -11   -1    0    0    0    0  0.00000000000E+00  0.00000000000E+00  0.45593999997E+02  0.45594000000E+02  0.51100000000E-03 0. -1.
         11   -1    0    0    0    0 -0.00000000000E+00 -0.00000000000E+00 -0.45593999997E+02  0.45594000000E+02  0.51100000000E-03 0.  1.
    9900012    2    1    2    0    0  0.40403455812E+02  0.59796843128E+01 -0.14677439692E+02  0.47787273025E+02  0.20000009031E+02 0.  0.
         12    1    1    2    0    0 -0.40403455812E+02 -0.59796843128E+01  0.14677439692E+02  0.43400726975E+02  0.00000000000E+00 0. -1.
         11    1    3    3    0    0  0.67404855958E+00 -0.25799291620E+01 -0.73072999088E+00  0.27648404153E+01  0.51100000000E-03 0. -1.
        -11    1    3    3    0    0  0.24472248961E+02  0.35523541248E+01 -0.16252560580E+01  0.24782083177E+02  0.51100000000E-03 0.  1.
        -12    1    3    3    0    0  0.15257158291E+02  0.50072593500E+01 -0.12321453643E+02  0.20240349433E+02  0.00000000000E+00 0.  1.
</event>
<event>
 7    1  0.1265344E-009  0.4778727E+02  0.7816164E-02  0.1312668E+00
        -11   -1    0    0    0    0  0.00000000000E+00  0.00000000000E+00  0.45593999997E+02  0.45594000000E+02  0.51100000000E-03 0.  1.
         11   -1    0    0    0    0 -0.00000000000E+00 -0.00000000000E+00 -0.45593999997E+02  0.45594000000E+02  0.51100000000E-03 0. -1.
    9900012    2    1    2    0    0 -0.22253302828E+02  0.28786223922E+02  0.23659398746E+02  0.47787270474E+02  0.19999997398E+02 0.  0.
         12    1    1    2    0    0  0.22253302828E+02 -0.28786223922E+02 -0.23659398746E+02  0.43400729526E+02  0.00000000000E+00 0. -1.
         11    1    3    3    0    0 -0.19056291579E+02  0.11904814613E+02  0.10946245068E+02  0.24993742038E+02  0.51100000000E-03 0. -1.
        -11    1    3    3    0    0 -0.34361627319E+01  0.88780632135E+01  0.11104540415E+02  0.14626620896E+02  0.51100000000E-03 0.  1.
         12    1    3    3    0    0  0.23915148262E+00  0.80033460950E+01  0.16086132634E+01  0.81669075408E+01  0.00000000000E+00 0. -1.
</event>
<event>
 7    1  0.1265344E-009  0.4778727E+02  0.7816164E-02  0.1312668E+00
        -11   -1    0    0    0    0  0.00000000000E+00  0.00000000000E+00  0.45593999997E+02  0.45594000000E+02  0.51100000000E-03 0. -1.
         11   -1    0    0    0    0 -0.00000000000E+00 -0.00000000000E+00 -0.45593999997E+02  0.45594000000E+02  0.51100000000E-03 0.  1.
    9900012    2    1    2    0    0 -0.28397895837E+01 -0.63952536814E+01 -0.42832923992E+02  0.47787273598E+02  0.20000011641E+02 0.  0.
         12    1    1    2    0    0  0.28397895837E+01  0.63952536814E+01  0.42832923992E+02  0.43400726402E+02  0.00000000000E+00 0. -1.
         11    1    3    3    0    0  0.33512193416E+01 -0.29578153416E+01 -0.11213593666E+02  0.12071620679E+02  0.51100000000E-03 0.  1.
        -11    1    3    3    0    0 -0.71500510565E+01 -0.74525358249E+01 -0.12790416644E+02  0.16439534012E+02  0.51100000000E-03 0. -1.
        -12    1    3    3    0    0  0.95904213118E+00  0.40150974851E+01 -0.18828913683E+02  0.19276118906E+02  0.00000000000E+00 0.  1.
</event>
<event>
 7    1  0.1265344E-009  0.4778727E+02  0.7816164E-02  0.1312668E+00
        -11   -1    0    0    0    0  0.00000000000E+00  0.00000000000E+00  0.45593999997E+02  0.45594000000E+02  0.51100000000E-03 0.  1.
         11   -1    0    0    0    0 -0.00000000000E+00 -0.00000000000E+00 -0.45593999997E+02  0.45594000000E+02  0.51100000000E-03 0. -1.
    9900012    2    1    2    0    0 -0.30637983739E+02 -0.79607031754E+00  0.30729520839E+02  0.47787271590E+02  0.20000002487E+02 0.  0.
         12    1    1    2    0    0  0.30637983739E+02  0.79607031754E+00 -0.30729520839E+02  0.43400728410E+02  0.00000000000E+00 0. -1.
         11    1    3    3    0    0  0.13036090000E+01  0.22920935656E+00  0.64127403832E+00  0.14707705489E+01  0.51100000000E-03 0. -1.
        -11    1    3    3    0    0 -0.31603050729E+02  0.19948271608E+01  0.29379525500E+02  0.43195933486E+02  0.51100000000E-03 0.  1.
         12    1    3    3    0    0 -0.33854200931E+00 -0.30201068349E+01  0.70872130055E+00  0.31205675554E+01  0.00000000000E+00 0. -1.
</event>
<event>
 7    1  0.1265344E-009  0.4778728E+02  0.7816164E-02  0.1312668E+00
        -11   -1    0    0    0    0  0.00000000000E+00  0.00000000000E+00  0.45593999997E+02  0.45594000000E+02  0.51100000000E-03 0.  1.
         11   -1    0    0    0    0 -0.00000000000E+00 -0.00000000000E+00 -0.45593999997E+02  0.45594000000E+02  0.51100000000E-03 0. -1.
    9900012    2    1    2    0    0 -0.25709408562E+02  0.44151173582E+01  0.34686529837E+02  0.47787282240E+02  0.20000051047E+02 0.  0.
         12    1    1    2    0    0  0.25709408562E+02 -0.44151173582E+01 -0.34686529837E+02  0.43400717760E+02  0.00000000000E+00 0. -1.
         11    1    3    3    0    0 -0.52449639146E+01 -0.27132521531E+01  0.87183353429E+01  0.10529993121E+02  0.51100000000E-03 0. -1.
        -11    1    3    3    0    0 -0.23951349876E+00 -0.28426483207E+01  0.77814424094E+01  0.82878744213E+01  0.51100000000E-03 0.  1.
        -12    1    3    3    0    0 -0.20224931148E+02  0.99710178321E+01  0.18186752085E+02  0.28969414698E+02  0.00000000000E+00 0.  1.
</event>
<event>
 7    1  0.1265344E-009  0.4778728E+02  0.7816164E-02  0.1312668E+00
        -11   -1    0    0    0    0  0.00000000000E+00  0.00000000000E+00  0.45593999997E+02  0.45594000000E+02  0.51100000000E-03 0.  1.
         11   -1    0    0    0    0 -0.00000000000E+00 -0.00000000000E+00 -0.45593999997E+02  0.45594000000E+02  0.51100000000E-03 0. -1.
    9900012    2    1    2    0    0  0.30033280324E+02  0.28908227826E+02 -0.12080523143E+02  0.47787278780E+02  0.20000035270E+02 0.  0.
         12    1    1    2    0    0 -0.30033280324E+02 -0.28908227826E+02  0.12080523143E+02  0.43400721220E+02  0.00000000000E+00 0. -1.
         11    1    3    3    0    0  0.38821565312E+01  0.16303710377E+01  0.38249503093E+01  0.56885406022E+01  0.51100000000E-03 0. -1.
        -11    1    3    3    0    0  0.83243987869E+01  0.15326186838E+02 -0.58349629436E+01  0.18391150344E+02  0.51100000000E-03 0.  1.
        -12    1    3    3    0    0  0.17826725005E+02  0.11951669950E+02 -0.10070510508E+02  0.23707587834E+02  0.00000000000E+00 0.  1.
</event>
<event>
 7    1  0.1265344E-009  0.4778729E+02  0.7816164E-02  0.1312668E+00
        -11   -1    0    0    0    0  0.00000000000E+00  0.00000000000E+00  0.45593999997E+02  0.45594000000E+02  0.51100000000E-03 0.  1.
         11   -1    0    0    0    0 -0.00000000000E+00 -0.00000000000E+00 -0.45593999997E+02  0.45594000000E+02  0.51100000000E-03 0. -1.
    9900012    2    1    2    0    0  0.20802446943E+02 -0.12521005613E+02  0.35973665203E+02  0.47787286083E+02  0.20000068568E+02 0.  0.
         12    1    1    2    0    0 -0.20802446943E+02  0.12521005613E+02 -0.35973665203E+02  0.43400713917E+02  0.00000000000E+00 0. -1.
         11    1    3    3    0    0  0.45044766981E+01 -0.20209990677E+01 -0.12050978241E+01  0.50820279990E+01  0.51100000000E-03 0. -1.
        -11    1    3    3    0    0  0.29830118931E+01 -0.18761594000E+01  0.15177304732E+02  0.15581043394E+02  0.51100000000E-03 0.  1.
        -12    1    3    3    0    0  0.13314958351E+02 -0.86238471450E+01  0.22001458295E+02  0.27124214691E+02  0.00000000000E+00 0.  1.
</event>
<event>
 7    1  0.1265344E-009  0.4778727E+02  0.7816164E-02  0.1312668E+00
        -11   -1    0    0    0    0  0.00000000000E+00  0.00000000000E+00  0.45593999997E+02  0.45594000000E+02  0.51100000000E-03 0. -1.
         11   -1    0    0    0    0 -0.00000000000E+00 -0.00000000000E+00 -0.45593999997E+02  0.45594000000E+02  0.51100000000E-03 0.  1.
    9900012    2    1    2    0    0 -0.40685180761E+02  0.12739972665E+02 -0.81260222032E+01  0.47787273348E+02  0.20000010503E+02 0.  0.
         12    1    1    2    0    0  0.40685180761E+02 -0.12739972665E+02  0.81260222032E+01  0.43400726652E+02  0.00000000000E+00 0. -1.
         11    1    3    3    0    0 -0.13756994788E+02 -0.84153333592E+00 -0.21222445456E+01  0.13945142744E+02  0.51100000000E-03 0. -1.
        -11    1    3    3    0    0  0.99149139104E+00  0.13668728186E+01 -0.27058659481E+01  0.31895308857E+01  0.51100000000E-03 0.  1.
        -12    1    3    3    0    0 -0.27919677364E+02  0.12214633182E+02 -0.32979117095E+01  0.30652599719E+02  0.00000000000E+00 0.  1.
</event>
<event>
 7    1  0.1265344E-009  0.4778722E+02  0.7816164E-02  0.1312668E+00
        -11   -1    0    0    0    0  0.00000000000E+00  0.00000000000E+00  0.45593999997E+02  0.45594000000E+02  0.51100000000E-03 0.  1.
         11   -1    0    0    0    0 -0.00000000000E+00 -0.00000000000E+00 -0.45593999997E+02  0.45594000000E+02  0.51100000000E-03 0. -1.
    9900012    2    1    2    0    0 -0.19511424955E+02 -0.19254734704E+02  0.33647988488E+02  0.47787220726E+02  0.19999770578E+02 0.  0.
         12    1    1    2    0    0  0.19511424955E+02  0.19254734704E+02 -0.33647988488E+02  0.43400779274E+02  0.00000000000E+00 0. -1.
         11    1    3    3    0    0 -0.95045918539E+01 -0.66933680085E+01  0.17865851431E+02  0.21314949900E+02  0.51100000000E-03 0.  1.
        -11    1    3    3    0    0 -0.49858661028E+01 -0.83243938094E+01  0.17202730456E+02  0.19750653875E+02  0.51100000000E-03 0. -1.
         12    1    3    3    0    0 -0.50209669983E+01 -0.42369728862E+01 -0.14205933996E+01  0.67216169515E+01  0.00000000000E+00 0. -1.
</event>
<event>
 7    1  0.1265344E-009  0.4778727E+02  0.7816164E-02  0.1312668E+00
        -11   -1    0    0    0    0  0.00000000000E+00  0.00000000000E+00  0.45593999997E+02  0.45594000000E+02  0.51100000000E-03 0. -1.
         11   -1    0    0    0    0 -0.00000000000E+00 -0.00000000000E+00 -0.45593999997E+02  0.45594000000E+02  0.51100000000E-03 0.  1.
    9900012    2    1    2    0    0  0.15556798448E+02 -0.34330334926E+02 -0.21518307385E+02  0.47787269283E+02  0.19999991969E+02 0.  0.
         12    1    1    2    0    0 -0.15556798448E+02  0.34330334926E+02  0.21518307385E+02  0.43400730717E+02  0.00000000000E+00 0. -1.
         11    1    3    3    0    0 -0.79043438686E+00 -0.10631372082E+02 -0.45714616444E+01  0.11599531055E+02  0.51100000000E-03 0. -1.
        -11    1    3    3    0    0  0.98254997005E+01 -0.11082777205E+02 -0.16223053196E+02  0.21967153894E+02  0.51100000000E-03 0.  1.
        -12    1    3    3    0    0  0.65217331347E+01 -0.12616185639E+02 -0.72379254382E+00  0.14220584334E+02  0.00000000000E+00 0.  1.
</event>
<event>
 7    1  0.1265344E-009  0.4778726E+02  0.7816164E-02  0.1312668E+00
        -11   -1    0    0    0    0  0.00000000000E+00  0.00000000000E+00  0.45593999997E+02  0.45594000000E+02  0.51100000000E-03 0.  1.
         11   -1    0    0    0    0 -0.00000000000E+00 -0.00000000000E+00 -0.45593999997E+02  0.45594000000E+02  0.51100000000E-03 0. -1.
    9900012    2    1    2    0    0 -0.40617809737E+02  0.51166176251E+01  0.14409638103E+02  0.47787263669E+02  0.19999966373E+02 0.  0.
         12    1    1    2    0    0  0.40617809737E+02 -0.51166176251E+01 -0.14409638103E+02  0.43400736331E+02  0.00000000000E+00 0. -1.
         11    1    3    3    0    0 -0.18360517446E+02 -0.10234046739E+01  0.48076741049E+01  0.19007095743E+02  0.51100000000E-03 0. -1.
        -11    1    3    3    0    0 -0.12160572334E+02 -0.18534882871E+01 -0.65244867489E+00  0.12318304585E+02  0.51100000000E-03 0.  1.
        -12    1    3    3    0    0 -0.10096719958E+02  0.79935105861E+01  0.10254412673E+02  0.16461863341E+02  0.00000000000E+00 0.  1.
</event>
<event>
 7    1  0.1265344E-009  0.4778727E+02  0.7816164E-02  0.1312668E+00
        -11   -1    0    0    0    0  0.00000000000E+00  0.00000000000E+00  0.45593999997E+02  0.45594000000E+02  0.51100000000E-03 0.  1.
         11   -1    0    0    0    0 -0.00000000000E+00 -0.00000000000E+00 -0.45593999997E+02  0.45594000000E+02  0.51100000000E-03 0. -1.
    9900012    2    1    2    0    0 -0.91677940040E+01 -0.23011180310E+02  0.35637906160E+02  0.47787271646E+02  0.20000002742E+02 0.  0.
         12    1    1    2    0    0  0.91677940040E+01  0.23011180310E+02 -0.35637906160E+02  0.43400728354E+02  0.00000000000E+00 0. -1.
         11    1    3    3    0    0  0.34982541057E+01 -0.20497948890E+01  0.26329588654E+01  0.48344506951E+01  0.51100000000E-03 0. -1.
        -11    1    3    3    0    0 -0.56697269526E+01 -0.84264700490E+01  0.23861332749E+02  0.25932882640E+02  0.51100000000E-03 0.  1.
        -12    1    3    3    0    0 -0.69963211571E+01 -0.12534915373E+02  0.91436145459E+01  0.17019938311E+02  0.00000000000E+00 0.  1.
</event>
<event>
 7    1  0.1265344E-009  0.4778728E+02  0.7816164E-02  0.1312668E+00
        -11   -1    0    0    0    0  0.00000000000E+00  0.00000000000E+00  0.45593999997E+02  0.45594000000E+02  0.51100000000E-03 0. -1.
         11   -1    0    0    0    0 -0.00000000000E+00 -0.00000000000E+00 -0.45593999997E+02  0.45594000000E+02  0.51100000000E-03 0.  1.
    9900012    2    1    2    0    0 -0.14723947406E+02 -0.40264663573E+02 -0.67516710067E+01  0.47787276259E+02  0.20000023775E+02 0.  0.
         12    1    1    2    0    0  0.14723947406E+02  0.40264663573E+02  0.67516710067E+01  0.43400723741E+02  0.00000000000E+00 0. -1.
         11    1    3    3    0    0 -0.11751819514E+02 -0.40212512273E+02 -0.34654915011E+01  0.42037614547E+02  0.51100000000E-03 0. -1.
        -11    1    3    3    0    0  0.64585313125E+00  0.50383730643E+00  0.16775466461E-01  0.81930456845E+00  0.51100000000E-03 0.  1.
        -12    1    3    3    0    0 -0.36179810230E+01 -0.55598860613E+00 -0.33029549721E+01  0.49303571433E+01  0.00000000000E+00 0.  1.
</event>
<event>
 7    1  0.1265344E-009  0.4778727E+02  0.7816164E-02  0.1312668E+00
        -11   -1    0    0    0    0  0.00000000000E+00  0.00000000000E+00  0.45593999997E+02  0.45594000000E+02  0.51100000000E-03 0. -1.
         11   -1    0    0    0    0 -0.00000000000E+00 -0.00000000000E+00 -0.45593999997E+02  0.45594000000E+02  0.51100000000E-03 0.  1.
    9900012    2    1    2    0    0  0.18412849034E+02  0.55218323188E+01 -0.38911433077E+02  0.47787271137E+02  0.20000000423E+02 0.  0.
         12    1    1    2    0    0 -0.18412849034E+02 -0.55218323188E+01  0.38911433077E+02  0.43400728863E+02  0.00000000000E+00 0. -1.
         11    1    3    3    0    0  0.12319842180E+02  0.62381693789E+01 -0.11039079610E+02  0.17679212297E+02  0.51100000000E-03 0. -1.
        -11    1    3    3    0    0  0.84872555756E+01 -0.28647703369E+00 -0.24642181410E+02  0.26064394895E+02  0.51100000000E-03 0.  1.
        -12    1    3    3    0    0 -0.23942487223E+01 -0.42986002641E+00 -0.32301720569E+01  0.40436639455E+01  0.00000000000E+00 0.  1.
</event>
<event>
 7    1  0.1265344E-009  0.4778727E+02  0.7816164E-02  0.1312668E+00
        -11   -1    0    0    0    0  0.00000000000E+00  0.00000000000E+00  0.45593999997E+02  0.45594000000E+02  0.51100000000E-03 0.  1.
         11   -1    0    0    0    0 -0.00000000000E+00 -0.00000000000E+00 -0.45593999997E+02  0.45594000000E+02  0.51100000000E-03 0. -1.
    9900012    2    1    2    0    0  0.68626069667E+01 -0.11879538950E+02  0.41175288576E+02  0.47787271787E+02  0.20000003387E+02 0.  0.
         12    1    1    2    0    0 -0.68626069667E+01  0.11879538950E+02 -0.41175288576E+02  0.43400728213E+02  0.00000000000E+00 0. -1.
         11    1    3    3    0    0  0.92370378910E+00  0.36264795752E+01  0.12347814773E+02  0.12902445998E+02  0.51100000000E-03 0. -1.
        -11    1    3    3    0    0 -0.96074399539E+00 -0.12518469880E+01  0.10693774326E+02  0.10809577212E+02  0.51100000000E-03 0.  1.
        -12    1    3    3    0    0  0.68996471730E+01 -0.14254171537E+02  0.18133699478E+02  0.24075248578E+02  0.00000000000E+00 0.  1.
</event>
<event>
 7    1  0.1311277E-009  0.4778726E+02  0.7816164E-02  0.1312668E+00
        -11   -1    0    0    0    0  0.00000000000E+00  0.00000000000E+00  0.45593999997E+02  0.45594000000E+02  0.51100000000E-03 0. -1.
         11   -1    0    0    0    0 -0.00000000000E+00 -0.00000000000E+00 -0.45593999997E+02  0.45594000000E+02  0.51100000000E-03 0.  1.
    9900012    2    1    2    0    0 -0.24290296189E+02 -0.24836087907E+02 -0.26014882729E+02  0.47787264121E+02  0.19999968431E+02 0.  0.
         12    1    1    2    0    0  0.24290296189E+02  0.24836087907E+02  0.26014882729E+02  0.43400735879E+02  0.00000000000E+00 0. -1.
         11    1    3    3    0    0  0.87728841804E+00  0.18404350467E+01 -0.87552686156E+00  0.22188699097E+01  0.51100000000E-03 0. -1.
        -11    1    3    3    0    0 -0.11088193627E+02 -0.83613085010E+01 -0.14684822107E+02  0.20211469970E+02  0.51100000000E-03 0.  1.
        -12    1    3    3    0    0 -0.14079390980E+02 -0.18315214453E+02 -0.10454533760E+02  0.25356924241E+02  0.00000000000E+00 0.  1.
</event>
<event>
 7    1  0.1265344E-009  0.4778727E+02  0.7816164E-02  0.1312668E+00
        -11   -1    0    0    0    0  0.00000000000E+00  0.00000000000E+00  0.45593999997E+02  0.45594000000E+02  0.51100000000E-03 0. -1.
         11   -1    0    0    0    0 -0.00000000000E+00 -0.00000000000E+00 -0.45593999997E+02  0.45594000000E+02  0.51100000000E-03 0.  1.
    9900012    2    1    2    0    0 -0.41731143900E+02 -0.22127011219E+01  0.11714886663E+02  0.47787274350E+02  0.20000015069E+02 0.  0.
         12    1    1    2    0    0  0.41731143900E+02  0.22127011219E+01 -0.11714886663E+02  0.43400725650E+02  0.00000000000E+00 0. -1.
         11    1    3    3    0    0 -0.52965506278E+01 -0.21123490144E+01  0.60776815303E+01  0.83338874456E+01  0.51100000000E-03 0. -1.
        -11    1    3    3    0    0 -0.13523147943E+02 -0.33864839397E+01 -0.38127230308E+01  0.14452704277E+02  0.51100000000E-03 0.  1.
         12    1    3    3    0    0 -0.22911445330E+02  0.32861318321E+01  0.94499281637E+01  0.25000682627E+02  0.00000000000E+00 0. -1.
</event>
<event>
 7    1  0.1265344E-009  0.4778727E+02  0.7816164E-02  0.1312668E+00
        -11   -1    0    0    0    0  0.00000000000E+00  0.00000000000E+00  0.45593999997E+02  0.45594000000E+02  0.51100000000E-03 0. -1.
         11   -1    0    0    0    0 -0.00000000000E+00 -0.00000000000E+00 -0.45593999997E+02  0.45594000000E+02  0.51100000000E-03 0.  1.
    9900012    2    1    2    0    0  0.87733812211E+00 -0.38097075814E+02 -0.20771761546E+02  0.47787274367E+02  0.20000015148E+02 0.  0.
         12    1    1    2    0    0 -0.87733812211E+00  0.38097075814E+02  0.20771761546E+02  0.43400725633E+02  0.00000000000E+00 0. -1.
         11    1    3    3    0    0 -0.41333583856E+01 -0.35565949490E+02 -0.17379919158E+02  0.39800540258E+02  0.51100000000E-03 0.  1.
        -11    1    3    3    0    0 -0.47389849201E+00  0.69312568866E+00 -0.63630520855E+00  0.10535120220E+01  0.51100000000E-03 0. -1.
        -12    1    3    3    0    0  0.54845949997E+01 -0.32242520126E+01 -0.27555371797E+01  0.69332220865E+01  0.00000000000E+00 0.  1.
</event>
<event>
 7    1  0.1265344E-009  0.4778727E+02  0.7816164E-02  0.1312668E+00
        -11   -1    0    0    0    0  0.00000000000E+00  0.00000000000E+00  0.45593999997E+02  0.45594000000E+02  0.51100000000E-03 0. -1.
         11   -1    0    0    0    0 -0.00000000000E+00 -0.00000000000E+00 -0.45593999997E+02  0.45594000000E+02  0.51100000000E-03 0.  1.
    9900012    2    1    2    0    0 -0.43111496379E+02  0.48840764365E+01  0.10806749913E+01  0.47787272113E+02  0.20000004873E+02 0.  0.
         12    1    1    2    0    0  0.43111496379E+02 -0.48840764365E+01 -0.10806749913E+01  0.43400727887E+02  0.00000000000E+00 0. -1.
         11    1    3    3    0    0  0.14846155542E+01  0.12458621834E+00 -0.35882844029E+00  0.15324370070E+01  0.51100000000E-03 0. -1.
        -11    1    3    3    0    0 -0.19415321390E+02  0.64610415738E+01  0.41261509355E+01  0.20874024162E+02  0.51100000000E-03 0.  1.
         12    1    3    3    0    0 -0.25180790543E+02 -0.17015513556E+01 -0.26866475039E+01  0.25380810944E+02  0.00000000000E+00 0. -1.
</event>
<event>
 7    1  0.1265344E-009  0.4778726E+02  0.7816164E-02  0.1312668E+00
        -11   -1    0    0    0    0  0.00000000000E+00  0.00000000000E+00  0.45593999997E+02  0.45594000000E+02  0.51100000000E-03 0.  1.
         11   -1    0    0    0    0 -0.00000000000E+00 -0.00000000000E+00 -0.45593999997E+02  0.45594000000E+02  0.51100000000E-03 0. -1.
    9900012    2    1    2    0    0 -0.13914020280E+02  0.31611207096E+02  0.26282226464E+02  0.47787264956E+02  0.19999972242E+02 0.  0.
         12    1    1    2    0    0  0.13914020280E+02 -0.31611207096E+02 -0.26282226464E+02  0.43400735044E+02  0.00000000000E+00 0. -1.
         11    1    3    3    0    0  0.11458786345E+00  0.15208187804E+02  0.61616346296E+01  0.16409382933E+02  0.51100000000E-03 0. -1.
        -11    1    3    3    0    0 -0.11595298692E+02  0.15816892797E+02  0.12260426047E+02  0.23128836905E+02  0.51100000000E-03 0.  1.
         12    1    3    3    0    0 -0.24333094518E+01  0.58612649544E+00  0.78601657876E+01  0.82490451184E+01  0.00000000000E+00 0. -1.
</event>
<event>
 7    1  0.1265344E-009  0.4778727E+02  0.7816164E-02  0.1312668E+00
        -11   -1    0    0    0    0  0.00000000000E+00  0.00000000000E+00  0.45593999997E+02  0.45594000000E+02  0.51100000000E-03 0.  1.
         11   -1    0    0    0    0 -0.00000000000E+00 -0.00000000000E+00 -0.45593999997E+02  0.45594000000E+02  0.51100000000E-03 0. -1.
    9900012    2    1    2    0    0  0.27348098871E+02  0.33689358850E+02  0.85534484639E+00  0.47787273896E+02  0.20000013000E+02 0.  0.
         12    1    1    2    0    0 -0.27348098871E+02 -0.33689358850E+02 -0.85534484639E+00  0.43400726104E+02  0.00000000000E+00 0. -1.
         11    1    3    3    0    0  0.14514788601E+02  0.22270369815E+02 -0.32359465589E+01  0.26779092782E+02  0.51100000000E-03 0. -1.
        -11    1    3    3    0    0 -0.73713106034E+00  0.36458613607E+01 -0.20018647963E+01  0.42241129466E+01  0.51100000000E-03 0.  1.
        -12    1    3    3    0    0  0.13570441330E+02  0.77731276742E+01  0.60931562016E+01  0.16784068167E+02  0.00000000000E+00 0.  1.
</event>
<event>
 7    1  0.1265344E-009  0.4778727E+02  0.7816164E-02  0.1312668E+00
        -11   -1    0    0    0    0  0.00000000000E+00  0.00000000000E+00  0.45593999997E+02  0.45594000000E+02  0.51100000000E-03 0. -1.
         11   -1    0    0    0    0 -0.00000000000E+00 -0.00000000000E+00 -0.45593999997E+02  0.45594000000E+02  0.51100000000E-03 0.  1.
    9900012    2    1    2    0    0  0.26740445659E+02 -0.33357408214E+02 -0.74736625381E+01  0.47787265576E+02  0.19999975066E+02 0.  0.
         12    1    1    2    0    0 -0.26740445659E+02  0.33357408214E+02  0.74736625381E+01  0.43400734424E+02  0.00000000000E+00 0. -1.
         11    1    3    3    0    0  0.12232898590E+02 -0.12566528774E+02 -0.86670030975E+01  0.19562167475E+02  0.51100000000E-03 0. -1.
        -11    1    3    3    0    0  0.37817691880E+01  0.17806942819E+00 -0.22769448912E+01  0.44179141245E+01  0.51100000000E-03 0.  1.
         12    1    3    3    0    0  0.10725777881E+02 -0.20968948868E+02  0.34702854506E+01  0.23807183977E+02  0.00000000000E+00 0. -1.
</event>
<event>
 7    1  0.1265344E-009  0.4778730E+02  0.7816164E-02  0.1312668E+00
        -11   -1    0    0    0    0  0.00000000000E+00  0.00000000000E+00  0.45593999997E+02  0.45594000000E+02  0.51100000000E-03 0. -1.
         11   -1    0    0    0    0 -0.00000000000E+00 -0.00000000000E+00 -0.45593999997E+02  0.45594000000E+02  0.51100000000E-03 0.  1.
    9900012    2    1    2    0    0 -0.17553934707E+02 -0.39649993560E+02 -0.18325822097E+01  0.47787297579E+02  0.20000120983E+02 0.  0.
         12    1    1    2    0    0  0.17553934707E+02  0.39649993560E+02  0.18325822097E+01  0.43400702421E+02  0.00000000000E+00 0. -1.
         11    1    3    3    0    0 -0.79910285814E+01 -0.99278844474E+01 -0.51694897786E+00  0.12754868243E+02  0.51100000000E-03 0. -1.
        -11    1    3    3    0    0 -0.10637858959E+02 -0.11493799816E+02 -0.49287755437E+01  0.16418413628E+02  0.51100000000E-03 0.  1.
         12    1    3    3    0    0  0.10749528332E+01 -0.18228309297E+02  0.36131423119E+01  0.18614015709E+02  0.00000000000E+00 0. -1.
</event>
<event>
 7    1  0.1265344E-009  0.4778727E+02  0.7816164E-02  0.1312668E+00
        -11   -1    0    0    0    0  0.00000000000E+00  0.00000000000E+00  0.45593999997E+02  0.45594000000E+02  0.51100000000E-03 0.  1.
         11   -1    0    0    0    0 -0.00000000000E+00 -0.00000000000E+00 -0.45593999997E+02  0.45594000000E+02  0.51100000000E-03 0. -1.
    9900012    2    1    2    0    0  0.10412922021E+02 -0.33776060188E+02  0.25186753712E+02  0.47787265566E+02  0.19999975024E+02 0.  0.
         12    1    1    2    0    0 -0.10412922021E+02  0.33776060188E+02 -0.25186753712E+02  0.43400734434E+02  0.00000000000E+00 0. -1.
         11    1    3    3    0    0  0.54025939520E+01 -0.52929942501E+01  0.66997709987E+01  0.10103996300E+02  0.51100000000E-03 0. -1.
        -11    1    3    3    0    0 -0.37607350392E+01 -0.17362618166E+02  0.14604116164E+02  0.22997474792E+02  0.51100000000E-03 0.  1.
        -12    1    3    3    0    0  0.87710631081E+01 -0.11120447772E+02  0.38828665488E+01  0.14685794474E+02  0.00000000000E+00 0.  1.
</event>
<event>
 7    1  0.1265344E-009  0.4778727E+02  0.7816164E-02  0.1312668E+00
        -11   -1    0    0    0    0  0.00000000000E+00  0.00000000000E+00  0.45593999997E+02  0.45594000000E+02  0.51100000000E-03 0.  1.
         11   -1    0    0    0    0 -0.00000000000E+00 -0.00000000000E+00 -0.45593999997E+02  0.45594000000E+02  0.51100000000E-03 0. -1.
    9900012    2    1    2    0    0 -0.43071307888E+02 -0.50623242676E+01 -0.16908521285E+01  0.47787266468E+02  0.19999979134E+02 0.  0.
         12    1    1    2    0    0  0.43071307888E+02  0.50623242676E+01  0.16908521285E+01  0.43400733532E+02  0.00000000000E+00 0. -1.
         11    1    3    3    0    0 -0.19873323100E+02 -0.10398585029E+02 -0.54845742226E+01  0.23090259772E+02  0.51100000000E-03 0. -1.
        -11    1    3    3    0    0 -0.11220620353E+01 -0.23077083480E+00  0.13933111816E+01  0.18037723524E+01  0.51100000000E-03 0.  1.
        -12    1    3    3    0    0 -0.22075922753E+02  0.55670315964E+01  0.24004109125E+01  0.22893234344E+02  0.00000000000E+00 0.  1.
</event>
<event>
 7    1  0.1265344E-009  0.4778727E+02  0.7816164E-02  0.1312668E+00
        -11   -1    0    0    0    0  0.00000000000E+00  0.00000000000E+00  0.45593999997E+02  0.45594000000E+02  0.51100000000E-03 0.  1.
         11   -1    0    0    0    0 -0.00000000000E+00 -0.00000000000E+00 -0.45593999997E+02  0.45594000000E+02  0.51100000000E-03 0. -1.
    9900012    2    1    2    0    0  0.51298144012E+01  0.15375235231E+02  0.40260533178E+02  0.47787269753E+02  0.19999994113E+02 0.  0.
         12    1    1    2    0    0 -0.51298144012E+01 -0.15375235231E+02 -0.40260533178E+02  0.43400730247E+02  0.00000000000E+00 0. -1.
         11    1    3    3    0    0  0.26826026902E+01  0.71686360281E+00  0.10278925275E+01  0.29608806001E+01  0.51100000000E-03 0. -1.
        -11    1    3    3    0    0 -0.66635169490E+01  0.66459506286E+01  0.19694809647E+02  0.21827886869E+02  0.51100000000E-03 0.  1.
        -12    1    3    3    0    0  0.91107286600E+01  0.80124209998E+01  0.19537831003E+02  0.22998502284E+02  0.00000000000E+00 0.  1.
</event>
<event>
 7    1  0.1265344E-009  0.4778727E+02  0.7816164E-02  0.1312668E+00
        -11   -1    0    0    0    0  0.00000000000E+00  0.00000000000E+00  0.45593999997E+02  0.45594000000E+02  0.51100000000E-03 0.  1.
         11   -1    0    0    0    0 -0.00000000000E+00 -0.00000000000E+00 -0.45593999997E+02  0.45594000000E+02  0.51100000000E-03 0. -1.
    9900012    2    1    2    0    0 -0.27417772043E+02 -0.65695879091E+00  0.33637146938E+02  0.47787268753E+02  0.19999989552E+02 0.  0.
         12    1    1    2    0    0  0.27417772043E+02  0.65695879091E+00 -0.33637146938E+02  0.43400731247E+02  0.00000000000E+00 0. -1.
         11    1    3    3    0    0 -0.15997215112E+02  0.49011888501E+01  0.12938708726E+02  0.21150478180E+02  0.51100000000E-03 0. -1.
        -11    1    3    3    0    0 -0.12825735750E+02 -0.36384206579E+01  0.20205144526E+02  0.24207136716E+02  0.51100000000E-03 0.  1.
         12    1    3    3    0    0  0.14051788190E+01 -0.19197269831E+01  0.49329368591E+00  0.24296538568E+01  0.00000000000E+00 0. -1.
</event>
<event>
 7    1  0.1265344E-009  0.4778727E+02  0.7816164E-02  0.1312668E+00
        -11   -1    0    0    0    0  0.00000000000E+00  0.00000000000E+00  0.45593999997E+02  0.45594000000E+02  0.51100000000E-03 0.  1.
         11   -1    0    0    0    0 -0.00000000000E+00 -0.00000000000E+00 -0.45593999997E+02  0.45594000000E+02  0.51100000000E-03 0. -1.
    9900012    2    1    2    0    0  0.13794299362E+02 -0.11955125431E+02  0.39375318122E+02  0.47787269635E+02  0.19999993575E+02 0.  0.
         12    1    1    2    0    0 -0.13794299362E+02  0.11955125431E+02 -0.39375318122E+02  0.43400730365E+02  0.00000000000E+00 0. -1.
         11    1    3    3    0    0  0.63412325740E+01  0.20397121045E+00  0.22341571142E+02  0.23224957183E+02  0.51100000000E-03 0. -1.
        -11    1    3    3    0    0  0.23253667998E-01 -0.98148873425E+01  0.10718469628E+02  0.14533345991E+02  0.51100000000E-03 0.  1.
         12    1    3    3    0    0  0.74298131202E+01 -0.23442092988E+01  0.63152773532E+01  0.10028966461E+02  0.00000000000E+00 0. -1.
</event>
<event>
 7    1  0.1265344E-009  0.4778725E+02  0.7816164E-02  0.1312668E+00
        -11   -1    0    0    0    0  0.00000000000E+00  0.00000000000E+00  0.45593999997E+02  0.45594000000E+02  0.51100000000E-03 0.  1.
         11   -1    0    0    0    0 -0.00000000000E+00 -0.00000000000E+00 -0.45593999997E+02  0.45594000000E+02  0.51100000000E-03 0. -1.
    9900012    2    1    2    0    0 -0.15736442966E+02  0.23796559272E+02  0.32706472220E+02  0.47787248907E+02  0.19999899064E+02 0.  0.
         12    1    1    2    0    0  0.15736442966E+02 -0.23796559272E+02 -0.32706472220E+02  0.43400751093E+02  0.00000000000E+00 0. -1.
         11    1    3    3    0    0 -0.57263547392E+01  0.27326408338E+01  0.82520190769E+01  0.10409336368E+02  0.51100000000E-03 0. -1.
        -11    1    3    3    0    0 -0.12446778446E+02  0.79983241486E+01  0.14988932175E+02  0.21060948955E+02  0.51100000000E-03 0.  1.
         12    1    3    3    0    0  0.24366902200E+01  0.13065594290E+02  0.94655209679E+01  0.16316963583E+02  0.00000000000E+00 0. -1.
</event>
<event>
 7    1  0.1265344E-009  0.4778727E+02  0.7816164E-02  0.1312668E+00
        -11   -1    0    0    0    0  0.00000000000E+00  0.00000000000E+00  0.45593999997E+02  0.45594000000E+02  0.51100000000E-03 0.  1.
         11   -1    0    0    0    0 -0.00000000000E+00 -0.00000000000E+00 -0.45593999997E+02  0.45594000000E+02  0.51100000000E-03 0. -1.
    9900012    2    1    2    0    0 -0.54992794587E+01 -0.19574853704E+02  0.38343268376E+02  0.47787271874E+02  0.20000003782E+02 0.  0.
         12    1    1    2    0    0  0.54992794587E+01  0.19574853704E+02 -0.38343268376E+02  0.43400728126E+02  0.00000000000E+00 0. -1.
         11    1    3    3    0    0 -0.15035486533E+01 -0.29491722975E+01 -0.85255432420E+00  0.34183512005E+01  0.51100000000E-03 0. -1.
        -11    1    3    3    0    0 -0.62139714332E+01 -0.49482683284E+01  0.95049910556E+01  0.12387237612E+02  0.51100000000E-03 0.  1.
         12    1    3    3    0    0  0.22182406278E+01 -0.11677413078E+02  0.29690831645E+02  0.31981683061E+02  0.00000000000E+00 0. -1.
</event>
<event>
 7    1  0.1265344E-009  0.4778727E+02  0.7816164E-02  0.1312668E+00
        -11   -1    0    0    0    0  0.00000000000E+00  0.00000000000E+00  0.45593999997E+02  0.45594000000E+02  0.51100000000E-03 0.  1.
         11   -1    0    0    0    0 -0.00000000000E+00 -0.00000000000E+00 -0.45593999997E+02  0.45594000000E+02  0.51100000000E-03 0. -1.
    9900012    2    1    2    0    0  0.28048226587E+02  0.18979165770E+02  0.27142435425E+02  0.47787267877E+02  0.19999985558E+02 0.  0.
         12    1    1    2    0    0 -0.28048226587E+02 -0.18979165770E+02 -0.27142435425E+02  0.43400732123E+02  0.00000000000E+00 0. -1.
         11    1    3    3    0    0  0.40214701727E+01  0.84750625734E+01  0.95397346063E+00  0.94291555082E+01  0.51100000000E-03 0.  1.
        -11    1    3    3    0    0  0.60475658755E+01 -0.16460379549E+01  0.48556245878E+01  0.79284036455E+01  0.51100000000E-03 0. -1.
        -12    1    3    3    0    0  0.17979190539E+02  0.12150141152E+02  0.21332837377E+02  0.30429708723E+02  0.00000000000E+00 0.  1.
</event>
<event>
 7    1  0.1265344E-009  0.4778727E+02  0.7816164E-02  0.1312668E+00
        -11   -1    0    0    0    0  0.00000000000E+00  0.00000000000E+00  0.45593999997E+02  0.45594000000E+02  0.51100000000E-03 0. -1.
         11   -1    0    0    0    0 -0.00000000000E+00 -0.00000000000E+00 -0.45593999997E+02  0.45594000000E+02  0.51100000000E-03 0.  1.
    9900012    2    1    2    0    0  0.40933984672E+02 -0.11782521222E+02 -0.83189057355E+01  0.47787273047E+02  0.20000009129E+02 0.  0.
         12    1    1    2    0    0 -0.40933984672E+02  0.11782521222E+02  0.83189057355E+01  0.43400726953E+02  0.00000000000E+00 0. -1.
         11    1    3    3    0    0  0.18870165534E+02 -0.80294490510E+01  0.41107013909E+01  0.20915378685E+02  0.51100000000E-03 0. -1.
        -11    1    3    3    0    0  0.19436593332E+01  0.20936281471E+01 -0.18098565076E+01  0.33818147882E+01  0.51100000000E-03 0.  1.
         12    1    3    3    0    0  0.20120159804E+02 -0.58467003179E+01 -0.10619750619E+02  0.23490079573E+02  0.00000000000E+00 0. -1.
</event>
<event>
 7    1  0.1265344E-009  0.4778731E+02  0.7816164E-02  0.1312668E+00
        -11   -1    0    0    0    0  0.00000000000E+00  0.00000000000E+00  0.45593999997E+02  0.45594000000E+02  0.51100000000E-03 0. -1.
         11   -1    0    0    0    0 -0.00000000000E+00 -0.00000000000E+00 -0.45593999997E+02  0.45594000000E+02  0.51100000000E-03 0.  1.
    9900012    2    1    2    0    0  0.52100510693E+01 -0.42999848357E+02  0.27365457762E+01  0.47787305609E+02  0.20000157593E+02 0.  0.
         12    1    1    2    0    0 -0.52100510693E+01  0.42999848357E+02 -0.27365457762E+01  0.43400694391E+02  0.00000000000E+00 0. -1.
         11    1    3    3    0    0 -0.49153411482E+01 -0.10621537551E+02 -0.50009872412E+01  0.12727431485E+02  0.51100000000E-03 0. -1.
        -11    1    3    3    0    0  0.45516939214E+01 -0.14780588486E+02  0.13405081656E+01  0.15523552298E+02  0.51100000000E-03 0.  1.
         12    1    3    3    0    0  0.55736982961E+01 -0.17597722319E+02  0.63970248519E+01  0.19536321826E+02  0.00000000000E+00 0. -1.
</event>
<event>
 7    1  0.1265344E-009  0.4778727E+02  0.7816164E-02  0.1312668E+00
        -11   -1    0    0    0    0  0.00000000000E+00  0.00000000000E+00  0.45593999997E+02  0.45594000000E+02  0.51100000000E-03 0. -1.
         11   -1    0    0    0    0 -0.00000000000E+00 -0.00000000000E+00 -0.45593999997E+02  0.45594000000E+02  0.51100000000E-03 0.  1.
    9900012    2    1    2    0    0 -0.14366074510E-01 -0.30505339274E+02 -0.30871465730E+02  0.47787270433E+02  0.19999997213E+02 0.  0.
         12    1    1    2    0    0  0.14366074510E-01  0.30505339274E+02  0.30871465730E+02  0.43400729567E+02  0.00000000000E+00 0. -1.
         11    1    3    3    0    0 -0.57428485559E+01 -0.75439622126E+01 -0.78932167540E+01  0.12336715381E+02  0.51100000000E-03 0. -1.
        -11    1    3    3    0    0  0.62800593094E+01 -0.47931974179E+01 -0.30253133675E+01  0.84596931179E+01  0.51100000000E-03 0.  1.
        -12    1    3    3    0    0 -0.55157682810E+00 -0.18168179644E+02 -0.19952935609E+02  0.26990861934E+02  0.00000000000E+00 0.  1.
</event>
<event>
 7    1  0.1265344E-009  0.4778728E+02  0.7816164E-02  0.1312668E+00
        -11   -1    0    0    0    0  0.00000000000E+00  0.00000000000E+00  0.45593999997E+02  0.45594000000E+02  0.51100000000E-03 0.  1.
         11   -1    0    0    0    0 -0.00000000000E+00 -0.00000000000E+00 -0.45593999997E+02  0.45594000000E+02  0.51100000000E-03 0. -1.
    9900012    2    1    2    0    0 -0.13498668493E+02 -0.30044034350E+02  0.28262423527E+02  0.47787278407E+02  0.20000033570E+02 0.  0.
         12    1    1    2    0    0  0.13498668493E+02  0.30044034350E+02 -0.28262423527E+02  0.43400721593E+02  0.00000000000E+00 0. -1.
         11    1    3    3    0    0 -0.91434659754E+01 -0.54392084227E+01  0.87229324472E+01  0.13757816289E+02  0.51100000000E-03 0. -1.
        -11    1    3    3    0    0 -0.54069482843E+01 -0.21080223399E+02  0.20836571116E+02  0.30129281512E+02  0.51100000000E-03 0.  1.
         12    1    3    3    0    0  0.10517457664E+01 -0.35246025289E+01 -0.12970800354E+01  0.39001806064E+01  0.00000000000E+00 0. -1.
</event>
<event>
 7    1  0.1265344E-009  0.4778727E+02  0.7816164E-02  0.1312668E+00
        -11   -1    0    0    0    0  0.00000000000E+00  0.00000000000E+00  0.45593999997E+02  0.45594000000E+02  0.51100000000E-03 0.  1.
         11   -1    0    0    0    0 -0.00000000000E+00 -0.00000000000E+00 -0.45593999997E+02  0.45594000000E+02  0.51100000000E-03 0. -1.
    9900012    2    1    2    0    0  0.27676203829E+02  0.93112153128E+01  0.32108449224E+02  0.47787268433E+02  0.19999988092E+02 0.  0.
         12    1    1    2    0    0 -0.27676203829E+02 -0.93112153128E+01 -0.32108449224E+02  0.43400731567E+02  0.00000000000E+00 0. -1.
         11    1    3    3    0    0  0.51507145518E+01  0.39044786670E+01  0.11668082961E+02  0.13338627152E+02  0.51100000000E-03 0. -1.
        -11    1    3    3    0    0  0.22166554492E+02  0.39226640476E+01  0.22537815130E+02  0.31854301788E+02  0.51100000000E-03 0.  1.
         12    1    3    3    0    0  0.35893478518E+00  0.14840725981E+01 -0.20974488668E+01  0.25943394931E+01  0.00000000000E+00 0. -1.
</event>
<event>
 7    1  0.1265344E-009  0.4778727E+02  0.7816164E-02  0.1312668E+00
        -11   -1    0    0    0    0  0.00000000000E+00  0.00000000000E+00  0.45593999997E+02  0.45594000000E+02  0.51100000000E-03 0.  1.
         11   -1    0    0    0    0 -0.00000000000E+00 -0.00000000000E+00 -0.45593999997E+02  0.45594000000E+02  0.51100000000E-03 0. -1.
    9900012    2    1    2    0    0  0.42109819317E+01 -0.36071351793E+02  0.23764436583E+02  0.47787271491E+02  0.20000002034E+02 0.  0.
         12    1    1    2    0    0 -0.42109819317E+01  0.36071351793E+02 -0.23764436583E+02  0.43400728509E+02  0.00000000000E+00 0. -1.
         11    1    3    3    0    0  0.44302286437E+01 -0.11972510017E+02  0.96880007764E+00  0.12802597228E+02  0.51100000000E-03 0. -1.
        -11    1    3    3    0    0  0.53340155032E+01 -0.14062919406E+02  0.13725394285E+02  0.20361823890E+02  0.51100000000E-03 0.  1.
        -12    1    3    3    0    0 -0.55532622151E+01 -0.10035922371E+02  0.90702422204E+01  0.14622850372E+02  0.00000000000E+00 0.  1.
</event>
<event>
 7    1  0.1265344E-009  0.4778728E+02  0.7816164E-02  0.1312668E+00
        -11   -1    0    0    0    0  0.00000000000E+00  0.00000000000E+00  0.45593999997E+02  0.45594000000E+02  0.51100000000E-03 0.  1.
         11   -1    0    0    0    0 -0.00000000000E+00 -0.00000000000E+00 -0.45593999997E+02  0.45594000000E+02  0.51100000000E-03 0. -1.
    9900012    2    1    2    0    0  0.37117330171E+02  0.11024560478E+02  0.19605757759E+02  0.47787275696E+02  0.20000021210E+02 0.  0.
         12    1    1    2    0    0 -0.37117330171E+02 -0.11024560478E+02 -0.19605757759E+02  0.43400724304E+02  0.00000000000E+00 0. -1.
         11    1    3    3    0    0  0.79779113351E+01  0.60253452263E+01  0.92831306210E+01  0.13642887112E+02  0.51100000000E-03 0.  1.
        -11    1    3    3    0    0  0.14419524375E+02  0.55149562801E+01 -0.11407130981E+01  0.15480266555E+02  0.51100000000E-03 0. -1.
         12    1    3    3    0    0  0.14719894461E+02 -0.51574102818E+00  0.11463340236E+02  0.18664122029E+02  0.00000000000E+00 0. -1.
</event>
<event>
 7    1  0.1265344E-009  0.4778727E+02  0.7816164E-02  0.1312668E+00
        -11   -1    0    0    0    0  0.00000000000E+00  0.00000000000E+00  0.45593999997E+02  0.45594000000E+02  0.51100000000E-03 0. -1.
         11   -1    0    0    0    0 -0.00000000000E+00 -0.00000000000E+00 -0.45593999997E+02  0.45594000000E+02  0.51100000000E-03 0.  1.
    9900012    2    1    2    0    0  0.32241244001E+01 -0.43257558364E+02  0.14184441958E+01  0.47787270539E+02  0.19999997697E+02 0.  0.
         12    1    1    2    0    0 -0.32241244001E+01  0.43257558364E+02 -0.14184441958E+01  0.43400729461E+02  0.00000000000E+00 0. -1.
         11    1    3    3    0    0  0.51101273734E+01 -0.59542371625E+01  0.47470148109E+01  0.91706320303E+01  0.51100000000E-03 0. -1.
        -11    1    3    3    0    0 -0.43528582890E+01 -0.83927005650E+01 -0.61437513026E+00  0.94742944391E+01  0.51100000000E-03 0.  1.
        -12    1    3    3    0    0  0.24668553157E+01 -0.28910620637E+02 -0.27141954848E+01  0.29142344070E+02  0.00000000000E+00 0.  1.
</event>
<event>
 7    1  0.1265344E-009  0.4778727E+02  0.7816164E-02  0.1312668E+00
        -11   -1    0    0    0    0  0.00000000000E+00  0.00000000000E+00  0.45593999997E+02  0.45594000000E+02  0.51100000000E-03 0.  1.
         11   -1    0    0    0    0 -0.00000000000E+00 -0.00000000000E+00 -0.45593999997E+02  0.45594000000E+02  0.51100000000E-03 0. -1.
    9900012    2    1    2    0    0  0.76741451511E+01 -0.29887708596E+02  0.30519759610E+02  0.47787270103E+02  0.19999995708E+02 0.  0.
         12    1    1    2    0    0 -0.76741451511E+01  0.29887708596E+02 -0.30519759610E+02  0.43400729897E+02  0.00000000000E+00 0. -1.
         11    1    3    3    0    0  0.19442284393E+01  0.71316667145E+00 -0.14100906731E+01  0.25053915648E+01  0.51100000000E-03 0. -1.
        -11    1    3    3    0    0 -0.16465860688E+01 -0.11442214615E+02  0.10771680145E+02  0.15800778917E+02  0.51100000000E-03 0.  1.
        -12    1    3    3    0    0  0.73765027807E+01 -0.19158660653E+02  0.21158170139E+02  0.29481099621E+02  0.00000000000E+00 0.  1.
</event>
<event>
 7    1  0.1265344E-009  0.4778727E+02  0.7816164E-02  0.1312668E+00
        -11   -1    0    0    0    0  0.00000000000E+00  0.00000000000E+00  0.45593999997E+02  0.45594000000E+02  0.51100000000E-03 0. -1.
         11   -1    0    0    0    0 -0.00000000000E+00 -0.00000000000E+00 -0.45593999997E+02  0.45594000000E+02  0.51100000000E-03 0.  1.
    9900012    2    1    2    0    0 -0.42624947435E+02  0.81491343267E+01 -0.57311684677E+00  0.47787274233E+02  0.20000014540E+02 0.  0.
         12    1    1    2    0    0  0.42624947435E+02 -0.81491343267E+01  0.57311684677E+00  0.43400725767E+02  0.00000000000E+00 0. -1.
         11    1    3    3    0    0 -0.29041709102E+02  0.13262231718E+02  0.50534441382E+00  0.31930597097E+02  0.51100000000E-03 0.  1.
        -11    1    3    3    0    0 -0.96439438141E+01 -0.23351193399E+01  0.20203913801E+01  0.10126224183E+02  0.51100000000E-03 0. -1.
        -12    1    3    3    0    0 -0.39392945190E+01 -0.27779780513E+01 -0.30988526407E+01  0.57304529533E+01  0.00000000000E+00 0.  1.
</event>
<event>
 7    1  0.1265344E-009  0.4778727E+02  0.7816164E-02  0.1312668E+00
        -11   -1    0    0    0    0  0.00000000000E+00  0.00000000000E+00  0.45593999997E+02  0.45594000000E+02  0.51100000000E-03 0. -1.
         11   -1    0    0    0    0 -0.00000000000E+00 -0.00000000000E+00 -0.45593999997E+02  0.45594000000E+02  0.51100000000E-03 0.  1.
    9900012    2    1    2    0    0 -0.10971154443E+02  0.38371653070E+02 -0.17055007274E+02  0.47787271178E+02  0.20000000609E+02 0.  0.
         12    1    1    2    0    0  0.10971154443E+02 -0.38371653070E+02  0.17055007274E+02  0.43400728822E+02  0.00000000000E+00 0. -1.
         11    1    3    3    0    0 -0.84491836310E+01  0.18694375773E+02 -0.54270418589E+01  0.21220772210E+02  0.51100000000E-03 0. -1.
        -11    1    3    3    0    0 -0.51400486395E+01  0.11782829765E+02 -0.75520908419E+00  0.12877325743E+02  0.51100000000E-03 0.  1.
         12    1    3    3    0    0  0.26180778279E+01  0.78944475330E+01 -0.10872756331E+02  0.13689173225E+02  0.00000000000E+00 0. -1.
</event>
<event>
 7    1  0.1265344E-009  0.4778728E+02  0.7816164E-02  0.1312668E+00
        -11   -1    0    0    0    0  0.00000000000E+00  0.00000000000E+00  0.45593999997E+02  0.45594000000E+02  0.51100000000E-03 0.  1.
         11   -1    0    0    0    0 -0.00000000000E+00 -0.00000000000E+00 -0.45593999997E+02  0.45594000000E+02  0.51100000000E-03 0. -1.
    9900012    2    1    2    0    0 -0.62402823545E+01 -0.40413362801E+02  0.14541012663E+02  0.47787284959E+02  0.20000063443E+02 0.  0.
         12    1    1    2    0    0  0.62402823545E+01  0.40413362801E+02 -0.14541012663E+02  0.43400715041E+02  0.00000000000E+00 0. -1.
         11    1    3    3    0    0 -0.55431838680E+01 -0.10072564370E+02  0.68224677102E+01  0.13368975514E+02  0.51100000000E-03 0. -1.
        -11    1    3    3    0    0  0.61358210798E+00 -0.19324660247E+02  0.11738231381E+02  0.22618688133E+02  0.51100000000E-03 0.  1.
         12    1    3    3    0    0 -0.13106805945E+01 -0.11016138184E+02 -0.40196864281E+01  0.11799621312E+02  0.00000000000E+00 0. -1.
</event>
<event>
 7    1  0.1265344E-009  0.4778727E+02  0.7816164E-02  0.1312668E+00
        -11   -1    0    0    0    0  0.00000000000E+00  0.00000000000E+00  0.45593999997E+02  0.45594000000E+02  0.51100000000E-03 0. -1.
         11   -1    0    0    0    0 -0.00000000000E+00 -0.00000000000E+00 -0.45593999997E+02  0.45594000000E+02  0.51100000000E-03 0.  1.
    9900012    2    1    2    0    0 -0.28239567469E+02  0.34229130968E+01 -0.32778556604E+02  0.47787270998E+02  0.19999999788E+02 0.  0.
         12    1    1    2    0    0  0.28239567469E+02 -0.34229130968E+01  0.32778556604E+02  0.43400729002E+02  0.00000000000E+00 0. -1.
         11    1    3    3    0    0 -0.28710788462E+01  0.39048579899E+01 -0.93035887132E+00  0.49352383482E+01  0.51100000000E-03 0. -1.
        -11    1    3    3    0    0 -0.24261074476E+02 -0.13078501131E+01 -0.33050889802E+02  0.41020379369E+02  0.51100000000E-03 0.  1.
        -12    1    3    3    0    0 -0.11074141468E+01  0.82590521998E+00  0.12026920697E+01  0.18316532804E+01  0.00000000000E+00 0.  1.
</event>
<event>
 7    1  0.1265344E-009  0.4778727E+02  0.7816164E-02  0.1312668E+00
        -11   -1    0    0    0    0  0.00000000000E+00  0.00000000000E+00  0.45593999997E+02  0.45594000000E+02  0.51100000000E-03 0.  1.
         11   -1    0    0    0    0 -0.00000000000E+00 -0.00000000000E+00 -0.45593999997E+02  0.45594000000E+02  0.51100000000E-03 0. -1.
    9900012    2    1    2    0    0  0.10431496679E+02  0.40970497540E+02 -0.98094608634E+01  0.47787270581E+02  0.19999997887E+02 0.  0.
         12    1    1    2    0    0 -0.10431496679E+02 -0.40970497540E+02  0.98094608634E+01  0.43400729419E+02  0.00000000000E+00 0. -1.
         11    1    3    3    0    0  0.50845656975E+01  0.29799421236E+01 -0.84947794967E+00  0.59543661661E+01  0.51100000000E-03 0. -1.
        -11    1    3    3    0    0  0.77863249748E+01  0.32135785225E+02 -0.31222820161E+01  0.33212711330E+02  0.51100000000E-03 0.  1.
         12    1    3    3    0    0 -0.24393939931E+01  0.58547701915E+01 -0.58377008976E+01  0.86201930848E+01  0.00000000000E+00 0. -1.
</event>
<event>
 7    1  0.1265344E-009  0.4778727E+02  0.7816164E-02  0.1312668E+00
        -11   -1    0    0    0    0  0.00000000000E+00  0.00000000000E+00  0.45593999997E+02  0.45594000000E+02  0.51100000000E-03 0.  1.
         11   -1    0    0    0    0 -0.00000000000E+00 -0.00000000000E+00 -0.45593999997E+02  0.45594000000E+02  0.51100000000E-03 0. -1.
    9900012    2    1    2    0    0  0.31424490448E+02  0.15794813053E+02  0.25429282638E+02  0.47787272647E+02  0.20000007307E+02 0.  0.
         12    1    1    2    0    0 -0.31424490448E+02 -0.15794813053E+02 -0.25429282638E+02  0.43400727353E+02  0.00000000000E+00 0. -1.
         11    1    3    3    0    0  0.94354301277E+01  0.11777727824E+02  0.66099177856E+01  0.16475230735E+02  0.51100000000E-03 0. -1.
        -11    1    3    3    0    0  0.58928567279E-02  0.28865419800E+01  0.32696232452E+01  0.43614900843E+01  0.51100000000E-03 0.  1.
         12    1    3    3    0    0  0.21983167463E+02  0.11305432493E+01  0.15549741607E+02  0.26950551828E+02  0.00000000000E+00 0. -1.
</event>
<event>
 7    1  0.1265344E-009  0.4778726E+02  0.7816164E-02  0.1312668E+00
        -11   -1    0    0    0    0  0.00000000000E+00  0.00000000000E+00  0.45593999997E+02  0.45594000000E+02  0.51100000000E-03 0.  1.
         11   -1    0    0    0    0 -0.00000000000E+00 -0.00000000000E+00 -0.45593999997E+02  0.45594000000E+02  0.51100000000E-03 0. -1.
    9900012    2    1    2    0    0 -0.29559832663E+02  0.46919097927E+01  0.31429707883E+02  0.47787259658E+02  0.19999948086E+02 0.  0.
         12    1    1    2    0    0  0.29559832663E+02 -0.46919097927E+01 -0.31429707883E+02  0.43400740342E+02  0.00000000000E+00 0. -1.
         11    1    3    3    0    0 -0.10428502679E+02  0.47073041299E+01  0.12302528474E+02  0.16800731752E+02  0.51100000000E-03 0.  1.
        -11    1    3    3    0    0 -0.14949495481E+02  0.24860451695E+01  0.48675892124E+01  0.15917325804E+02  0.51100000000E-03 0. -1.
         12    1    3    3    0    0 -0.41818345021E+01 -0.25014395068E+01  0.14259590198E+02  0.15069202103E+02  0.00000000000E+00 0. -1.
</event>
<event>
 7    1  0.1265344E-009  0.4778727E+02  0.7816164E-02  0.1312668E+00
        -11   -1    0    0    0    0  0.00000000000E+00  0.00000000000E+00  0.45593999997E+02  0.45594000000E+02  0.51100000000E-03 0.  1.
         11   -1    0    0    0    0 -0.00000000000E+00 -0.00000000000E+00 -0.45593999997E+02  0.45594000000E+02  0.51100000000E-03 0. -1.
    9900012    2    1    2    0    0  0.29611899845E+02  0.25064786352E+02  0.19455477054E+02  0.47787265966E+02  0.19999976844E+02 0.  0.
         12    1    1    2    0    0 -0.29611899845E+02 -0.25064786352E+02 -0.19455477054E+02  0.43400734034E+02  0.00000000000E+00 0. -1.
         11    1    3    3    0    0  0.13492101612E+02  0.54368686535E+01  0.59174230080E+01  0.15703892574E+02  0.51100000000E-03 0. -1.
        -11    1    3    3    0    0  0.15532720712E+02  0.10182435335E+02  0.47545322989E+01  0.19171671281E+02  0.51100000000E-03 0.  1.
         12    1    3    3    0    0  0.58707752083E+00  0.94454823638E+01  0.87835217473E+01  0.12911702110E+02  0.00000000000E+00 0. -1.
</event>
<event>
 7    1  0.1265344E-009  0.4778729E+02  0.7816164E-02  0.1312668E+00
        -11   -1    0    0    0    0  0.00000000000E+00  0.00000000000E+00  0.45593999997E+02  0.45594000000E+02  0.51100000000E-03 0. -1.
         11   -1    0    0    0    0 -0.00000000000E+00 -0.00000000000E+00 -0.45593999997E+02  0.45594000000E+02  0.51100000000E-03 0.  1.
    9900012    2    1    2    0    0  0.15782690777E+02 -0.38719087641E+02  0.11634457979E+02  0.47787289310E+02  0.20000083279E+02 0.  0.
         12    1    1    2    0    0 -0.15782690777E+02  0.38719087641E+02 -0.11634457979E+02  0.43400710690E+02  0.00000000000E+00 0. -1.
         11    1    3    3    0    0  0.19128478911E+02 -0.30771995206E+02  0.88450541834E+01  0.37296774367E+02  0.51100000000E-03 0. -1.
        -11    1    3    3    0    0 -0.45207793042E+00  0.68971913031E+00  0.83685244482E+00  0.11749081706E+01  0.51100000000E-03 0.  1.
        -12    1    3    3    0    0 -0.28937102029E+01 -0.86368115656E+01  0.19525513509E+01  0.93156067723E+01  0.00000000000E+00 0.  1.
</event>
<event>
 7    1  0.1265344E-009  0.4778727E+02  0.7816164E-02  0.1312668E+00
        -11   -1    0    0    0    0  0.00000000000E+00  0.00000000000E+00  0.45593999997E+02  0.45594000000E+02  0.51100000000E-03 0.  1.
         11   -1    0    0    0    0 -0.00000000000E+00 -0.00000000000E+00 -0.45593999997E+02  0.45594000000E+02  0.51100000000E-03 0. -1.
    9900012    2    1    2    0    0 -0.18854412365E+02 -0.24564408080E+02  0.30409275498E+02  0.47787273666E+02  0.20000011955E+02 0.  0.
         12    1    1    2    0    0  0.18854412365E+02  0.24564408080E+02 -0.30409275498E+02  0.43400726334E+02  0.00000000000E+00 0. -1.
         11    1    3    3    0    0 -0.57380423209E+01 -0.59650125619E+01  0.35300903854E+01  0.89982244321E+01  0.51100000000E-03 0. -1.
        -11    1    3    3    0    0 -0.10992098939E+02 -0.15680087385E+02  0.28887234422E+02  0.34657808533E+02  0.51100000000E-03 0.  1.
        -12    1    3    3    0    0 -0.21242711046E+01 -0.29193081328E+01 -0.20080493095E+01  0.41312407010E+01  0.00000000000E+00 0.  1.
</event>
<event>
 7    1  0.1265344E-009  0.4778726E+02  0.7816164E-02  0.1312668E+00
        -11   -1    0    0    0    0  0.00000000000E+00  0.00000000000E+00  0.45593999997E+02  0.45594000000E+02  0.51100000000E-03 0.  1.
         11   -1    0    0    0    0 -0.00000000000E+00 -0.00000000000E+00 -0.45593999997E+02  0.45594000000E+02  0.51100000000E-03 0. -1.
    9900012    2    1    2    0    0 -0.10471196329E+02 -0.42087626828E+02 -0.16155214362E+01  0.47787260443E+02  0.19999951663E+02 0.  0.
         12    1    1    2    0    0  0.10471196329E+02  0.42087626828E+02  0.16155214362E+01  0.43400739557E+02  0.00000000000E+00 0. -1.
         11    1    3    3    0    0 -0.24745406833E+01 -0.11858621787E+02 -0.40636896420E+01  0.12777473774E+02  0.51100000000E-03 0. -1.
        -11    1    3    3    0    0 -0.61880550955E+01 -0.88474551383E+01  0.72707165540E+01  0.13016635808E+02  0.51100000000E-03 0.  1.
        -12    1    3    3    0    0 -0.18086005497E+01 -0.21381549903E+02 -0.48225483483E+01  0.21993150861E+02  0.00000000000E+00 0.  1.
</event>
<event>
 7    1  0.1265344E-009  0.4778727E+02  0.7816164E-02  0.1312668E+00
        -11   -1    0    0    0    0  0.00000000000E+00  0.00000000000E+00  0.45593999997E+02  0.45594000000E+02  0.51100000000E-03 0.  1.
         11   -1    0    0    0    0 -0.00000000000E+00 -0.00000000000E+00 -0.45593999997E+02  0.45594000000E+02  0.51100000000E-03 0. -1.
    9900012    2    1    2    0    0  0.26123316667E+02  0.34219295832E+02  0.54986737966E+01  0.47787270808E+02  0.19999998920E+02 0.  0.
         12    1    1    2    0    0 -0.26123316667E+02 -0.34219295832E+02 -0.54986737966E+01  0.43400729192E+02  0.00000000000E+00 0. -1.
         11    1    3    3    0    0  0.98273230320E+01  0.95736529436E+01 -0.40529176199E+01  0.14305846712E+02  0.51100000000E-03 0. -1.
        -11    1    3    3    0    0  0.10427474200E+02  0.22339043098E+02  0.37948115126E+01  0.24943248774E+02  0.51100000000E-03 0.  1.
         12    1    3    3    0    0  0.58685194356E+01  0.23065997902E+01  0.57567799039E+01  0.85381753215E+01  0.00000000000E+00 0. -1.
</event>
<event>
 7    1  0.1265344E-009  0.4778728E+02  0.7816164E-02  0.1312668E+00
        -11   -1    0    0    0    0  0.00000000000E+00  0.00000000000E+00  0.45593999997E+02  0.45594000000E+02  0.51100000000E-03 0. -1.
         11   -1    0    0    0    0 -0.00000000000E+00 -0.00000000000E+00 -0.45593999997E+02  0.45594000000E+02  0.51100000000E-03 0.  1.
    9900012    2    1    2    0    0 -0.43025783206E+02 -0.21419087929E+01 -0.52741749289E+01  0.47787277483E+02  0.20000029357E+02 0.  0.
         12    1    1    2    0    0  0.43025783206E+02  0.21419087929E+01  0.52741749289E+01  0.43400722517E+02  0.00000000000E+00 0. -1.
         11    1    3    3    0    0 -0.23407331396E+02  0.64782478208E+01 -0.41443439681E+01  0.24638312546E+02  0.51100000000E-03 0. -1.
        -11    1    3    3    0    0 -0.13337241625E+02 -0.40198476692E+01  0.31256322221E+01  0.14276230823E+02  0.51100000000E-03 0.  1.
        -12    1    3    3    0    0 -0.62812101847E+01 -0.46003089445E+01 -0.42554631829E+01  0.88727341147E+01  0.00000000000E+00 0.  1.
</event>
<event>
 7    1  0.1265344E-009  0.4778726E+02  0.7816164E-02  0.1312668E+00
        -11   -1    0    0    0    0  0.00000000000E+00  0.00000000000E+00  0.45593999997E+02  0.45594000000E+02  0.51100000000E-03 0.  1.
         11   -1    0    0    0    0 -0.00000000000E+00 -0.00000000000E+00 -0.45593999997E+02  0.45594000000E+02  0.51100000000E-03 0. -1.
    9900012    2    1    2    0    0 -0.60125642913E+01  0.30433731171E+02  0.30352281544E+02  0.47787263632E+02  0.19999966205E+02 0.  0.
         12    1    1    2    0    0  0.60125642913E+01 -0.30433731171E+02 -0.30352281544E+02  0.43400736368E+02  0.00000000000E+00 0. -1.
         11    1    3    3    0    0 -0.18184117076E+01 -0.15318452648E+01  0.21541990596E+01  0.32083866512E+01  0.51100000000E-03 0. -1.
        -11    1    3    3    0    0 -0.44631710027E+01  0.50751642940E+01  0.20308821088E+01  0.70570298576E+01  0.51100000000E-03 0.  1.
        -12    1    3    3    0    0  0.26901841895E+00  0.26890412142E+02  0.26167200376E+02  0.37521847123E+02  0.00000000000E+00 0.  1.
</event>
<event>
 7    1  0.1265344E-009  0.4778727E+02  0.7816164E-02  0.1312668E+00
        -11   -1    0    0    0    0  0.00000000000E+00  0.00000000000E+00  0.45593999997E+02  0.45594000000E+02  0.51100000000E-03 0.  1.
         11   -1    0    0    0    0 -0.00000000000E+00 -0.00000000000E+00 -0.45593999997E+02  0.45594000000E+02  0.51100000000E-03 0. -1.
    9900012    2    1    2    0    0 -0.13961820275E+02 -0.32284923728E+02  0.25423901366E+02  0.47787268599E+02  0.19999988851E+02 0.  0.
         12    1    1    2    0    0  0.13961820275E+02  0.32284923728E+02 -0.25423901366E+02  0.43400731401E+02  0.00000000000E+00 0. -1.
         11    1    3    3    0    0 -0.21688830994E+01 -0.20036995586E+02  0.10114067940E+02  0.22549492601E+02  0.51100000000E-03 0. -1.
        -11    1    3    3    0    0 -0.25325369600E+01 -0.98975687732E+01  0.10052572184E+02  0.14332823129E+02  0.51100000000E-03 0.  1.
         12    1    3    3    0    0 -0.92604002152E+01 -0.23503593681E+01  0.52572612424E+01  0.10904952869E+02  0.00000000000E+00 0. -1.
</event>
<event>
 7    1  0.1265344E-009  0.4778727E+02  0.7816164E-02  0.1312668E+00
        -11   -1    0    0    0    0  0.00000000000E+00  0.00000000000E+00  0.45593999997E+02  0.45594000000E+02  0.51100000000E-03 0.  1.
         11   -1    0    0    0    0 -0.00000000000E+00 -0.00000000000E+00 -0.45593999997E+02  0.45594000000E+02  0.51100000000E-03 0. -1.
    9900012    2    1    2    0    0 -0.86410388915E+01 -0.78831053155E+01  0.41794881031E+02  0.47787274396E+02  0.20000015281E+02 0.  0.
         12    1    1    2    0    0  0.86410388915E+01  0.78831053155E+01 -0.41794881031E+02  0.43400725604E+02  0.00000000000E+00 0. -1.
         11    1    3    3    0    0 -0.11189162718E+02 -0.27708169791E+01  0.25482514091E+02  0.27968434238E+02  0.51100000000E-03 0. -1.
        -11    1    3    3    0    0  0.13532386259E+01 -0.22905638224E+01  0.16533877588E+02  0.16746553250E+02  0.51100000000E-03 0.  1.
         12    1    3    3    0    0  0.11948852005E+01 -0.28217245141E+01 -0.22151064824E+00  0.30722869077E+01  0.00000000000E+00 0. -1.
</event>
<event>
 7    1  0.1265344E-009  0.4778727E+02  0.7816164E-02  0.1312668E+00
        -11   -1    0    0    0    0  0.00000000000E+00  0.00000000000E+00  0.45593999997E+02  0.45594000000E+02  0.51100000000E-03 0.  1.
         11   -1    0    0    0    0 -0.00000000000E+00 -0.00000000000E+00 -0.45593999997E+02  0.45594000000E+02  0.51100000000E-03 0. -1.
    9900012    2    1    2    0    0  0.63503547419E+01 -0.24552978305E+02  0.35219990859E+02  0.47787268381E+02  0.19999987855E+02 0.  0.
         12    1    1    2    0    0 -0.63503547419E+01  0.24552978305E+02 -0.35219990859E+02  0.43400731619E+02  0.00000000000E+00 0. -1.
         11    1    3    3    0    0  0.35269999670E+01 -0.12225261307E+01  0.25442493105E+01  0.45174665160E+01  0.51100000000E-03 0. -1.
        -11    1    3    3    0    0  0.43601217274E+01 -0.25374772402E+02  0.28850483515E+02  0.38668335046E+02  0.51100000000E-03 0.  1.
         12    1    3    3    0    0 -0.15367669525E+01  0.20443202277E+01  0.38252580330E+01  0.46014668182E+01  0.00000000000E+00 0. -1.
</event>
<event>
 7    1  0.1265344E-009  0.4778726E+02  0.7816164E-02  0.1312668E+00
        -11   -1    0    0    0    0  0.00000000000E+00  0.00000000000E+00  0.45593999997E+02  0.45594000000E+02  0.51100000000E-03 0.  1.
         11   -1    0    0    0    0 -0.00000000000E+00 -0.00000000000E+00 -0.45593999997E+02  0.45594000000E+02  0.51100000000E-03 0. -1.
    9900012    2    1    2    0    0  0.13700670517E+02  0.25967527304E+02  0.31962526665E+02  0.47787263166E+02  0.19999964077E+02 0.  0.
         12    1    1    2    0    0 -0.13700670517E+02 -0.25967527304E+02 -0.31962526665E+02  0.43400736834E+02  0.00000000000E+00 0. -1.
         11    1    3    3    0    0  0.51926322147E+01  0.23566560021E+02  0.25110295364E+02  0.34826327887E+02  0.51100000000E-03 0. -1.
        -11    1    3    3    0    0  0.22071759046E+01 -0.17681253532E+01  0.39705702564E+01  0.48747637031E+01  0.51100000000E-03 0.  1.
        -12    1    3    3    0    0  0.63008623982E+01  0.41690926366E+01  0.28816610446E+01  0.80861715755E+01  0.00000000000E+00 0.  1.
</event>
<event>
 7    1  0.1265344E-009  0.4778727E+02  0.7816164E-02  0.1312668E+00
        -11   -1    0    0    0    0  0.00000000000E+00  0.00000000000E+00  0.45593999997E+02  0.45594000000E+02  0.51100000000E-03 0.  1.
         11   -1    0    0    0    0 -0.00000000000E+00 -0.00000000000E+00 -0.45593999997E+02  0.45594000000E+02  0.51100000000E-03 0. -1.
    9900012    2    1    2    0    0 -0.32458393107E+02  0.26409676708E+02  0.11515431444E+02  0.47787268805E+02  0.19999989789E+02 0.  0.
         12    1    1    2    0    0  0.32458393107E+02 -0.26409676708E+02 -0.11515431444E+02  0.43400731195E+02  0.00000000000E+00 0. -1.
         11    1    3    3    0    0 -0.67967784922E+01 -0.16471794036E+01 -0.12776965326E+01  0.71092831249E+01  0.51100000000E-03 0.  1.
        -11    1    3    3    0    0 -0.50081793140E+01  0.95363634769E+01  0.49152345812E+01  0.11839916370E+02  0.51100000000E-03 0. -1.
        -12    1    3    3    0    0 -0.20653435301E+02  0.18520492635E+02  0.78778933953E+01  0.28838069310E+02  0.00000000000E+00 0.  1.
</event>
<event>
 7    1  0.1265344E-009  0.4778727E+02  0.7816164E-02  0.1312668E+00
        -11   -1    0    0    0    0  0.00000000000E+00  0.00000000000E+00  0.45593999997E+02  0.45594000000E+02  0.51100000000E-03 0. -1.
         11   -1    0    0    0    0 -0.00000000000E+00 -0.00000000000E+00 -0.45593999997E+02  0.45594000000E+02  0.51100000000E-03 0.  1.
    9900012    2    1    2    0    0 -0.41309241200E+02 -0.13287715940E+02 -0.77875264594E+00  0.47787271215E+02  0.20000000776E+02 0.  0.
         12    1    1    2    0    0  0.41309241200E+02  0.13287715940E+02  0.77875264594E+00  0.43400728785E+02  0.00000000000E+00 0. -1.
         11    1    3    3    0    0 -0.23597338133E+02  0.16452616798E+01 -0.49446587803E+01  0.24165903742E+02  0.51100000000E-03 0.  1.
        -11    1    3    3    0    0 -0.99873051590E+01 -0.71294473256E+01  0.22113767261E+01  0.12468579341E+02  0.51100000000E-03 0. -1.
        -12    1    3    3    0    0 -0.77245979084E+01 -0.78035302941E+01  0.19545294083E+01  0.11152788131E+02  0.00000000000E+00 0.  1.
</event>
<event>
 7    1  0.1301804E-009  0.4778727E+02  0.7816164E-02  0.1312668E+00
        -11   -1    0    0    0    0  0.00000000000E+00  0.00000000000E+00  0.45593999997E+02  0.45594000000E+02  0.51100000000E-03 0. -1.
         11   -1    0    0    0    0 -0.00000000000E+00 -0.00000000000E+00 -0.45593999997E+02  0.45594000000E+02  0.51100000000E-03 0.  1.
    9900012    2    1    2    0    0  0.20692056627E+02  0.38131959843E+02  0.11898738367E+01  0.47787269952E+02  0.19999995020E+02 0.  0.
         12    1    1    2    0    0 -0.20692056627E+02 -0.38131959843E+02 -0.11898738367E+01  0.43400730048E+02  0.00000000000E+00 0. -1.
         11    1    3    3    0    0  0.64857165599E+01  0.46201106267E+01 -0.43879042160E+01  0.90919549695E+01  0.51100000000E-03 0. -1.
        -11    1    3    3    0    0  0.12638606165E+02  0.30318204857E+02  0.95354555061E+00  0.32860875839E+02  0.51100000000E-03 0.  1.
         12    1    3    3    0    0  0.15677339030E+01  0.31936443590E+01  0.46242325021E+01  0.58344391433E+01  0.00000000000E+00 0. -1.
</event>
<event>
 7    1  0.1265344E-009  0.4778727E+02  0.7816164E-02  0.1312668E+00
        -11   -1    0    0    0    0  0.00000000000E+00  0.00000000000E+00  0.45593999997E+02  0.45594000000E+02  0.51100000000E-03 0. -1.
         11   -1    0    0    0    0 -0.00000000000E+00 -0.00000000000E+00 -0.45593999997E+02  0.45594000000E+02  0.51100000000E-03 0.  1.
    9900012    2    1    2    0    0  0.83589909912E+01 -0.39201742260E+02  0.16642533580E+02  0.47787271313E+02  0.20000001223E+02 0.  0.
         12    1    1    2    0    0 -0.83589909912E+01  0.39201742260E+02 -0.16642533580E+02  0.43400728687E+02  0.00000000000E+00 0. -1.
         11    1    3    3    0    0  0.94575479799E+00  0.18668015355E+01 -0.80223681499E+00  0.22412015258E+01  0.51100000000E-03 0. -1.
        -11    1    3    3    0    0  0.52820048486E+01 -0.15070406935E+02  0.72772093189E+01  0.17549202721E+02  0.51100000000E-03 0.  1.
        -12    1    3    3    0    0  0.21312313446E+01 -0.25998136860E+02  0.10167561077E+02  0.27996867066E+02  0.00000000000E+00 0.  1.
</event>
<event>
 7    1  0.1265344E-009  0.4778727E+02  0.7816164E-02  0.1312668E+00
        -11   -1    0    0    0    0  0.00000000000E+00  0.00000000000E+00  0.45593999997E+02  0.45594000000E+02  0.51100000000E-03 0. -1.
         11   -1    0    0    0    0 -0.00000000000E+00 -0.00000000000E+00 -0.45593999997E+02  0.45594000000E+02  0.51100000000E-03 0.  1.
    9900012    2    1    2    0    0  0.25663656084E+02  0.34147628237E+02 -0.76771973399E+01  0.47787272854E+02  0.20000008250E+02 0.  0.
         12    1    1    2    0    0 -0.25663656084E+02 -0.34147628237E+02  0.76771973399E+01  0.43400727146E+02  0.00000000000E+00 0. -1.
         11    1    3    3    0    0  0.89920810587E+01  0.15324666315E+02  0.16061031064E+01  0.17840473281E+02  0.51100000000E-03 0. -1.
        -11    1    3    3    0    0  0.56675094443E+01 -0.92600020799E+00 -0.79210984111E+00  0.57970318222E+01  0.51100000000E-03 0.  1.
        -12    1    3    3    0    0  0.11004065581E+02  0.19748962130E+02 -0.84911906052E+01  0.24149767751E+02  0.00000000000E+00 0.  1.
</event>
<event>
 7    1  0.1265344E-009  0.4778727E+02  0.7816164E-02  0.1312668E+00
        -11   -1    0    0    0    0  0.00000000000E+00  0.00000000000E+00  0.45593999997E+02  0.45594000000E+02  0.51100000000E-03 0.  1.
         11   -1    0    0    0    0 -0.00000000000E+00 -0.00000000000E+00 -0.45593999997E+02  0.45594000000E+02  0.51100000000E-03 0. -1.
    9900012    2    1    2    0    0  0.31372408319E+01 -0.32871557768E+02  0.28164544857E+02  0.47787272159E+02  0.20000005080E+02 0.  0.
         12    1    1    2    0    0 -0.31372408319E+01  0.32871557768E+02 -0.28164544857E+02  0.43400727841E+02  0.00000000000E+00 0. -1.
         11    1    3    3    0    0  0.11431122405E+01 -0.11575962013E+01 -0.16258504395E+01  0.23000270591E+01  0.51100000000E-03 0. -1.
        -11    1    3    3    0    0 -0.28026660450E+01 -0.22642502951E+02  0.14366677019E+02  0.26961811617E+02  0.51100000000E-03 0.  1.
         12    1    3    3    0    0  0.47967946363E+01 -0.90714586162E+01  0.15423718278E+02  0.18525433483E+02  0.00000000000E+00 0. -1.
</event>
<event>
 7    1  0.1265344E-009  0.4778727E+02  0.7816164E-02  0.1312668E+00
        -11   -1    0    0    0    0  0.00000000000E+00  0.00000000000E+00  0.45593999997E+02  0.45594000000E+02  0.51100000000E-03 0.  1.
         11   -1    0    0    0    0 -0.00000000000E+00 -0.00000000000E+00 -0.45593999997E+02  0.45594000000E+02  0.51100000000E-03 0. -1.
    9900012    2    1    2    0    0  0.27171275575E+02 -0.18830461428E+02  0.28120435408E+02  0.47787269804E+02  0.19999994346E+02 0.  0.
         12    1    1    2    0    0 -0.27171275575E+02  0.18830461428E+02 -0.28120435408E+02  0.43400730196E+02  0.00000000000E+00 0. -1.
         11    1    3    3    0    0  0.68137874171E+01  0.31751362726E+00  0.89949491362E+01  0.11288827401E+02  0.51100000000E-03 0. -1.
        -11    1    3    3    0    0  0.12232901528E+02 -0.16645041126E+02  0.18893287267E+02  0.27993884652E+02  0.51100000000E-03 0.  1.
        -12    1    3    3    0    0  0.81245866307E+01 -0.25029339294E+01  0.23219900439E+00  0.85045577517E+01  0.00000000000E+00 0.  1.
</event>
<event>
 7    1  0.1265344E-009  0.4778728E+02  0.7816164E-02  0.1312668E+00
        -11   -1    0    0    0    0  0.00000000000E+00  0.00000000000E+00  0.45593999997E+02  0.45594000000E+02  0.51100000000E-03 0.  1.
         11   -1    0    0    0    0 -0.00000000000E+00 -0.00000000000E+00 -0.45593999997E+02  0.45594000000E+02  0.51100000000E-03 0. -1.
    9900012    2    1    2    0    0 -0.37355825545E+02  0.19699317515E+02 -0.10005101090E+02  0.47787275806E+02  0.20000021709E+02 0.  0.
         12    1    1    2    0    0  0.37355825545E+02 -0.19699317515E+02  0.10005101090E+02  0.43400724194E+02  0.00000000000E+00 0. -1.
         11    1    3    3    0    0 -0.56531765020E+01  0.21452546800E+01  0.23280724900E+01  0.64792317434E+01  0.51100000000E-03 0.  1.
        -11    1    3    3    0    0 -0.15789575525E+02  0.17259701724E+02 -0.88849463275E+01  0.25022994832E+02  0.51100000000E-03 0. -1.
         12    1    3    3    0    0 -0.15913073518E+02  0.29436111198E+00 -0.34482272522E+01  0.16285049231E+02  0.00000000000E+00 0. -1.
</event>
<event>
 7    1  0.1265344E-009  0.4778727E+02  0.7816164E-02  0.1312668E+00
        -11   -1    0    0    0    0  0.00000000000E+00  0.00000000000E+00  0.45593999997E+02  0.45594000000E+02  0.51100000000E-03 0.  1.
         11   -1    0    0    0    0 -0.00000000000E+00 -0.00000000000E+00 -0.45593999997E+02  0.45594000000E+02  0.51100000000E-03 0. -1.
    9900012    2    1    2    0    0 -0.42809509892E+02  0.45100215413E+00 -0.71250224618E+01  0.47787268610E+02  0.19999988898E+02 0.  0.
         12    1    1    2    0    0  0.42809509892E+02 -0.45100215413E+00  0.71250224618E+01  0.43400731390E+02  0.00000000000E+00 0. -1.
         11    1    3    3    0    0 -0.57137556066E+01  0.54960626568E-01  0.47676915117E+01  0.74418348822E+01  0.51100000000E-03 0. -1.
        -11    1    3    3    0    0 -0.23379392052E+02 -0.34547277525E+01 -0.37293415626E+01  0.23925699683E+02  0.51100000000E-03 0.  1.
         12    1    3    3    0    0 -0.13716362233E+02  0.38507692800E+01 -0.81633724109E+01  0.16419734044E+02  0.00000000000E+00 0. -1.
</event>
<event>
 7    1  0.1265344E-009  0.4778727E+02  0.7816164E-02  0.1312668E+00
        -11   -1    0    0    0    0  0.00000000000E+00  0.00000000000E+00  0.45593999997E+02  0.45594000000E+02  0.51100000000E-03 0.  1.
         11   -1    0    0    0    0 -0.00000000000E+00 -0.00000000000E+00 -0.45593999997E+02  0.45594000000E+02  0.51100000000E-03 0. -1.
    9900012    2    1    2    0    0 -0.35520195235E+02  0.23542688563E+02 -0.82268267292E+01  0.47787272675E+02  0.20000007436E+02 0.  0.
         12    1    1    2    0    0  0.35520195235E+02 -0.23542688563E+02  0.82268267292E+01  0.43400727325E+02  0.00000000000E+00 0. -1.
         11    1    3    3    0    0  0.13301320003E+01 -0.94755555740E+00 -0.21935329018E+00  0.16477951328E+01  0.51100000000E-03 0. -1.
        -11    1    3    3    0    0 -0.17057225882E+02  0.91284674151E+01  0.13519722025E+01  0.19393444800E+02  0.51100000000E-03 0.  1.
         12    1    3    3    0    0 -0.19793101353E+02  0.15361776705E+02 -0.93594456415E+01  0.26746032742E+02  0.00000000000E+00 0. -1.
</event>
<event>
 7    1  0.1265344E-009  0.4778728E+02  0.7816164E-02  0.1312668E+00
        -11   -1    0    0    0    0  0.00000000000E+00  0.00000000000E+00  0.45593999997E+02  0.45594000000E+02  0.51100000000E-03 0.  1.
         11   -1    0    0    0    0 -0.00000000000E+00 -0.00000000000E+00 -0.45593999997E+02  0.45594000000E+02  0.51100000000E-03 0. -1.
    9900012    2    1    2    0    0  0.31953525514E+02  0.20253043098E+02 -0.21269917151E+02  0.47787275085E+02  0.20000018423E+02 0.  0.
         12    1    1    2    0    0 -0.31953525514E+02 -0.20253043098E+02  0.21269917151E+02  0.43400724915E+02  0.00000000000E+00 0. -1.
         11    1    3    3    0    0  0.58015748872E+01 -0.18905408569E+00 -0.29305635793E-01  0.58047283917E+01  0.51100000000E-03 0. -1.
        -11    1    3    3    0    0  0.18215771755E+02  0.91502552674E+01 -0.19250782427E+02  0.28038083679E+02  0.51100000000E-03 0.  1.
         12    1    3    3    0    0  0.79361788721E+01  0.11291841916E+02 -0.19898290879E+01  0.13944463014E+02  0.00000000000E+00 0. -1.
</event>
<event>
 7    1  0.1265344E-009  0.4778727E+02  0.7816164E-02  0.1312668E+00
        -11   -1    0    0    0    0  0.00000000000E+00  0.00000000000E+00  0.45593999997E+02  0.45594000000E+02  0.51100000000E-03 0.  1.
         11   -1    0    0    0    0 -0.00000000000E+00 -0.00000000000E+00 -0.45593999997E+02  0.45594000000E+02  0.51100000000E-03 0. -1.
    9900012    2    1    2    0    0 -0.42994736445E+02 -0.28236922577E+01 -0.52060306705E+01  0.47787270107E+02  0.19999995724E+02 0.  0.
         12    1    1    2    0    0  0.42994736445E+02  0.28236922577E+01  0.52060306705E+01  0.43400729893E+02  0.00000000000E+00 0. -1.
         11    1    3    3    0    0 -0.40154103764E+01 -0.51805127370E+01  0.32204418332E+01  0.73029089116E+01  0.51100000000E-03 0. -1.
        -11    1    3    3    0    0 -0.18315681100E+02 -0.12405815489E+00 -0.84891333000E+00  0.18335763379E+02  0.51100000000E-03 0.  1.
         12    1    3    3    0    0 -0.20663644968E+02  0.24808786343E+01 -0.75775591737E+01  0.22148597816E+02  0.00000000000E+00 0. -1.
</event>
<event>
 7    1  0.3427807E-009  0.4778727E+02  0.7816164E-02  0.1312668E+00
        -11   -1    0    0    0    0  0.00000000000E+00  0.00000000000E+00  0.45593999997E+02  0.45594000000E+02  0.51100000000E-03 0.  1.
         11   -1    0    0    0    0 -0.00000000000E+00 -0.00000000000E+00 -0.45593999997E+02  0.45594000000E+02  0.51100000000E-03 0. -1.
    9900012    2    1    2    0    0  0.27707020664E+02 -0.84747656651E+01 -0.32312885069E+02  0.47787272027E+02  0.20000004478E+02 0.  0.
         12    1    1    2    0    0 -0.27707020664E+02  0.84747656651E+01  0.32312885069E+02  0.43400727973E+02  0.00000000000E+00 0. -1.
         11    1    3    3    0    0 -0.11083432434E+01 -0.78299636863E+00  0.18827876166E+00  0.13700208800E+01  0.51100000000E-03 0. -1.
        -11    1    3    3    0    0  0.23492530840E+02 -0.73872271876E+01 -0.16736666397E+02  0.29775596269E+02  0.51100000000E-03 0.  1.
        -12    1    3    3    0    0  0.53228330672E+01 -0.30454210888E+00 -0.15764497433E+02  0.16641654878E+02  0.00000000000E+00 0.  1.
</event>
<event>
 7    1  0.1265344E-009  0.4778721E+02  0.7816164E-02  0.1312668E+00
        -11   -1    0    0    0    0  0.00000000000E+00  0.00000000000E+00  0.45593999997E+02  0.45594000000E+02  0.51100000000E-03 0.  1.
         11   -1    0    0    0    0 -0.00000000000E+00 -0.00000000000E+00 -0.45593999997E+02  0.45594000000E+02  0.51100000000E-03 0. -1.
    9900012    2    1    2    0    0  0.41135856967E+02  0.70416749597E+01  0.11911533950E+02  0.47787210195E+02  0.19999722563E+02 0.  0.
         12    1    1    2    0    0 -0.41135856967E+02 -0.70416749597E+01 -0.11911533950E+02  0.43400789805E+02  0.00000000000E+00 0. -1.
         11    1    3    3    0    0  0.31138345036E+01  0.12890911203E+00 -0.29994511531E+01  0.43254237198E+01  0.51100000000E-03 0. -1.
        -11    1    3    3    0    0  0.28643747349E+02  0.64112011424E+01  0.49419243391E+01  0.29765590515E+02  0.51100000000E-03 0.  1.
        -12    1    3    3    0    0  0.93782751140E+01  0.50156470520E+00  0.99690607641E+01  0.13696195960E+02  0.00000000000E+00 0.  1.
</event>
<event>
 7    1  0.1265344E-009  0.4778727E+02  0.7816164E-02  0.1312668E+00
        -11   -1    0    0    0    0  0.00000000000E+00  0.00000000000E+00  0.45593999997E+02  0.45594000000E+02  0.51100000000E-03 0.  1.
         11   -1    0    0    0    0 -0.00000000000E+00 -0.00000000000E+00 -0.45593999997E+02  0.45594000000E+02  0.51100000000E-03 0. -1.
    9900012    2    1    2    0    0 -0.20237774998E+02 -0.23049063868E+02  0.30704991890E+02  0.47787269487E+02  0.19999992899E+02 0.  0.
         12    1    1    2    0    0  0.20237774998E+02  0.23049063868E+02 -0.30704991890E+02  0.43400730513E+02  0.00000000000E+00 0. -1.
         11    1    3    3    0    0 -0.81552686935E+01 -0.52261736619E+01  0.13277142861E+02  0.16434835607E+02  0.51100000000E-03 0. -1.
        -11    1    3    3    0    0 -0.13479892695E+02 -0.93565149790E+01  0.15468779183E+02  0.22550720815E+02  0.51100000000E-03 0.  1.
         12    1    3    3    0    0  0.13973863902E+01 -0.84663752273E+01  0.19590698458E+01  0.88017130647E+01  0.00000000000E+00 0. -1.
</event>
<event>
 7    1  0.1265344E-009  0.4778727E+02  0.7816164E-02  0.1312668E+00
        -11   -1    0    0    0    0  0.00000000000E+00  0.00000000000E+00  0.45593999997E+02  0.45594000000E+02  0.51100000000E-03 0.  1.
         11   -1    0    0    0    0 -0.00000000000E+00 -0.00000000000E+00 -0.45593999997E+02  0.45594000000E+02  0.51100000000E-03 0. -1.
    9900012    2    1    2    0    0  0.60459393459E+01  0.25682338928E+01  0.42900752011E+02  0.47787265778E+02  0.19999975986E+02 0.  0.
         12    1    1    2    0    0 -0.60459393459E+01 -0.25682338928E+01 -0.42900752011E+02  0.43400734222E+02  0.00000000000E+00 0. -1.
         11    1    3    3    0    0 -0.46183842740E+01  0.12260436733E+01  0.23118197120E+02  0.23606856943E+02  0.51100000000E-03 0.  1.
        -11    1    3    3    0    0  0.28371409678E+01  0.45366077450E+01  0.62879780269E+01  0.82564427348E+01  0.51100000000E-03 0. -1.
        -12    1    3    3    0    0  0.78271826521E+01 -0.31944175255E+01  0.13494576865E+02  0.15923966100E+02  0.00000000000E+00 0.  1.
</event>
<event>
 7    1  0.1265344E-009  0.4778726E+02  0.7816164E-02  0.1312668E+00
        -11   -1    0    0    0    0  0.00000000000E+00  0.00000000000E+00  0.45593999997E+02  0.45594000000E+02  0.51100000000E-03 0.  1.
         11   -1    0    0    0    0 -0.00000000000E+00 -0.00000000000E+00 -0.45593999997E+02  0.45594000000E+02  0.51100000000E-03 0. -1.
    9900012    2    1    2    0    0  0.77670076159E+01  0.24588519963E+02  0.34909925506E+02  0.47787255535E+02  0.19999929287E+02 0.  0.
         12    1    1    2    0    0 -0.77670076159E+01 -0.24588519963E+02 -0.34909925506E+02  0.43400744465E+02  0.00000000000E+00 0. -1.
         11    1    3    3    0    0 -0.24707817076E+01  0.43961077892E+01  0.30526629378E+01  0.58948517550E+01  0.51100000000E-03 0. -1.
        -11    1    3    3    0    0  0.77434864936E+01  0.18547131425E+02  0.33044745366E+02  0.38677032768E+02  0.51100000000E-03 0.  1.
        -12    1    3    3    0    0  0.24943028299E+01  0.16452807494E+01 -0.11874827981E+01  0.32153710124E+01  0.00000000000E+00 0.  1.
</event>
<event>
 7    1  0.1265344E-009  0.4778727E+02  0.7816164E-02  0.1312668E+00
        -11   -1    0    0    0    0  0.00000000000E+00  0.00000000000E+00  0.45593999997E+02  0.45594000000E+02  0.51100000000E-03 0.  1.
         11   -1    0    0    0    0 -0.00000000000E+00 -0.00000000000E+00 -0.45593999997E+02  0.45594000000E+02  0.51100000000E-03 0. -1.
    9900012    2    1    2    0    0  0.24755406613E+02  0.23465987189E+02  0.26835442306E+02  0.47787266423E+02  0.19999978928E+02 0.  0.
         12    1    1    2    0    0 -0.24755406613E+02 -0.23465987189E+02 -0.26835442306E+02  0.43400733577E+02  0.00000000000E+00 0. -1.
         11    1    3    3    0    0 -0.61783612917E+00 -0.17908013743E+01  0.17723671639E+01  0.25942198576E+01  0.51100000000E-03 0. -1.
        -11    1    3    3    0    0  0.11386311568E+00  0.47487414908E+01  0.53335803646E+01  0.71421698609E+01  0.51100000000E-03 0.  1.
        -12    1    3    3    0    0  0.25259379626E+02  0.20508047072E+02  0.19729494777E+02  0.38050876704E+02  0.00000000000E+00 0.  1.
</event>
<event>
 7    1  0.1265344E-009  0.4778728E+02  0.7816164E-02  0.1312668E+00
        -11   -1    0    0    0    0  0.00000000000E+00  0.00000000000E+00  0.45593999997E+02  0.45594000000E+02  0.51100000000E-03 0.  1.
         11   -1    0    0    0    0 -0.00000000000E+00 -0.00000000000E+00 -0.45593999997E+02  0.45594000000E+02  0.51100000000E-03 0. -1.
    9900012    2    1    2    0    0 -0.29084037899E+02  0.27279536131E+02  0.17133837926E+02  0.47787277033E+02  0.20000027304E+02 0.  0.
         12    1    1    2    0    0  0.29084037899E+02 -0.27279536131E+02 -0.17133837926E+02  0.43400722967E+02  0.00000000000E+00 0. -1.
         11    1    3    3    0    0 -0.47869956309E+01  0.76528428927E+01  0.72315222357E+01  0.11566168148E+02  0.51100000000E-03 0. -1.
        -11    1    3    3    0    0 -0.58679277125E+01  0.34868181817E+01  0.95281363196E+01  0.11720744800E+02  0.51100000000E-03 0.  1.
         12    1    3    3    0    0 -0.18429114556E+02  0.16139875056E+02  0.37417937044E+00  0.24500364086E+02  0.00000000000E+00 0. -1.
</event>
<event>
 7    1  0.1265344E-009  0.4778728E+02  0.7816164E-02  0.1312668E+00
        -11   -1    0    0    0    0  0.00000000000E+00  0.00000000000E+00  0.45593999997E+02  0.45594000000E+02  0.51100000000E-03 0. -1.
         11   -1    0    0    0    0 -0.00000000000E+00 -0.00000000000E+00 -0.45593999997E+02  0.45594000000E+02  0.51100000000E-03 0.  1.
    9900012    2    1    2    0    0  0.22608734055E+02  0.34473846705E+02 -0.13565463287E+02  0.47787277005E+02  0.20000027178E+02 0.  0.
         12    1    1    2    0    0 -0.22608734055E+02 -0.34473846705E+02  0.13565463287E+02  0.43400722995E+02  0.00000000000E+00 0. -1.
         11    1    3    3    0    0  0.21382011073E+01  0.66276698514E+01 -0.62417254681E+01  0.93518473424E+01  0.51100000000E-03 0.  1.
        -11    1    3    3    0    0  0.11810711771E+02  0.12373919040E+02 -0.10986743216E+02  0.20330157690E+02  0.51100000000E-03 0. -1.
         12    1    3    3    0    0  0.86598211777E+01  0.15472257814E+02  0.36630053970E+01  0.18105271973E+02  0.00000000000E+00 0. -1.
</event>
<event>
 7    1  0.1265344E-009  0.4778727E+02  0.7816164E-02  0.1312668E+00
        -11   -1    0    0    0    0  0.00000000000E+00  0.00000000000E+00  0.45593999997E+02  0.45594000000E+02  0.51100000000E-03 0.  1.
         11   -1    0    0    0    0 -0.00000000000E+00 -0.00000000000E+00 -0.45593999997E+02  0.45594000000E+02  0.51100000000E-03 0. -1.
    9900012    2    1    2    0    0 -0.35913443416E+02  0.22165089776E+02  0.10127009342E+02  0.47787274880E+02  0.20000017488E+02 0.  0.
         12    1    1    2    0    0  0.35913443416E+02 -0.22165089776E+02 -0.10127009342E+02  0.43400725120E+02  0.00000000000E+00 0. -1.
         11    1    3    3    0    0 -0.14675993713E+02  0.10768394359E+02  0.39472328195E+01  0.18625889394E+02  0.51100000000E-03 0.  1.
        -11    1    3    3    0    0  0.14022690620E+01  0.28406818795E+01  0.36407179823E+01  0.48260397585E+01  0.51100000000E-03 0. -1.
         12    1    3    3    0    0 -0.22639718765E+02  0.85560135370E+01  0.25390585401E+01  0.24335345727E+02  0.00000000000E+00 0. -1.
</event>
<event>
 7    1  0.1265344E-009  0.4778727E+02  0.7816164E-02  0.1312668E+00
        -11   -1    0    0    0    0  0.00000000000E+00  0.00000000000E+00  0.45593999997E+02  0.45594000000E+02  0.51100000000E-03 0. -1.
         11   -1    0    0    0    0 -0.00000000000E+00 -0.00000000000E+00 -0.45593999997E+02  0.45594000000E+02  0.51100000000E-03 0.  1.
    9900012    2    1    2    0    0  0.16696529938E+02 -0.28843821035E+02 -0.27800773744E+02  0.47787272533E+02  0.20000006787E+02 0.  0.
         12    1    1    2    0    0 -0.16696529938E+02  0.28843821035E+02  0.27800773744E+02  0.43400727467E+02  0.00000000000E+00 0. -1.
         11    1    3    3    0    0 -0.15718201327E+00 -0.51483404264E+01  0.15080117634E+00  0.51529463986E+01  0.51100000000E-03 0. -1.
        -11    1    3    3    0    0  0.12715679379E+02 -0.87434418734E+01 -0.80650547981E+01  0.17412104612E+02  0.51100000000E-03 0.  1.
        -12    1    3    3    0    0  0.41380325717E+01 -0.14952038736E+02 -0.19886520123E+02  0.25222221522E+02  0.00000000000E+00 0.  1.
</event>
<event>
 7    1  0.1265344E-009  0.4778727E+02  0.7816164E-02  0.1312668E+00
        -11   -1    0    0    0    0  0.00000000000E+00  0.00000000000E+00  0.45593999997E+02  0.45594000000E+02  0.51100000000E-03 0. -1.
         11   -1    0    0    0    0 -0.00000000000E+00 -0.00000000000E+00 -0.45593999997E+02  0.45594000000E+02  0.51100000000E-03 0.  1.
    9900012    2    1    2    0    0  0.10738235589E+02 -0.35503009188E+02 -0.22535527800E+02  0.47787269843E+02  0.19999994521E+02 0.  0.
         12    1    1    2    0    0 -0.10738235589E+02  0.35503009188E+02  0.22535527800E+02  0.43400730157E+02  0.00000000000E+00 0. -1.
         11    1    3    3    0    0  0.30218308225E+01 -0.32044232414E+01 -0.76870575405E+01  0.88594945522E+01  0.51100000000E-03 0. -1.
        -11    1    3    3    0    0  0.76313544572E+01 -0.33232517053E+02 -0.15810136265E+02  0.37584546951E+02  0.51100000000E-03 0.  1.
         12    1    3    3    0    0  0.85050308917E-01  0.93393110601E+00  0.96166600574E+00  0.13432283396E+01  0.00000000000E+00 0. -1.
</event>
<event>
 7    1  0.1265344E-009  0.4778727E+02  0.7816164E-02  0.1312668E+00
        -11   -1    0    0    0    0  0.00000000000E+00  0.00000000000E+00  0.45593999997E+02  0.45594000000E+02  0.51100000000E-03 0.  1.
         11   -1    0    0    0    0 -0.00000000000E+00 -0.00000000000E+00 -0.45593999997E+02  0.45594000000E+02  0.51100000000E-03 0. -1.
    9900012    2    1    2    0    0  0.11795442992E+02 -0.29410982828E+02  0.29656109826E+02  0.47787271477E+02  0.20000001973E+02 0.  0.
         12    1    1    2    0    0 -0.11795442992E+02  0.29410982828E+02 -0.29656109826E+02  0.43400728523E+02  0.00000000000E+00 0. -1.
         11    1    3    3    0    0 -0.86918497442E+00 -0.10909624327E+01 -0.82892266700E+00  0.16225888568E+01  0.51100000000E-03 0. -1.
        -11    1    3    3    0    0 -0.68918364448E+00 -0.36390609806E+01 -0.11488614775E+01  0.38778372674E+01  0.51100000000E-03 0.  1.
        -12    1    3    3    0    0  0.13353811611E+02 -0.24680959415E+02  0.31633893970E+02  0.42286845353E+02  0.00000000000E+00 0.  1.
</event>
<event>
 7    1  0.1265344E-009  0.4778728E+02  0.7816164E-02  0.1312668E+00
        -11   -1    0    0    0    0  0.00000000000E+00  0.00000000000E+00  0.45593999997E+02  0.45594000000E+02  0.51100000000E-03 0.  1.
         11   -1    0    0    0    0 -0.00000000000E+00 -0.00000000000E+00 -0.45593999997E+02  0.45594000000E+02  0.51100000000E-03 0. -1.
    9900012    2    1    2    0    0  0.38075362679E+01  0.53463446774E+01  0.42901534278E+02  0.47787281374E+02  0.20000047096E+02 0.  0.
         12    1    1    2    0    0 -0.38075362679E+01 -0.53463446774E+01 -0.42901534278E+02  0.43400718626E+02  0.00000000000E+00 0. -1.
         11    1    3    3    0    0 -0.17270810843E+00 -0.54015040863E+01  0.82027654625E+01  0.98230054453E+01  0.51100000000E-03 0. -1.
        -11    1    3    3    0    0 -0.29879043290E+01  0.52403542285E+01  0.95754488344E+01  0.11317159775E+02  0.51100000000E-03 0.  1.
        -12    1    3    3    0    0  0.69681487053E+01  0.55074945352E+01  0.25123319981E+02  0.26647116154E+02  0.00000000000E+00 0.  1.
</event>
<event>
 7    1  0.1265344E-009  0.4778727E+02  0.7816164E-02  0.1312668E+00
        -11   -1    0    0    0    0  0.00000000000E+00  0.00000000000E+00  0.45593999997E+02  0.45594000000E+02  0.51100000000E-03 0.  1.
         11   -1    0    0    0    0 -0.00000000000E+00 -0.00000000000E+00 -0.45593999997E+02  0.45594000000E+02  0.51100000000E-03 0. -1.
    9900012    2    1    2    0    0 -0.42196909846E+02  0.90695252698E+01 -0.45593927914E+01  0.47787267843E+02  0.19999985402E+02 0.  0.
         12    1    1    2    0    0  0.42196909846E+02 -0.90695252698E+01  0.45593927914E+01  0.43400732157E+02  0.00000000000E+00 0. -1.
         11    1    3    3    0    0  0.38889560215E+00 -0.95161632232E+00  0.11846615970E+01  0.15685141934E+01  0.51100000000E-03 0. -1.
        -11    1    3    3    0    0  0.35070505166E-01  0.22054586442E+01 -0.15264742248E+01  0.26824245734E+01  0.51100000000E-03 0.  1.
        -12    1    3    3    0    0 -0.42620875953E+02  0.78156829479E+01 -0.42175801636E+01  0.43536329076E+02  0.00000000000E+00 0.  1.
</event>
<event>
 7    1  0.1265344E-009  0.4778727E+02  0.7816164E-02  0.1312668E+00
        -11   -1    0    0    0    0  0.00000000000E+00  0.00000000000E+00  0.45593999997E+02  0.45594000000E+02  0.51100000000E-03 0.  1.
         11   -1    0    0    0    0 -0.00000000000E+00 -0.00000000000E+00 -0.45593999997E+02  0.45594000000E+02  0.51100000000E-03 0. -1.
    9900012    2    1    2    0    0  0.53386045447E+01  0.43065603359E+02 -0.69032231990E+00  0.47787269176E+02  0.19999991483E+02 0.  0.
         12    1    1    2    0    0 -0.53386045447E+01 -0.43065603359E+02  0.69032231990E+00  0.43400730824E+02  0.00000000000E+00 0. -1.
         11    1    3    3    0    0  0.32187950105E+01  0.20124331208E+02 -0.41858325573E+01  0.20805541146E+02  0.51100000000E-03 0. -1.
        -11    1    3    3    0    0  0.68814176542E+01  0.16794667064E+02  0.54767076375E+01  0.18958087391E+02  0.51100000000E-03 0.  1.
         12    1    3    3    0    0 -0.47616081201E+01  0.61466050860E+01 -0.19811974000E+01  0.80236406394E+01  0.00000000000E+00 0. -1.
</event>
<event>
 7    1  0.1265344E-009  0.4778727E+02  0.7816164E-02  0.1312668E+00
        -11   -1    0    0    0    0  0.00000000000E+00  0.00000000000E+00  0.45593999997E+02  0.45594000000E+02  0.51100000000E-03 0. -1.
         11   -1    0    0    0    0 -0.00000000000E+00 -0.00000000000E+00 -0.45593999997E+02  0.45594000000E+02  0.51100000000E-03 0.  1.
    9900012    2    1    2    0    0  0.41262970814E+02 -0.10130614304E+02 -0.88521881387E+01  0.47787270266E+02  0.19999996451E+02 0.  0.
         12    1    1    2    0    0 -0.41262970814E+02  0.10130614304E+02  0.88521881387E+01  0.43400729734E+02  0.00000000000E+00 0. -1.
         11    1    3    3    0    0  0.12460934178E+02 -0.16886674992E+01  0.25668184226E+01  0.12834135561E+02  0.51100000000E-03 0. -1.
        -11    1    3    3    0    0  0.15376107354E+02 -0.11551327761E+02 -0.72837998045E+01  0.20564814374E+02  0.51100000000E-03 0.  1.
         12    1    3    3    0    0  0.13425929282E+02  0.31093809564E+01 -0.41352067569E+01  0.14388320331E+02  0.00000000000E+00 0. -1.
</event>
<event>
 7    1  0.1376866E-009  0.4778728E+02  0.7816164E-02  0.1312668E+00
        -11   -1    0    0    0    0  0.00000000000E+00  0.00000000000E+00  0.45593999997E+02  0.45594000000E+02  0.51100000000E-03 0. -1.
         11   -1    0    0    0    0 -0.00000000000E+00 -0.00000000000E+00 -0.45593999997E+02  0.45594000000E+02  0.51100000000E-03 0.  1.
    9900012    2    1    2    0    0 -0.30880590268E+02 -0.24556001599E+02 -0.18083541236E+02  0.47787279575E+02  0.20000038893E+02 0.  0.
         12    1    1    2    0    0  0.30880590268E+02  0.24556001599E+02  0.18083541236E+02  0.43400720425E+02  0.00000000000E+00 0. -1.
         11    1    3    3    0    0 -0.60409082431E+00 -0.50328134179E+01 -0.60251707251E+01  0.78738058873E+01  0.51100000000E-03 0. -1.
        -11    1    3    3    0    0 -0.18981613837E+02 -0.74269356591E+01 -0.11391956343E+02  0.23350325624E+02  0.51100000000E-03 0.  1.
        -12    1    3    3    0    0 -0.11294885606E+02 -0.12096252522E+02 -0.66641416735E+00  0.16563148063E+02  0.00000000000E+00 0.  1.
</event>
<event>
 7    1  0.1265344E-009  0.4778727E+02  0.7816164E-02  0.1312668E+00
        -11   -1    0    0    0    0  0.00000000000E+00  0.00000000000E+00  0.45593999997E+02  0.45594000000E+02  0.51100000000E-03 0.  1.
         11   -1    0    0    0    0 -0.00000000000E+00 -0.00000000000E+00 -0.45593999997E+02  0.45594000000E+02  0.51100000000E-03 0. -1.
    9900012    2    1    2    0    0  0.36256040444E+02  0.96470513989E+01  0.21818733037E+02  0.47787272118E+02  0.20000004893E+02 0.  0.
         12    1    1    2    0    0 -0.36256040444E+02 -0.96470513989E+01 -0.21818733037E+02  0.43400727882E+02  0.00000000000E+00 0. -1.
         11    1    3    3    0    0  0.86446970564E+01  0.39719184619E+01  0.22607766260E+01  0.97784474575E+01  0.51100000000E-03 0. -1.
        -11    1    3    3    0    0  0.14427670914E+01 -0.14841105332E+01  0.84379767976E+01  0.86881306190E+01  0.51100000000E-03 0.  1.
        -12    1    3    3    0    0  0.26168576296E+02  0.71592434703E+01  0.11119979614E+02  0.29320694041E+02  0.00000000000E+00 0.  1.
</event>
<event>
 7    1  0.1265344E-009  0.4778727E+02  0.7816164E-02  0.1312668E+00
        -11   -1    0    0    0    0  0.00000000000E+00  0.00000000000E+00  0.45593999997E+02  0.45594000000E+02  0.51100000000E-03 0.  1.
         11   -1    0    0    0    0 -0.00000000000E+00 -0.00000000000E+00 -0.45593999997E+02  0.45594000000E+02  0.51100000000E-03 0. -1.
    9900012    2    1    2    0    0 -0.38330873043E+02  0.18603784587E+02  0.82623676163E+01  0.47787270193E+02  0.19999996116E+02 0.  0.
         12    1    1    2    0    0  0.38330873043E+02 -0.18603784587E+02 -0.82623676163E+01  0.43400729807E+02  0.00000000000E+00 0. -1.
         11    1    3    3    0    0 -0.93423342974E+01  0.98178786886E+01  0.95751312464E+01  0.16593766622E+02  0.51100000000E-03 0. -1.
        -11    1    3    3    0    0 -0.11647859942E+02  0.63867491685E+00  0.17339803979E+01  0.11793525137E+02  0.51100000000E-03 0.  1.
        -12    1    3    3    0    0 -0.17340678803E+02  0.81472309814E+01 -0.30467440279E+01  0.19399978433E+02  0.00000000000E+00 0.  1.
</event>
<event>
 7    1  0.1265344E-009  0.4778727E+02  0.7816164E-02  0.1312668E+00
        -11   -1    0    0    0    0  0.00000000000E+00  0.00000000000E+00  0.45593999997E+02  0.45594000000E+02  0.51100000000E-03 0. -1.
         11   -1    0    0    0    0 -0.00000000000E+00 -0.00000000000E+00 -0.45593999997E+02  0.45594000000E+02  0.51100000000E-03 0.  1.
    9900012    2    1    2    0    0  0.18677827384E+02  0.14101847781E+02 -0.36549964409E+02  0.47787271378E+02  0.20000001519E+02 0.  0.
         12    1    1    2    0    0 -0.18677827384E+02 -0.14101847781E+02  0.36549964409E+02  0.43400728622E+02  0.00000000000E+00 0. -1.
         11    1    3    3    0    0  0.55968370408E+01 -0.13233639114E+01 -0.46818383499E+01  0.74158942481E+01  0.51100000000E-03 0. -1.
        -11    1    3    3    0    0  0.32442200806E+01 -0.18870570816E+01 -0.10563315562E+02  0.11210244613E+02  0.51100000000E-03 0.  1.
        -12    1    3    3    0    0  0.98367702621E+01  0.17312268774E+02 -0.21304810498E+02  0.29161132516E+02  0.00000000000E+00 0.  1.
</event>
<event>
 7    1  0.1265344E-009  0.4778729E+02  0.7816164E-02  0.1312668E+00
        -11   -1    0    0    0    0  0.00000000000E+00  0.00000000000E+00  0.45593999997E+02  0.45594000000E+02  0.51100000000E-03 0. -1.
         11   -1    0    0    0    0 -0.00000000000E+00 -0.00000000000E+00 -0.45593999997E+02  0.45594000000E+02  0.51100000000E-03 0.  1.
    9900012    2    1    2    0    0  0.61336448294E+01 -0.34840681041E+02 -0.25142140695E+02  0.47787286953E+02  0.20000072534E+02 0.  0.
         12    1    1    2    0    0 -0.61336448294E+01  0.34840681041E+02  0.25142140695E+02  0.43400713047E+02  0.00000000000E+00 0. -1.
         11    1    3    3    0    0  0.11631523555E+00 -0.13621906803E+02 -0.83269186376E+01  0.15965821258E+02  0.51100000000E-03 0. -1.
        -11    1    3    3    0    0  0.27569675712E+01 -0.23089679113E+02 -0.14640647399E+02  0.27478768317E+02  0.51100000000E-03 0.  1.
         12    1    3    3    0    0  0.32603620226E+01  0.18709048752E+01 -0.21745746579E+01  0.43426973775E+01  0.00000000000E+00 0. -1.
</event>
<event>
 7    1  0.3382624E-009  0.4778729E+02  0.7816164E-02  0.1312668E+00
        -11   -1    0    0    0    0  0.00000000000E+00  0.00000000000E+00  0.45593999997E+02  0.45594000000E+02  0.51100000000E-03 0. -1.
         11   -1    0    0    0    0 -0.00000000000E+00 -0.00000000000E+00 -0.45593999997E+02  0.45594000000E+02  0.51100000000E-03 0.  1.
    9900012    2    1    2    0    0  0.14143537206E+01  0.94718137125E+01 -0.42330913972E+02  0.47787286536E+02  0.20000070633E+02 0.  0.
         12    1    1    2    0    0 -0.14143537206E+01 -0.94718137125E+01  0.42330913972E+02  0.43400713464E+02  0.00000000000E+00 0. -1.
         11    1    3    3    0    0  0.12519600497E+01 -0.18625825570E+01 -0.12662697213E+01  0.25768308085E+01  0.51100000000E-03 0. -1.
        -11    1    3    3    0    0 -0.45938966334E+01  0.59307854049E+01 -0.35008055526E+02  0.35802821869E+02  0.51100000000E-03 0.  1.
        -12    1    3    3    0    0  0.47562903044E+01  0.54036108646E+01 -0.60565887246E+01  0.94076338584E+01  0.00000000000E+00 0.  1.
</event>
<event>
 7    1  0.1265344E-009  0.4778727E+02  0.7816164E-02  0.1312668E+00
        -11   -1    0    0    0    0  0.00000000000E+00  0.00000000000E+00  0.45593999997E+02  0.45594000000E+02  0.51100000000E-03 0. -1.
         11   -1    0    0    0    0 -0.00000000000E+00 -0.00000000000E+00 -0.45593999997E+02  0.45594000000E+02  0.51100000000E-03 0.  1.
    9900012    2    1    2    0    0  0.17114356674E+02 -0.68475593041E+01 -0.39291639871E+02  0.47787271475E+02  0.20000001962E+02 0.  0.
         12    1    1    2    0    0 -0.17114356674E+02  0.68475593041E+01  0.39291639871E+02  0.43400728525E+02  0.00000000000E+00 0. -1.
         11    1    3    3    0    0  0.90694132585E+01  0.23931667547E+00 -0.11360786476E+02  0.14538878875E+02  0.51100000000E-03 0. -1.
        -11    1    3    3    0    0  0.94030078251E+01 -0.89772491285E+00 -0.23999607538E+02  0.25791541800E+02  0.51100000000E-03 0.  1.
        -12    1    3    3    0    0 -0.13580644098E+01 -0.61891510667E+01 -0.39312458575E+01  0.74568508005E+01  0.00000000000E+00 0.  1.
</event>
<event>
 7    1  0.1265344E-009  0.4778727E+02  0.7816164E-02  0.1312668E+00
        -11   -1    0    0    0    0  0.00000000000E+00  0.00000000000E+00  0.45593999997E+02  0.45594000000E+02  0.51100000000E-03 0. -1.
         11   -1    0    0    0    0 -0.00000000000E+00 -0.00000000000E+00 -0.45593999997E+02  0.45594000000E+02  0.51100000000E-03 0.  1.
    9900012    2    1    2    0    0 -0.31629455359E+02 -0.20143102937E+02 -0.21850771050E+02  0.47787271460E+02  0.20000001897E+02 0.  0.
         12    1    1    2    0    0  0.31629455359E+02  0.20143102937E+02  0.21850771050E+02  0.43400728540E+02  0.00000000000E+00 0. -1.
         11    1    3    3    0    0  0.14703469018E+01 -0.22746578232E+00  0.55724248109E+00  0.15887668607E+01  0.51100000000E-03 0. -1.
        -11    1    3    3    0    0 -0.16390777132E+02 -0.99520055101E+01 -0.43668207009E+01  0.19666446348E+02  0.51100000000E-03 0.  1.
        -12    1    3    3    0    0 -0.16709025129E+02 -0.99636316449E+01 -0.18041192830E+02  0.26532058252E+02  0.00000000000E+00 0.  1.
</event>
<event>
 7    1  0.1265344E-009  0.4778729E+02  0.7816164E-02  0.1312668E+00
        -11   -1    0    0    0    0  0.00000000000E+00  0.00000000000E+00  0.45593999997E+02  0.45594000000E+02  0.51100000000E-03 0. -1.
         11   -1    0    0    0    0 -0.00000000000E+00 -0.00000000000E+00 -0.45593999997E+02  0.45594000000E+02  0.51100000000E-03 0.  1.
    9900012    2    1    2    0    0 -0.34258760066E+02 -0.20951906474E+02 -0.16461377859E+02  0.47787285868E+02  0.20000067585E+02 0.  0.
         12    1    1    2    0    0  0.34258760066E+02  0.20951906474E+02  0.16461377859E+02  0.43400714132E+02  0.00000000000E+00 0. -1.
         11    1    3    3    0    0 -0.97577865743E+01 -0.71335409745E+01  0.21941945842E+01  0.12284799380E+02  0.51100000000E-03 0.  1.
        -11    1    3    3    0    0 -0.45795127488E+00 -0.42848347827E+01 -0.32552828676E+01  0.54005921245E+01  0.51100000000E-03 0. -1.
        -12    1    3    3    0    0 -0.24043022217E+02 -0.95335307171E+01 -0.15400289576E+02  0.30101894364E+02  0.00000000000E+00 0.  1.
</event>
<event>
 7    1  0.1265344E-009  0.4778727E+02  0.7816164E-02  0.1312668E+00
        -11   -1    0    0    0    0  0.00000000000E+00  0.00000000000E+00  0.45593999997E+02  0.45594000000E+02  0.51100000000E-03 0. -1.
         11   -1    0    0    0    0 -0.00000000000E+00 -0.00000000000E+00 -0.45593999997E+02  0.45594000000E+02  0.51100000000E-03 0.  1.
    9900012    2    1    2    0    0  0.15943310579E+02  0.39810435341E+02 -0.66755882568E+01  0.47787269674E+02  0.19999993751E+02 0.  0.
         12    1    1    2    0    0 -0.15943310579E+02 -0.39810435341E+02  0.66755882568E+01  0.43400730326E+02  0.00000000000E+00 0. -1.
         11    1    3    3    0    0  0.40032786383E+01  0.49592628987E+01 -0.24318357025E+01  0.68216093043E+01  0.51100000000E-03 0.  1.
        -11    1    3    3    0    0  0.15614179945E+02  0.33245071590E+02 -0.36133138275E+01  0.36906550061E+02  0.51100000000E-03 0. -1.
         12    1    3    3    0    0 -0.36741480044E+01  0.16061008530E+01 -0.63043872680E+00  0.40591103085E+01  0.00000000000E+00 0. -1.
</event>
<event>
 7    1  0.1265344E-009  0.4778727E+02  0.7816164E-02  0.1312668E+00
        -11   -1    0    0    0    0  0.00000000000E+00  0.00000000000E+00  0.45593999997E+02  0.45594000000E+02  0.51100000000E-03 0.  1.
         11   -1    0    0    0    0 -0.00000000000E+00 -0.00000000000E+00 -0.45593999997E+02  0.45594000000E+02  0.51100000000E-03 0. -1.
    9900012    2    1    2    0    0  0.23771409188E+01  0.93033391244E+01  0.42325172291E+02  0.47787272734E+02  0.20000007702E+02 0.  0.
         12    1    1    2    0    0 -0.23771409188E+01 -0.93033391244E+01 -0.42325172291E+02  0.43400727266E+02  0.00000000000E+00 0. -1.
         11    1    3    3    0    0  0.70123566779E+01  0.17592581868E+01  0.12225735946E+02  0.14203406465E+02  0.51100000000E-03 0. -1.
        -11    1    3    3    0    0  0.40940707838E+01  0.24691536649E+01  0.10456015806E+02  0.11497234546E+02  0.51100000000E-03 0.  1.
        -12    1    3    3    0    0 -0.87292865429E+01  0.50749272728E+01  0.19643420539E+02  0.22086631723E+02  0.00000000000E+00 0.  1.
</event>
<event>
 7    1  0.2335092E-009  0.4778727E+02  0.7816164E-02  0.1312668E+00
        -11   -1    0    0    0    0  0.00000000000E+00  0.00000000000E+00  0.45593999997E+02  0.45594000000E+02  0.51100000000E-03 0. -1.
         11   -1    0    0    0    0 -0.00000000000E+00 -0.00000000000E+00 -0.45593999997E+02  0.45594000000E+02  0.51100000000E-03 0.  1.
    9900012    2    1    2    0    0  0.14580954520E+02 -0.21358841080E+02 -0.34854257680E+02  0.47787267225E+02  0.19999982585E+02 0.  0.
         12    1    1    2    0    0 -0.14580954520E+02  0.21358841080E+02  0.34854257680E+02  0.43400732775E+02  0.00000000000E+00 0. -1.
         11    1    3    3    0    0  0.18127267118E+01  0.18716917626E+01  0.61402158187E+00  0.26769816866E+01  0.51100000000E-03 0. -1.
        -11    1    3    3    0    0  0.74019771288E+00 -0.96569117023E+01 -0.13683928868E+02  0.16764657641E+02  0.51100000000E-03 0.  1.
        -12    1    3    3    0    0  0.12028030096E+02 -0.13573621140E+02 -0.21784350393E+02  0.28345627898E+02  0.00000000000E+00 0.  1.
</event>
<event>
 7    1  0.1265344E-009  0.4778727E+02  0.7816164E-02  0.1312668E+00
        -11   -1    0    0    0    0  0.00000000000E+00  0.00000000000E+00  0.45593999997E+02  0.45594000000E+02  0.51100000000E-03 0. -1.
         11   -1    0    0    0    0 -0.00000000000E+00 -0.00000000000E+00 -0.45593999997E+02  0.45594000000E+02  0.51100000000E-03 0.  1.
    9900012    2    1    2    0    0  0.25190780945E+02  0.24640775059E+02 -0.25335348988E+02  0.47787272490E+02  0.20000006589E+02 0.  0.
         12    1    1    2    0    0 -0.25190780945E+02 -0.24640775059E+02  0.25335348988E+02  0.43400727510E+02  0.00000000000E+00 0. -1.
         11    1    3    3    0    0  0.53319830587E+01  0.10645874550E+02  0.63195801921E-01  0.11906665455E+02  0.51100000000E-03 0. -1.
        -11    1    3    3    0    0  0.31399449838E+01  0.15661543230E+01 -0.80096443889E+01  0.87445124142E+01  0.51100000000E-03 0.  1.
        -12    1    3    3    0    0  0.16718852903E+02  0.12428746185E+02 -0.17388900401E+02  0.27136094621E+02  0.00000000000E+00 0.  1.
</event>
<event>
 7    1  0.1265344E-009  0.4778728E+02  0.7816164E-02  0.1312668E+00
        -11   -1    0    0    0    0  0.00000000000E+00  0.00000000000E+00  0.45593999997E+02  0.45594000000E+02  0.51100000000E-03 0. -1.
         11   -1    0    0    0    0 -0.00000000000E+00 -0.00000000000E+00 -0.45593999997E+02  0.45594000000E+02  0.51100000000E-03 0.  1.
    9900012    2    1    2    0    0  0.18982593009E+02  0.14690422434E+02 -0.36159028333E+02  0.47787277902E+02  0.20000031267E+02 0.  0.
         12    1    1    2    0    0 -0.18982593009E+02 -0.14690422434E+02  0.36159028333E+02  0.43400722098E+02  0.00000000000E+00 0. -1.
         11    1    3    3    0    0  0.11620294427E+02  0.74139269296E+01 -0.11431537229E+02  0.17907473266E+02  0.51100000000E-03 0. -1.
        -11    1    3    3    0    0  0.11485520795E+01 -0.34398946084E+01 -0.24082893468E+01  0.43533785311E+01  0.51100000000E-03 0.  1.
        -12    1    3    3    0    0  0.62137465031E+01  0.10716390112E+02 -0.22319201757E+02  0.25526426105E+02  0.00000000000E+00 0.  1.
</event>
<event>
 7    1  0.1265344E-009  0.4778727E+02  0.7816164E-02  0.1312668E+00
        -11   -1    0    0    0    0  0.00000000000E+00  0.00000000000E+00  0.45593999997E+02  0.45594000000E+02  0.51100000000E-03 0.  1.
         11   -1    0    0    0    0 -0.00000000000E+00 -0.00000000000E+00 -0.45593999997E+02  0.45594000000E+02  0.51100000000E-03 0. -1.
    9900012    2    1    2    0    0  0.23689794097E+02 -0.13786059286E+02  0.33650582620E+02  0.47787268604E+02  0.19999988873E+02 0.  0.
         12    1    1    2    0    0 -0.23689794097E+02  0.13786059286E+02 -0.33650582620E+02  0.43400731396E+02  0.00000000000E+00 0. -1.
         11    1    3    3    0    0  0.18340521089E+02 -0.46120386153E+01  0.28811626454E+02  0.34463827895E+02  0.51100000000E-03 0.  1.
        -11    1    3    3    0    0  0.56210419259E+01 -0.32831792748E+01  0.23169778859E+01  0.69096863364E+01  0.51100000000E-03 0. -1.
        -12    1    3    3    0    0 -0.27176891775E+00 -0.58908413961E+01  0.25219782805E+01  0.64137543721E+01  0.00000000000E+00 0.  1.
</event>
<event>
 7    1  0.1265344E-009  0.4778727E+02  0.7816164E-02  0.1312668E+00
        -11   -1    0    0    0    0  0.00000000000E+00  0.00000000000E+00  0.45593999997E+02  0.45594000000E+02  0.51100000000E-03 0. -1.
         11   -1    0    0    0    0 -0.00000000000E+00 -0.00000000000E+00 -0.45593999997E+02  0.45594000000E+02  0.51100000000E-03 0.  1.
    9900012    2    1    2    0    0  0.43708930810E+01 -0.24349492172E+02 -0.35659794667E+02  0.47787269234E+02  0.19999991744E+02 0.  0.
         12    1    1    2    0    0 -0.43708930810E+01  0.24349492172E+02  0.35659794667E+02  0.43400730766E+02  0.00000000000E+00 0. -1.
         11    1    3    3    0    0  0.10439836646E+02 -0.72953013881E+01 -0.11567398469E+02  0.17205124793E+02  0.51100000000E-03 0. -1.
        -11    1    3    3    0    0 -0.28665626284E+01 -0.98886891457E+01 -0.94806946441E+01  0.13995961043E+02  0.51100000000E-03 0.  1.
        -12    1    3    3    0    0 -0.32023809370E+01 -0.71655016384E+01 -0.14611701554E+02  0.16586183397E+02  0.00000000000E+00 0.  1.
</event>
<event>
 7    1  0.1265344E-009  0.4778727E+02  0.7816164E-02  0.1312668E+00
        -11   -1    0    0    0    0  0.00000000000E+00  0.00000000000E+00  0.45593999997E+02  0.45594000000E+02  0.51100000000E-03 0. -1.
         11   -1    0    0    0    0 -0.00000000000E+00 -0.00000000000E+00 -0.45593999997E+02  0.45594000000E+02  0.51100000000E-03 0.  1.
    9900012    2    1    2    0    0 -0.38085481088E+02  0.12848425517E+02  0.16371849503E+02  0.47787270005E+02  0.19999995260E+02 0.  0.
         12    1    1    2    0    0  0.38085481088E+02 -0.12848425517E+02 -0.16371849503E+02  0.43400729995E+02  0.00000000000E+00 0. -1.
         11    1    3    3    0    0 -0.23465967157E+01 -0.25371831674E+01  0.27398593868E+00  0.34668260883E+01  0.51100000000E-03 0. -1.
        -11    1    3    3    0    0 -0.17186938593E+02  0.26829508122E+01  0.12797452066E+02  0.21595459312E+02  0.51100000000E-03 0.  1.
        -12    1    3    3    0    0 -0.18551945780E+02  0.12702657872E+02  0.33004114988E+01  0.22724984605E+02  0.00000000000E+00 0.  1.
</event>
<event>
 7    1  0.1265344E-009  0.4778727E+02  0.7816164E-02  0.1312668E+00
        -11   -1    0    0    0    0  0.00000000000E+00  0.00000000000E+00  0.45593999997E+02  0.45594000000E+02  0.51100000000E-03 0.  1.
         11   -1    0    0    0    0 -0.00000000000E+00 -0.00000000000E+00 -0.45593999997E+02  0.45594000000E+02  0.51100000000E-03 0. -1.
    9900012    2    1    2    0    0  0.39657401900E+02  0.57752031565E+01  0.16660151738E+02  0.47787272439E+02  0.20000006357E+02 0.  0.
         12    1    1    2    0    0 -0.39657401900E+02 -0.57752031565E+01 -0.16660151738E+02  0.43400727561E+02  0.00000000000E+00 0. -1.
         11    1    3    3    0    0  0.31855939777E+01  0.44629665268E+01  0.56341883440E+01  0.78619436379E+01  0.51100000000E-03 0. -1.
        -11    1    3    3    0    0  0.10968744702E+02 -0.49254090479E+01  0.47702599341E+01  0.12935547717E+02  0.51100000000E-03 0.  1.
        -12    1    3    3    0    0  0.25503063220E+02  0.62376456777E+01  0.62557034600E+01  0.26989781084E+02  0.00000000000E+00 0.  1.
</event>
<event>
 7    1  0.1265344E-009  0.4778727E+02  0.7816164E-02  0.1312668E+00
        -11   -1    0    0    0    0  0.00000000000E+00  0.00000000000E+00  0.45593999997E+02  0.45594000000E+02  0.51100000000E-03 0. -1.
         11   -1    0    0    0    0 -0.00000000000E+00 -0.00000000000E+00 -0.45593999997E+02  0.45594000000E+02  0.51100000000E-03 0.  1.
    9900012    2    1    2    0    0 -0.20550447602E+02 -0.35920401691E+02 -0.13077727809E+02  0.47787272830E+02  0.20000008141E+02 0.  0.
         12    1    1    2    0    0  0.20550447602E+02  0.35920401691E+02  0.13077727809E+02  0.43400727170E+02  0.00000000000E+00 0. -1.
         11    1    3    3    0    0  0.12009236559E+01 -0.10093184430E+02 -0.52832507742E+01  0.11455449732E+02  0.51100000000E-03 0. -1.
        -11    1    3    3    0    0  0.70600443894E+00 -0.32645615978E+01 -0.22275044501E+01  0.40146707250E+01  0.51100000000E-03 0.  1.
        -12    1    3    3    0    0 -0.22457375696E+02 -0.22562655663E+02 -0.55669725846E+01  0.32317152373E+02  0.00000000000E+00 0.  1.
</event>
<event>
 7    1  0.1265344E-009  0.4778727E+02  0.7816164E-02  0.1312668E+00
        -11   -1    0    0    0    0  0.00000000000E+00  0.00000000000E+00  0.45593999997E+02  0.45594000000E+02  0.51100000000E-03 0.  1.
         11   -1    0    0    0    0 -0.00000000000E+00 -0.00000000000E+00 -0.45593999997E+02  0.45594000000E+02  0.51100000000E-03 0. -1.
    9900012    2    1    2    0    0  0.38536834956E+02  0.55832173092E+01  0.19166723173E+02  0.47787271422E+02  0.20000001719E+02 0.  0.
         12    1    1    2    0    0 -0.38536834956E+02 -0.55832173092E+01 -0.19166723173E+02  0.43400728578E+02  0.00000000000E+00 0. -1.
         11    1    3    3    0    0  0.17084414103E+01  0.23963759788E+01  0.86482621539E+00  0.30674605993E+01  0.51100000000E-03 0.  1.
        -11    1    3    3    0    0  0.27244905537E+02  0.68362620492E-01  0.20869864654E+02  0.34319685344E+02  0.51100000000E-03 0. -1.
         12    1    3    3    0    0  0.95834880083E+01  0.31184787099E+01 -0.25679676963E+01  0.10400125478E+02  0.00000000000E+00 0. -1.
</event>
<event>
 7    1  0.1265344E-009  0.4778727E+02  0.7816164E-02  0.1312668E+00
        -11   -1    0    0    0    0  0.00000000000E+00  0.00000000000E+00  0.45593999997E+02  0.45594000000E+02  0.51100000000E-03 0.  1.
         11   -1    0    0    0    0 -0.00000000000E+00 -0.00000000000E+00 -0.45593999997E+02  0.45594000000E+02  0.51100000000E-03 0. -1.
    9900012    2    1    2    0    0  0.19100821211E+02  0.33189846075E+02  0.20425858901E+02  0.47787274600E+02  0.20000016209E+02 0.  0.
         12    1    1    2    0    0 -0.19100821211E+02 -0.33189846075E+02 -0.20425858901E+02  0.43400725400E+02  0.00000000000E+00 0. -1.
         11    1    3    3    0    0  0.10565656028E-01 -0.69538085357E+00  0.17804840170E+01  0.19114888858E+01  0.51100000000E-03 0. -1.
        -11    1    3    3    0    0  0.11098393452E+02  0.27782360723E+02  0.74565364423E+01  0.30832350552E+02  0.51100000000E-03 0.  1.
         12    1    3    3    0    0  0.79918621034E+01  0.61028662056E+01  0.11188838441E+02  0.15043435162E+02  0.00000000000E+00 0. -1.
</event>
<event>
 7    1  0.1265344E-009  0.4778727E+02  0.7816164E-02  0.1312668E+00
        -11   -1    0    0    0    0  0.00000000000E+00  0.00000000000E+00  0.45593999997E+02  0.45594000000E+02  0.51100000000E-03 0.  1.
         11   -1    0    0    0    0 -0.00000000000E+00 -0.00000000000E+00 -0.45593999997E+02  0.45594000000E+02  0.51100000000E-03 0. -1.
    9900012    2    1    2    0    0 -0.22006106466E+02 -0.11709852697E+02  0.35527926564E+02  0.47787274915E+02  0.20000017649E+02 0.  0.
         12    1    1    2    0    0  0.22006106466E+02  0.11709852697E+02 -0.35527926564E+02  0.43400725085E+02  0.00000000000E+00 0. -1.
         11    1    3    3    0    0  0.10495125994E+01 -0.28712997840E+01  0.40076750006E+01  0.50405652775E+01  0.51100000000E-03 0. -1.
        -11    1    3    3    0    0 -0.16964771240E+02 -0.18882501050E+01  0.28128227965E+02  0.32902373172E+02  0.51100000000E-03 0.  1.
        -12    1    3    3    0    0 -0.60908478255E+01 -0.69503028079E+01  0.33920235986E+01  0.98443364656E+01  0.00000000000E+00 0.  1.
</event>
<event>
 7    1  0.1265344E-009  0.4778729E+02  0.7816164E-02  0.1312668E+00
        -11   -1    0    0    0    0  0.00000000000E+00  0.00000000000E+00  0.45593999997E+02  0.45594000000E+02  0.51100000000E-03 0.  1.
         11   -1    0    0    0    0 -0.00000000000E+00 -0.00000000000E+00 -0.45593999997E+02  0.45594000000E+02  0.51100000000E-03 0. -1.
    9900012    2    1    2    0    0 -0.46426833092E+01 -0.48114847762E+01  0.42882594937E+02  0.47787287534E+02  0.20000075181E+02 0.  0.
         12    1    1    2    0    0  0.46426833092E+01  0.48114847762E+01 -0.42882594937E+02  0.43400712466E+02  0.00000000000E+00 0. -1.
         11    1    3    3    0    0 -0.88835386929E+01 -0.44965079328E+01  0.21472454016E+02  0.23668589418E+02  0.51100000000E-03 0.  1.
        -11    1    3    3    0    0  0.37274825344E+01 -0.47838566168E+01  0.15825500380E+02  0.16947739457E+02  0.51100000000E-03 0. -1.
        -12    1    3    3    0    0  0.51337284939E+00  0.44688797734E+01  0.55846405404E+01  0.71709586582E+01  0.00000000000E+00 0.  1.
</event>
<event>
 7    1  0.1265344E-009  0.4778728E+02  0.7816164E-02  0.1312668E+00
        -11   -1    0    0    0    0  0.00000000000E+00  0.00000000000E+00  0.45593999997E+02  0.45594000000E+02  0.51100000000E-03 0. -1.
         11   -1    0    0    0    0 -0.00000000000E+00 -0.00000000000E+00 -0.45593999997E+02  0.45594000000E+02  0.51100000000E-03 0.  1.
    9900012    2    1    2    0    0  0.42667119886E+02 -0.77444213581E+01 -0.17786389589E+01  0.47787277217E+02  0.20000028141E+02 0.  0.
         12    1    1    2    0    0 -0.42667119886E+02  0.77444213581E+01  0.17786389589E+01  0.43400722783E+02  0.00000000000E+00 0. -1.
         11    1    3    3    0    0  0.16485801728E+02  0.30151192574E+00 -0.37783859474E+01  0.16915932391E+02  0.51100000000E-03 0. -1.
        -11    1    3    3    0    0  0.26897981793E+02 -0.80866419994E+01  0.43425914843E+01  0.28421001115E+02  0.51100000000E-03 0.  1.
         12    1    3    3    0    0 -0.71666363374E+00  0.40708715526E-01 -0.23428444959E+01  0.24503437097E+01  0.00000000000E+00 0. -1.
</event>
<event>
 7    1  0.1265344E-009  0.4778727E+02  0.7816164E-02  0.1312668E+00
        -11   -1    0    0    0    0  0.00000000000E+00  0.00000000000E+00  0.45593999997E+02  0.45594000000E+02  0.51100000000E-03 0.  1.
         11   -1    0    0    0    0 -0.00000000000E+00 -0.00000000000E+00 -0.45593999997E+02  0.45594000000E+02  0.51100000000E-03 0. -1.
    9900012    2    1    2    0    0  0.26673803036E+02  0.17769229225E+02  0.29264072534E+02  0.47787271701E+02  0.20000002992E+02 0.  0.
         12    1    1    2    0    0 -0.26673803036E+02 -0.17769229225E+02 -0.29264072534E+02  0.43400728299E+02  0.00000000000E+00 0. -1.
         11    1    3    3    0    0  0.19388816016E+02  0.55739931937E+01  0.23397108122E+02  0.30893692808E+02  0.51100000000E-03 0. -1.
        -11    1    3    3    0    0 -0.31020191690E+00  0.42280702708E+01  0.38011991492E+01  0.56940248223E+01  0.51100000000E-03 0.  1.
        -12    1    3    3    0    0  0.75951889371E+01  0.79671657607E+01  0.20657652629E+01  0.11199554070E+02  0.00000000000E+00 0.  1.
</event>
<event>
 7    1  0.1265344E-009  0.4778727E+02  0.7816164E-02  0.1312668E+00
        -11   -1    0    0    0    0  0.00000000000E+00  0.00000000000E+00  0.45593999997E+02  0.45594000000E+02  0.51100000000E-03 0.  1.
         11   -1    0    0    0    0 -0.00000000000E+00 -0.00000000000E+00 -0.45593999997E+02  0.45594000000E+02  0.51100000000E-03 0. -1.
    9900012    2    1    2    0    0 -0.30680429728E+02 -0.15005333592E+02  0.26780118547E+02  0.47787267818E+02  0.19999985291E+02 0.  0.
         12    1    1    2    0    0  0.30680429728E+02  0.15005333592E+02 -0.26780118547E+02  0.43400732182E+02  0.00000000000E+00 0. -1.
         11    1    3    3    0    0 -0.60147542876E+01 -0.81965786192E+01  0.16271205295E+02  0.19186278749E+02  0.51100000000E-03 0. -1.
        -11    1    3    3    0    0 -0.18411123434E+01 -0.23266192126E+01 -0.24067629779E+00  0.29767057233E+01  0.51100000000E-03 0.  1.
        -12    1    3    3    0    0 -0.22824563097E+02 -0.44821357603E+01  0.10749589550E+02  0.25624283347E+02  0.00000000000E+00 0.  1.
</event>
<event>
 7    1  0.1265344E-009  0.4778727E+02  0.7816164E-02  0.1312668E+00
        -11   -1    0    0    0    0  0.00000000000E+00  0.00000000000E+00  0.45593999997E+02  0.45594000000E+02  0.51100000000E-03 0.  1.
         11   -1    0    0    0    0 -0.00000000000E+00 -0.00000000000E+00 -0.45593999997E+02  0.45594000000E+02  0.51100000000E-03 0. -1.
    9900012    2    1    2    0    0  0.17637214182E+02  0.31053680449E+02  0.24662138671E+02  0.47787268701E+02  0.19999989314E+02 0.  0.
         12    1    1    2    0    0 -0.17637214182E+02 -0.31053680449E+02 -0.24662138671E+02  0.43400731299E+02  0.00000000000E+00 0. -1.
         11    1    3    3    0    0  0.44304311760E-01 -0.45797217846E+00  0.24695799490E+01  0.25120761879E+01  0.51100000000E-03 0. -1.
        -11    1    3    3    0    0  0.19465490017E+02  0.28836607352E+02  0.23247382388E+02  0.41843709364E+02  0.51100000000E-03 0.  1.
        -12    1    3    3    0    0 -0.18725801471E+01  0.26750452754E+01 -0.10548236665E+01  0.34314831487E+01  0.00000000000E+00 0.  1.
</event>
<event>
 7    1  0.1265344E-009  0.4778727E+02  0.7816164E-02  0.1312668E+00
        -11   -1    0    0    0    0  0.00000000000E+00  0.00000000000E+00  0.45593999997E+02  0.45594000000E+02  0.51100000000E-03 0.  1.
         11   -1    0    0    0    0 -0.00000000000E+00 -0.00000000000E+00 -0.45593999997E+02  0.45594000000E+02  0.51100000000E-03 0. -1.
    9900012    2    1    2    0    0 -0.17370996918E+02 -0.14542223773E+02  0.37018851303E+02  0.47787272380E+02  0.20000006088E+02 0.  0.
         12    1    1    2    0    0  0.17370996918E+02  0.14542223773E+02 -0.37018851303E+02  0.43400727620E+02  0.00000000000E+00 0. -1.
         11    1    3    3    0    0 -0.80383929953E+01 -0.55261576889E+01  0.21992320121E+02  0.24058601898E+02  0.51100000000E-03 0.  1.
        -11    1    3    3    0    0 -0.67472734901E+01  0.12993715227E+01  0.25361590325E+01  0.73243544974E+01  0.51100000000E-03 0. -1.
         12    1    3    3    0    0 -0.25853304323E+01 -0.10315437607E+02  0.12490372150E+02  0.16404315984E+02  0.00000000000E+00 0. -1.
</event>
<event>
 7    1  0.1423067E-009  0.4778727E+02  0.7816164E-02  0.1312668E+00
        -11   -1    0    0    0    0  0.00000000000E+00  0.00000000000E+00  0.45593999997E+02  0.45594000000E+02  0.51100000000E-03 0. -1.
         11   -1    0    0    0    0 -0.00000000000E+00 -0.00000000000E+00 -0.45593999997E+02  0.45594000000E+02  0.51100000000E-03 0.  1.
    9900012    2    1    2    0    0 -0.42380091643E+02 -0.76113286011E+01  0.54423063418E+01  0.47787272022E+02  0.20000004455E+02 0.  0.
         12    1    1    2    0    0  0.42380091643E+02  0.76113286011E+01 -0.54423063418E+01  0.43400727978E+02  0.00000000000E+00 0. -1.
         11    1    3    3    0    0 -0.19899690863E+01 -0.16410570620E+01 -0.35676342907E+01  0.44023925243E+01  0.51100000000E-03 0. -1.
        -11    1    3    3    0    0 -0.26139580371E+02 -0.88512614886E+01  0.34207319011E+01  0.27808701856E+02  0.51100000000E-03 0.  1.
        -12    1    3    3    0    0 -0.14250542185E+02  0.28809899495E+01  0.55892087314E+01  0.15576177641E+02  0.00000000000E+00 0.  1.
</event>
<event>
 7    1  0.1265344E-009  0.4778727E+02  0.7816164E-02  0.1312668E+00
        -11   -1    0    0    0    0  0.00000000000E+00  0.00000000000E+00  0.45593999997E+02  0.45594000000E+02  0.51100000000E-03 0.  1.
         11   -1    0    0    0    0 -0.00000000000E+00 -0.00000000000E+00 -0.45593999997E+02  0.45594000000E+02  0.51100000000E-03 0. -1.
    9900012    2    1    2    0    0  0.13796324606E+02 -0.39775258505E+02  0.10545789247E+02  0.47787269216E+02  0.19999991663E+02 0.  0.
         12    1    1    2    0    0 -0.13796324606E+02  0.39775258505E+02 -0.10545789247E+02  0.43400730784E+02  0.00000000000E+00 0. -1.
         11    1    3    3    0    0  0.66816557049E+01 -0.12033489405E+02  0.42936871348E+01  0.14418222487E+02  0.51100000000E-03 0. -1.
        -11    1    3    3    0    0  0.10505107325E+02 -0.24224353311E+02  0.13353721965E+01  0.26437847727E+02  0.51100000000E-03 0.  1.
         12    1    3    3    0    0 -0.33904384235E+01 -0.35174157878E+01  0.49167299162E+01  0.69311990013E+01  0.00000000000E+00 0. -1.
</event>
<event>
 7    1  0.1265344E-009  0.4778727E+02  0.7816164E-02  0.1312668E+00
        -11   -1    0    0    0    0  0.00000000000E+00  0.00000000000E+00  0.45593999997E+02  0.45594000000E+02  0.51100000000E-03 0.  1.
         11   -1    0    0    0    0 -0.00000000000E+00 -0.00000000000E+00 -0.45593999997E+02  0.45594000000E+02  0.51100000000E-03 0. -1.
    9900012    2    1    2    0    0  0.31738751155E+02  0.57945773486E+01  0.29029257246E+02  0.47787271576E+02  0.20000002423E+02 0.  0.
         12    1    1    2    0    0 -0.31738751155E+02 -0.57945773486E+01 -0.29029257246E+02  0.43400728424E+02  0.00000000000E+00 0. -1.
         11    1    3    3    0    0  0.13809240099E+02 -0.28986693184E+01  0.90158854434E+01  0.16744658447E+02  0.51100000000E-03 0. -1.
        -11    1    3    3    0    0  0.37866657216E+01  0.14662652431E+01  0.13110646497E+02  0.13725080068E+02  0.51100000000E-03 0.  1.
        -12    1    3    3    0    0  0.14142845334E+02  0.72269814239E+01  0.69027253053E+01  0.17317533060E+02  0.00000000000E+00 0.  1.
</event>
<event>
 7    1  0.1265344E-009  0.4778726E+02  0.7816164E-02  0.1312668E+00
        -11   -1    0    0    0    0  0.00000000000E+00  0.00000000000E+00  0.45593999997E+02  0.45594000000E+02  0.51100000000E-03 0.  1.
         11   -1    0    0    0    0 -0.00000000000E+00 -0.00000000000E+00 -0.45593999997E+02  0.45594000000E+02  0.51100000000E-03 0. -1.
    9900012    2    1    2    0    0  0.37870223787E+02  0.35562953591E+01  0.20900312453E+02  0.47787260985E+02  0.19999954137E+02 0.  0.
         12    1    1    2    0    0 -0.37870223787E+02 -0.35562953591E+01 -0.20900312453E+02  0.43400739015E+02  0.00000000000E+00 0. -1.
         11    1    3    3    0    0  0.12943696469E+02 -0.42236936980E+01  0.14735656969E+01  0.13694899154E+02  0.51100000000E-03 0.  1.
        -11    1    3    3    0    0  0.41269924864E+01  0.33940915452E+00  0.84831627024E+01  0.94398789851E+01  0.51100000000E-03 0. -1.
        -12    1    3    3    0    0  0.20799534832E+02  0.74405799025E+01  0.10943584054E+02  0.24652482846E+02  0.00000000000E+00 0.  1.
</event>
<event>
 7    1  0.1265344E-009  0.4778727E+02  0.7816164E-02  0.1312668E+00
        -11   -1    0    0    0    0  0.00000000000E+00  0.00000000000E+00  0.45593999997E+02  0.45594000000E+02  0.51100000000E-03 0.  1.
         11   -1    0    0    0    0 -0.00000000000E+00 -0.00000000000E+00 -0.45593999997E+02  0.45594000000E+02  0.51100000000E-03 0. -1.
    9900012    2    1    2    0    0  0.16658805615E+02  0.16813736812E+02  0.36378645088E+02  0.47787269954E+02  0.19999995029E+02 0.  0.
         12    1    1    2    0    0 -0.16658805615E+02 -0.16813736812E+02 -0.36378645088E+02  0.43400730046E+02  0.00000000000E+00 0. -1.
         11    1    3    3    0    0  0.87825396813E+01  0.92413871340E+01  0.27789577564E+02  0.30574447843E+02  0.51100000000E-03 0. -1.
        -11    1    3    3    0    0 -0.21719294341E+01 -0.14112019585E-02  0.22355783387E+01  0.31169039491E+01  0.51100000000E-03 0.  1.
         12    1    3    3    0    0  0.10048195368E+02  0.75737608798E+01  0.63534891844E+01  0.14095918162E+02  0.00000000000E+00 0. -1.
</event>
<event>
 7    1  0.1265344E-009  0.4778727E+02  0.7816164E-02  0.1312668E+00
        -11   -1    0    0    0    0  0.00000000000E+00  0.00000000000E+00  0.45593999997E+02  0.45594000000E+02  0.51100000000E-03 0.  1.
         11   -1    0    0    0    0 -0.00000000000E+00 -0.00000000000E+00 -0.45593999997E+02  0.45594000000E+02  0.51100000000E-03 0. -1.
    9900012    2    1    2    0    0  0.39304346668E+02  0.24496085892E+01  0.18242559352E+02  0.47787271655E+02  0.20000002782E+02 0.  0.
         12    1    1    2    0    0 -0.39304346668E+02 -0.24496085892E+01 -0.18242559352E+02  0.43400728345E+02  0.00000000000E+00 0. -1.
         11    1    3    3    0    0  0.22471993371E+02  0.99685283008E+01  0.59560236477E+01  0.25294984889E+02  0.51100000000E-03 0. -1.
        -11    1    3    3    0    0  0.10413732826E+02 -0.25560969404E+01  0.67748560302E+01  0.12683774574E+02  0.51100000000E-03 0.  1.
         12    1    3    3    0    0  0.64186204700E+01 -0.49628227713E+01  0.55116796736E+01  0.98085121921E+01  0.00000000000E+00 0. -1.
</event>
<event>
 7    1  0.1265344E-009  0.4778727E+02  0.7816164E-02  0.1312668E+00
        -11   -1    0    0    0    0  0.00000000000E+00  0.00000000000E+00  0.45593999997E+02  0.45594000000E+02  0.51100000000E-03 0.  1.
         11   -1    0    0    0    0 -0.00000000000E+00 -0.00000000000E+00 -0.45593999997E+02  0.45594000000E+02  0.51100000000E-03 0. -1.
    9900012    2    1    2    0    0 -0.10792357520E+02 -0.20818074112E+02  0.36520625686E+02  0.47787270846E+02  0.19999999095E+02 0.  0.
         12    1    1    2    0    0  0.10792357520E+02  0.20818074112E+02 -0.36520625686E+02  0.43400729154E+02  0.00000000000E+00 0. -1.
         11    1    3    3    0    0  0.15689977036E+01 -0.28226997204E+01  0.90404858325E+00  0.33536087439E+01  0.51100000000E-03 0. -1.
        -11    1    3    3    0    0 -0.65062713591E+01 -0.13290916967E+02  0.33511494612E+02  0.36633322429E+02  0.51100000000E-03 0.  1.
        -12    1    3    3    0    0 -0.58550838644E+01 -0.47044574245E+01  0.21050824914E+01  0.78003396730E+01  0.00000000000E+00 0.  1.
</event>
<event>
 7    1  0.1265344E-009  0.4778727E+02  0.7816164E-02  0.1312668E+00
        -11   -1    0    0    0    0  0.00000000000E+00  0.00000000000E+00  0.45593999997E+02  0.45594000000E+02  0.51100000000E-03 0.  1.
         11   -1    0    0    0    0 -0.00000000000E+00 -0.00000000000E+00 -0.45593999997E+02  0.45594000000E+02  0.51100000000E-03 0. -1.
    9900012    2    1    2    0    0  0.23232195567E+02 -0.36417940913E+02  0.41978189151E+01  0.47787274028E+02  0.20000013604E+02 0.  0.
         12    1    1    2    0    0 -0.23232195567E+02  0.36417940913E+02 -0.41978189151E+01  0.43400725972E+02  0.00000000000E+00 0. -1.
         11    1    3    3    0    0  0.46075251163E+01 -0.10383150283E+02  0.44534978438E+01  0.12201341762E+02  0.51100000000E-03 0. -1.
        -11    1    3    3    0    0  0.15674866229E+02 -0.16268858468E+02  0.63073290074E+01  0.23455480950E+02  0.51100000000E-03 0.  1.
         12    1    3    3    0    0  0.29498042218E+01 -0.97659321624E+01 -0.65630079361E+01  0.12130451315E+02  0.00000000000E+00 0. -1.
</event>
<event>
 7    1  0.1265344E-009  0.4778727E+02  0.7816164E-02  0.1312668E+00
        -11   -1    0    0    0    0  0.00000000000E+00  0.00000000000E+00  0.45593999997E+02  0.45594000000E+02  0.51100000000E-03 0.  1.
         11   -1    0    0    0    0 -0.00000000000E+00 -0.00000000000E+00 -0.45593999997E+02  0.45594000000E+02  0.51100000000E-03 0. -1.
    9900012    2    1    2    0    0 -0.27035331405E+02 -0.15787702637E+02  0.30057651099E+02  0.47787273182E+02  0.20000009748E+02 0.  0.
         12    1    1    2    0    0  0.27035331405E+02  0.15787702637E+02 -0.30057651099E+02  0.43400726818E+02  0.00000000000E+00 0. -1.
         11    1    3    3    0    0 -0.13743113550E+00 -0.77669165191E+01  0.42906716502E+01  0.88743305665E+01  0.51100000000E-03 0. -1.
        -11    1    3    3    0    0 -0.16291724357E+02 -0.32259870596E+01  0.10252980434E+02  0.19517963087E+02  0.51100000000E-03 0.  1.
        -12    1    3    3    0    0 -0.10606175912E+02 -0.47947990581E+01  0.15513999015E+02  0.19394979529E+02  0.00000000000E+00 0.  1.
</event>
<event>
 7    1  0.1265344E-009  0.4778727E+02  0.7816164E-02  0.1312668E+00
        -11   -1    0    0    0    0  0.00000000000E+00  0.00000000000E+00  0.45593999997E+02  0.45594000000E+02  0.51100000000E-03 0.  1.
         11   -1    0    0    0    0 -0.00000000000E+00 -0.00000000000E+00 -0.45593999997E+02  0.45594000000E+02  0.51100000000E-03 0. -1.
    9900012    2    1    2    0    0 -0.26173083152E+02  0.27082817980E+02  0.21566495555E+02  0.47787273717E+02  0.20000012184E+02 0.  0.
         12    1    1    2    0    0  0.26173083152E+02 -0.27082817980E+02 -0.21566495555E+02  0.43400726283E+02  0.00000000000E+00 0. -1.
         11    1    3    3    0    0 -0.62224097326E+01  0.11042156833E+02  0.15914896413E+01  0.12774210345E+02  0.51100000000E-03 0.  1.
        -11    1    3    3    0    0 -0.28639478068E+01  0.73243680900E+01  0.11758011931E+02  0.14145649854E+02  0.51100000000E-03 0. -1.
         12    1    3    3    0    0 -0.17086725612E+02  0.87162930575E+01  0.82169939820E+01  0.20867413517E+02  0.00000000000E+00 0. -1.
</event>
<event>
 7    1  0.1265344E-009  0.4778727E+02  0.7816164E-02  0.1312668E+00
        -11   -1    0    0    0    0  0.00000000000E+00  0.00000000000E+00  0.45593999997E+02  0.45594000000E+02  0.51100000000E-03 0. -1.
         11   -1    0    0    0    0 -0.00000000000E+00 -0.00000000000E+00 -0.45593999997E+02  0.45594000000E+02  0.51100000000E-03 0.  1.
    9900012    2    1    2    0    0  0.29586714310E+02 -0.23261025046E+02 -0.21614214471E+02  0.47787271699E+02  0.20000002983E+02 0.  0.
         12    1    1    2    0    0 -0.29586714310E+02  0.23261025046E+02  0.21614214471E+02  0.43400728301E+02  0.00000000000E+00 0. -1.
         11    1    3    3    0    0  0.85579316815E+01 -0.14575055025E+02 -0.91882461588E+01  0.19237834893E+02  0.51100000000E-03 0. -1.
        -11    1    3    3    0    0  0.18502229111E+02 -0.81178329337E+01 -0.14792801258E+02  0.25041139410E+02  0.51100000000E-03 0.  1.
         12    1    3    3    0    0  0.25265535175E+01 -0.56813708765E+00  0.23668329454E+01  0.35082973960E+01  0.00000000000E+00 0. -1.
</event>
<event>
 7    1  0.1265344E-009  0.4778727E+02  0.7816164E-02  0.1312668E+00
        -11   -1    0    0    0    0  0.00000000000E+00  0.00000000000E+00  0.45593999997E+02  0.45594000000E+02  0.51100000000E-03 0.  1.
         11   -1    0    0    0    0 -0.00000000000E+00 -0.00000000000E+00 -0.45593999997E+02  0.45594000000E+02  0.51100000000E-03 0. -1.
    9900012    2    1    2    0    0 -0.11802912124E+02 -0.32651344650E+02  0.26042355202E+02  0.47787270668E+02  0.19999998285E+02 0.  0.
         12    1    1    2    0    0  0.11802912124E+02  0.32651344650E+02 -0.26042355202E+02  0.43400729332E+02  0.00000000000E+00 0. -1.
         11    1    3    3    0    0 -0.20174251261E+01 -0.65701125796E+01 -0.16069336568E+01  0.70582306201E+01  0.51100000000E-03 0. -1.
        -11    1    3    3    0    0 -0.32104247470E+01 -0.19652675143E+02  0.14286173378E+02  0.24507737908E+02  0.51100000000E-03 0.  1.
        -12    1    3    3    0    0 -0.65750622506E+01 -0.64285569277E+01  0.13363115481E+02  0.16221302140E+02  0.00000000000E+00 0.  1.
</event>
<event>
 7    1  0.1265344E-009  0.4778727E+02  0.7816164E-02  0.1312668E+00
        -11   -1    0    0    0    0  0.00000000000E+00  0.00000000000E+00  0.45593999997E+02  0.45594000000E+02  0.51100000000E-03 0. -1.
         11   -1    0    0    0    0 -0.00000000000E+00 -0.00000000000E+00 -0.45593999997E+02  0.45594000000E+02  0.51100000000E-03 0.  1.
    9900012    2    1    2    0    0 -0.36942310290E+01 -0.37549451388E+02 -0.21447954241E+02  0.47787269781E+02  0.19999994240E+02 0.  0.
         12    1    1    2    0    0  0.36942310290E+01  0.37549451388E+02  0.21447954241E+02  0.43400730219E+02  0.00000000000E+00 0. -1.
         11    1    3    3    0    0 -0.14126914218E+01 -0.16873472838E+01  0.20114246934E+01  0.29813868364E+01  0.51100000000E-03 0. -1.
        -11    1    3    3    0    0  0.51582354701E+01 -0.16177438469E+02 -0.12458961766E+02  0.21060451969E+02  0.51100000000E-03 0.  1.
         12    1    3    3    0    0 -0.74397750773E+01 -0.19684665635E+02 -0.11000417168E+02  0.23745430976E+02  0.00000000000E+00 0. -1.
</event>
<event>
 7    1  0.1265344E-009  0.4778727E+02  0.7816164E-02  0.1312668E+00
        -11   -1    0    0    0    0  0.00000000000E+00  0.00000000000E+00  0.45593999997E+02  0.45594000000E+02  0.51100000000E-03 0.  1.
         11   -1    0    0    0    0 -0.00000000000E+00 -0.00000000000E+00 -0.45593999997E+02  0.45594000000E+02  0.51100000000E-03 0. -1.
    9900012    2    1    2    0    0  0.30186605307E+02  0.28212257634E+02 -0.13283859928E+02  0.47787267802E+02  0.19999985216E+02 0.  0.
         12    1    1    2    0    0 -0.30186605307E+02 -0.28212257634E+02  0.13283859928E+02  0.43400732198E+02  0.00000000000E+00 0. -1.
         11    1    3    3    0    0  0.76472271979E+01  0.11410205177E+02  0.38539652116E+00  0.13741229812E+02  0.51100000000E-03 0. -1.
        -11    1    3    3    0    0  0.21926382745E+01 -0.20422491818E+01  0.26777283821E+00  0.30083462030E+01  0.51100000000E-03 0.  1.
         12    1    3    3    0    0  0.20346739834E+02  0.18844301639E+02 -0.13937029287E+02  0.31037691787E+02  0.00000000000E+00 0. -1.
</event>
<event>
 7    1  0.1265344E-009  0.4778727E+02  0.7816164E-02  0.1312668E+00
        -11   -1    0    0    0    0  0.00000000000E+00  0.00000000000E+00  0.45593999997E+02  0.45594000000E+02  0.51100000000E-03 0. -1.
         11   -1    0    0    0    0 -0.00000000000E+00 -0.00000000000E+00 -0.45593999997E+02  0.45594000000E+02  0.51100000000E-03 0.  1.
    9900012    2    1    2    0    0 -0.34176318955E+02  0.26142873432E+02 -0.56703307626E+01  0.47787271209E+02  0.20000000751E+02 0.  0.
         12    1    1    2    0    0  0.34176318955E+02 -0.26142873432E+02  0.56703307626E+01  0.43400728791E+02  0.00000000000E+00 0. -1.
         11    1    3    3    0    0 -0.14849458910E+02  0.16556755869E+02 -0.10319003374E+02  0.24517634995E+02  0.51100000000E-03 0. -1.
        -11    1    3    3    0    0 -0.87510024162E+01  0.15291752105E+01 -0.76064043456E+00  0.89161086941E+01  0.51100000000E-03 0.  1.
        -12    1    3    3    0    0 -0.10575857629E+02  0.80569423520E+01  0.54093130460E+01  0.14353527520E+02  0.00000000000E+00 0.  1.
</event>
<event>
 7    1  0.1265344E-009  0.4778727E+02  0.7816164E-02  0.1312668E+00
        -11   -1    0    0    0    0  0.00000000000E+00  0.00000000000E+00  0.45593999997E+02  0.45594000000E+02  0.51100000000E-03 0. -1.
         11   -1    0    0    0    0 -0.00000000000E+00 -0.00000000000E+00 -0.45593999997E+02  0.45594000000E+02  0.51100000000E-03 0.  1.
    9900012    2    1    2    0    0 -0.43065901100E+02  0.48753782031E+00 -0.53584947950E+01  0.47787274233E+02  0.20000014536E+02 0.  0.
         12    1    1    2    0    0  0.43065901100E+02 -0.48753782031E+00  0.53584947950E+01  0.43400725767E+02  0.00000000000E+00 0. -1.
         11    1    3    3    0    0 -0.39934509437E+01  0.85962505351E+00 -0.47475280637E+01  0.62630366955E+01  0.51100000000E-03 0. -1.
        -11    1    3    3    0    0 -0.89571019101E+01  0.28290056646E+01 -0.54428218640E+01  0.10856208260E+02  0.51100000000E-03 0.  1.
        -12    1    3    3    0    0 -0.30115348246E+02 -0.32010928978E+01  0.48318551328E+01  0.30668029277E+02  0.00000000000E+00 0.  1.
</event>
<event>
 7    1  0.1265344E-009  0.4778728E+02  0.7816164E-02  0.1312668E+00
        -11   -1    0    0    0    0  0.00000000000E+00  0.00000000000E+00  0.45593999997E+02  0.45594000000E+02  0.51100000000E-03 0.  1.
         11   -1    0    0    0    0 -0.00000000000E+00 -0.00000000000E+00 -0.45593999997E+02  0.45594000000E+02  0.51100000000E-03 0. -1.
    9900012    2    1    2    0    0  0.31332181435E+02  0.25647483207E+02  0.15624451991E+02  0.47787280094E+02  0.20000041261E+02 0.  0.
         12    1    1    2    0    0 -0.31332181435E+02 -0.25647483207E+02 -0.15624451991E+02  0.43400719906E+02  0.00000000000E+00 0. -1.
         11    1    3    3    0    0  0.17673930023E+02  0.54588339286E+01  0.51038851238E+01  0.19188963336E+02  0.51100000000E-03 0. -1.
        -11    1    3    3    0    0 -0.49909662704E+00  0.26355485579E+01 -0.14690225540E+01  0.30583069122E+01  0.51100000000E-03 0.  1.
        -12    1    3    3    0    0  0.14157348040E+02  0.17553100720E+02  0.11989589421E+02  0.25540009845E+02  0.00000000000E+00 0.  1.
</event>
<event>
 7    1  0.1265344E-009  0.4778726E+02  0.7816164E-02  0.1312668E+00
        -11   -1    0    0    0    0  0.00000000000E+00  0.00000000000E+00  0.45593999997E+02  0.45594000000E+02  0.51100000000E-03 0.  1.
         11   -1    0    0    0    0 -0.00000000000E+00 -0.00000000000E+00 -0.45593999997E+02  0.45594000000E+02  0.51100000000E-03 0. -1.
    9900012    2    1    2    0    0 -0.13201879920E+02 -0.29266853182E+02  0.29202492166E+02  0.47787264093E+02  0.19999968304E+02 0.  0.
         12    1    1    2    0    0  0.13201879920E+02  0.29266853182E+02 -0.29202492166E+02  0.43400735907E+02  0.00000000000E+00 0. -1.
         11    1    3    3    0    0 -0.42587524980E+01 -0.14692606762E+02  0.47385808649E+01  0.16014487665E+02  0.51100000000E-03 0. -1.
        -11    1    3    3    0    0 -0.31020059298E+01 -0.45740247272E+01  0.10139366785E+01  0.56189154507E+01  0.51100000000E-03 0.  1.
        -12    1    3    3    0    0 -0.58411214922E+01 -0.10000221693E+02  0.23449974623E+02  0.26153860977E+02  0.00000000000E+00 0.  1.
</event>
<event>
 7    1  0.1265344E-009  0.4778722E+02  0.7816164E-02  0.1312668E+00
        -11   -1    0    0    0    0  0.00000000000E+00  0.00000000000E+00  0.45593999997E+02  0.45594000000E+02  0.51100000000E-03 0.  1.
         11   -1    0    0    0    0 -0.00000000000E+00 -0.00000000000E+00 -0.45593999997E+02  0.45594000000E+02  0.51100000000E-03 0. -1.
    9900012    2    1    2    0    0 -0.95051988582E+01  0.28980908918E+02  0.30876947090E+02  0.47787219493E+02  0.19999764953E+02 0.  0.
         12    1    1    2    0    0  0.95051988582E+01 -0.28980908918E+02 -0.30876947090E+02  0.43400780507E+02  0.00000000000E+00 0. -1.
         11    1    3    3    0    0  0.27918341844E+01  0.14480654336E+02  0.89193648681E+01  0.17234812387E+02  0.51100000000E-03 0. -1.
        -11    1    3    3    0    0 -0.62639314619E+01  0.12393739971E+02  0.18940131054E+02  0.23485531555E+02  0.51100000000E-03 0.  1.
        -12    1    3    3    0    0 -0.60331015807E+01  0.21065146110E+01  0.30174511679E+01  0.70668755501E+01  0.00000000000E+00 0.  1.
</event>
<event>
 7    1  0.1265344E-009  0.4778726E+02  0.7816164E-02  0.1312668E+00
        -11   -1    0    0    0    0  0.00000000000E+00  0.00000000000E+00  0.45593999997E+02  0.45594000000E+02  0.51100000000E-03 0. -1.
         11   -1    0    0    0    0 -0.00000000000E+00 -0.00000000000E+00 -0.45593999997E+02  0.45594000000E+02  0.51100000000E-03 0.  1.
    9900012    2    1    2    0    0 -0.11820811067E+02  0.34171304427E+02  0.24004465008E+02  0.47787263130E+02  0.19999963914E+02 0.  0.
         12    1    1    2    0    0  0.11820811067E+02 -0.34171304427E+02 -0.24004465008E+02  0.43400736870E+02  0.00000000000E+00 0. -1.
         11    1    3    3    0    0 -0.98364206599E+01  0.15849957878E+02  0.17327623332E+02  0.25460221263E+02  0.51100000000E-03 0. -1.
        -11    1    3    3    0    0 -0.56365838172E+01  0.13959368346E+02  0.24796245268E+01  0.15257246796E+02  0.51100000000E-03 0.  1.
         12    1    3    3    0    0  0.36521934100E+01  0.43619782031E+01  0.41972171489E+01  0.70697950708E+01  0.00000000000E+00 0. -1.
</event>
<event>
 7    1  0.1265344E-009  0.4778727E+02  0.7816164E-02  0.1312668E+00
        -11   -1    0    0    0    0  0.00000000000E+00  0.00000000000E+00  0.45593999997E+02  0.45594000000E+02  0.51100000000E-03 0.  1.
         11   -1    0    0    0    0 -0.00000000000E+00 -0.00000000000E+00 -0.45593999997E+02  0.45594000000E+02  0.51100000000E-03 0. -1.
    9900012    2    1    2    0    0  0.73338929724E+01 -0.40077991724E+02  0.14952985159E+02  0.47787272219E+02  0.20000005356E+02 0.  0.
         12    1    1    2    0    0 -0.73338929724E+01  0.40077991724E+02 -0.14952985159E+02  0.43400727781E+02  0.00000000000E+00 0. -1.
         11    1    3    3    0    0  0.33801052013E+01 -0.14000626756E+02 -0.16555576895E+00  0.14403821358E+02  0.51100000000E-03 0. -1.
        -11    1    3    3    0    0  0.55143321052E+01 -0.20911736687E+02  0.54368714843E+01  0.22299510345E+02  0.51100000000E-03 0.  1.
         12    1    3    3    0    0 -0.15605443341E+01 -0.51656282812E+01  0.96816694436E+01  0.11083940516E+02  0.00000000000E+00 0. -1.
</event>
<event>
 7    1  0.1265344E-009  0.4778727E+02  0.7816164E-02  0.1312668E+00
        -11   -1    0    0    0    0  0.00000000000E+00  0.00000000000E+00  0.45593999997E+02  0.45594000000E+02  0.51100000000E-03 0.  1.
         11   -1    0    0    0    0 -0.00000000000E+00 -0.00000000000E+00 -0.45593999997E+02  0.45594000000E+02  0.51100000000E-03 0. -1.
    9900012    2    1    2    0    0  0.31357718736E+01  0.19115937295E+01  0.43245068883E+02  0.47787271451E+02  0.20000001855E+02 0.  0.
         12    1    1    2    0    0 -0.31357718736E+01 -0.19115937295E+01 -0.43245068883E+02  0.43400728549E+02  0.00000000000E+00 0. -1.
         11    1    3    3    0    0 -0.41599616020E+01  0.35715710292E+01  0.86806702597E+01  0.10267201983E+02  0.51100000000E-03 0. -1.
        -11    1    3    3    0    0  0.17995066122E+01  0.23742902723E+01  0.81464465043E+00  0.30885473142E+01  0.51100000000E-03 0.  1.
        -12    1    3    3    0    0  0.54962268634E+01 -0.40342675719E+01  0.33749753973E+02  0.34431522154E+02  0.00000000000E+00 0.  1.
</event>
<event>
 7    1  0.1265344E-009  0.4778727E+02  0.7816164E-02  0.1312668E+00
        -11   -1    0    0    0    0  0.00000000000E+00  0.00000000000E+00  0.45593999997E+02  0.45594000000E+02  0.51100000000E-03 0. -1.
         11   -1    0    0    0    0 -0.00000000000E+00 -0.00000000000E+00 -0.45593999997E+02  0.45594000000E+02  0.51100000000E-03 0.  1.
    9900012    2    1    2    0    0 -0.31536143887E+02  0.28554833684E+02 -0.85858430810E+01  0.47787267294E+02  0.19999982901E+02 0.  0.
         12    1    1    2    0    0  0.31536143887E+02 -0.28554833684E+02  0.85858430810E+01  0.43400732706E+02  0.00000000000E+00 0. -1.
         11    1    3    3    0    0 -0.10672261610E+01 -0.12808413686E+01  0.55641724048E+00  0.17575911631E+01  0.51100000000E-03 0. -1.
        -11    1    3    3    0    0 -0.30956822691E+02  0.24174494703E+02 -0.67003464336E+01  0.39845021118E+02  0.51100000000E-03 0.  1.
        -12    1    3    3    0    0  0.48790496426E+00  0.56611803491E+01 -0.24419138879E+01  0.61846550134E+01  0.00000000000E+00 0.  1.
</event>
<event>
 7    1  0.1265344E-009  0.4778727E+02  0.7816164E-02  0.1312668E+00
        -11   -1    0    0    0    0  0.00000000000E+00  0.00000000000E+00  0.45593999997E+02  0.45594000000E+02  0.51100000000E-03 0. -1.
         11   -1    0    0    0    0 -0.00000000000E+00 -0.00000000000E+00 -0.45593999997E+02  0.45594000000E+02  0.51100000000E-03 0.  1.
    9900012    2    1    2    0    0 -0.67137724380E+01  0.14715490681E+02 -0.40274096756E+02  0.47787271022E+02  0.19999999897E+02 0.  0.
         12    1    1    2    0    0  0.67137724380E+01 -0.14715490681E+02  0.40274096756E+02  0.43400728978E+02  0.00000000000E+00 0. -1.
         11    1    3    3    0    0 -0.31233067559E+01 -0.22955434232E+01 -0.62517906340E+01  0.73559126620E+01  0.51100000000E-03 0. -1.
        -11    1    3    3    0    0 -0.28747873181E+01  0.91310427351E+01 -0.30128435547E+02  0.31612702705E+02  0.51100000000E-03 0.  1.
         12    1    3    3    0    0 -0.71567836400E+00  0.78799913696E+01 -0.38938705753E+01  0.88186556551E+01  0.00000000000E+00 0. -1.
</event>
<event>
 7    1  0.1265344E-009  0.4778727E+02  0.7816164E-02  0.1312668E+00
        -11   -1    0    0    0    0  0.00000000000E+00  0.00000000000E+00  0.45593999997E+02  0.45594000000E+02  0.51100000000E-03 0. -1.
         11   -1    0    0    0    0 -0.00000000000E+00 -0.00000000000E+00 -0.45593999997E+02  0.45594000000E+02  0.51100000000E-03 0.  1.
    9900012    2    1    2    0    0  0.23340668582E+02  0.34477126985E+02 -0.12254143997E+02  0.47787272586E+02  0.20000007028E+02 0.  0.
         12    1    1    2    0    0 -0.23340668582E+02 -0.34477126985E+02  0.12254143997E+02  0.43400727414E+02  0.00000000000E+00 0. -1.
         11    1    3    3    0    0 -0.18771162219E+01  0.19203795504E+01  0.59626548080E+00  0.27508100103E+01  0.51100000000E-03 0. -1.
        -11    1    3    3    0    0  0.10404002069E+02  0.75164689743E+01 -0.90284149260E+01  0.15692445355E+02  0.51100000000E-03 0.  1.
         12    1    3    3    0    0  0.14813782735E+02  0.25040278460E+02 -0.38219945517E+01  0.29344017220E+02  0.00000000000E+00 0. -1.
</event>
<event>
 7    1  0.1265344E-009  0.4778727E+02  0.7816164E-02  0.1312668E+00
        -11   -1    0    0    0    0  0.00000000000E+00  0.00000000000E+00  0.45593999997E+02  0.45594000000E+02  0.51100000000E-03 0. -1.
         11   -1    0    0    0    0 -0.00000000000E+00 -0.00000000000E+00 -0.45593999997E+02  0.45594000000E+02  0.51100000000E-03 0.  1.
    9900012    2    1    2    0    0 -0.20642014680E+02  0.17375297119E+02 -0.33994550704E+02  0.47787271923E+02  0.20000004006E+02 0.  0.
         12    1    1    2    0    0  0.20642014680E+02 -0.17375297119E+02  0.33994550704E+02  0.43400728077E+02  0.00000000000E+00 0. -1.
         11    1    3    3    0    0 -0.94740939332E+00 -0.84680895552E+00  0.42170630594E+00  0.13388451872E+01  0.51100000000E-03 0. -1.
        -11    1    3    3    0    0 -0.85426512413E+01  0.18122842819E+02 -0.22501069122E+02  0.30128266362E+02  0.51100000000E-03 0.  1.
        -12    1    3    3    0    0 -0.11151954045E+02  0.99263255238E-01 -0.11915187888E+02  0.16320160374E+02  0.00000000000E+00 0.  1.
</event>
<event>
 7    1  0.1265344E-009  0.4778727E+02  0.7816164E-02  0.1312668E+00
        -11   -1    0    0    0    0  0.00000000000E+00  0.00000000000E+00  0.45593999997E+02  0.45594000000E+02  0.51100000000E-03 0. -1.
         11   -1    0    0    0    0 -0.00000000000E+00 -0.00000000000E+00 -0.45593999997E+02  0.45594000000E+02  0.51100000000E-03 0.  1.
    9900012    2    1    2    0    0  0.30979255079E+02 -0.27001212520E+02  0.13958633334E+02  0.47787272272E+02  0.20000005595E+02 0.  0.
         12    1    1    2    0    0 -0.30979255079E+02  0.27001212520E+02 -0.13958633334E+02  0.43400727728E+02  0.00000000000E+00 0. -1.
         11    1    3    3    0    0  0.12886482888E+01 -0.31979956693E-01 -0.14829207955E+01  0.19648642387E+01  0.51100000000E-03 0. -1.
        -11    1    3    3    0    0  0.25373084227E+02 -0.18560948522E+02  0.17736894370E+02  0.36095701065E+02  0.51100000000E-03 0.  1.
         12    1    3    3    0    0  0.43175225636E+01 -0.84082840418E+01 -0.22953402414E+01  0.97267069679E+01  0.00000000000E+00 0. -1.
</event>
<event>
 7    1  0.1265344E-009  0.4778727E+02  0.7816164E-02  0.1312668E+00
        -11   -1    0    0    0    0  0.00000000000E+00  0.00000000000E+00  0.45593999997E+02  0.45594000000E+02  0.51100000000E-03 0. -1.
         11   -1    0    0    0    0 -0.00000000000E+00 -0.00000000000E+00 -0.45593999997E+02  0.45594000000E+02  0.51100000000E-03 0.  1.
    9900012    2    1    2    0    0  0.77656292363E+00 -0.32139068273E+02 -0.29156482856E+02  0.47787271297E+02  0.20000001151E+02 0.  0.
         12    1    1    2    0    0 -0.77656292363E+00  0.32139068273E+02  0.29156482856E+02  0.43400728703E+02  0.00000000000E+00 0. -1.
         11    1    3    3    0    0 -0.20382737345E+01 -0.23859379439E+02 -0.11859604794E+02  0.26722177553E+02  0.51100000000E-03 0.  1.
        -11    1    3    3    0    0 -0.27804701461E+01 -0.33553557989E+01 -0.83627885554E+01  0.94300402679E+01  0.51100000000E-03 0. -1.
        -12    1    3    3    0    0  0.55953068042E+01 -0.49243330344E+01 -0.89340895068E+01  0.11635053476E+02  0.00000000000E+00 0.  1.
</event>
<event>
 7    1  0.1265344E-009  0.4778727E+02  0.7816164E-02  0.1312668E+00
        -11   -1    0    0    0    0  0.00000000000E+00  0.00000000000E+00  0.45593999997E+02  0.45594000000E+02  0.51100000000E-03 0.  1.
         11   -1    0    0    0    0 -0.00000000000E+00 -0.00000000000E+00 -0.45593999997E+02  0.45594000000E+02  0.51100000000E-03 0. -1.
    9900012    2    1    2    0    0  0.30879301727E+02  0.27997384478E+02 -0.12092896146E+02  0.47787274776E+02  0.20000017015E+02 0.  0.
         12    1    1    2    0    0 -0.30879301727E+02 -0.27997384478E+02  0.12092896146E+02  0.43400725224E+02  0.00000000000E+00 0. -1.
         11    1    3    3    0    0  0.47793127096E+01  0.11543242752E+02 -0.75722434459E+01  0.14609146254E+02  0.51100000000E-03 0. -1.
        -11    1    3    3    0    0  0.19679032729E+02  0.11820441091E+02 -0.82915855145E+01  0.24407735400E+02  0.51100000000E-03 0.  1.
        -12    1    3    3    0    0  0.64209562887E+01  0.46337006345E+01  0.37709328144E+01  0.87703931224E+01  0.00000000000E+00 0.  1.
</event>
<event>
 7    1  0.1265344E-009  0.4778727E+02  0.7816164E-02  0.1312668E+00
        -11   -1    0    0    0    0  0.00000000000E+00  0.00000000000E+00  0.45593999997E+02  0.45594000000E+02  0.51100000000E-03 0.  1.
         11   -1    0    0    0    0 -0.00000000000E+00 -0.00000000000E+00 -0.45593999997E+02  0.45594000000E+02  0.51100000000E-03 0. -1.
    9900012    2    1    2    0    0 -0.28878691341E+02  0.45973810970E+01  0.32070368779E+02  0.47787270972E+02  0.19999999670E+02 0.  0.
         12    1    1    2    0    0  0.28878691341E+02 -0.45973810970E+01 -0.32070368779E+02  0.43400729028E+02  0.00000000000E+00 0. -1.
         11    1    3    3    0    0 -0.73888926801E-01 -0.15003340464E+00  0.76176545488E+01  0.76194901852E+01  0.51100000000E-03 0. -1.
        -11    1    3    3    0    0 -0.12269481673E+02 -0.22975927577E-01  0.29371929239E+01  0.12616172595E+02  0.51100000000E-03 0.  1.
         12    1    3    3    0    0 -0.16535320741E+02  0.47703904293E+01  0.21515521306E+02  0.27551608192E+02  0.00000000000E+00 0. -1.
</event>
<event>
 7    1  0.1265344E-009  0.4778727E+02  0.7816164E-02  0.1312668E+00
        -11   -1    0    0    0    0  0.00000000000E+00  0.00000000000E+00  0.45593999997E+02  0.45594000000E+02  0.51100000000E-03 0.  1.
         11   -1    0    0    0    0 -0.00000000000E+00 -0.00000000000E+00 -0.45593999997E+02  0.45594000000E+02  0.51100000000E-03 0. -1.
    9900012    2    1    2    0    0  0.76087437739E+01 -0.27129361209E+02  0.33011032808E+02  0.47787268341E+02  0.19999987676E+02 0.  0.
         12    1    1    2    0    0 -0.76087437739E+01  0.27129361209E+02 -0.33011032808E+02  0.43400731659E+02  0.00000000000E+00 0. -1.
         11    1    3    3    0    0 -0.33809892692E+01 -0.71544068880E+01  0.49341341085E+01  0.93253582247E+01  0.51100000000E-03 0. -1.
        -11    1    3    3    0    0  0.70422750921E+01 -0.20974255266E+02  0.22490287941E+02  0.31548788794E+02  0.51100000000E-03 0.  1.
         12    1    3    3    0    0  0.39474579509E+01  0.99930094480E+00  0.55866107592E+01  0.69131213230E+01  0.00000000000E+00 0. -1.
</event>
<event>
 7    1  0.1265344E-009  0.4778727E+02  0.7816164E-02  0.1312668E+00
        -11   -1    0    0    0    0  0.00000000000E+00  0.00000000000E+00  0.45593999997E+02  0.45594000000E+02  0.51100000000E-03 0. -1.
         11   -1    0    0    0    0 -0.00000000000E+00 -0.00000000000E+00 -0.45593999997E+02  0.45594000000E+02  0.51100000000E-03 0.  1.
    9900012    2    1    2    0    0 -0.10871995675E+02  0.38152638292E+02 -0.17601117468E+02  0.47787269191E+02  0.19999991550E+02 0.  0.
         12    1    1    2    0    0  0.10871995675E+02 -0.38152638292E+02  0.17601117468E+02  0.43400730809E+02  0.00000000000E+00 0. -1.
         11    1    3    3    0    0 -0.53087140110E+01  0.21146697638E+02 -0.14676984743E+02  0.26282677695E+02  0.51100000000E-03 0. -1.
        -11    1    3    3    0    0 -0.51830457890E-01 -0.15484121145E+01 -0.14015690605E+01  0.20891774854E+01  0.51100000000E-03 0.  1.
        -12    1    3    3    0    0 -0.55114512059E+01  0.18554352769E+02 -0.15225636640E+01  0.19415414010E+02  0.00000000000E+00 0.  1.
</event>
<event>
 7    1  0.1265344E-009  0.4778726E+02  0.7816164E-02  0.1312668E+00
        -11   -1    0    0    0    0  0.00000000000E+00  0.00000000000E+00  0.45593999997E+02  0.45594000000E+02  0.51100000000E-03 0. -1.
         11   -1    0    0    0    0 -0.00000000000E+00 -0.00000000000E+00 -0.45593999997E+02  0.45594000000E+02  0.51100000000E-03 0.  1.
    9900012    2    1    2    0    0  0.37304730339E+02  0.19163008184E+02 -0.11169603578E+02  0.47787264610E+02  0.19999970662E+02 0.  0.
         12    1    1    2    0    0 -0.37304730339E+02 -0.19163008184E+02  0.11169603578E+02  0.43400735390E+02  0.00000000000E+00 0. -1.
         11    1    3    3    0    0 -0.99917585231E+00  0.21525134920E+01 -0.14669907603E+00  0.23776432863E+01  0.51100000000E-03 0. -1.
        -11    1    3    3    0    0  0.30301307518E+02  0.19051243912E+02 -0.89460607037E+01  0.36893781784E+02  0.51100000000E-03 0.  1.
         12    1    3    3    0    0  0.80025986732E+01 -0.20407492205E+01 -0.20768437984E+01  0.85158395398E+01  0.00000000000E+00 0. -1.
</event>
<event>
 7    1  0.1832244E-009  0.4778730E+02  0.7816164E-02  0.1312668E+00
        -11   -1    0    0    0    0  0.00000000000E+00  0.00000000000E+00  0.45593999997E+02  0.45594000000E+02  0.51100000000E-03 0.  1.
         11   -1    0    0    0    0 -0.00000000000E+00 -0.00000000000E+00 -0.45593999997E+02  0.45594000000E+02  0.51100000000E-03 0. -1.
    9900012    2    1    2    0    0 -0.32149805913E+02 -0.28751289803E+02 -0.48346822110E+01  0.47787299111E+02  0.20000127965E+02 0.  0.
         12    1    1    2    0    0  0.32149805913E+02  0.28751289803E+02  0.48346822110E+01  0.43400700889E+02  0.00000000000E+00 0. -1.
         11    1    3    3    0    0  0.22661608892E+01  0.53355060899E-01  0.24305805856E+00  0.22797827570E+01  0.51100000000E-03 0. -1.
        -11    1    3    3    0    0 -0.10695882947E+02 -0.11232437259E+02 -0.37530035308E+01  0.15957900694E+02  0.51100000000E-03 0.  1.
         12    1    3    3    0    0 -0.23720083856E+02 -0.17572207604E+02 -0.13247367387E+01  0.29549615660E+02  0.00000000000E+00 0. -1.
</event>
<event>
 7    1  0.1265344E-009  0.4778724E+02  0.7816164E-02  0.1312668E+00
        -11   -1    0    0    0    0  0.00000000000E+00  0.00000000000E+00  0.45593999997E+02  0.45594000000E+02  0.51100000000E-03 0.  1.
         11   -1    0    0    0    0 -0.00000000000E+00 -0.00000000000E+00 -0.45593999997E+02  0.45594000000E+02  0.51100000000E-03 0. -1.
    9900012    2    1    2    0    0 -0.31371933520E+02 -0.61704938118E+01  0.29348804674E+02  0.47787244909E+02  0.19999880836E+02 0.  0.
         12    1    1    2    0    0  0.31371933520E+02  0.61704938118E+01 -0.29348804674E+02  0.43400755091E+02  0.00000000000E+00 0. -1.
         11    1    3    3    0    0 -0.11758071950E+02 -0.29561262810E+01  0.22468029328E+02  0.25530438318E+02  0.51100000000E-03 0. -1.
        -11    1    3    3    0    0 -0.14770161622E+02 -0.40030952034E+01  0.79341206992E+01  0.17237538022E+02  0.51100000000E-03 0.  1.
        -12    1    3    3    0    0 -0.48436999485E+01  0.78872767261E+00 -0.10533453525E+01  0.50192685687E+01  0.00000000000E+00 0.  1.
</event>
<event>
 7    1  0.1265344E-009  0.4778727E+02  0.7816164E-02  0.1312668E+00
        -11   -1    0    0    0    0  0.00000000000E+00  0.00000000000E+00  0.45593999997E+02  0.45594000000E+02  0.51100000000E-03 0.  1.
         11   -1    0    0    0    0 -0.00000000000E+00 -0.00000000000E+00 -0.45593999997E+02  0.45594000000E+02  0.51100000000E-03 0. -1.
    9900012    2    1    2    0    0 -0.19323495046E+02 -0.24463247628E+02  0.30195619655E+02  0.47787269688E+02  0.19999993815E+02 0.  0.
         12    1    1    2    0    0  0.19323495046E+02  0.24463247628E+02 -0.30195619655E+02  0.43400730312E+02  0.00000000000E+00 0. -1.
         11    1    3    3    0    0  0.12511659196E+01 -0.33853999488E+01  0.14120848438E+01  0.38756074155E+01  0.51100000000E-03 0. -1.
        -11    1    3    3    0    0 -0.36442492656E+01 -0.12336211026E+02  0.59509142670E+01  0.14173074334E+02  0.51100000000E-03 0.  1.
         12    1    3    3    0    0 -0.16930411700E+02 -0.87416366532E+01  0.22832620544E+02  0.29738587939E+02  0.00000000000E+00 0. -1.
</event>
<event>
 7    1  0.1265344E-009  0.4778727E+02  0.7816164E-02  0.1312668E+00
        -11   -1    0    0    0    0  0.00000000000E+00  0.00000000000E+00  0.45593999997E+02  0.45594000000E+02  0.51100000000E-03 0.  1.
         11   -1    0    0    0    0 -0.00000000000E+00 -0.00000000000E+00 -0.45593999997E+02  0.45594000000E+02  0.51100000000E-03 0. -1.
    9900012    2    1    2    0    0  0.12973578255E+02  0.36413696182E+02  0.19732009405E+02  0.47787271924E+02  0.20000004009E+02 0.  0.
         12    1    1    2    0    0 -0.12973578255E+02 -0.36413696182E+02 -0.19732009405E+02  0.43400728076E+02  0.00000000000E+00 0. -1.
         11    1    3    3    0    0 -0.25948547894E+01  0.10116779751E+02 -0.78023148953E+00  0.10473359793E+02  0.51100000000E-03 0. -1.
        -11    1    3    3    0    0  0.74277698008E+01  0.69164900148E+01  0.66956218397E+01  0.12158986406E+02  0.51100000000E-03 0.  1.
        -12    1    3    3    0    0  0.81406632437E+01  0.19380426416E+02  0.13816619055E+02  0.25154925725E+02  0.00000000000E+00 0.  1.
</event>
<event>
 7    1  0.1265344E-009  0.4778727E+02  0.7816164E-02  0.1312668E+00
        -11   -1    0    0    0    0  0.00000000000E+00  0.00000000000E+00  0.45593999997E+02  0.45594000000E+02  0.51100000000E-03 0.  1.
         11   -1    0    0    0    0 -0.00000000000E+00 -0.00000000000E+00 -0.45593999997E+02  0.45594000000E+02  0.51100000000E-03 0. -1.
    9900012    2    1    2    0    0  0.39049990086E+02 -0.39012218633E+01  0.18533805837E+02  0.47787271705E+02  0.20000003011E+02 0.  0.
         12    1    1    2    0    0 -0.39049990086E+02  0.39012218633E+01 -0.18533805837E+02  0.43400728295E+02  0.00000000000E+00 0. -1.
         11    1    3    3    0    0  0.27101010278E+01  0.76687440482E-01 -0.14734211347E+01  0.30856925715E+01  0.51100000000E-03 0. -1.
        -11    1    3    3    0    0  0.32427582192E+02 -0.41669408517E+01  0.22827606055E+02  0.39874943026E+02  0.51100000000E-03 0.  1.
        -12    1    3    3    0    0  0.39123068660E+01  0.18903154794E+00 -0.28203790827E+01  0.48266361070E+01  0.00000000000E+00 0.  1.
</event>
<event>
 7    1  0.1265344E-009  0.4778727E+02  0.7816164E-02  0.1312668E+00
        -11   -1    0    0    0    0  0.00000000000E+00  0.00000000000E+00  0.45593999997E+02  0.45594000000E+02  0.51100000000E-03 0.  1.
         11   -1    0    0    0    0 -0.00000000000E+00 -0.00000000000E+00 -0.45593999997E+02  0.45594000000E+02  0.51100000000E-03 0. -1.
    9900012    2    1    2    0    0 -0.24495225715E+02 -0.32118676244E+02  0.15874438036E+02  0.47787271556E+02  0.20000002334E+02 0.  0.
         12    1    1    2    0    0  0.24495225715E+02  0.32118676244E+02 -0.15874438036E+02  0.43400728444E+02  0.00000000000E+00 0. -1.
         11    1    3    3    0    0 -0.16205261719E+02 -0.21011051992E+02  0.38952771203E+01  0.26818799326E+02  0.51100000000E-03 0. -1.
        -11    1    3    3    0    0 -0.99230633579E+01 -0.11657662652E+02  0.11590959722E+02  0.19202047611E+02  0.51100000000E-03 0.  1.
         12    1    3    3    0    0  0.16330993627E+01  0.55003839941E+00  0.38820119372E+00  0.17664246194E+01  0.00000000000E+00 0. -1.
</event>
<event>
 7    1  0.1265344E-009  0.4778727E+02  0.7816164E-02  0.1312668E+00
        -11   -1    0    0    0    0  0.00000000000E+00  0.00000000000E+00  0.45593999997E+02  0.45594000000E+02  0.51100000000E-03 0.  1.
         11   -1    0    0    0    0 -0.00000000000E+00 -0.00000000000E+00 -0.45593999997E+02  0.45594000000E+02  0.51100000000E-03 0. -1.
    9900012    2    1    2    0    0  0.35233900443E+02 -0.65242096932E+01  0.24487355401E+02  0.47787266976E+02  0.19999981449E+02 0.  0.
         12    1    1    2    0    0 -0.35233900443E+02  0.65242096932E+01 -0.24487355401E+02  0.43400733024E+02  0.00000000000E+00 0. -1.
         11    1    3    3    0    0  0.17786693790E+02 -0.10983879631E+02  0.20286853969E+02  0.29130199655E+02  0.51100000000E-03 0. -1.
        -11    1    3    3    0    0  0.51721148138E+01  0.12033345507E+01  0.97844253041E-01  0.53111542481E+01  0.51100000000E-03 0.  1.
         12    1    3    3    0    0  0.12275091839E+02  0.32563353868E+01  0.41026571783E+01  0.13345913072E+02  0.00000000000E+00 0. -1.
</event>
<event>
 7    1  0.1265344E-009  0.4778727E+02  0.7816164E-02  0.1312668E+00
        -11   -1    0    0    0    0  0.00000000000E+00  0.00000000000E+00  0.45593999997E+02  0.45594000000E+02  0.51100000000E-03 0.  1.
         11   -1    0    0    0    0 -0.00000000000E+00 -0.00000000000E+00 -0.45593999997E+02  0.45594000000E+02  0.51100000000E-03 0. -1.
    9900012    2    1    2    0    0  0.15745179226E+02 -0.36431436661E+02 -0.17563114457E+02  0.47787271487E+02  0.20000002017E+02 0.  0.
         12    1    1    2    0    0 -0.15745179226E+02  0.36431436661E+02  0.17563114457E+02  0.43400728513E+02  0.00000000000E+00 0. -1.
         11    1    3    3    0    0  0.49725556771E+01 -0.11583075986E+02 -0.79447966677E+01  0.14900125959E+02  0.51100000000E-03 0. -1.
        -11    1    3    3    0    0 -0.28499220371E+01 -0.85446294468E+01  0.11287168985E+01  0.90778163728E+01  0.51100000000E-03 0.  1.
        -12    1    3    3    0    0  0.13622545586E+02 -0.16303731228E+02 -0.10747034688E+02  0.23809329155E+02  0.00000000000E+00 0.  1.
</event>
<event>
 7    1  0.1265344E-009  0.4778727E+02  0.7816164E-02  0.1312668E+00
        -11   -1    0    0    0    0  0.00000000000E+00  0.00000000000E+00  0.45593999997E+02  0.45594000000E+02  0.51100000000E-03 0.  1.
         11   -1    0    0    0    0 -0.00000000000E+00 -0.00000000000E+00 -0.45593999997E+02  0.45594000000E+02  0.51100000000E-03 0. -1.
    9900012    2    1    2    0    0 -0.14020551646E+02  0.22474157368E+02  0.34379637599E+02  0.47787273055E+02  0.20000009169E+02 0.  0.
         12    1    1    2    0    0  0.14020551646E+02 -0.22474157368E+02 -0.34379637599E+02  0.43400726945E+02  0.00000000000E+00 0. -1.
         11    1    3    3    0    0  0.13538961856E+01  0.19931083071E+01  0.89112321480E+00  0.25689718664E+01  0.51100000000E-03 0. -1.
        -11    1    3    3    0    0 -0.14226935212E+02  0.53451334051E+01  0.17246248857E+02  0.22987153728E+02  0.51100000000E-03 0.  1.
        -12    1    3    3    0    0 -0.11475126201E+01  0.15135915656E+02  0.16242265527E+02  0.22231147461E+02  0.00000000000E+00 0.  1.
</event>
<event>
 7    1  0.1265344E-009  0.4778727E+02  0.7816164E-02  0.1312668E+00
        -11   -1    0    0    0    0  0.00000000000E+00  0.00000000000E+00  0.45593999997E+02  0.45594000000E+02  0.51100000000E-03 0. -1.
         11   -1    0    0    0    0 -0.00000000000E+00 -0.00000000000E+00 -0.45593999997E+02  0.45594000000E+02  0.51100000000E-03 0.  1.
    9900012    2    1    2    0    0  0.31878391535E+02 -0.29093412759E+02 -0.45787221620E+01  0.47787271787E+02  0.20000003385E+02 0.  0.
         12    1    1    2    0    0 -0.31878391535E+02  0.29093412759E+02  0.45787221620E+01  0.43400728213E+02  0.00000000000E+00 0. -1.
         11    1    3    3    0    0  0.41922953843E+01 -0.11769653996E+02  0.26777239978E+01  0.12777726787E+02  0.51100000000E-03 0.  1.
        -11    1    3    3    0    0  0.52436631672E+01 -0.69995947441E+00 -0.44998503398E+01  0.69451133914E+01  0.51100000000E-03 0. -1.
        -12    1    3    3    0    0  0.22442432983E+02 -0.16623799289E+02 -0.27565958200E+01  0.28064431609E+02  0.00000000000E+00 0.  1.
</event>
<event>
 7    1  0.1265344E-009  0.4778727E+02  0.7816164E-02  0.1312668E+00
        -11   -1    0    0    0    0  0.00000000000E+00  0.00000000000E+00  0.45593999997E+02  0.45594000000E+02  0.51100000000E-03 0.  1.
         11   -1    0    0    0    0 -0.00000000000E+00 -0.00000000000E+00 -0.45593999997E+02  0.45594000000E+02  0.51100000000E-03 0. -1.
    9900012    2    1    2    0    0 -0.11296139921E+02 -0.87348027527E+01  0.40984434430E+02  0.47787269340E+02  0.19999992230E+02 0.  0.
         12    1    1    2    0    0  0.11296139921E+02  0.87348027527E+01 -0.40984434430E+02  0.43400730660E+02  0.00000000000E+00 0. -1.
         11    1    3    3    0    0 -0.56744311217E+00  0.24954699472E+01  0.65198969420E+01  0.70041714955E+01  0.51100000000E-03 0. -1.
        -11    1    3    3    0    0 -0.12386506646E+02 -0.12549444031E+02  0.34408884278E+02  0.38663748006E+02  0.51100000000E-03 0.  1.
        -12    1    3    3    0    0  0.16578098373E+01  0.13191713313E+01  0.55653210002E-01  0.21193498384E+01  0.00000000000E+00 0.  1.
</event>
<event>
 7    1  0.1265344E-009  0.4778727E+02  0.7816164E-02  0.1312668E+00
        -11   -1    0    0    0    0  0.00000000000E+00  0.00000000000E+00  0.45593999997E+02  0.45594000000E+02  0.51100000000E-03 0.  1.
         11   -1    0    0    0    0 -0.00000000000E+00 -0.00000000000E+00 -0.45593999997E+02  0.45594000000E+02  0.51100000000E-03 0. -1.
    9900012    2    1    2    0    0  0.18747340268E+02 -0.38969754312E+01  0.38948352553E+02  0.47787270153E+02  0.19999995938E+02 0.  0.
         12    1    1    2    0    0 -0.18747340268E+02  0.38969754312E+01 -0.38948352553E+02  0.43400729847E+02  0.00000000000E+00 0. -1.
         11    1    3    3    0    0 -0.87942796172E+00  0.17984914890E+01  0.23558980279E+01  0.30916372612E+01  0.51100000000E-03 0. -1.
        -11    1    3    3    0    0  0.20306875820E+01  0.38929256920E+01  0.13107083725E+02  0.13822959399E+02  0.51100000000E-03 0.  1.
        -12    1    3    3    0    0  0.17596080647E+02 -0.95883926122E+01  0.23485370800E+02  0.30872673494E+02  0.00000000000E+00 0.  1.
</event>
<event>
 7    1  0.1265344E-009  0.4778727E+02  0.7816164E-02  0.1312668E+00
        -11   -1    0    0    0    0  0.00000000000E+00  0.00000000000E+00  0.45593999997E+02  0.45594000000E+02  0.51100000000E-03 0.  1.
         11   -1    0    0    0    0 -0.00000000000E+00 -0.00000000000E+00 -0.45593999997E+02  0.45594000000E+02  0.51100000000E-03 0. -1.
    9900012    2    1    2    0    0 -0.16026133323E+02  0.38707391198E+02  0.11336866080E+02  0.47787267113E+02  0.19999982075E+02 0.  0.
         12    1    1    2    0    0  0.16026133323E+02 -0.38707391198E+02 -0.11336866080E+02  0.43400732887E+02  0.00000000000E+00 0. -1.
         11    1    3    3    0    0 -0.37199877475E+01  0.67752664747E+01 -0.36053229517E+01  0.85288274981E+01  0.51100000000E-03 0. -1.
        -11    1    3    3    0    0 -0.61793389971E+01  0.54237095316E+01  0.73082200005E+01  0.11000497051E+02  0.51100000000E-03 0.  1.
         12    1    3    3    0    0 -0.61268065780E+01  0.26508415191E+02  0.76339690309E+01  0.28257942564E+02  0.00000000000E+00 0. -1.
</event>
<event>
 7    1  0.1265344E-009  0.4778727E+02  0.7816164E-02  0.1312668E+00
        -11   -1    0    0    0    0  0.00000000000E+00  0.00000000000E+00  0.45593999997E+02  0.45594000000E+02  0.51100000000E-03 0.  1.
         11   -1    0    0    0    0 -0.00000000000E+00 -0.00000000000E+00 -0.45593999997E+02  0.45594000000E+02  0.51100000000E-03 0. -1.
    9900012    2    1    2    0    0  0.31042722544E+02  0.43027335139E+00  0.30327998050E+02  0.47787271621E+02  0.20000002629E+02 0.  0.
         12    1    1    2    0    0 -0.31042722544E+02 -0.43027335139E+00 -0.30327998050E+02  0.43400728379E+02  0.00000000000E+00 0. -1.
         11    1    3    3    0    0  0.89107778990E+01  0.32834866675E+01  0.16140699342E+01  0.96326771707E+01  0.51100000000E-03 0. -1.
        -11    1    3    3    0    0  0.65633935644E+01  0.42087893989E+01  0.66846716849E+01  0.10270193722E+02  0.51100000000E-03 0.  1.
        -12    1    3    3    0    0  0.15568551081E+02 -0.70620027150E+01  0.22029256431E+02  0.27884400729E+02  0.00000000000E+00 0.  1.
</event>
<event>
 7    1  0.1265344E-009  0.4778727E+02  0.7816164E-02  0.1312668E+00
        -11   -1    0    0    0    0  0.00000000000E+00  0.00000000000E+00  0.45593999997E+02  0.45594000000E+02  0.51100000000E-03 0.  1.
         11   -1    0    0    0    0 -0.00000000000E+00 -0.00000000000E+00 -0.45593999997E+02  0.45594000000E+02  0.51100000000E-03 0. -1.
    9900012    2    1    2    0    0  0.19903392259E+02  0.69018828466E+01  0.37945256616E+02  0.47787268325E+02  0.19999987602E+02 0.  0.
         12    1    1    2    0    0 -0.19903392259E+02 -0.69018828466E+01 -0.37945256616E+02  0.43400731675E+02  0.00000000000E+00 0. -1.
         11    1    3    3    0    0 -0.21305127282E+01  0.18753091443E+01 -0.22730644405E+00  0.28473737641E+01  0.51100000000E-03 0. -1.
        -11    1    3    3    0    0  0.19400976861E+02  0.17453357123E+01  0.32221824090E+02  0.37652225005E+02  0.51100000000E-03 0.  1.
         12    1    3    3    0    0  0.26329281265E+01  0.32812379899E+01  0.59507389700E+01  0.72876695559E+01  0.00000000000E+00 0. -1.
</event>
<event>
 7    1  0.1265344E-009  0.4778727E+02  0.7816164E-02  0.1312668E+00
        -11   -1    0    0    0    0  0.00000000000E+00  0.00000000000E+00  0.45593999997E+02  0.45594000000E+02  0.51100000000E-03 0. -1.
         11   -1    0    0    0    0 -0.00000000000E+00 -0.00000000000E+00 -0.45593999997E+02  0.45594000000E+02  0.51100000000E-03 0.  1.
    9900012    2    1    2    0    0 -0.37088401179E+02 -0.18072111790E+02 -0.13471168087E+02  0.47787273092E+02  0.20000009335E+02 0.  0.
         12    1    1    2    0    0  0.37088401179E+02  0.18072111790E+02  0.13471168087E+02  0.43400726908E+02  0.00000000000E+00 0. -1.
         11    1    3    3    0    0 -0.32183448175E+01  0.81590873592E+00 -0.48104629082E+01  0.58449982106E+01  0.51100000000E-03 0. -1.
        -11    1    3    3    0    0 -0.10598948818E+02 -0.13200546015E+02 -0.18075211750E+01  0.17025253719E+02  0.51100000000E-03 0.  1.
         12    1    3    3    0    0 -0.23271107543E+02 -0.56874745105E+01 -0.68531840033E+01  0.24917021162E+02  0.00000000000E+00 0. -1.
</event>
<event>
 7    1  0.1265344E-009  0.4778727E+02  0.7816164E-02  0.1312668E+00
        -11   -1    0    0    0    0  0.00000000000E+00  0.00000000000E+00  0.45593999997E+02  0.45594000000E+02  0.51100000000E-03 0. -1.
         11   -1    0    0    0    0 -0.00000000000E+00 -0.00000000000E+00 -0.45593999997E+02  0.45594000000E+02  0.51100000000E-03 0.  1.
    9900012    2    1    2    0    0 -0.12166357205E+02 -0.37068435726E+02 -0.19014052534E+02  0.47787269954E+02  0.19999995027E+02 0.  0.
         12    1    1    2    0    0  0.12166357205E+02  0.37068435726E+02  0.19014052534E+02  0.43400730046E+02  0.00000000000E+00 0. -1.
         11    1    3    3    0    0  0.30053953937E+01 -0.31285892745E+01 -0.44838787426E+01  0.62390416861E+01  0.51100000000E-03 0. -1.
        -11    1    3    3    0    0 -0.51717580952E+01 -0.21187191485E+02 -0.38684109377E+01  0.22149690027E+02  0.51100000000E-03 0.  1.
         12    1    3    3    0    0 -0.99999945033E+01 -0.12752654966E+02 -0.10661762854E+02  0.19398538241E+02  0.00000000000E+00 0. -1.
</event>
<event>
 7    1  0.1265344E-009  0.4778726E+02  0.7816164E-02  0.1312668E+00
        -11   -1    0    0    0    0  0.00000000000E+00  0.00000000000E+00  0.45593999997E+02  0.45594000000E+02  0.51100000000E-03 0. -1.
         11   -1    0    0    0    0 -0.00000000000E+00 -0.00000000000E+00 -0.45593999997E+02  0.45594000000E+02  0.51100000000E-03 0.  1.
    9900012    2    1    2    0    0  0.37411438965E+02 -0.48157408621E+01 -0.21466653987E+02  0.47787258545E+02  0.19999943009E+02 0.  0.
         12    1    1    2    0    0 -0.37411438965E+02  0.48157408621E+01  0.21466653987E+02  0.43400741455E+02  0.00000000000E+00 0. -1.
         11    1    3    3    0    0  0.48909084994E+01  0.46471868180E+01 -0.39727686889E+01  0.78294458672E+01  0.51100000000E-03 0. -1.
        -11    1    3    3    0    0  0.15097815953E+02  0.10651238596E+01 -0.10550246047E+02  0.18449559000E+02  0.51100000000E-03 0.  1.
         12    1    3    3    0    0  0.17422714512E+02 -0.10528051540E+02 -0.69436392514E+01  0.21508253677E+02  0.00000000000E+00 0. -1.
</event>
<event>
 7    1  0.1265344E-009  0.4778727E+02  0.7816164E-02  0.1312668E+00
        -11   -1    0    0    0    0  0.00000000000E+00  0.00000000000E+00  0.45593999997E+02  0.45594000000E+02  0.51100000000E-03 0. -1.
         11   -1    0    0    0    0 -0.00000000000E+00 -0.00000000000E+00 -0.45593999997E+02  0.45594000000E+02  0.51100000000E-03 0.  1.
    9900012    2    1    2    0    0  0.17680236120E+02 -0.33604160907E+02 -0.21018867152E+02  0.47787272404E+02  0.20000006200E+02 0.  0.
         12    1    1    2    0    0 -0.17680236120E+02  0.33604160907E+02  0.21018867152E+02  0.43400727596E+02  0.00000000000E+00 0. -1.
         11    1    3    3    0    0  0.10099936628E+02 -0.65133535521E+01  0.97500917856E+00  0.12057493004E+02  0.51100000000E-03 0. -1.
        -11    1    3    3    0    0  0.25141793146E+01 -0.88293161700E+01 -0.64544908286E+01  0.11222226774E+02  0.51100000000E-03 0.  1.
         12    1    3    3    0    0  0.50661201771E+01 -0.18261491184E+02 -0.15539385502E+02  0.24507552626E+02  0.00000000000E+00 0. -1.
</event>
<event>
 7    1  0.1417502E-009  0.4778727E+02  0.7816164E-02  0.1312668E+00
        -11   -1    0    0    0    0  0.00000000000E+00  0.00000000000E+00  0.45593999997E+02  0.45594000000E+02  0.51100000000E-03 0. -1.
         11   -1    0    0    0    0 -0.00000000000E+00 -0.00000000000E+00 -0.45593999997E+02  0.45594000000E+02  0.51100000000E-03 0.  1.
    9900012    2    1    2    0    0  0.86949228727E+01  0.27919169455E+02 -0.32070885275E+02  0.47787269716E+02  0.19999993943E+02 0.  0.
         12    1    1    2    0    0 -0.86949228727E+01 -0.27919169455E+02  0.32070885275E+02  0.43400730284E+02  0.00000000000E+00 0. -1.
         11    1    3    3    0    0  0.59363798506E+01  0.17196971250E+02 -0.87039983866E+01  0.20167697293E+02  0.51100000000E-03 0. -1.
        -11    1    3    3    0    0 -0.12072937729E+01 -0.13801432060E+01 -0.17778465041E+01  0.25540344510E+01  0.51100000000E-03 0.  1.
        -12    1    3    3    0    0  0.39658367951E+01  0.12102341411E+02 -0.21589040385E+02  0.25065537972E+02  0.00000000000E+00 0.  1.
</event>
<event>
 7    1  0.1265344E-009  0.4778726E+02  0.7816164E-02  0.1312668E+00
        -11   -1    0    0    0    0  0.00000000000E+00  0.00000000000E+00  0.45593999997E+02  0.45594000000E+02  0.51100000000E-03 0.  1.
         11   -1    0    0    0    0 -0.00000000000E+00 -0.00000000000E+00 -0.45593999997E+02  0.45594000000E+02  0.51100000000E-03 0. -1.
    9900012    2    1    2    0    0  0.27698028167E+02 -0.23811693384E+02  0.23440272904E+02  0.47787263832E+02  0.19999967113E+02 0.  0.
         12    1    1    2    0    0 -0.27698028167E+02  0.23811693384E+02 -0.23440272904E+02  0.43400736168E+02  0.00000000000E+00 0. -1.
         11    1    3    3    0    0 -0.90264970280E+00  0.47345693278E+00 -0.36626559925E+00  0.10830921953E+01  0.51100000000E-03 0. -1.
        -11    1    3    3    0    0  0.83079823945E+01 -0.66771900570E+00  0.16726346737E+01  0.85009486030E+01  0.51100000000E-03 0.  1.
        -12    1    3    3    0    0  0.20292695475E+02 -0.23617431311E+02  0.22133903830E+02  0.38203223033E+02  0.00000000000E+00 0.  1.
</event>
<event>
 7    1  0.1265344E-009  0.4778726E+02  0.7816164E-02  0.1312668E+00
        -11   -1    0    0    0    0  0.00000000000E+00  0.00000000000E+00  0.45593999997E+02  0.45594000000E+02  0.51100000000E-03 0.  1.
         11   -1    0    0    0    0 -0.00000000000E+00 -0.00000000000E+00 -0.45593999997E+02  0.45594000000E+02  0.51100000000E-03 0. -1.
    9900012    2    1    2    0    0  0.24206060034E+02 -0.19074337479E+01  0.35972936564E+02  0.47787264858E+02  0.19999971794E+02 0.  0.
         12    1    1    2    0    0 -0.24206060034E+02  0.19074337479E+01 -0.35972936564E+02  0.43400735142E+02  0.00000000000E+00 0. -1.
         11    1    3    3    0    0  0.13517705795E+02  0.56444196009E+01  0.10289706836E+02  0.17901561653E+02  0.51100000000E-03 0.  1.
        -11    1    3    3    0    0  0.19346525227E+01 -0.41583876125E+01  0.34115919669E+01  0.57161200065E+01  0.51100000000E-03 0. -1.
        -12    1    3    3    0    0  0.87537017154E+01 -0.33934657363E+01  0.22271637761E+02  0.24169583198E+02  0.00000000000E+00 0.  1.
</event>
<event>
 7    1  0.1667040E-009  0.4778727E+02  0.7816164E-02  0.1312668E+00
        -11   -1    0    0    0    0  0.00000000000E+00  0.00000000000E+00  0.45593999997E+02  0.45594000000E+02  0.51100000000E-03 0.  1.
         11   -1    0    0    0    0 -0.00000000000E+00 -0.00000000000E+00 -0.45593999997E+02  0.45594000000E+02  0.51100000000E-03 0. -1.
    9900012    2    1    2    0    0 -0.38903332683E+02  0.87045671931E+01 -0.17157630494E+02  0.47787273416E+02  0.20000010813E+02 0.  0.
         12    1    1    2    0    0  0.38903332683E+02 -0.87045671931E+01  0.17157630494E+02  0.43400726584E+02  0.00000000000E+00 0. -1.
         11    1    3    3    0    0 -0.50208700290E+00  0.24249522371E+01 -0.33183779599E+01  0.41405455265E+01  0.51100000000E-03 0. -1.
        -11    1    3    3    0    0 -0.31111186239E+02  0.10255958740E+02 -0.13202017600E+02  0.35318321985E+02  0.51100000000E-03 0.  1.
         12    1    3    3    0    0 -0.72900594412E+01 -0.39763437844E+01 -0.63723493372E+00  0.83284059044E+01  0.00000000000E+00 0. -1.
</event>
<event>
 7    1  0.1265344E-009  0.4778728E+02  0.7816164E-02  0.1312668E+00
        -11   -1    0    0    0    0  0.00000000000E+00  0.00000000000E+00  0.45593999997E+02  0.45594000000E+02  0.51100000000E-03 0.  1.
         11   -1    0    0    0    0 -0.00000000000E+00 -0.00000000000E+00 -0.45593999997E+02  0.45594000000E+02  0.51100000000E-03 0. -1.
    9900012    2    1    2    0    0 -0.32971162298E+02 -0.36213147164E-02  0.28222779714E+02  0.47787275914E+02  0.20000022204E+02 0.  0.
         12    1    1    2    0    0  0.32971162298E+02  0.36213147164E-02 -0.28222779714E+02  0.43400724086E+02  0.00000000000E+00 0. -1.
         11    1    3    3    0    0 -0.86393199107E+01 -0.35906933755E+01  0.19012152840E+02  0.21189452171E+02  0.51100000000E-03 0. -1.
        -11    1    3    3    0    0 -0.99160150709E+01  0.24893867548E+01  0.57581955271E+01  0.11733763986E+02  0.51100000000E-03 0.  1.
         12    1    3    3    0    0 -0.14415827316E+02  0.10976853059E+01  0.34524313465E+01  0.14864059757E+02  0.00000000000E+00 0. -1.
</event>
<event>
 7    1  0.1265344E-009  0.4778727E+02  0.7816164E-02  0.1312668E+00
        -11   -1    0    0    0    0  0.00000000000E+00  0.00000000000E+00  0.45593999997E+02  0.45594000000E+02  0.51100000000E-03 0. -1.
         11   -1    0    0    0    0 -0.00000000000E+00 -0.00000000000E+00 -0.45593999997E+02  0.45594000000E+02  0.51100000000E-03 0.  1.
    9900012    2    1    2    0    0 -0.31418865731E+02  0.70400771088E+01 -0.29101811920E+02  0.47787271128E+02  0.20000000383E+02 0.  0.
         12    1    1    2    0    0  0.31418865731E+02 -0.70400771088E+01  0.29101811920E+02  0.43400728872E+02  0.00000000000E+00 0. -1.
         11    1    3    3    0    0 -0.17622156514E+02  0.59626774025E+01 -0.16512980443E+02  0.24875137092E+02  0.51100000000E-03 0. -1.
        -11    1    3    3    0    0 -0.10114757393E+02  0.97035288015E+00 -0.15280077676E+02  0.18350222774E+02  0.51100000000E-03 0.  1.
         12    1    3    3    0    0 -0.36819518242E+01  0.10704682609E+00  0.26912461983E+01  0.45619112616E+01  0.00000000000E+00 0. -1.
</event>
<event>
 7    1  0.1265344E-009  0.4778728E+02  0.7816164E-02  0.1312668E+00
        -11   -1    0    0    0    0  0.00000000000E+00  0.00000000000E+00  0.45593999997E+02  0.45594000000E+02  0.51100000000E-03 0.  1.
         11   -1    0    0    0    0 -0.00000000000E+00 -0.00000000000E+00 -0.45593999997E+02  0.45594000000E+02  0.51100000000E-03 0. -1.
    9900012    2    1    2    0    0  0.94847240647E+01  0.38684095560E+02  0.17239586371E+02  0.47787279060E+02  0.20000036545E+02 0.  0.
         12    1    1    2    0    0 -0.94847240647E+01 -0.38684095560E+02 -0.17239586371E+02  0.43400720940E+02  0.00000000000E+00 0. -1.
         11    1    3    3    0    0  0.31207046924E+01  0.18243124145E+02  0.43998857115E+01  0.19023915761E+02  0.51100000000E-03 0. -1.
        -11    1    3    3    0    0  0.97363058348E+01  0.15055582236E+02  0.48862357877E+01  0.18583366439E+02  0.51100000000E-03 0.  1.
        -12    1    3    3    0    0 -0.33722864626E+01  0.53853891784E+01  0.79534648714E+01  0.10179996859E+02  0.00000000000E+00 0.  1.
</event>
<event>
 7    1  0.1265344E-009  0.4778722E+02  0.7816164E-02  0.1312668E+00
        -11   -1    0    0    0    0  0.00000000000E+00  0.00000000000E+00  0.45593999997E+02  0.45594000000E+02  0.51100000000E-03 0.  1.
         11   -1    0    0    0    0 -0.00000000000E+00 -0.00000000000E+00 -0.45593999997E+02  0.45594000000E+02  0.51100000000E-03 0. -1.
    9900012    2    1    2    0    0 -0.41661087511E+02 -0.20672116108E+01  0.11987846730E+02  0.47787216070E+02  0.19999749350E+02 0.  0.
         12    1    1    2    0    0  0.41661087511E+02  0.20672116108E+01 -0.11987846730E+02  0.43400783930E+02  0.00000000000E+00 0. -1.
         11    1    3    3    0    0 -0.12715526246E+02 -0.48975958894E+01  0.11890145727E+02  0.18084430289E+02  0.51100000000E-03 0. -1.
        -11    1    3    3    0    0 -0.56826222675E+01  0.70166432985E-01 -0.23487058701E+01  0.61492713949E+01  0.51100000000E-03 0.  1.
         12    1    3    3    0    0 -0.23262938998E+02  0.27602178457E+01  0.24464068736E+01  0.23553514387E+02  0.00000000000E+00 0. -1.
</event>
<event>
 7    1  0.1265344E-009  0.4778727E+02  0.7816164E-02  0.1312668E+00
        -11   -1    0    0    0    0  0.00000000000E+00  0.00000000000E+00  0.45593999997E+02  0.45594000000E+02  0.51100000000E-03 0. -1.
         11   -1    0    0    0    0 -0.00000000000E+00 -0.00000000000E+00 -0.45593999997E+02  0.45594000000E+02  0.51100000000E-03 0.  1.
    9900012    2    1    2    0    0 -0.27476720024E+02 -0.30004144617E+02 -0.15113056826E+02  0.47787270466E+02  0.19999997362E+02 0.  0.
         12    1    1    2    0    0  0.27476720024E+02  0.30004144617E+02  0.15113056826E+02  0.43400729534E+02  0.00000000000E+00 0. -1.
         11    1    3    3    0    0 -0.54964772884E+01 -0.39717894984E+01 -0.97654807675E+00  0.68512787718E+01  0.51100000000E-03 0. -1.
        -11    1    3    3    0    0 -0.20511060315E+02 -0.14816019223E+02 -0.37502596414E+01  0.25578945805E+02  0.51100000000E-03 0.  1.
         12    1    3    3    0    0 -0.14691824206E+01 -0.11216335896E+02 -0.10386249108E+02  0.15357045889E+02  0.00000000000E+00 0. -1.
</event>
<event>
 7    1  0.1265344E-009  0.4778727E+02  0.7816164E-02  0.1312668E+00
        -11   -1    0    0    0    0  0.00000000000E+00  0.00000000000E+00  0.45593999997E+02  0.45594000000E+02  0.51100000000E-03 0. -1.
         11   -1    0    0    0    0 -0.00000000000E+00 -0.00000000000E+00 -0.45593999997E+02  0.45594000000E+02  0.51100000000E-03 0.  1.
    9900012    2    1    2    0    0  0.46604237669E+01 -0.43110539874E+02  0.18398445624E+01  0.47787271596E+02  0.20000002517E+02 0.  0.
         12    1    1    2    0    0 -0.46604237669E+01  0.43110539874E+02 -0.18398445624E+01  0.43400728404E+02  0.00000000000E+00 0. -1.
         11    1    3    3    0    0  0.34698343472E+01 -0.17140002804E+02  0.49740135536E+01  0.18181316169E+02  0.51100000000E-03 0. -1.
        -11    1    3    3    0    0  0.18827689338E+01  0.12161318472E+01 -0.13191987528E+00  0.22452613750E+01  0.51100000000E-03 0.  1.
        -12    1    3    3    0    0 -0.69217951403E+00 -0.27186668917E+02 -0.30022491159E+01  0.27360694053E+02  0.00000000000E+00 0.  1.
</event>
<event>
 7    1  0.1265344E-009  0.4778727E+02  0.7816164E-02  0.1312668E+00
        -11   -1    0    0    0    0  0.00000000000E+00  0.00000000000E+00  0.45593999997E+02  0.45594000000E+02  0.51100000000E-03 0.  1.
         11   -1    0    0    0    0 -0.00000000000E+00 -0.00000000000E+00 -0.45593999997E+02  0.45594000000E+02  0.51100000000E-03 0. -1.
    9900012    2    1    2    0    0 -0.12079327476E+02  0.14408598211E+02  0.39116559310E+02  0.47787273429E+02  0.20000010870E+02 0.  0.
         12    1    1    2    0    0  0.12079327476E+02 -0.14408598211E+02 -0.39116559310E+02  0.43400726571E+02  0.00000000000E+00 0. -1.
         11    1    3    3    0    0  0.24078428671E+00 -0.48036863246E+00 -0.56261461470E+00  0.77798879271E+00  0.51100000000E-03 0. -1.
        -11    1    3    3    0    0 -0.15884420637E+02  0.11098002209E+02  0.35026023889E+02  0.40028774922E+02  0.51100000000E-03 0.  1.
        -12    1    3    3    0    0  0.35643088743E+01  0.37909646346E+01  0.46531500349E+01  0.69805097135E+01  0.00000000000E+00 0.  1.
</event>
<event>
 7    1  0.1265344E-009  0.4778727E+02  0.7816164E-02  0.1312668E+00
        -11   -1    0    0    0    0  0.00000000000E+00  0.00000000000E+00  0.45593999997E+02  0.45594000000E+02  0.51100000000E-03 0.  1.
         11   -1    0    0    0    0 -0.00000000000E+00 -0.00000000000E+00 -0.45593999997E+02  0.45594000000E+02  0.51100000000E-03 0. -1.
    9900012    2    1    2    0    0 -0.33153001352E+02  0.19258752666E+02  0.20337213675E+02  0.47787270594E+02  0.19999997946E+02 0.  0.
         12    1    1    2    0    0  0.33153001352E+02 -0.19258752666E+02 -0.20337213675E+02  0.43400729406E+02  0.00000000000E+00 0. -1.
         11    1    3    3    0    0 -0.76786040019E+01  0.28152583648E+01 -0.48283834979E+00  0.81926657574E+01  0.51100000000E-03 0. -1.
        -11    1    3    3    0    0 -0.19211224788E+02  0.54907176095E+01  0.17468606021E+02  0.26539994995E+02  0.51100000000E-03 0.  1.
        -12    1    3    3    0    0 -0.62631725621E+01  0.10952776692E+02  0.33514460031E+01  0.13054609842E+02  0.00000000000E+00 0.  1.
</event>
<event>
 7    1  0.1265344E-009  0.4778727E+02  0.7816164E-02  0.1312668E+00
        -11   -1    0    0    0    0  0.00000000000E+00  0.00000000000E+00  0.45593999997E+02  0.45594000000E+02  0.51100000000E-03 0.  1.
         11   -1    0    0    0    0 -0.00000000000E+00 -0.00000000000E+00 -0.45593999997E+02  0.45594000000E+02  0.51100000000E-03 0. -1.
    9900012    2    1    2    0    0  0.15627282061E+02  0.39925997380E+02 -0.67324549016E+01  0.47787272351E+02  0.20000005959E+02 0.  0.
         12    1    1    2    0    0 -0.15627282061E+02 -0.39925997380E+02  0.67324549016E+01  0.43400727649E+02  0.00000000000E+00 0. -1.
         11    1    3    3    0    0  0.12813278728E+02  0.39844010412E+02 -0.92251107948E+01  0.42858230795E+02  0.51100000000E-03 0. -1.
        -11    1    3    3    0    0 -0.39289630287E+00 -0.71730566354E-01  0.15240767106E+01  0.15755389110E+01  0.51100000000E-03 0.  1.
        -12    1    3    3    0    0  0.32068996363E+01  0.15371753470E+00  0.96857918264E+00  0.33535026451E+01  0.00000000000E+00 0.  1.
</event>
<event>
 7    1  0.1265344E-009  0.4778727E+02  0.7816164E-02  0.1312668E+00
        -11   -1    0    0    0    0  0.00000000000E+00  0.00000000000E+00  0.45593999997E+02  0.45594000000E+02  0.51100000000E-03 0.  1.
         11   -1    0    0    0    0 -0.00000000000E+00 -0.00000000000E+00 -0.45593999997E+02  0.45594000000E+02  0.51100000000E-03 0. -1.
    9900012    2    1    2    0    0 -0.30542903716E+02 -0.26635527775E+02  0.15533927735E+02  0.47787271687E+02  0.20000002929E+02 0.  0.
         12    1    1    2    0    0  0.30542903716E+02  0.26635527775E+02 -0.15533927735E+02  0.43400728313E+02  0.00000000000E+00 0. -1.
         11    1    3    3    0    0 -0.46763361279E+01 -0.74331344805E+01  0.58704455301E+01  0.10563225775E+02  0.51100000000E-03 0. -1.
        -11    1    3    3    0    0 -0.19136923212E+02 -0.15434949856E+02  0.14084523301E+02  0.28334313191E+02  0.51100000000E-03 0.  1.
         12    1    3    3    0    0 -0.67296443759E+01 -0.37674434378E+01 -0.44210410964E+01  0.88897327215E+01  0.00000000000E+00 0. -1.
</event>
<event>
 7    1  0.1265344E-009  0.4778727E+02  0.7816164E-02  0.1312668E+00
        -11   -1    0    0    0    0  0.00000000000E+00  0.00000000000E+00  0.45593999997E+02  0.45594000000E+02  0.51100000000E-03 0.  1.
         11   -1    0    0    0    0 -0.00000000000E+00 -0.00000000000E+00 -0.45593999997E+02  0.45594000000E+02  0.51100000000E-03 0. -1.
    9900012    2    1    2    0    0 -0.31074181794E+02  0.19082928059E+02 -0.23534242950E+02  0.47787268339E+02  0.19999987665E+02 0.  0.
         12    1    1    2    0    0  0.31074181794E+02 -0.19082928059E+02  0.23534242950E+02  0.43400731661E+02  0.00000000000E+00 0. -1.
         11    1    3    3    0    0 -0.17954569253E+02  0.47627473853E+01 -0.11493178288E+02  0.21843613875E+02  0.51100000000E-03 0. -1.
        -11    1    3    3    0    0 -0.13748040416E+02  0.16053634356E+02 -0.11112825464E+02  0.23879335866E+02  0.51100000000E-03 0.  1.
        -12    1    3    3    0    0  0.62842787474E+00 -0.17334536830E+01 -0.92823919772E+00  0.20643185978E+01  0.00000000000E+00 0.  1.
</event>
<event>
 7    1  0.1265344E-009  0.4778727E+02  0.7816164E-02  0.1312668E+00
        -11   -1    0    0    0    0  0.00000000000E+00  0.00000000000E+00  0.45593999997E+02  0.45594000000E+02  0.51100000000E-03 0.  1.
         11   -1    0    0    0    0 -0.00000000000E+00 -0.00000000000E+00 -0.45593999997E+02  0.45594000000E+02  0.51100000000E-03 0. -1.
    9900012    2    1    2    0    0 -0.23259165453E+02 -0.36401654137E+02  0.41897395236E+01  0.47787272832E+02  0.20000008150E+02 0.  0.
         12    1    1    2    0    0  0.23259165453E+02  0.36401654137E+02 -0.41897395236E+01  0.43400727168E+02  0.00000000000E+00 0. -1.
         11    1    3    3    0    0 -0.16942760372E+02 -0.15478821454E+02  0.15745494686E+01  0.23002831324E+02  0.51100000000E-03 0.  1.
        -11    1    3    3    0    0 -0.36443862073E+01 -0.17998350870E+01  0.36292275967E+01  0.54490595866E+01  0.51100000000E-03 0. -1.
         12    1    3    3    0    0 -0.26720188729E+01 -0.19122997596E+02 -0.10140375418E+01  0.19335381921E+02  0.00000000000E+00 0. -1.
</event>
<event>
 7    1  0.1265344E-009  0.4778728E+02  0.7816164E-02  0.1312668E+00
        -11   -1    0    0    0    0  0.00000000000E+00  0.00000000000E+00  0.45593999997E+02  0.45594000000E+02  0.51100000000E-03 0. -1.
         11   -1    0    0    0    0 -0.00000000000E+00 -0.00000000000E+00 -0.45593999997E+02  0.45594000000E+02  0.51100000000E-03 0.  1.
    9900012    2    1    2    0    0 -0.19088393202E+02 -0.17049337971E+02 -0.35051051551E+02  0.47787275408E+02  0.20000019895E+02 0.  0.
         12    1    1    2    0    0  0.19088393202E+02  0.17049337971E+02  0.35051051551E+02  0.43400724592E+02  0.00000000000E+00 0. -1.
         11    1    3    3    0    0 -0.11505645909E+01 -0.75918053975E-01  0.90176909804E+00  0.14638135797E+01  0.51100000000E-03 0. -1.
        -11    1    3    3    0    0 -0.44249226386E+01 -0.51695126254E+01 -0.23545228352E+02  0.24508806163E+02  0.51100000000E-03 0.  1.
        -12    1    3    3    0    0 -0.13512905972E+02 -0.11803907291E+02 -0.12407592297E+02  0.21814655665E+02  0.00000000000E+00 0.  1.
</event>
<event>
 7    1  0.1265344E-009  0.4778727E+02  0.7816164E-02  0.1312668E+00
        -11   -1    0    0    0    0  0.00000000000E+00  0.00000000000E+00  0.45593999997E+02  0.45594000000E+02  0.51100000000E-03 0.  1.
         11   -1    0    0    0    0 -0.00000000000E+00 -0.00000000000E+00 -0.45593999997E+02  0.45594000000E+02  0.51100000000E-03 0. -1.
    9900012    2    1    2    0    0 -0.26186322063E+02 -0.17833866586E+02  0.29662313593E+02  0.47787272952E+02  0.20000008696E+02 0.  0.
         12    1    1    2    0    0  0.26186322063E+02  0.17833866586E+02 -0.29662313593E+02  0.43400727048E+02  0.00000000000E+00 0. -1.
         11    1    3    3    0    0 -0.80620809544E+01 -0.94685658599E+01  0.10609052978E+02  0.16346341918E+02  0.51100000000E-03 0. -1.
        -11    1    3    3    0    0 -0.17141249331E+02 -0.15564482859E+01  0.17162690153E+02  0.24306437284E+02  0.51100000000E-03 0.  1.
         12    1    3    3    0    0 -0.98299177793E+00 -0.68088524400E+01  0.18905704626E+01  0.71344937493E+01  0.00000000000E+00 0. -1.
</event>
<event>
 7    1  0.1265344E-009  0.4778727E+02  0.7816164E-02  0.1312668E+00
        -11   -1    0    0    0    0  0.00000000000E+00  0.00000000000E+00  0.45593999997E+02  0.45594000000E+02  0.51100000000E-03 0.  1.
         11   -1    0    0    0    0 -0.00000000000E+00 -0.00000000000E+00 -0.45593999997E+02  0.45594000000E+02  0.51100000000E-03 0. -1.
    9900012    2    1    2    0    0 -0.37858884845E+02  0.11067372766E+02  0.18106395112E+02  0.47787269066E+02  0.19999990978E+02 0.  0.
         12    1    1    2    0    0  0.37858884845E+02 -0.11067372766E+02 -0.18106395112E+02  0.43400730934E+02  0.00000000000E+00 0. -1.
         11    1    3    3    0    0 -0.10561678446E+02  0.90354848159E+01  0.52747347564E+01  0.14866467787E+02  0.51100000000E-03 0. -1.
        -11    1    3    3    0    0 -0.75713277426E+01 -0.53268454631E+01  0.42191375064E+01  0.10173564171E+02  0.51100000000E-03 0.  1.
         12    1    3    3    0    0 -0.19725878656E+02  0.73587334130E+01  0.86125228492E+01  0.22747237108E+02  0.00000000000E+00 0. -1.
</event>
<event>
 7    1  0.1265344E-009  0.4778727E+02  0.7816164E-02  0.1312668E+00
        -11   -1    0    0    0    0  0.00000000000E+00  0.00000000000E+00  0.45593999997E+02  0.45594000000E+02  0.51100000000E-03 0.  1.
         11   -1    0    0    0    0 -0.00000000000E+00 -0.00000000000E+00 -0.45593999997E+02  0.45594000000E+02  0.51100000000E-03 0. -1.
    9900012    2    1    2    0    0 -0.14856327527E+02  0.78127292451E+01  0.40023417814E+02  0.47787272133E+02  0.20000004963E+02 0.  0.
         12    1    1    2    0    0  0.14856327527E+02 -0.78127292451E+01 -0.40023417814E+02  0.43400727867E+02  0.00000000000E+00 0. -1.
         11    1    3    3    0    0 -0.53862315497E+01  0.29666514462E+01  0.47489385922E+01  0.77694870567E+01  0.51100000000E-03 0. -1.
        -11    1    3    3    0    0 -0.43629885575E+01 -0.54887093036E+01  0.17269531626E+02  0.18638624462E+02  0.51100000000E-03 0.  1.
         12    1    3    3    0    0 -0.51071074201E+01  0.10334787102E+02  0.18004947596E+02  0.21379160615E+02  0.00000000000E+00 0. -1.
</event>
<event>
 7    1  0.1265344E-009  0.4778727E+02  0.7816164E-02  0.1312668E+00
        -11   -1    0    0    0    0  0.00000000000E+00  0.00000000000E+00  0.45593999997E+02  0.45594000000E+02  0.51100000000E-03 0.  1.
         11   -1    0    0    0    0 -0.00000000000E+00 -0.00000000000E+00 -0.45593999997E+02  0.45594000000E+02  0.51100000000E-03 0. -1.
    9900012    2    1    2    0    0  0.29862012791E+02  0.31469093705E+02 -0.12568471011E+01  0.47787270384E+02  0.19999996987E+02 0.  0.
         12    1    1    2    0    0 -0.29862012791E+02 -0.31469093705E+02  0.12568471011E+01  0.43400729616E+02  0.00000000000E+00 0. -1.
         11    1    3    3    0    0 -0.58237696161E+00  0.29098913730E+01 -0.27137837976E+01  0.40213497099E+01  0.51100000000E-03 0. -1.
        -11    1    3    3    0    0  0.25026297039E+02  0.26435015870E+02 -0.28681760466E+01  0.36515093340E+02  0.51100000000E-03 0.  1.
         12    1    3    3    0    0  0.54180927143E+01  0.21241864625E+01  0.43251127431E+01  0.72508273341E+01  0.00000000000E+00 0. -1.
</event>
<event>
 7    1  0.1265344E-009  0.4778727E+02  0.7816164E-02  0.1312668E+00
        -11   -1    0    0    0    0  0.00000000000E+00  0.00000000000E+00  0.45593999997E+02  0.45594000000E+02  0.51100000000E-03 0.  1.
         11   -1    0    0    0    0 -0.00000000000E+00 -0.00000000000E+00 -0.45593999997E+02  0.45594000000E+02  0.51100000000E-03 0. -1.
    9900012    2    1    2    0    0  0.24148803367E+02  0.28650401694E+02  0.21900067901E+02  0.47787271949E+02  0.20000004124E+02 0.  0.
         12    1    1    2    0    0 -0.24148803367E+02 -0.28650401694E+02 -0.21900067901E+02  0.43400728051E+02  0.00000000000E+00 0. -1.
         11    1    3    3    0    0 -0.97128757265E+00 -0.66590417057E+00  0.24621054479E+01  0.27292474074E+01  0.51100000000E-03 0. -1.
        -11    1    3    3    0    0  0.17580989495E+02  0.10827672059E+02  0.89444597543E+01  0.22501845134E+02  0.51100000000E-03 0.  1.
         12    1    3    3    0    0  0.75391014440E+01  0.18488633806E+02  0.10493502699E+02  0.22556179408E+02  0.00000000000E+00 0. -1.
</event>
<event>
 7    1  0.1265344E-009  0.4778727E+02  0.7816164E-02  0.1312668E+00
        -11   -1    0    0    0    0  0.00000000000E+00  0.00000000000E+00  0.45593999997E+02  0.45594000000E+02  0.51100000000E-03 0. -1.
         11   -1    0    0    0    0 -0.00000000000E+00 -0.00000000000E+00 -0.45593999997E+02  0.45594000000E+02  0.51100000000E-03 0.  1.
    9900012    2    1    2    0    0 -0.40936804195E+02  0.68638298710E+01 -0.12676317461E+02  0.47787272788E+02  0.20000007949E+02 0.  0.
         12    1    1    2    0    0  0.40936804195E+02 -0.68638298710E+01  0.12676317461E+02  0.43400727212E+02  0.00000000000E+00 0. -1.
         11    1    3    3    0    0 -0.32108531145E+02  0.52184485866E+01 -0.96298433580E+01  0.33925268773E+02  0.51100000000E-03 0. -1.
        -11    1    3    3    0    0 -0.44691805491E+01 -0.59318304902E+00 -0.64688739796E+01  0.78849078457E+01  0.51100000000E-03 0.  1.
         12    1    3    3    0    0 -0.43590925003E+01  0.22385643334E+01  0.34223998763E+01  0.59770961691E+01  0.00000000000E+00 0. -1.
</event>
<event>
 7    1  0.1265344E-009  0.4778727E+02  0.7816164E-02  0.1312668E+00
        -11   -1    0    0    0    0  0.00000000000E+00  0.00000000000E+00  0.45593999997E+02  0.45594000000E+02  0.51100000000E-03 0.  1.
         11   -1    0    0    0    0 -0.00000000000E+00 -0.00000000000E+00 -0.45593999997E+02  0.45594000000E+02  0.51100000000E-03 0. -1.
    9900012    2    1    2    0    0  0.35176594398E+02 -0.21456435908E+02  0.13632746230E+02  0.47787271837E+02  0.20000003613E+02 0.  0.
         12    1    1    2    0    0 -0.35176594398E+02  0.21456435908E+02 -0.13632746230E+02  0.43400728163E+02  0.00000000000E+00 0. -1.
         11    1    3    3    0    0  0.91712918383E+01 -0.28057358821E+01  0.47677640504E+01  0.10710570579E+02  0.51100000000E-03 0. -1.
        -11    1    3    3    0    0  0.16531866586E+02 -0.25314282867E+01  0.75021813775E+01  0.18330124595E+02  0.51100000000E-03 0.  1.
        -12    1    3    3    0    0  0.94734359739E+01 -0.16119271740E+02  0.13628008024E+01  0.18746576663E+02  0.00000000000E+00 0.  1.
</event>
<event>
 7    1  0.1265344E-009  0.4778726E+02  0.7816164E-02  0.1312668E+00
        -11   -1    0    0    0    0  0.00000000000E+00  0.00000000000E+00  0.45593999997E+02  0.45594000000E+02  0.51100000000E-03 0. -1.
         11   -1    0    0    0    0 -0.00000000000E+00 -0.00000000000E+00 -0.45593999997E+02  0.45594000000E+02  0.51100000000E-03 0.  1.
    9900012    2    1    2    0    0  0.18815859162E+02  0.26172416780E+02 -0.29061874327E+02  0.47787256971E+02  0.19999935831E+02 0.  0.
         12    1    1    2    0    0 -0.18815859162E+02 -0.26172416780E+02  0.29061874327E+02  0.43400743029E+02  0.00000000000E+00 0. -1.
         11    1    3    3    0    0 -0.14183012888E+01  0.31046370096E+01 -0.17978721647E+01  0.38578094936E+01  0.51100000000E-03 0. -1.
        -11    1    3    3    0    0  0.19745320980E+02  0.22737282396E+02 -0.29175245688E+02  0.41929186405E+02  0.51100000000E-03 0.  1.
        -12    1    3    3    0    0  0.48883947076E+00  0.33049737406E+00  0.19112435255E+01  0.20002610720E+01  0.00000000000E+00 0.  1.
</event>
<event>
 7    1  0.1265344E-009  0.4778728E+02  0.7816164E-02  0.1312668E+00
        -11   -1    0    0    0    0  0.00000000000E+00  0.00000000000E+00  0.45593999997E+02  0.45594000000E+02  0.51100000000E-03 0.  1.
         11   -1    0    0    0    0 -0.00000000000E+00 -0.00000000000E+00 -0.45593999997E+02  0.45594000000E+02  0.51100000000E-03 0. -1.
    9900012    2    1    2    0    0  0.39748290102E+02 -0.90883145011E+01  0.14869368614E+02  0.47787283998E+02  0.20000059060E+02 0.  0.
         12    1    1    2    0    0 -0.39748290102E+02  0.90883145011E+01 -0.14869368614E+02  0.43400716002E+02  0.00000000000E+00 0. -1.
         11    1    3    3    0    0  0.14921595721E+02 -0.50527947889E+01  0.35005778036E+01  0.16138116348E+02  0.51100000000E-03 0. -1.
        -11    1    3    3    0    0  0.11684069146E+02  0.57297177627E+01  0.66235467143E+01  0.14602003588E+02  0.51100000000E-03 0.  1.
        -12    1    3    3    0    0  0.13142625235E+02 -0.97652374749E+01  0.47452440960E+01  0.17047164061E+02  0.00000000000E+00 0.  1.
</event>
<event>
 7    1  0.1265344E-009  0.4778727E+02  0.7816164E-02  0.1312668E+00
        -11   -1    0    0    0    0  0.00000000000E+00  0.00000000000E+00  0.45593999997E+02  0.45594000000E+02  0.51100000000E-03 0. -1.
         11   -1    0    0    0    0 -0.00000000000E+00 -0.00000000000E+00 -0.45593999997E+02  0.45594000000E+02  0.51100000000E-03 0.  1.
    9900012    2    1    2    0    0  0.26897036627E+02 -0.31801266148E+02 -0.12200494093E+02  0.47787272310E+02  0.20000005768E+02 0.  0.
         12    1    1    2    0    0 -0.26897036627E+02  0.31801266148E+02  0.12200494093E+02  0.43400727690E+02  0.00000000000E+00 0. -1.
         11    1    3    3    0    0  0.12644554238E+02 -0.53545192442E+01 -0.10584216544E+01  0.13772286843E+02  0.51100000000E-03 0. -1.
        -11    1    3    3    0    0  0.10271747716E+02 -0.19463443728E+02 -0.23983665021E+01  0.22137899743E+02  0.51100000000E-03 0.  1.
         12    1    3    3    0    0  0.39807346730E+01 -0.69833031759E+01 -0.87437059367E+01  0.11877085724E+02  0.00000000000E+00 0. -1.
</event>
<event>
 7    1  0.1265344E-009  0.4778727E+02  0.7816164E-02  0.1312668E+00
        -11   -1    0    0    0    0  0.00000000000E+00  0.00000000000E+00  0.45593999997E+02  0.45594000000E+02  0.51100000000E-03 0. -1.
         11   -1    0    0    0    0 -0.00000000000E+00 -0.00000000000E+00 -0.45593999997E+02  0.45594000000E+02  0.51100000000E-03 0.  1.
    9900012    2    1    2    0    0 -0.13859620605E+01  0.43306152548E+02 -0.25059890067E+01  0.47787265902E+02  0.19999976554E+02 0.  0.
         12    1    1    2    0    0  0.13859620605E+01 -0.43306152548E+02  0.25059890067E+01  0.43400734098E+02  0.00000000000E+00 0. -1.
         11    1    3    3    0    0  0.44597940960E+00  0.15143844662E+02 -0.99919066643E+01  0.18148639834E+02  0.51100000000E-03 0.  1.
        -11    1    3    3    0    0 -0.26554827780E+01  0.13077853018E+02  0.16613549767E+01  0.13447748101E+02  0.51100000000E-03 0. -1.
        -12    1    3    3    0    0  0.82354130787E+00  0.15084454868E+02  0.58245626809E+01  0.16190877968E+02  0.00000000000E+00 0.  1.
</event>
<event>
 7    1  0.1265344E-009  0.4778727E+02  0.7816164E-02  0.1312668E+00
        -11   -1    0    0    0    0  0.00000000000E+00  0.00000000000E+00  0.45593999997E+02  0.45594000000E+02  0.51100000000E-03 0.  1.
         11   -1    0    0    0    0 -0.00000000000E+00 -0.00000000000E+00 -0.45593999997E+02  0.45594000000E+02  0.51100000000E-03 0. -1.
    9900012    2    1    2    0    0 -0.41165230048E+02 -0.64230352644E+01  0.12156953331E+02  0.47787273495E+02  0.20000011171E+02 0.  0.
         12    1    1    2    0    0  0.41165230048E+02  0.64230352644E+01 -0.12156953331E+02  0.43400726505E+02  0.00000000000E+00 0. -1.
         11    1    3    3    0    0 -0.10646094065E+02 -0.27069291497E-01  0.66724106991E+00  0.10667017507E+02  0.51100000000E-03 0. -1.
        -11    1    3    3    0    0 -0.23000566980E+02 -0.20663829091E+01  0.15239677536E+02  0.27668462035E+02  0.51100000000E-03 0.  1.
         12    1    3    3    0    0 -0.75185690034E+01 -0.43295830639E+01 -0.37499652750E+01  0.94517939530E+01  0.00000000000E+00 0. -1.
</event>
<event>
 7    1  0.1265344E-009  0.4778727E+02  0.7816164E-02  0.1312668E+00
        -11   -1    0    0    0    0  0.00000000000E+00  0.00000000000E+00  0.45593999997E+02  0.45594000000E+02  0.51100000000E-03 0.  1.
         11   -1    0    0    0    0 -0.00000000000E+00 -0.00000000000E+00 -0.45593999997E+02  0.45594000000E+02  0.51100000000E-03 0. -1.
    9900012    2    1    2    0    0  0.22831425769E+02 -0.18038507498E+01  0.36865914040E+02  0.47787268461E+02  0.19999988219E+02 0.  0.
         12    1    1    2    0    0 -0.22831425769E+02  0.18038507498E+01 -0.36865914040E+02  0.43400731539E+02  0.00000000000E+00 0. -1.
         11    1    3    3    0    0  0.27515443520E+01  0.33350877961E+01  0.44920179049E+01  0.62347439440E+01  0.51100000000E-03 0. -1.
        -11    1    3    3    0    0  0.12140028132E+02 -0.10547286352E+02  0.16819969572E+02  0.23270945600E+02  0.51100000000E-03 0.  1.
        -12    1    3    3    0    0  0.79398532852E+01  0.54083478058E+01  0.15553926563E+02  0.18281578917E+02  0.00000000000E+00 0.  1.
</event>
<event>
 7    1  0.1265344E-009  0.4778728E+02  0.7816164E-02  0.1312668E+00
        -11   -1    0    0    0    0  0.00000000000E+00  0.00000000000E+00  0.45593999997E+02  0.45594000000E+02  0.51100000000E-03 0. -1.
         11   -1    0    0    0    0 -0.00000000000E+00 -0.00000000000E+00 -0.45593999997E+02  0.45594000000E+02  0.51100000000E-03 0.  1.
    9900012    2    1    2    0    0  0.10307026860E+02 -0.31966173508E+02 -0.27487300892E+02  0.47787276944E+02  0.20000026899E+02 0.  0.
         12    1    1    2    0    0 -0.10307026860E+02  0.31966173508E+02  0.27487300892E+02  0.43400723056E+02  0.00000000000E+00 0. -1.
         11    1    3    3    0    0  0.31629851659E+01 -0.18839639822E+01 -0.47382037046E+01  0.60003641601E+01  0.51100000000E-03 0. -1.
        -11    1    3    3    0    0 -0.36519344304E+00 -0.26854699472E+02 -0.18047208368E+02  0.32357533591E+02  0.51100000000E-03 0.  1.
        -12    1    3    3    0    0  0.75092351370E+01 -0.32275100540E+01 -0.47018888194E+01  0.94293791928E+01  0.00000000000E+00 0.  1.
</event>
<event>
 7    1  0.1265344E-009  0.4778727E+02  0.7816164E-02  0.1312668E+00
        -11   -1    0    0    0    0  0.00000000000E+00  0.00000000000E+00  0.45593999997E+02  0.45594000000E+02  0.51100000000E-03 0.  1.
         11   -1    0    0    0    0 -0.00000000000E+00 -0.00000000000E+00 -0.45593999997E+02  0.45594000000E+02  0.51100000000E-03 0. -1.
    9900012    2    1    2    0    0 -0.29710417639E+02  0.26828424425E+02  0.16767534186E+02  0.47787268715E+02  0.19999989381E+02 0.  0.
         12    1    1    2    0    0  0.29710417639E+02 -0.26828424425E+02 -0.16767534186E+02  0.43400731285E+02  0.00000000000E+00 0. -1.
         11    1    3    3    0    0  0.18742836450E+01  0.30187571056E+00  0.25110030120E+01  0.31478888979E+01  0.51100000000E-03 0. -1.
        -11    1    3    3    0    0 -0.31012431841E+01  0.69322599713E+01  0.39689295131E+01  0.85689170458E+01  0.51100000000E-03 0.  1.
        -12    1    3    3    0    0 -0.28483458099E+02  0.19594288743E+02  0.10287601660E+02  0.36070462772E+02  0.00000000000E+00 0.  1.
</event>
<event>
 7    1  0.1265344E-009  0.4778727E+02  0.7816164E-02  0.1312668E+00
        -11   -1    0    0    0    0  0.00000000000E+00  0.00000000000E+00  0.45593999997E+02  0.45594000000E+02  0.51100000000E-03 0.  1.
         11   -1    0    0    0    0 -0.00000000000E+00 -0.00000000000E+00 -0.45593999997E+02  0.45594000000E+02  0.51100000000E-03 0. -1.
    9900012    2    1    2    0    0 -0.10719799834E+02 -0.12920092984E+02  0.40022244099E+02  0.47787274961E+02  0.20000017856E+02 0.  0.
         12    1    1    2    0    0  0.10719799834E+02  0.12920092984E+02 -0.40022244099E+02  0.43400725039E+02  0.00000000000E+00 0. -1.
         11    1    3    3    0    0  0.16457719561E+01 -0.16492116877E+01  0.49374491089E+00  0.23816483411E+01  0.51100000000E-03 0. -1.
        -11    1    3    3    0    0 -0.12301155778E+02 -0.14554111379E+02  0.33501886971E+02  0.38542405508E+02  0.51100000000E-03 0.  1.
        -12    1    3    3    0    0 -0.64416012471E-01  0.32832300829E+01  0.60266122176E+01  0.68632211112E+01  0.00000000000E+00 0.  1.
</event>
<event>
 7    1  0.1265344E-009  0.4778727E+02  0.7816164E-02  0.1312668E+00
        -11   -1    0    0    0    0  0.00000000000E+00  0.00000000000E+00  0.45593999997E+02  0.45594000000E+02  0.51100000000E-03 0.  1.
         11   -1    0    0    0    0 -0.00000000000E+00 -0.00000000000E+00 -0.45593999997E+02  0.45594000000E+02  0.51100000000E-03 0. -1.
    9900012    2    1    2    0    0  0.27132090015E+02  0.30059128718E+02  0.15618009647E+02  0.47787265523E+02  0.19999974823E+02 0.  0.
         12    1    1    2    0    0 -0.27132090015E+02 -0.30059128718E+02 -0.15618009647E+02  0.43400734477E+02  0.00000000000E+00 0. -1.
         11    1    3    3    0    0  0.51858077598E+01  0.12898895795E+02  0.21814908486E+01  0.14072420454E+02  0.51100000000E-03 0. -1.
        -11    1    3    3    0    0  0.11095058826E+02  0.11602144467E+02  0.14291308049E+02  0.21493058707E+02  0.51100000000E-03 0.  1.
        -12    1    3    3    0    0  0.10851223429E+02  0.55580884558E+01 -0.85478925067E+00  0.12221786361E+02  0.00000000000E+00 0.  1.
</event>
<event>
 7    1  0.1265344E-009  0.4778727E+02  0.7816164E-02  0.1312668E+00
        -11   -1    0    0    0    0  0.00000000000E+00  0.00000000000E+00  0.45593999997E+02  0.45594000000E+02  0.51100000000E-03 0.  1.
         11   -1    0    0    0    0 -0.00000000000E+00 -0.00000000000E+00 -0.45593999997E+02  0.45594000000E+02  0.51100000000E-03 0. -1.
    9900012    2    1    2    0    0  0.36563225454E+02  0.21683365405E+02  0.87513195921E+01  0.47787269759E+02  0.19999994137E+02 0.  0.
         12    1    1    2    0    0 -0.36563225454E+02 -0.21683365405E+02 -0.87513195921E+01  0.43400730241E+02  0.00000000000E+00 0. -1.
         11    1    3    3    0    0  0.22979048074E+00  0.32855485637E+01  0.30052749513E+01  0.44586220768E+01  0.51100000000E-03 0. -1.
        -11    1    3    3    0    0  0.19880691482E+02  0.24477418750E+01  0.26265674583E+01  0.20202281825E+02  0.51100000000E-03 0.  1.
         12    1    3    3    0    0  0.16452743491E+02  0.15950074967E+02  0.31194771826E+01  0.23126365856E+02  0.00000000000E+00 0. -1.
</event>
<event>
 7    1  0.1265344E-009  0.4778728E+02  0.7816164E-02  0.1312668E+00
        -11   -1    0    0    0    0  0.00000000000E+00  0.00000000000E+00  0.45593999997E+02  0.45594000000E+02  0.51100000000E-03 0. -1.
         11   -1    0    0    0    0 -0.00000000000E+00 -0.00000000000E+00 -0.45593999997E+02  0.45594000000E+02  0.51100000000E-03 0.  1.
    9900012    2    1    2    0    0 -0.83931601211E+01 -0.20368857737E+02 -0.37393670232E+02  0.47787284848E+02  0.20000062935E+02 0.  0.
         12    1    1    2    0    0  0.83931601211E+01  0.20368857737E+02  0.37393670232E+02  0.43400715152E+02  0.00000000000E+00 0. -1.
         11    1    3    3    0    0 -0.34908965244E+01 -0.15665287667E+02 -0.22937699180E+02  0.27995100289E+02  0.51100000000E-03 0. -1.
        -11    1    3    3    0    0 -0.86201424672E+01 -0.46569332205E+01 -0.10660531874E+02  0.14478978668E+02  0.51100000000E-03 0.  1.
         12    1    3    3    0    0  0.37178788705E+01 -0.46636849595E-01 -0.37954391778E+01  0.53132058913E+01  0.00000000000E+00 0. -1.
</event>
<event>
 7    1  0.1265344E-009  0.4778727E+02  0.7816164E-02  0.1312668E+00
        -11   -1    0    0    0    0  0.00000000000E+00  0.00000000000E+00  0.45593999997E+02  0.45594000000E+02  0.51100000000E-03 0.  1.
         11   -1    0    0    0    0 -0.00000000000E+00 -0.00000000000E+00 -0.45593999997E+02  0.45594000000E+02  0.51100000000E-03 0. -1.
    9900012    2    1    2    0    0 -0.85579252804E+01  0.38448192005E+02  0.18224208490E+02  0.47787270413E+02  0.19999997123E+02 0.  0.
         12    1    1    2    0    0  0.85579252804E+01 -0.38448192005E+02 -0.18224208490E+02  0.43400729587E+02  0.00000000000E+00 0. -1.
         11    1    3    3    0    0 -0.87721618950E+01  0.17137102132E+02  0.33981832692E+01  0.19549392409E+02  0.51100000000E-03 0. -1.
        -11    1    3    3    0    0 -0.45517800425E+01  0.60399966909E+01  0.74698006430E+01  0.10630060371E+02  0.51100000000E-03 0.  1.
         12    1    3    3    0    0  0.47660166571E+01  0.15271093183E+02  0.73562245774E+01  0.17607817633E+02  0.00000000000E+00 0. -1.
</event>
<event>
 7    1  0.1265344E-009  0.4778727E+02  0.7816164E-02  0.1312668E+00
        -11   -1    0    0    0    0  0.00000000000E+00  0.00000000000E+00  0.45593999997E+02  0.45594000000E+02  0.51100000000E-03 0.  1.
         11   -1    0    0    0    0 -0.00000000000E+00 -0.00000000000E+00 -0.45593999997E+02  0.45594000000E+02  0.51100000000E-03 0. -1.
    9900012    2    1    2    0    0  0.38178424493E+02 -0.13678645544E+02  0.15457224547E+02  0.47787271534E+02  0.20000002230E+02 0.  0.
         12    1    1    2    0    0 -0.38178424493E+02  0.13678645544E+02 -0.15457224547E+02  0.43400728466E+02  0.00000000000E+00 0. -1.
         11    1    3    3    0    0  0.15951745867E+02  0.51763428393E-01  0.80597891803E+01  0.17872355121E+02  0.51100000000E-03 0. -1.
        -11    1    3    3    0    0  0.13756674298E+02 -0.53322775090E+01 -0.17857874387E+01  0.14861638813E+02  0.51100000000E-03 0.  1.
        -12    1    3    3    0    0  0.84700043282E+01 -0.83981314637E+01  0.91832228056E+01  0.15053277600E+02  0.00000000000E+00 0.  1.
</event>
<event>
 7    1  0.1265344E-009  0.4778727E+02  0.7816164E-02  0.1312668E+00
        -11   -1    0    0    0    0  0.00000000000E+00  0.00000000000E+00  0.45593999997E+02  0.45594000000E+02  0.51100000000E-03 0.  1.
         11   -1    0    0    0    0 -0.00000000000E+00 -0.00000000000E+00 -0.45593999997E+02  0.45594000000E+02  0.51100000000E-03 0. -1.
    9900012    2    1    2    0    0  0.25835841403E+02  0.34808238115E+02  0.21257820476E+01  0.47787273152E+02  0.20000009608E+02 0.  0.
         12    1    1    2    0    0 -0.25835841403E+02 -0.34808238115E+02 -0.21257820476E+01  0.43400726848E+02  0.00000000000E+00 0. -1.
         11    1    3    3    0    0  0.25806105271E+01  0.12585507415E+02  0.21443183031E+01  0.13025077690E+02  0.51100000000E-03 0. -1.
        -11    1    3    3    0    0 -0.13352949332E+01  0.36834641916E+01 -0.58168767640E+00  0.39609698085E+01  0.51100000000E-03 0.  1.
        -12    1    3    3    0    0  0.24590525809E+02  0.18539266508E+02  0.56315142092E+00  0.30801225653E+02  0.00000000000E+00 0.  1.
</event>
<event>
 7    1  0.1265344E-009  0.4778727E+02  0.7816164E-02  0.1312668E+00
        -11   -1    0    0    0    0  0.00000000000E+00  0.00000000000E+00  0.45593999997E+02  0.45594000000E+02  0.51100000000E-03 0.  1.
         11   -1    0    0    0    0 -0.00000000000E+00 -0.00000000000E+00 -0.45593999997E+02  0.45594000000E+02  0.51100000000E-03 0. -1.
    9900012    2    1    2    0    0 -0.21636277585E+02 -0.26131885808E+02  0.27066944868E+02  0.47787268807E+02  0.19999989798E+02 0.  0.
         12    1    1    2    0    0  0.21636277585E+02  0.26131885808E+02 -0.27066944868E+02  0.43400731193E+02  0.00000000000E+00 0. -1.
         11    1    3    3    0    0  0.16490644008E+01 -0.45344070583E+01  0.68343699635E+01  0.83659353230E+01  0.51100000000E-03 0. -1.
        -11    1    3    3    0    0 -0.12981173527E+02 -0.45567828442E+01  0.10176498038E+02  0.17112458871E+02  0.51100000000E-03 0.  1.
        -12    1    3    3    0    0 -0.10304168459E+02 -0.17040695905E+02  0.10056076867E+02  0.22308874613E+02  0.00000000000E+00 0.  1.
</event>
<event>
 7    1  0.1265344E-009  0.4778727E+02  0.7816164E-02  0.1312668E+00
        -11   -1    0    0    0    0  0.00000000000E+00  0.00000000000E+00  0.45593999997E+02  0.45594000000E+02  0.51100000000E-03 0.  1.
         11   -1    0    0    0    0 -0.00000000000E+00 -0.00000000000E+00 -0.45593999997E+02  0.45594000000E+02  0.51100000000E-03 0. -1.
    9900012    2    1    2    0    0  0.32981462152E+02 -0.58886175464E+01  0.27589320887E+02  0.47787270867E+02  0.19999999190E+02 0.  0.
         12    1    1    2    0    0 -0.32981462152E+02  0.58886175464E+01 -0.27589320887E+02  0.43400729133E+02  0.00000000000E+00 0. -1.
         11    1    3    3    0    0  0.98538938553E+01 -0.49802318763E+01  0.23987283249E+01  0.11298488018E+02  0.51100000000E-03 0. -1.
        -11    1    3    3    0    0  0.20465811464E+02  0.39575758065E+01  0.20231715773E+02  0.29048823875E+02  0.51100000000E-03 0.  1.
         12    1    3    3    0    0  0.26617568331E+01 -0.48659614766E+01  0.49588767891E+01  0.74399589744E+01  0.00000000000E+00 0. -1.
</event>
<event>
 7    1  0.1265344E-009  0.4778727E+02  0.7816164E-02  0.1312668E+00
        -11   -1    0    0    0    0  0.00000000000E+00  0.00000000000E+00  0.45593999997E+02  0.45594000000E+02  0.51100000000E-03 0.  1.
         11   -1    0    0    0    0 -0.00000000000E+00 -0.00000000000E+00 -0.45593999997E+02  0.45594000000E+02  0.51100000000E-03 0. -1.
    9900012    2    1    2    0    0 -0.15042502126E+02 -0.69360371688E-01  0.40710464476E+02  0.47787267300E+02  0.19999982927E+02 0.  0.
         12    1    1    2    0    0  0.15042502126E+02  0.69360371688E-01 -0.40710464476E+02  0.43400732700E+02  0.00000000000E+00 0. -1.
         11    1    3    3    0    0 -0.99989025927E+01 -0.20718142572E+01  0.22915955688E+02  0.25088074712E+02  0.51100000000E-03 0. -1.
        -11    1    3    3    0    0 -0.43761657067E+01 -0.66719219978E-01  0.19469044241E+02  0.19954923243E+02  0.51100000000E-03 0.  1.
         12    1    3    3    0    0 -0.66743382647E+00  0.20691731055E+01 -0.16745354531E+01  0.27442693448E+01  0.00000000000E+00 0. -1.
</event>
<event>
 7    1  0.1265344E-009  0.4778727E+02  0.7816164E-02  0.1312668E+00
        -11   -1    0    0    0    0  0.00000000000E+00  0.00000000000E+00  0.45593999997E+02  0.45594000000E+02  0.51100000000E-03 0.  1.
         11   -1    0    0    0    0 -0.00000000000E+00 -0.00000000000E+00 -0.45593999997E+02  0.45594000000E+02  0.51100000000E-03 0. -1.
    9900012    2    1    2    0    0 -0.36358924526E+02  0.18680027531E+02  0.14584528396E+02  0.47787270861E+02  0.19999999164E+02 0.  0.
         12    1    1    2    0    0  0.36358924526E+02 -0.18680027531E+02 -0.14584528396E+02  0.43400729139E+02  0.00000000000E+00 0. -1.
         11    1    3    3    0    0 -0.27291046283E+01 -0.65182322876E+00  0.12549265087E+01  0.30737154060E+01  0.51100000000E-03 0. -1.
        -11    1    3    3    0    0 -0.35580019286E+02  0.17664362908E+02  0.13899397231E+02  0.42085160485E+02  0.51100000000E-03 0.  1.
         12    1    3    3    0    0  0.19501993882E+01  0.16674878509E+01 -0.56979534390E+00  0.26283949704E+01  0.00000000000E+00 0. -1.
</event>
<event>
 7    1  0.1265344E-009  0.4778729E+02  0.7816164E-02  0.1312668E+00
        -11   -1    0    0    0    0  0.00000000000E+00  0.00000000000E+00  0.45593999997E+02  0.45594000000E+02  0.51100000000E-03 0.  1.
         11   -1    0    0    0    0 -0.00000000000E+00 -0.00000000000E+00 -0.45593999997E+02  0.45594000000E+02  0.51100000000E-03 0. -1.
    9900012    2    1    2    0    0  0.16391899448E+02  0.24397067040E+02  0.31932909783E+02  0.47787286010E+02  0.20000068232E+02 0.  0.
         12    1    1    2    0    0 -0.16391899448E+02 -0.24397067040E+02 -0.31932909783E+02  0.43400713990E+02  0.00000000000E+00 0. -1.
         11    1    3    3    0    0  0.42058935529E+01  0.40599204779E+01  0.16640433561E+01  0.60779548713E+01  0.51100000000E-03 0. -1.
        -11    1    3    3    0    0  0.64202087649E+01  0.20637457576E+02  0.28300138845E+02  0.35609290848E+02  0.51100000000E-03 0.  1.
        -12    1    3    3    0    0  0.57657971304E+01 -0.30031101399E+00  0.19687275822E+01  0.61000402906E+01  0.00000000000E+00 0.  1.
</event>
<event>
 7    1  0.1265344E-009  0.4778726E+02  0.7816164E-02  0.1312668E+00
        -11   -1    0    0    0    0  0.00000000000E+00  0.00000000000E+00  0.45593999997E+02  0.45594000000E+02  0.51100000000E-03 0. -1.
         11   -1    0    0    0    0 -0.00000000000E+00 -0.00000000000E+00 -0.45593999997E+02  0.45594000000E+02  0.51100000000E-03 0.  1.
    9900012    2    1    2    0    0 -0.11032278595E+02  0.39556688558E+02 -0.14042139243E+02  0.47787257435E+02  0.19999937948E+02 0.  0.
         12    1    1    2    0    0  0.11032278595E+02 -0.39556688558E+02  0.14042139243E+02  0.43400742565E+02  0.00000000000E+00 0. -1.
         11    1    3    3    0    0 -0.94397170809E+01  0.10688999936E+02 -0.30579871422E+01  0.14584727074E+02  0.51100000000E-03 0. -1.
        -11    1    3    3    0    0 -0.28511098261E+01  0.26909275198E+02 -0.60226240792E+01  0.27722011471E+02  0.51100000000E-03 0.  1.
        -12    1    3    3    0    0  0.12585483118E+01  0.19584134244E+01 -0.49615280218E+01  0.54805188901E+01  0.00000000000E+00 0.  1.
</event>
<event>
 7    1  0.1265344E-009  0.4778727E+02  0.7816164E-02  0.1312668E+00
        -11   -1    0    0    0    0  0.00000000000E+00  0.00000000000E+00  0.45593999997E+02  0.45594000000E+02  0.51100000000E-03 0. -1.
         11   -1    0    0    0    0 -0.00000000000E+00 -0.00000000000E+00 -0.45593999997E+02  0.45594000000E+02  0.51100000000E-03 0.  1.
    9900012    2    1    2    0    0 -0.26931378573E+02 -0.32266851211E+02 -0.10824706208E+02  0.47787273008E+02  0.20000008954E+02 0.  0.
         12    1    1    2    0    0  0.26931378573E+02  0.32266851211E+02  0.10824706208E+02  0.43400726992E+02  0.00000000000E+00 0. -1.
         11    1    3    3    0    0 -0.15141018573E+02 -0.80440211936E+01 -0.12394248531E+01  0.17189906766E+02  0.51100000000E-03 0. -1.
        -11    1    3    3    0    0 -0.69200457689E+01 -0.11534838699E+02 -0.10369268715E+02  0.16984147644E+02  0.51100000000E-03 0.  1.
         12    1    3    3    0    0 -0.48703142304E+01 -0.12687991319E+02  0.78398735995E+00  0.13613218598E+02  0.00000000000E+00 0. -1.
</event>
<event>
 7    1  0.1265344E-009  0.4778727E+02  0.7816164E-02  0.1312668E+00
        -11   -1    0    0    0    0  0.00000000000E+00  0.00000000000E+00  0.45593999997E+02  0.45594000000E+02  0.51100000000E-03 0. -1.
         11   -1    0    0    0    0 -0.00000000000E+00 -0.00000000000E+00 -0.45593999997E+02  0.45594000000E+02  0.51100000000E-03 0.  1.
    9900012    2    1    2    0    0  0.35690419069E+02  0.24018771991E+02  0.57372338303E+01  0.47787271051E+02  0.20000000031E+02 0.  0.
         12    1    1    2    0    0 -0.35690419069E+02 -0.24018771991E+02 -0.57372338303E+01  0.43400728949E+02  0.00000000000E+00 0. -1.
         11    1    3    3    0    0 -0.45509571374E+00  0.42579294329E+01 -0.35354940609E+01  0.55530886613E+01  0.51100000000E-03 0. -1.
        -11    1    3    3    0    0  0.11882044842E+02  0.69611924367E+01  0.31318310637E+01  0.14122661075E+02  0.51100000000E-03 0.  1.
         12    1    3    3    0    0  0.24263469941E+02  0.12799650121E+02  0.61408968275E+01  0.28111521315E+02  0.00000000000E+00 0. -1.
</event>
<event>
 7    1  0.1265344E-009  0.4778727E+02  0.7816164E-02  0.1312668E+00
        -11   -1    0    0    0    0  0.00000000000E+00  0.00000000000E+00  0.45593999997E+02  0.45594000000E+02  0.51100000000E-03 0.  1.
         11   -1    0    0    0    0 -0.00000000000E+00 -0.00000000000E+00 -0.45593999997E+02  0.45594000000E+02  0.51100000000E-03 0. -1.
    9900012    2    1    2    0    0  0.40339291302E+02  0.14574535850E+02  0.66293410033E+01  0.47787266364E+02  0.19999978662E+02 0.  0.
         12    1    1    2    0    0 -0.40339291302E+02 -0.14574535850E+02 -0.66293410033E+01  0.43400733636E+02  0.00000000000E+00 0. -1.
         11    1    3    3    0    0  0.21521441081E+02  0.56491091122E+01 -0.87089589276E+00  0.22267539601E+02  0.51100000000E-03 0. -1.
        -11    1    3    3    0    0  0.17484060372E+02  0.49566835262E+01  0.98991495068E+01  0.20694304528E+02  0.51100000000E-03 0.  1.
         12    1    3    3    0    0  0.13337898492E+01  0.39687432120E+01 -0.23989126107E+01  0.48254222363E+01  0.00000000000E+00 0. -1.
</event>
<event>
 7    1  0.1265344E-009  0.4778727E+02  0.7816164E-02  0.1312668E+00
        -11   -1    0    0    0    0  0.00000000000E+00  0.00000000000E+00  0.45593999997E+02  0.45594000000E+02  0.51100000000E-03 0. -1.
         11   -1    0    0    0    0 -0.00000000000E+00 -0.00000000000E+00 -0.45593999997E+02  0.45594000000E+02  0.51100000000E-03 0.  1.
    9900012    2    1    2    0    0 -0.12010086515E+02  0.37726599123E+02 -0.17778775748E+02  0.47787270437E+02  0.19999997231E+02 0.  0.
         12    1    1    2    0    0  0.12010086515E+02 -0.37726599123E+02  0.17778775748E+02  0.43400729563E+02  0.00000000000E+00 0. -1.
         11    1    3    3    0    0 -0.73435767316E+01  0.66142583389E+01 -0.54145984271E+01  0.11269179605E+02  0.51100000000E-03 0. -1.
        -11    1    3    3    0    0 -0.70972649782E+01  0.23706989766E+02 -0.39692900660E+01  0.25062876886E+02  0.51100000000E-03 0.  1.
         12    1    3    3    0    0  0.24307551948E+01  0.74053510183E+01 -0.83948872546E+01  0.11455213946E+02  0.00000000000E+00 0. -1.
</event>
<event>
 7    1  0.1265344E-009  0.4778727E+02  0.7816164E-02  0.1312668E+00
        -11   -1    0    0    0    0  0.00000000000E+00  0.00000000000E+00  0.45593999997E+02  0.45594000000E+02  0.51100000000E-03 0.  1.
         11   -1    0    0    0    0 -0.00000000000E+00 -0.00000000000E+00 -0.45593999997E+02  0.45594000000E+02  0.51100000000E-03 0. -1.
    9900012    2    1    2    0    0  0.12523606461E+02 -0.33304911167E+02  0.24850867847E+02  0.47787268907E+02  0.19999990255E+02 0.  0.
         12    1    1    2    0    0 -0.12523606461E+02  0.33304911167E+02 -0.24850867847E+02  0.43400731093E+02  0.00000000000E+00 0. -1.
         11    1    3    3    0    0  0.53912475364E+01 -0.34891863594E+01  0.27555601275E+00  0.64277447699E+01  0.51100000000E-03 0. -1.
        -11    1    3    3    0    0 -0.11072909262E+01 -0.61159344820E+01 -0.32292948186E-01  0.62154477618E+01  0.51100000000E-03 0.  1.
        -12    1    3    3    0    0  0.82396498505E+01 -0.23699790326E+02  0.24607604783E+02  0.35144076375E+02  0.00000000000E+00 0.  1.
</event>
<event>
 7    1  0.1265344E-009  0.4778727E+02  0.7816164E-02  0.1312668E+00
        -11   -1    0    0    0    0  0.00000000000E+00  0.00000000000E+00  0.45593999997E+02  0.45594000000E+02  0.51100000000E-03 0. -1.
         11   -1    0    0    0    0 -0.00000000000E+00 -0.00000000000E+00 -0.45593999997E+02  0.45594000000E+02  0.51100000000E-03 0.  1.
    9900012    2    1    2    0    0  0.29452076095E+02 -0.11929629431E+02 -0.29561496729E+02  0.47787274965E+02  0.20000017875E+02 0.  0.
         12    1    1    2    0    0 -0.29452076095E+02  0.11929629431E+02  0.29561496729E+02  0.43400725035E+02  0.00000000000E+00 0. -1.
         11    1    3    3    0    0  0.23838925104E+01 -0.30124042006E+01 -0.93367876683E+01  0.10096193678E+02  0.51100000000E-03 0. -1.
        -11    1    3    3    0    0  0.12484756967E+02  0.20349679245E+01 -0.39622155215E+01  0.13255542353E+02  0.51100000000E-03 0.  1.
        -12    1    3    3    0    0  0.14583426618E+02 -0.10952193155E+02 -0.16262493540E+02  0.24435538933E+02  0.00000000000E+00 0.  1.
</event>
<event>
 7    1  0.1265344E-009  0.4778728E+02  0.7816164E-02  0.1312668E+00
        -11   -1    0    0    0    0  0.00000000000E+00  0.00000000000E+00  0.45593999997E+02  0.45594000000E+02  0.51100000000E-03 0. -1.
         11   -1    0    0    0    0 -0.00000000000E+00 -0.00000000000E+00 -0.45593999997E+02  0.45594000000E+02  0.51100000000E-03 0.  1.
    9900012    2    1    2    0    0 -0.37226038975E+02 -0.19010642396E+02  0.11680753226E+02  0.47787279983E+02  0.20000040755E+02 0.  0.
         12    1    1    2    0    0  0.37226038975E+02  0.19010642396E+02 -0.11680753226E+02  0.43400720017E+02  0.00000000000E+00 0. -1.
         11    1    3    3    0    0  0.19255481199E+00  0.75493540427E+00 -0.14811288125E+01  0.16735434385E+01  0.51100000000E-03 0. -1.
        -11    1    3    3    0    0 -0.38174009978E+02 -0.19208604772E+02  0.11581906165E+02  0.44276021567E+02  0.51100000000E-03 0.  1.
         12    1    3    3    0    0  0.75541619152E+00 -0.55697302832E+00  0.15799758742E+01  0.18377149779E+01  0.00000000000E+00 0. -1.
</event>
<event>
 7    1  0.1265344E-009  0.4778727E+02  0.7816164E-02  0.1312668E+00
        -11   -1    0    0    0    0  0.00000000000E+00  0.00000000000E+00  0.45593999997E+02  0.45594000000E+02  0.51100000000E-03 0.  1.
         11   -1    0    0    0    0 -0.00000000000E+00 -0.00000000000E+00 -0.45593999997E+02  0.45594000000E+02  0.51100000000E-03 0. -1.
    9900012    2    1    2    0    0  0.13262896002E+02  0.10402950159E+02  0.39993720049E+02  0.47787269295E+02  0.19999992024E+02 0.  0.
         12    1    1    2    0    0 -0.13262896002E+02 -0.10402950159E+02 -0.39993720049E+02  0.43400730705E+02  0.00000000000E+00 0. -1.
         11    1    3    3    0    0  0.16079833162E+01 -0.12691797775E+01 -0.13700775330E+01  0.24644553882E+01  0.51100000000E-03 0. -1.
        -11    1    3    3    0    0  0.10013898568E+01  0.26444132695E+01  0.17061869978E+02  0.17294597729E+02  0.51100000000E-03 0.  1.
        -12    1    3    3    0    0  0.10653522829E+02  0.90277166668E+01  0.24301927603E+02  0.28028216178E+02  0.00000000000E+00 0.  1.
</event>
<event>
 7    1  0.1265344E-009  0.4778727E+02  0.7816164E-02  0.1312668E+00
        -11   -1    0    0    0    0  0.00000000000E+00  0.00000000000E+00  0.45593999997E+02  0.45594000000E+02  0.51100000000E-03 0.  1.
         11   -1    0    0    0    0 -0.00000000000E+00 -0.00000000000E+00 -0.45593999997E+02  0.45594000000E+02  0.51100000000E-03 0. -1.
    9900012    2    1    2    0    0  0.33690203403E+01  0.43264796394E+02 -0.65590043612E+00  0.47787272927E+02  0.20000008582E+02 0.  0.
         12    1    1    2    0    0 -0.33690203403E+01 -0.43264796394E+02  0.65590043612E+00  0.43400727073E+02  0.00000000000E+00 0. -1.
         11    1    3    3    0    0  0.92374656833E+01  0.30199260685E+02 -0.51802504224E+01  0.32002517289E+02  0.51100000000E-03 0.  1.
        -11    1    3    3    0    0 -0.15677456646E+01  0.30243487742E+00  0.66777332911E-01  0.15980465567E+01  0.51100000000E-03 0. -1.
        -12    1    3    3    0    0 -0.43006996784E+01  0.12763100832E+02  0.44575726534E+01  0.14186709081E+02  0.00000000000E+00 0.  1.
</event>
<event>
 7    1  0.1265344E-009  0.4778727E+02  0.7816164E-02  0.1312668E+00
        -11   -1    0    0    0    0  0.00000000000E+00  0.00000000000E+00  0.45593999997E+02  0.45594000000E+02  0.51100000000E-03 0.  1.
         11   -1    0    0    0    0 -0.00000000000E+00 -0.00000000000E+00 -0.45593999997E+02  0.45594000000E+02  0.51100000000E-03 0. -1.
    9900012    2    1    2    0    0 -0.23139664513E+02 -0.13859841820E+01  0.36691391407E+02  0.47787271558E+02  0.20000002341E+02 0.  0.
         12    1    1    2    0    0  0.23139664513E+02  0.13859841820E+01 -0.36691391407E+02  0.43400728442E+02  0.00000000000E+00 0. -1.
         11    1    3    3    0    0  0.66656150060E+00  0.10102117976E+01  0.51656337454E+01  0.53055258328E+01  0.51100000000E-03 0. -1.
        -11    1    3    3    0    0 -0.25367424497E+02 -0.30790940795E-01  0.29912048320E+02  0.39220374918E+02  0.51100000000E-03 0.  1.
        -12    1    3    3    0    0  0.15611984841E+01 -0.23654050388E+01  0.16137093413E+01  0.32613708073E+01  0.00000000000E+00 0.  1.
</event>
<event>
 7    1  0.1265344E-009  0.4778728E+02  0.7816164E-02  0.1312668E+00
        -11   -1    0    0    0    0  0.00000000000E+00  0.00000000000E+00  0.45593999997E+02  0.45594000000E+02  0.51100000000E-03 0.  1.
         11   -1    0    0    0    0 -0.00000000000E+00 -0.00000000000E+00 -0.45593999997E+02  0.45594000000E+02  0.51100000000E-03 0. -1.
    9900012    2    1    2    0    0 -0.23095268552E+02  0.13630248049E+02  0.34124006054E+02  0.47787275576E+02  0.20000020661E+02 0.  0.
         12    1    1    2    0    0  0.23095268552E+02 -0.13630248049E+02 -0.34124006054E+02  0.43400724424E+02  0.00000000000E+00 0. -1.
         11    1    3    3    0    0 -0.24839891285E+02  0.67719366892E+01  0.27278627762E+02  0.37510036769E+02  0.51100000000E-03 0. -1.
        -11    1    3    3    0    0 -0.53037111456E+00  0.37117143106E+01  0.28844006798E+01  0.47305268401E+01  0.51100000000E-03 0.  1.
         12    1    3    3    0    0  0.22749938480E+01  0.31465970489E+01  0.39609776122E+01  0.55467119667E+01  0.00000000000E+00 0. -1.
</event>
<event>
 7    1  0.1265344E-009  0.4778726E+02  0.7816164E-02  0.1312668E+00
        -11   -1    0    0    0    0  0.00000000000E+00  0.00000000000E+00  0.45593999997E+02  0.45594000000E+02  0.51100000000E-03 0. -1.
         11   -1    0    0    0    0 -0.00000000000E+00 -0.00000000000E+00 -0.45593999997E+02  0.45594000000E+02  0.51100000000E-03 0.  1.
    9900012    2    1    2    0    0 -0.40143157846E+02 -0.17182768403E+00  0.16496112881E+02  0.47787258223E+02  0.19999941541E+02 0.  0.
         12    1    1    2    0    0  0.40143157846E+02  0.17182768403E+00 -0.16496112881E+02  0.43400741777E+02  0.00000000000E+00 0. -1.
         11    1    3    3    0    0 -0.23250505542E+01  0.48574368677E+01  0.58319666310E+01  0.79380342686E+01  0.51100000000E-03 0. -1.
        -11    1    3    3    0    0 -0.49280354443E+01  0.80151008156E+00  0.13587195230E+01  0.51743667008E+01  0.51100000000E-03 0.  1.
        -12    1    3    3    0    0 -0.32890071848E+02 -0.58307746333E+01  0.93054267269E+01  0.34674857253E+02  0.00000000000E+00 0.  1.
</event>
<event>
 7    1  0.1265344E-009  0.4778726E+02  0.7816164E-02  0.1312668E+00
        -11   -1    0    0    0    0  0.00000000000E+00  0.00000000000E+00  0.45593999997E+02  0.45594000000E+02  0.51100000000E-03 0.  1.
         11   -1    0    0    0    0 -0.00000000000E+00 -0.00000000000E+00 -0.45593999997E+02  0.45594000000E+02  0.51100000000E-03 0. -1.
    9900012    2    1    2    0    0  0.27141421617E+02  0.60040226026E+01  0.33330453373E+02  0.47787260642E+02  0.19999952571E+02 0.  0.
         12    1    1    2    0    0 -0.27141421617E+02 -0.60040226026E+01 -0.33330453373E+02  0.43400739358E+02  0.00000000000E+00 0. -1.
         11    1    3    3    0    0 -0.62977902146E+00  0.37039129635E+00  0.40875886593E+00  0.83719495930E+00  0.51100000000E-03 0. -1.
        -11    1    3    3    0    0  0.13131607313E+02  0.47488507215E+01  0.40053465031E+01  0.14526991934E+02  0.51100000000E-03 0.  1.
         12    1    3    3    0    0  0.14639593325E+02  0.88478058480E+00  0.28916348004E+02  0.32423073748E+02  0.00000000000E+00 0. -1.
</event>
<event>
 7    1  0.1265344E-009  0.4778727E+02  0.7816164E-02  0.1312668E+00
        -11   -1    0    0    0    0  0.00000000000E+00  0.00000000000E+00  0.45593999997E+02  0.45594000000E+02  0.51100000000E-03 0.  1.
         11   -1    0    0    0    0 -0.00000000000E+00 -0.00000000000E+00 -0.45593999997E+02  0.45594000000E+02  0.51100000000E-03 0. -1.
    9900012    2    1    2    0    0  0.19527181146E+02 -0.57791370776E+01  0.38326417508E+02  0.47787268349E+02  0.19999987712E+02 0.  0.
         12    1    1    2    0    0 -0.19527181146E+02  0.57791370776E+01 -0.38326417508E+02  0.43400731651E+02  0.00000000000E+00 0. -1.
         11    1    3    3    0    0  0.77399626108E+01 -0.36886872768E+01  0.77902207998E+01  0.11584514466E+02  0.51100000000E-03 0. -1.
        -11    1    3    3    0    0  0.81477871406E+01 -0.41132701990E+01  0.30707697349E+02  0.32035419519E+02  0.51100000000E-03 0.  1.
         12    1    3    3    0    0  0.36394313941E+01  0.20228203982E+01 -0.17150064109E+00  0.41673343645E+01  0.00000000000E+00 0. -1.
</event>
<event>
 7    1  0.1265344E-009  0.4778725E+02  0.7816164E-02  0.1312668E+00
        -11   -1    0    0    0    0  0.00000000000E+00  0.00000000000E+00  0.45593999997E+02  0.45594000000E+02  0.51100000000E-03 0.  1.
         11   -1    0    0    0    0 -0.00000000000E+00 -0.00000000000E+00 -0.45593999997E+02  0.45594000000E+02  0.51100000000E-03 0. -1.
    9900012    2    1    2    0    0 -0.15173060637E+02  0.32383769379E+02  0.24590535763E+02  0.47787254184E+02  0.19999923126E+02 0.  0.
         12    1    1    2    0    0  0.15173060637E+02 -0.32383769379E+02 -0.24590535763E+02  0.43400745816E+02  0.00000000000E+00 0. -1.
         11    1    3    3    0    0 -0.11779430149E+02  0.14506778169E+02  0.13017914516E+02  0.22774276851E+02  0.51100000000E-03 0. -1.
        -11    1    3    3    0    0  0.66487621553E+00  0.59181828352E+01  0.10833665813E+02  0.12362656011E+02  0.51100000000E-03 0.  1.
         12    1    3    3    0    0 -0.40585067028E+01  0.11958808375E+02  0.73895543467E+00  0.12650321322E+02  0.00000000000E+00 0. -1.
</event>
<event>
 7    1  0.1265344E-009  0.4778727E+02  0.7816164E-02  0.1312668E+00
        -11   -1    0    0    0    0  0.00000000000E+00  0.00000000000E+00  0.45593999997E+02  0.45594000000E+02  0.51100000000E-03 0.  1.
         11   -1    0    0    0    0 -0.00000000000E+00 -0.00000000000E+00 -0.45593999997E+02  0.45594000000E+02  0.51100000000E-03 0. -1.
    9900012    2    1    2    0    0  0.14858180394E+02  0.24682356321E+02  0.32459803487E+02  0.47787273271E+02  0.20000010153E+02 0.  0.
         12    1    1    2    0    0 -0.14858180394E+02 -0.24682356321E+02 -0.32459803487E+02  0.43400726729E+02  0.00000000000E+00 0. -1.
         11    1    3    3    0    0 -0.34868677219E+01  0.53478406591E+01  0.73574027477E+01  0.97410996134E+01  0.51100000000E-03 0. -1.
        -11    1    3    3    0    0  0.59687708982E+00 -0.11869581024E+01  0.49562988532E+00  0.14180201132E+01  0.51100000000E-03 0.  1.
        -12    1    3    3    0    0  0.17748171026E+02  0.20521473764E+02  0.24606770854E+02  0.36628153545E+02  0.00000000000E+00 0.  1.
</event>
<event>
 7    1  0.1265344E-009  0.4778727E+02  0.7816164E-02  0.1312668E+00
        -11   -1    0    0    0    0  0.00000000000E+00  0.00000000000E+00  0.45593999997E+02  0.45594000000E+02  0.51100000000E-03 0.  1.
         11   -1    0    0    0    0 -0.00000000000E+00 -0.00000000000E+00 -0.45593999997E+02  0.45594000000E+02  0.51100000000E-03 0. -1.
    9900012    2    1    2    0    0 -0.12595509763E+02  0.28326924475E+02  0.30373699598E+02  0.47787272545E+02  0.20000006840E+02 0.  0.
         12    1    1    2    0    0  0.12595509763E+02 -0.28326924475E+02 -0.30373699598E+02  0.43400727455E+02  0.00000000000E+00 0. -1.
         11    1    3    3    0    0  0.59339026812E+00  0.15569776187E+02  0.74846367300E+01  0.17285538168E+02  0.51100000000E-03 0. -1.
        -11    1    3    3    0    0 -0.33612869380E+01  0.56537819645E+01  0.13995080031E+02  0.15463691853E+02  0.51100000000E-03 0.  1.
        -12    1    3    3    0    0 -0.98276130932E+01  0.71033663230E+01  0.88939828370E+01  0.15038042523E+02  0.00000000000E+00 0.  1.
</event>
<event>
 7    1  0.1265344E-009  0.4778727E+02  0.7816164E-02  0.1312668E+00
        -11   -1    0    0    0    0  0.00000000000E+00  0.00000000000E+00  0.45593999997E+02  0.45594000000E+02  0.51100000000E-03 0. -1.
         11   -1    0    0    0    0 -0.00000000000E+00 -0.00000000000E+00 -0.45593999997E+02  0.45594000000E+02  0.51100000000E-03 0.  1.
    9900012    2    1    2    0    0  0.29980456030E+02  0.89308962764E+01 -0.30083796384E+02  0.47787268935E+02  0.19999990384E+02 0.  0.
         12    1    1    2    0    0 -0.29980456030E+02 -0.89308962764E+01  0.30083796384E+02  0.43400731065E+02  0.00000000000E+00 0. -1.
         11    1    3    3    0    0 -0.53595631565E+00  0.15660601720E+01  0.11186991466E+01  0.19978192301E+01  0.51100000000E-03 0. -1.
        -11    1    3    3    0    0  0.17624915882E+02  0.50532116238E+01 -0.10045231385E+02  0.20906441146E+02  0.51100000000E-03 0.  1.
         12    1    3    3    0    0  0.12891496464E+02  0.23116244807E+01 -0.21157264146E+02  0.24883008559E+02  0.00000000000E+00 0. -1.
</event>
<event>
 7    1  0.1265344E-009  0.4778727E+02  0.7816164E-02  0.1312668E+00
        -11   -1    0    0    0    0  0.00000000000E+00  0.00000000000E+00  0.45593999997E+02  0.45594000000E+02  0.51100000000E-03 0.  1.
         11   -1    0    0    0    0 -0.00000000000E+00 -0.00000000000E+00 -0.45593999997E+02  0.45594000000E+02  0.51100000000E-03 0. -1.
    9900012    2    1    2    0    0  0.31394003404E+01  0.24449837434E+02  0.35720760930E+02  0.47787272512E+02  0.20000006693E+02 0.  0.
         12    1    1    2    0    0 -0.31394003404E+01 -0.24449837434E+02 -0.35720760930E+02  0.43400727488E+02  0.00000000000E+00 0. -1.
         11    1    3    3    0    0  0.35966369528E+01  0.85938204295E+01  0.21884057564E+02  0.23784480711E+02  0.51100000000E-03 0. -1.
        -11    1    3    3    0    0 -0.37406220272E+01  0.14714889269E+02  0.13813928545E+02  0.20526686081E+02  0.51100000000E-03 0.  1.
         12    1    3    3    0    0  0.32833854148E+01  0.11411277350E+01  0.22774820970E-01  0.34761057208E+01  0.00000000000E+00 0. -1.
</event>
<event>
 7    1  0.1265344E-009  0.4778728E+02  0.7816164E-02  0.1312668E+00
        -11   -1    0    0    0    0  0.00000000000E+00  0.00000000000E+00  0.45593999997E+02  0.45594000000E+02  0.51100000000E-03 0.  1.
         11   -1    0    0    0    0 -0.00000000000E+00 -0.00000000000E+00 -0.45593999997E+02  0.45594000000E+02  0.51100000000E-03 0. -1.
    9900012    2    1    2    0    0  0.10601813525E+02 -0.14688994695E+02  0.39439293780E+02  0.47787275247E+02  0.20000019163E+02 0.  0.
         12    1    1    2    0    0 -0.10601813525E+02  0.14688994695E+02 -0.39439293780E+02  0.43400724753E+02  0.00000000000E+00 0. -1.
         11    1    3    3    0    0 -0.87762666932E-01 -0.48209986217E+01  0.10965025894E+01  0.49449012312E+01  0.51100000000E-03 0. -1.
        -11    1    3    3    0    0  0.60793957067E+01  0.17217703989E+01  0.16804552011E+02  0.17953175597E+02  0.51100000000E-03 0.  1.
         12    1    3    3    0    0  0.46101804850E+01 -0.11589766472E+02  0.21538239180E+02  0.24889198419E+02  0.00000000000E+00 0. -1.
</event>
<event>
 7    1  0.1265344E-009  0.4778727E+02  0.7816164E-02  0.1312668E+00
        -11   -1    0    0    0    0  0.00000000000E+00  0.00000000000E+00  0.45593999997E+02  0.45594000000E+02  0.51100000000E-03 0. -1.
         11   -1    0    0    0    0 -0.00000000000E+00 -0.00000000000E+00 -0.45593999997E+02  0.45594000000E+02  0.51100000000E-03 0.  1.
    9900012    2    1    2    0    0 -0.15354145248E+02  0.35908909114E+02 -0.18932079119E+02  0.47787272474E+02  0.20000006518E+02 0.  0.
         12    1    1    2    0    0  0.15354145248E+02 -0.35908909114E+02  0.18932079119E+02  0.43400727526E+02  0.00000000000E+00 0. -1.
         11    1    3    3    0    0 -0.21792310093E+00 -0.58672953632E+00  0.14544682465E+01  0.15834204015E+01  0.51100000000E-03 0. -1.
        -11    1    3    3    0    0 -0.15111447567E+01  0.19217035784E+02 -0.11684887853E+02  0.22541398075E+02  0.51100000000E-03 0.  1.
         12    1    3    3    0    0 -0.13625077390E+02  0.17278602866E+02 -0.87016595124E+01  0.23662453997E+02  0.00000000000E+00 0. -1.
</event>
<event>
 7    1  0.1265344E-009  0.4778727E+02  0.7816164E-02  0.1312668E+00
        -11   -1    0    0    0    0  0.00000000000E+00  0.00000000000E+00  0.45593999997E+02  0.45594000000E+02  0.51100000000E-03 0.  1.
         11   -1    0    0    0    0 -0.00000000000E+00 -0.00000000000E+00 -0.45593999997E+02  0.45594000000E+02  0.51100000000E-03 0. -1.
    9900012    2    1    2    0    0  0.17049344571E+02  0.38190060234E+02  0.11595800564E+02  0.47787269111E+02  0.19999991183E+02 0.  0.
         12    1    1    2    0    0 -0.17049344571E+02 -0.38190060234E+02 -0.11595800564E+02  0.43400730889E+02  0.00000000000E+00 0. -1.
         11    1    3    3    0    0  0.34412122167E+01  0.23986535482E+00  0.19408313556E+00  0.34550174289E+01  0.51100000000E-03 0. -1.
        -11    1    3    3    0    0 -0.60814202163E-02  0.18989068998E+02  0.17378906356E+01  0.19068430520E+02  0.51100000000E-03 0.  1.
        -12    1    3    3    0    0  0.13614213775E+02  0.18961125882E+02  0.96638267926E+01  0.25263821162E+02  0.00000000000E+00 0.  1.
</event>
<event>
 7    1  0.1265344E-009  0.4778727E+02  0.7816164E-02  0.1312668E+00
        -11   -1    0    0    0    0  0.00000000000E+00  0.00000000000E+00  0.45593999997E+02  0.45594000000E+02  0.51100000000E-03 0.  1.
         11   -1    0    0    0    0 -0.00000000000E+00 -0.00000000000E+00 -0.45593999997E+02  0.45594000000E+02  0.51100000000E-03 0. -1.
    9900012    2    1    2    0    0  0.14064075888E+02  0.40923548867E+02 -0.33299207974E+01  0.47787268958E+02  0.19999990487E+02 0.  0.
         12    1    1    2    0    0 -0.14064075888E+02 -0.40923548867E+02  0.33299207974E+01  0.43400731042E+02  0.00000000000E+00 0. -1.
         11    1    3    3    0    0  0.10211499420E+02  0.18790380815E+02 -0.35299598930E+01  0.21675187397E+02  0.51100000000E-03 0. -1.
        -11    1    3    3    0    0  0.42290193283E+01  0.16692462707E+02  0.59198221747E+01  0.18208987081E+02  0.51100000000E-03 0.  1.
         12    1    3    3    0    0 -0.37644286064E+00  0.54407053455E+01 -0.57197830792E+01  0.79030944798E+01  0.00000000000E+00 0. -1.
</event>
<event>
 7    1  0.1265344E-009  0.4778727E+02  0.7816164E-02  0.1312668E+00
        -11   -1    0    0    0    0  0.00000000000E+00  0.00000000000E+00  0.45593999997E+02  0.45594000000E+02  0.51100000000E-03 0.  1.
         11   -1    0    0    0    0 -0.00000000000E+00 -0.00000000000E+00 -0.45593999997E+02  0.45594000000E+02  0.51100000000E-03 0. -1.
    9900012    2    1    2    0    0 -0.34997602881E+02 -0.11932349208E+02  0.22724659428E+02  0.47787270615E+02  0.19999998042E+02 0.  0.
         12    1    1    2    0    0  0.34997602881E+02  0.11932349208E+02 -0.22724659428E+02  0.43400729385E+02  0.00000000000E+00 0. -1.
         11    1    3    3    0    0 -0.19303621393E+02 -0.13123184635E+01  0.59066849557E+01  0.20229703558E+02  0.51100000000E-03 0. -1.
        -11    1    3    3    0    0 -0.15331102113E+01 -0.53953293129E+01  0.10070126264E+01  0.56986033381E+01  0.51100000000E-03 0.  1.
        -12    1    3    3    0    0 -0.14160871277E+02 -0.52247014316E+01  0.15810961846E+02  0.21858963719E+02  0.00000000000E+00 0.  1.
</event>
<event>
 7    1  0.1265344E-009  0.4778727E+02  0.7816164E-02  0.1312668E+00
        -11   -1    0    0    0    0  0.00000000000E+00  0.00000000000E+00  0.45593999997E+02  0.45594000000E+02  0.51100000000E-03 0.  1.
         11   -1    0    0    0    0 -0.00000000000E+00 -0.00000000000E+00 -0.45593999997E+02  0.45594000000E+02  0.51100000000E-03 0. -1.
    9900012    2    1    2    0    0 -0.28150628508E+02 -0.92297452523E+01  0.31717144116E+02  0.47787270585E+02  0.19999997907E+02 0.  0.
         12    1    1    2    0    0  0.28150628508E+02  0.92297452523E+01 -0.31717144116E+02  0.43400729415E+02  0.00000000000E+00 0. -1.
         11    1    3    3    0    0  0.29108709887E+00  0.19078396864E+01 -0.12047426843E+01  0.22750800348E+01  0.51100000000E-03 0. -1.
        -11    1    3    3    0    0 -0.10198799903E+02 -0.19175261764E+01  0.15507039233E+02  0.18659064610E+02  0.51100000000E-03 0.  1.
        -12    1    3    3    0    0 -0.18242915704E+02 -0.92200587623E+01  0.17414847568E+02  0.26853125941E+02  0.00000000000E+00 0.  1.
</event>
<event>
 7    1  0.1265344E-009  0.4778727E+02  0.7816164E-02  0.1312668E+00
        -11   -1    0    0    0    0  0.00000000000E+00  0.00000000000E+00  0.45593999997E+02  0.45594000000E+02  0.51100000000E-03 0.  1.
         11   -1    0    0    0    0 -0.00000000000E+00 -0.00000000000E+00 -0.45593999997E+02  0.45594000000E+02  0.51100000000E-03 0. -1.
    9900012    2    1    2    0    0  0.38265711705E+01  0.17839489416E+02  0.39379349086E+02  0.47787272310E+02  0.20000005770E+02 0.  0.
         12    1    1    2    0    0 -0.38265711705E+01 -0.17839489416E+02 -0.39379349086E+02  0.43400727690E+02  0.00000000000E+00 0. -1.
         11    1    3    3    0    0 -0.35987211044E+01  0.37328281761E+01  0.87518061609E+01  0.10172458460E+02  0.51100000000E-03 0. -1.
        -11    1    3    3    0    0  0.62070721254E+01  0.34352417594E+01  0.25259314272E+01  0.75305351836E+01  0.51100000000E-03 0.  1.
        -12    1    3    3    0    0  0.12182201496E+01  0.10671419481E+02  0.28101611498E+02  0.30084278666E+02  0.00000000000E+00 0.  1.
</event>
<event>
 7    1  0.1265344E-009  0.4778728E+02  0.7816164E-02  0.1312668E+00
        -11   -1    0    0    0    0  0.00000000000E+00  0.00000000000E+00  0.45593999997E+02  0.45594000000E+02  0.51100000000E-03 0.  1.
         11   -1    0    0    0    0 -0.00000000000E+00 -0.00000000000E+00 -0.45593999997E+02  0.45594000000E+02  0.51100000000E-03 0. -1.
    9900012    2    1    2    0    0  0.25912767232E+02 -0.28183521040E+02 -0.20441127773E+02  0.47787284931E+02  0.20000063315E+02 0.  0.
         12    1    1    2    0    0 -0.25912767232E+02  0.28183521040E+02  0.20441127773E+02  0.43400715069E+02  0.00000000000E+00 0. -1.
         11    1    3    3    0    0  0.13024624409E+02 -0.16347307652E+02 -0.60539907122E+01  0.21760655143E+02  0.51100000000E-03 0. -1.
        -11    1    3    3    0    0  0.11662903849E+02 -0.27919414888E+01 -0.51829979046E+01  0.13064521844E+02  0.51100000000E-03 0.  1.
         12    1    3    3    0    0  0.12252389739E+01 -0.90442718998E+01 -0.92041391567E+01  0.12962107944E+02  0.00000000000E+00 0. -1.
</event>
<event>
 7    1  0.1265344E-009  0.4778727E+02  0.7816164E-02  0.1312668E+00
        -11   -1    0    0    0    0  0.00000000000E+00  0.00000000000E+00  0.45593999997E+02  0.45594000000E+02  0.51100000000E-03 0. -1.
         11   -1    0    0    0    0 -0.00000000000E+00 -0.00000000000E+00 -0.45593999997E+02  0.45594000000E+02  0.51100000000E-03 0.  1.
    9900012    2    1    2    0    0 -0.17845891132E+02  0.24493355023E+02 -0.31068043387E+02  0.47787267397E+02  0.19999983371E+02 0.  0.
         12    1    1    2    0    0  0.17845891132E+02 -0.24493355023E+02  0.31068043387E+02  0.43400732603E+02  0.00000000000E+00 0. -1.
         11    1    3    3    0    0 -0.49682853047E+01  0.18536028809E+00 -0.12353954617E+01  0.51229307543E+01  0.51100000000E-03 0. -1.
        -11    1    3    3    0    0 -0.36911713977E+01  0.10695984236E+02 -0.21392306537E+02  0.24200405044E+02  0.51100000000E-03 0.  1.
         12    1    3    3    0    0 -0.91864344294E+01  0.13612010499E+02 -0.84403413883E+01  0.18463931599E+02  0.00000000000E+00 0. -1.
</event>
<event>
 7    1  0.1265344E-009  0.4778726E+02  0.7816164E-02  0.1312668E+00
        -11   -1    0    0    0    0  0.00000000000E+00  0.00000000000E+00  0.45593999997E+02  0.45594000000E+02  0.51100000000E-03 0. -1.
         11   -1    0    0    0    0 -0.00000000000E+00 -0.00000000000E+00 -0.45593999997E+02  0.45594000000E+02  0.51100000000E-03 0.  1.
    9900012    2    1    2    0    0  0.20772576668E+02 -0.30632925596E+02 -0.22666014361E+02  0.47787259465E+02  0.19999947203E+02 0.  0.
         12    1    1    2    0    0 -0.20772576668E+02  0.30632925596E+02  0.22666014361E+02  0.43400740535E+02  0.00000000000E+00 0. -1.
         11    1    3    3    0    0  0.45564654154E+01 -0.56011084490E+01 -0.15470750310E+02  0.17072724105E+02  0.51100000000E-03 0. -1.
        -11    1    3    3    0    0  0.45983541756E+01 -0.79306671675E+01 -0.17157058811E+01  0.93265207756E+01  0.51100000000E-03 0.  1.
         12    1    3    3    0    0  0.11617757077E+02 -0.17101149980E+02 -0.54795581700E+01  0.21388014585E+02  0.00000000000E+00 0. -1.
</event>
<event>
 7    1  0.1265344E-009  0.4778727E+02  0.7816164E-02  0.1312668E+00
        -11   -1    0    0    0    0  0.00000000000E+00  0.00000000000E+00  0.45593999997E+02  0.45594000000E+02  0.51100000000E-03 0.  1.
         11   -1    0    0    0    0 -0.00000000000E+00 -0.00000000000E+00 -0.45593999997E+02  0.45594000000E+02  0.51100000000E-03 0. -1.
    9900012    2    1    2    0    0 -0.20072757218E+02 -0.36339584445E+02  0.12654751032E+02  0.47787266093E+02  0.19999977425E+02 0.  0.
         12    1    1    2    0    0  0.20072757218E+02  0.36339584445E+02 -0.12654751032E+02  0.43400733907E+02  0.00000000000E+00 0. -1.
         11    1    3    3    0    0  0.26334059917E+01 -0.46156230450E+01  0.15512812697E+01  0.55358176496E+01  0.51100000000E-03 0. -1.
        -11    1    3    3    0    0 -0.21447057537E+02 -0.32742426658E+02  0.10523861590E+02  0.40531400709E+02  0.51100000000E-03 0.  1.
         12    1    3    3    0    0 -0.12591056722E+01  0.10184652575E+01  0.57960817219E+00  0.17200477342E+01  0.00000000000E+00 0. -1.
</event>
<event>
 7    1  0.1265344E-009  0.4778725E+02  0.7816164E-02  0.1312668E+00
        -11   -1    0    0    0    0  0.00000000000E+00  0.00000000000E+00  0.45593999997E+02  0.45594000000E+02  0.51100000000E-03 0.  1.
         11   -1    0    0    0    0 -0.00000000000E+00 -0.00000000000E+00 -0.45593999997E+02  0.45594000000E+02  0.51100000000E-03 0. -1.
    9900012    2    1    2    0    0 -0.37301940264E+02 -0.16957957848E+02  0.14304471509E+02  0.47787251309E+02  0.19999910017E+02 0.  0.
         12    1    1    2    0    0  0.37301940264E+02  0.16957957848E+02 -0.14304471509E+02  0.43400748691E+02  0.00000000000E+00 0. -1.
         11    1    3    3    0    0 -0.98771455637E+01 -0.12816735268E+02  0.35983647588E+01  0.16576336647E+02  0.51100000000E-03 0. -1.
        -11    1    3    3    0    0 -0.21048740877E+02 -0.68291552822E+01  0.99074649404E+01  0.24245509196E+02  0.51100000000E-03 0.  1.
         12    1    3    3    0    0 -0.63760538235E+01  0.26879327020E+01  0.79864180948E+00  0.69654054664E+01  0.00000000000E+00 0. -1.
</event>
<event>
 7    1  0.1265344E-009  0.4778730E+02  0.7816164E-02  0.1312668E+00
        -11   -1    0    0    0    0  0.00000000000E+00  0.00000000000E+00  0.45593999997E+02  0.45594000000E+02  0.51100000000E-03 0. -1.
         11   -1    0    0    0    0 -0.00000000000E+00 -0.00000000000E+00 -0.45593999997E+02  0.45594000000E+02  0.51100000000E-03 0.  1.
    9900012    2    1    2    0    0 -0.10115178189E+02  0.29706190417E+02 -0.29980770142E+02  0.47787295429E+02  0.20000111180E+02 0.  0.
         12    1    1    2    0    0  0.10115178189E+02 -0.29706190417E+02  0.29980770142E+02  0.43400704571E+02  0.00000000000E+00 0. -1.
         11    1    3    3    0    0 -0.11859557080E+02  0.61727303951E+01 -0.11185386580E+02  0.17431711559E+02  0.51100000000E-03 0.  1.
        -11    1    3    3    0    0  0.12538730589E+01  0.74247539314E+01 -0.42518247200E+01  0.86473800831E+01  0.51100000000E-03 0. -1.
        -12    1    3    3    0    0  0.49050583158E+00  0.16108706091E+02 -0.14543558842E+02  0.21708203788E+02  0.00000000000E+00 0.  1.
</event>
<event>
 7    1  0.1265344E-009  0.4778727E+02  0.7816164E-02  0.1312668E+00
        -11   -1    0    0    0    0  0.00000000000E+00  0.00000000000E+00  0.45593999997E+02  0.45594000000E+02  0.51100000000E-03 0. -1.
         11   -1    0    0    0    0 -0.00000000000E+00 -0.00000000000E+00 -0.45593999997E+02  0.45594000000E+02  0.51100000000E-03 0.  1.
    9900012    2    1    2    0    0  0.82225982855E+00 -0.43307690842E+02 -0.27186678068E+01  0.47787270145E+02  0.19999995901E+02 0.  0.
         12    1    1    2    0    0 -0.82225982855E+00  0.43307690842E+02  0.27186678068E+01  0.43400729855E+02  0.00000000000E+00 0. -1.
         11    1    3    3    0    0  0.27086294472E+01 -0.73434552133E+01  0.19513001958E+01  0.80666337878E+01  0.51100000000E-03 0. -1.
        -11    1    3    3    0    0 -0.18734904498E+01 -0.31616352709E+02  0.20263779669E+01  0.31736570908E+02  0.51100000000E-03 0.  1.
         12    1    3    3    0    0 -0.12879168793E-01 -0.43478829194E+01 -0.66963459695E+01  0.79840654492E+01  0.00000000000E+00 0. -1.
</event>
<event>
 7    1  0.1863771E-009  0.4778727E+02  0.7816164E-02  0.1312668E+00
        -11   -1    0    0    0    0  0.00000000000E+00  0.00000000000E+00  0.45593999997E+02  0.45594000000E+02  0.51100000000E-03 0. -1.
         11   -1    0    0    0    0 -0.00000000000E+00 -0.00000000000E+00 -0.45593999997E+02  0.45594000000E+02  0.51100000000E-03 0.  1.
    9900012    2    1    2    0    0  0.28496597123E+02  0.20185219118E+02 -0.25770608163E+02  0.47787270012E+02  0.19999995291E+02 0.  0.
         12    1    1    2    0    0 -0.28496597123E+02 -0.20185219118E+02  0.25770608163E+02  0.43400729988E+02  0.00000000000E+00 0. -1.
         11    1    3    3    0    0  0.10578539677E+02  0.71981465635E+01 -0.16853064678E+01  0.12905776760E+02  0.51100000000E-03 0. -1.
        -11    1    3    3    0    0 -0.38847808378E+00  0.52771931930E+01 -0.62123830325E+01  0.81604770951E+01  0.51100000000E-03 0.  1.
        -12    1    3    3    0    0  0.18306535530E+02  0.77098793618E+01 -0.17872918663E+02  0.26721016156E+02  0.00000000000E+00 0.  1.
</event>
<event>
 7    1  0.1265344E-009  0.4778727E+02  0.7816164E-02  0.1312668E+00
        -11   -1    0    0    0    0  0.00000000000E+00  0.00000000000E+00  0.45593999997E+02  0.45594000000E+02  0.51100000000E-03 0.  1.
         11   -1    0    0    0    0 -0.00000000000E+00 -0.00000000000E+00 -0.45593999997E+02  0.45594000000E+02  0.51100000000E-03 0. -1.
    9900012    2    1    2    0    0 -0.23289254368E+01  0.17193596414E+02  0.39781654996E+02  0.47787265841E+02  0.19999976275E+02 0.  0.
         12    1    1    2    0    0  0.23289254368E+01 -0.17193596414E+02 -0.39781654996E+02  0.43400734159E+02  0.00000000000E+00 0. -1.
         11    1    3    3    0    0 -0.36952332963E+01  0.94119961235E+01  0.14531802864E+02  0.17703494426E+02  0.51100000000E-03 0.  1.
        -11    1    3    3    0    0 -0.19371861502E+01  0.10931882591E+02  0.13502803130E+02  0.17480973651E+02  0.51100000000E-03 0. -1.
        -12    1    3    3    0    0  0.33034940096E+01 -0.31502822997E+01  0.11747049002E+02  0.12602797764E+02  0.00000000000E+00 0.  1.
</event>
<event>
 7    1  0.1265344E-009  0.4778727E+02  0.7816164E-02  0.1312668E+00
        -11   -1    0    0    0    0  0.00000000000E+00  0.00000000000E+00  0.45593999997E+02  0.45594000000E+02  0.51100000000E-03 0. -1.
         11   -1    0    0    0    0 -0.00000000000E+00 -0.00000000000E+00 -0.45593999997E+02  0.45594000000E+02  0.51100000000E-03 0.  1.
    9900012    2    1    2    0    0 -0.15113781466E+02  0.34952448911E+02 -0.20821221398E+02  0.47787270334E+02  0.19999996761E+02 0.  0.
         12    1    1    2    0    0  0.15113781466E+02 -0.34952448911E+02  0.20821221398E+02  0.43400729666E+02  0.00000000000E+00 0. -1.
         11    1    3    3    0    0 -0.76429286519E+01  0.83109741984E+01 -0.27658085419E+01  0.11624816027E+02  0.51100000000E-03 0. -1.
        -11    1    3    3    0    0 -0.20297236863E+01  0.23050044597E+02 -0.18503197603E+02  0.29627565813E+02  0.51100000000E-03 0.  1.
        -12    1    3    3    0    0 -0.54411291275E+01  0.35914301153E+01  0.44778474762E+00  0.65348884945E+01  0.00000000000E+00 0.  1.
</event>
<event>
 7    1  0.1265344E-009  0.4778727E+02  0.7816164E-02  0.1312668E+00
        -11   -1    0    0    0    0  0.00000000000E+00  0.00000000000E+00  0.45593999997E+02  0.45594000000E+02  0.51100000000E-03 0.  1.
         11   -1    0    0    0    0 -0.00000000000E+00 -0.00000000000E+00 -0.45593999997E+02  0.45594000000E+02  0.51100000000E-03 0. -1.
    9900012    2    1    2    0    0  0.15581049860E+02  0.39659722576E+02  0.82438096531E+01  0.47787272965E+02  0.20000008757E+02 0.  0.
         12    1    1    2    0    0 -0.15581049860E+02 -0.39659722576E+02 -0.82438096531E+01  0.43400727035E+02  0.00000000000E+00 0. -1.
         11    1    3    3    0    0  0.15593076044E+01  0.92519138051E+01  0.43555192682E+01  0.10344075484E+02  0.51100000000E-03 0. -1.
        -11    1    3    3    0    0  0.91263673228E+01  0.29207028155E+02  0.71700558709E+01  0.31428502599E+02  0.51100000000E-03 0.  1.
         12    1    3    3    0    0  0.48953749330E+01  0.12007806161E+01 -0.32817654860E+01  0.60146948823E+01  0.00000000000E+00 0. -1.
</event>
<event>
 7    1  0.1265344E-009  0.4778726E+02  0.7816164E-02  0.1312668E+00
        -11   -1    0    0    0    0  0.00000000000E+00  0.00000000000E+00  0.45593999997E+02  0.45594000000E+02  0.51100000000E-03 0.  1.
         11   -1    0    0    0    0 -0.00000000000E+00 -0.00000000000E+00 -0.45593999997E+02  0.45594000000E+02  0.51100000000E-03 0. -1.
    9900012    2    1    2    0    0  0.21150627393E+02  0.36357087310E+02  0.10697545636E+02  0.47787258999E+02  0.19999945081E+02 0.  0.
         12    1    1    2    0    0 -0.21150627393E+02 -0.36357087310E+02 -0.10697545636E+02  0.43400741001E+02  0.00000000000E+00 0. -1.
         11    1    3    3    0    0 -0.28361580857E+01  0.17331252878E+01  0.32120945142E+01  0.46222361882E+01  0.51100000000E-03 0. -1.
        -11    1    3    3    0    0  0.10968174831E+02  0.13946884867E+02  0.58241284012E+01  0.18674499418E+02  0.51100000000E-03 0.  1.
        -12    1    3    3    0    0  0.13018610647E+02  0.20677077156E+02  0.16613227202E+01  0.24490523393E+02  0.00000000000E+00 0.  1.
</event>
<event>
 7    1  0.1265344E-009  0.4778727E+02  0.7816164E-02  0.1312668E+00
        -11   -1    0    0    0    0  0.00000000000E+00  0.00000000000E+00  0.45593999997E+02  0.45594000000E+02  0.51100000000E-03 0.  1.
         11   -1    0    0    0    0 -0.00000000000E+00 -0.00000000000E+00 -0.45593999997E+02  0.45594000000E+02  0.51100000000E-03 0. -1.
    9900012    2    1    2    0    0  0.18298836267E+02  0.12382173607E+02  0.37355827272E+02  0.47787268864E+02  0.19999990057E+02 0.  0.
         12    1    1    2    0    0 -0.18298836267E+02 -0.12382173607E+02 -0.37355827272E+02  0.43400731136E+02  0.00000000000E+00 0. -1.
         11    1    3    3    0    0  0.23454768566E+01  0.86174443010E+00  0.19923498557E+01  0.31958290562E+01  0.51100000000E-03 0. -1.
        -11    1    3    3    0    0  0.13958127152E+02 -0.97277386529E+00  0.22871384853E+02  0.26811860211E+02  0.51100000000E-03 0.  1.
         12    1    3    3    0    0  0.19952322584E+01  0.12493203043E+02  0.12492092563E+02  0.17779579597E+02  0.00000000000E+00 0. -1.
</event>
<event>
 7    1  0.1265344E-009  0.4778728E+02  0.7816164E-02  0.1312668E+00
        -11   -1    0    0    0    0  0.00000000000E+00  0.00000000000E+00  0.45593999997E+02  0.45594000000E+02  0.51100000000E-03 0. -1.
         11   -1    0    0    0    0 -0.00000000000E+00 -0.00000000000E+00 -0.45593999997E+02  0.45594000000E+02  0.51100000000E-03 0.  1.
    9900012    2    1    2    0    0 -0.40308493586E+02 -0.15166274026E+02  0.53695033650E+01  0.47787284691E+02  0.20000062220E+02 0.  0.
         12    1    1    2    0    0  0.40308493586E+02  0.15166274026E+02 -0.53695033650E+01  0.43400715309E+02  0.00000000000E+00 0. -1.
         11    1    3    3    0    0 -0.27585286002E+00 -0.34532535730E+01  0.40521850028E+01  0.53311592171E+01  0.51100000000E-03 0. -1.
        -11    1    3    3    0    0 -0.16874988243E+02 -0.49842184055E+01  0.44189182155E+01  0.18142064375E+02  0.51100000000E-03 0.  1.
         12    1    3    3    0    0 -0.23157652482E+02 -0.67288020470E+01 -0.31015998533E+01  0.24314061099E+02  0.00000000000E+00 0. -1.
</event>
<event>
 7    1  0.1265344E-009  0.4778727E+02  0.7816164E-02  0.1312668E+00
        -11   -1    0    0    0    0  0.00000000000E+00  0.00000000000E+00  0.45593999997E+02  0.45594000000E+02  0.51100000000E-03 0. -1.
         11   -1    0    0    0    0 -0.00000000000E+00 -0.00000000000E+00 -0.45593999997E+02  0.45594000000E+02  0.51100000000E-03 0.  1.
    9900012    2    1    2    0    0  0.38851799304E+02 -0.17141646569E+02 -0.89624128375E+01  0.47787271894E+02  0.20000003872E+02 0.  0.
         12    1    1    2    0    0 -0.38851799304E+02  0.17141646569E+02  0.89624128375E+01  0.43400728106E+02  0.00000000000E+00 0. -1.
         11    1    3    3    0    0 -0.10206578550E+01 -0.85551403306E+00 -0.34619791724E+00  0.13760450490E+01  0.51100000000E-03 0. -1.
        -11    1    3    3    0    0  0.37175954262E+02 -0.18375590987E+02 -0.55776036155E+01  0.41842843854E+02  0.51100000000E-03 0.  1.
        -12    1    3    3    0    0  0.26965028973E+01  0.20894584508E+01 -0.30386113047E+01  0.45683829912E+01  0.00000000000E+00 0.  1.
</event>
<event>
 7    1  0.1265344E-009  0.4778727E+02  0.7816164E-02  0.1312668E+00
        -11   -1    0    0    0    0  0.00000000000E+00  0.00000000000E+00  0.45593999997E+02  0.45594000000E+02  0.51100000000E-03 0.  1.
         11   -1    0    0    0    0 -0.00000000000E+00 -0.00000000000E+00 -0.45593999997E+02  0.45594000000E+02  0.51100000000E-03 0. -1.
    9900012    2    1    2    0    0  0.41522462064E+02 -0.46608738709E+01 -0.11738181823E+02  0.47787268282E+02  0.19999987407E+02 0.  0.
         12    1    1    2    0    0 -0.41522462064E+02  0.46608738709E+01  0.11738181823E+02  0.43400731718E+02  0.00000000000E+00 0. -1.
         11    1    3    3    0    0  0.13139377960E+00 -0.34116482584E+01 -0.28956433077E+01  0.44767575980E+01  0.51100000000E-03 0. -1.
        -11    1    3    3    0    0  0.11841398962E+02  0.36357949112E+01 -0.15398047994E+01  0.12482336844E+02  0.51100000000E-03 0.  1.
        -12    1    3    3    0    0  0.29549669323E+02 -0.48850205237E+01 -0.73027337154E+01  0.30828173840E+02  0.00000000000E+00 0.  1.
</event>
<event>
 7    1  0.1471110E-009  0.4778727E+02  0.7816164E-02  0.1312668E+00
        -11   -1    0    0    0    0  0.00000000000E+00  0.00000000000E+00  0.45593999997E+02  0.45594000000E+02  0.51100000000E-03 0. -1.
         11   -1    0    0    0    0 -0.00000000000E+00 -0.00000000000E+00 -0.45593999997E+02  0.45594000000E+02  0.51100000000E-03 0.  1.
    9900012    2    1    2    0    0 -0.70312408060E+01 -0.25193356821E+02 -0.34633512387E+02  0.47787265497E+02  0.19999974705E+02 0.  0.
         12    1    1    2    0    0  0.70312408060E+01  0.25193356821E+02  0.34633512387E+02  0.43400734503E+02  0.00000000000E+00 0. -1.
         11    1    3    3    0    0 -0.41594138934E+00 -0.42023676970E+01  0.86441780882E+00  0.43104663216E+01  0.51100000000E-03 0. -1.
        -11    1    3    3    0    0 -0.64421881101E+01 -0.20459813262E+02 -0.24903986527E+02  0.32868134896E+02  0.51100000000E-03 0.  1.
         12    1    3    3    0    0 -0.17311130658E+00 -0.53117586184E+00 -0.10593943669E+02  0.10608664279E+02  0.00000000000E+00 0. -1.
</event>
<event>
 7    1  0.1265344E-009  0.4778727E+02  0.7816164E-02  0.1312668E+00
        -11   -1    0    0    0    0  0.00000000000E+00  0.00000000000E+00  0.45593999997E+02  0.45594000000E+02  0.51100000000E-03 0.  1.
         11   -1    0    0    0    0 -0.00000000000E+00 -0.00000000000E+00 -0.45593999997E+02  0.45594000000E+02  0.51100000000E-03 0. -1.
    9900012    2    1    2    0    0  0.37190432149E+02  0.10586406621E+02  0.19708449978E+02  0.47787271330E+02  0.20000001301E+02 0.  0.
         12    1    1    2    0    0 -0.37190432149E+02 -0.10586406621E+02 -0.19708449978E+02  0.43400728670E+02  0.00000000000E+00 0. -1.
         11    1    3    3    0    0  0.20593339939E+02  0.89678624713E+01  0.69069584833E+01  0.23499240050E+02  0.51100000000E-03 0. -1.
        -11    1    3    3    0    0  0.16394679552E+02  0.12865956707E+01  0.14877377531E+02  0.22176050335E+02  0.51100000000E-03 0.  1.
        -12    1    3    3    0    0  0.20241265754E+00  0.33194847916E+00 -0.20758860358E+01  0.21119809446E+01  0.00000000000E+00 0.  1.
</event>
<event>
 7    1  0.1265344E-009  0.4778727E+02  0.7816164E-02  0.1312668E+00
        -11   -1    0    0    0    0  0.00000000000E+00  0.00000000000E+00  0.45593999997E+02  0.45594000000E+02  0.51100000000E-03 0.  1.
         11   -1    0    0    0    0 -0.00000000000E+00 -0.00000000000E+00 -0.45593999997E+02  0.45594000000E+02  0.51100000000E-03 0. -1.
    9900012    2    1    2    0    0 -0.11927902475E+02 -0.13614302888E+02  0.39446155032E+02  0.47787271349E+02  0.20000001391E+02 0.  0.
         12    1    1    2    0    0  0.11927902475E+02  0.13614302888E+02 -0.39446155032E+02  0.43400728651E+02  0.00000000000E+00 0. -1.
         11    1    3    3    0    0 -0.67207518349E+01 -0.15400614544E+02  0.15915608370E+02  0.23144200647E+02  0.51100000000E-03 0. -1.
        -11    1    3    3    0    0  0.12097260382E+00 -0.11883767650E+01  0.46440546923E+01  0.47952182383E+01  0.51100000000E-03 0.  1.
         12    1    3    3    0    0 -0.53281232435E+01  0.29746884207E+01  0.18886491970E+02  0.19847852464E+02  0.00000000000E+00 0. -1.
</event>
<event>
 7    1  0.1265344E-009  0.4778728E+02  0.7816164E-02  0.1312668E+00
        -11   -1    0    0    0    0  0.00000000000E+00  0.00000000000E+00  0.45593999997E+02  0.45594000000E+02  0.51100000000E-03 0.  1.
         11   -1    0    0    0    0 -0.00000000000E+00 -0.00000000000E+00 -0.45593999997E+02  0.45594000000E+02  0.51100000000E-03 0. -1.
    9900012    2    1    2    0    0 -0.29605261872E+02 -0.28126765107E+02  0.14698165471E+02  0.47787279798E+02  0.20000039910E+02 0.  0.
         12    1    1    2    0    0  0.29605261872E+02  0.28126765107E+02 -0.14698165471E+02  0.43400720202E+02  0.00000000000E+00 0. -1.
         11    1    3    3    0    0 -0.47238193727E+01 -0.11911998417E+02 -0.28630694127E+00  0.12817649850E+02  0.51100000000E-03 0. -1.
        -11    1    3    3    0    0 -0.20866420088E+02 -0.17000751002E+02  0.10477587316E+02  0.28882743258E+02  0.51100000000E-03 0.  1.
        -12    1    3    3    0    0 -0.40150224113E+01  0.78598431185E+00  0.45068850960E+01  0.60868866895E+01  0.00000000000E+00 0.  1.
</event>
<event>
 7    1  0.1265344E-009  0.4778727E+02  0.7816164E-02  0.1312668E+00
        -11   -1    0    0    0    0  0.00000000000E+00  0.00000000000E+00  0.45593999997E+02  0.45594000000E+02  0.51100000000E-03 0.  1.
         11   -1    0    0    0    0 -0.00000000000E+00 -0.00000000000E+00 -0.45593999997E+02  0.45594000000E+02  0.51100000000E-03 0. -1.
    9900012    2    1    2    0    0  0.27394665190E+02  0.33527405241E+02  0.30113867152E+01  0.47787273819E+02  0.20000012652E+02 0.  0.
         12    1    1    2    0    0 -0.27394665190E+02 -0.33527405241E+02 -0.30113867152E+01  0.43400726181E+02  0.00000000000E+00 0. -1.
         11    1    3    3    0    0  0.19009109634E+01  0.50835536406E+01 -0.30486204739E+01  0.62249551936E+01  0.51100000000E-03 0. -1.
        -11    1    3    3    0    0  0.99825540403E+01  0.35781688974E+01  0.61429301793E+01  0.12255213963E+02  0.51100000000E-03 0.  1.
        -12    1    3    3    0    0  0.15511200186E+02  0.24865682703E+02 -0.82922990140E-01  0.29307104663E+02  0.00000000000E+00 0.  1.
</event>
<event>
 7    1  0.1265344E-009  0.4778727E+02  0.7816164E-02  0.1312668E+00
        -11   -1    0    0    0    0  0.00000000000E+00  0.00000000000E+00  0.45593999997E+02  0.45594000000E+02  0.51100000000E-03 0.  1.
         11   -1    0    0    0    0 -0.00000000000E+00 -0.00000000000E+00 -0.45593999997E+02  0.45594000000E+02  0.51100000000E-03 0. -1.
    9900012    2    1    2    0    0  0.79536520389E+01  0.34124514997E+02  0.25610161077E+02  0.47787268958E+02  0.19999990489E+02 0.  0.
         12    1    1    2    0    0 -0.79536520389E+01 -0.34124514997E+02 -0.25610161077E+02  0.43400731042E+02  0.00000000000E+00 0. -1.
         11    1    3    3    0    0  0.19135774723E+01  0.15901582322E+02  0.25489854833E+01  0.16217873669E+02  0.51100000000E-03 0. -1.
        -11    1    3    3    0    0  0.79046813126E+01  0.11981458216E+02  0.11895511036E+02  0.18642492073E+02  0.51100000000E-03 0.  1.
        -12    1    3    3    0    0 -0.18646067460E+01  0.62414744592E+01  0.11165664558E+02  0.12926903216E+02  0.00000000000E+00 0.  1.
</event>
<event>
 7    1  0.1823792E-009  0.4778728E+02  0.7816164E-02  0.1312668E+00
        -11   -1    0    0    0    0  0.00000000000E+00  0.00000000000E+00  0.45593999997E+02  0.45594000000E+02  0.51100000000E-03 0. -1.
         11   -1    0    0    0    0 -0.00000000000E+00 -0.00000000000E+00 -0.45593999997E+02  0.45594000000E+02  0.51100000000E-03 0.  1.
    9900012    2    1    2    0    0 -0.23911504208E+02  0.94424228660E+01 -0.34967177693E+02  0.47787275365E+02  0.20000019699E+02 0.  0.
         12    1    1    2    0    0  0.23911504208E+02 -0.94424228660E+01  0.34967177693E+02  0.43400724635E+02  0.00000000000E+00 0. -1.
         11    1    3    3    0    0 -0.14934777725E+01  0.10902397883E+01  0.10480395659E+01  0.21254378010E+01  0.51100000000E-03 0. -1.
        -11    1    3    3    0    0 -0.15853482551E+02 -0.13686336706E+01 -0.24575042107E+02  0.29276932250E+02  0.51100000000E-03 0.  1.
        -12    1    3    3    0    0 -0.65645438848E+01  0.97208167482E+01 -0.11440175151E+02  0.16384905314E+02  0.00000000000E+00 0.  1.
</event>
<event>
 7    1  0.1761875E-009  0.4778728E+02  0.7816164E-02  0.1312668E+00
        -11   -1    0    0    0    0  0.00000000000E+00  0.00000000000E+00  0.45593999997E+02  0.45594000000E+02  0.51100000000E-03 0.  1.
         11   -1    0    0    0    0 -0.00000000000E+00 -0.00000000000E+00 -0.45593999997E+02  0.45594000000E+02  0.51100000000E-03 0. -1.
    9900012    2    1    2    0    0 -0.43002746573E+02  0.11193798368E+00 -0.58629382732E+01  0.47787276640E+02  0.20000025513E+02 0.  0.
         12    1    1    2    0    0  0.43002746573E+02 -0.11193798368E+00  0.58629382732E+01  0.43400723360E+02  0.00000000000E+00 0. -1.
         11    1    3    3    0    0  0.70110048913E+00  0.95040766565E+00  0.23606827678E-01  0.11812595694E+01  0.51100000000E-03 0. -1.
        -11    1    3    3    0    0 -0.30933455131E+02 -0.62140387874E+01  0.80131330515E-03  0.31551433015E+02  0.51100000000E-03 0.  1.
        -12    1    3    3    0    0 -0.12770391931E+02  0.53755691054E+01 -0.58873464142E+01  0.15054584055E+02  0.00000000000E+00 0.  1.
</event>
<event>
 7    1  0.1265344E-009  0.4778727E+02  0.7816164E-02  0.1312668E+00
        -11   -1    0    0    0    0  0.00000000000E+00  0.00000000000E+00  0.45593999997E+02  0.45594000000E+02  0.51100000000E-03 0.  1.
         11   -1    0    0    0    0 -0.00000000000E+00 -0.00000000000E+00 -0.45593999997E+02  0.45594000000E+02  0.51100000000E-03 0. -1.
    9900012    2    1    2    0    0  0.16507738512E+02 -0.12846848352E+02  0.38027311503E+02  0.47787270012E+02  0.19999995291E+02 0.  0.
         12    1    1    2    0    0 -0.16507738512E+02  0.12846848352E+02 -0.38027311503E+02  0.43400729988E+02  0.00000000000E+00 0. -1.
         11    1    3    3    0    0  0.13750530701E+02 -0.85816534275E+01  0.16244457687E+02  0.22947859942E+02  0.51100000000E-03 0. -1.
        -11    1    3    3    0    0  0.51589518928E+01 -0.10282997966E+01  0.19521341618E+02  0.20217689382E+02  0.51100000000E-03 0.  1.
         12    1    3    3    0    0 -0.24017440811E+01 -0.32368951275E+01  0.22615121982E+01  0.46217206882E+01  0.00000000000E+00 0. -1.
</event>
<event>
 7    1  0.1265344E-009  0.4778727E+02  0.7816164E-02  0.1312668E+00
        -11   -1    0    0    0    0  0.00000000000E+00  0.00000000000E+00  0.45593999997E+02  0.45594000000E+02  0.51100000000E-03 0. -1.
         11   -1    0    0    0    0 -0.00000000000E+00 -0.00000000000E+00 -0.45593999997E+02  0.45594000000E+02  0.51100000000E-03 0.  1.
    9900012    2    1    2    0    0  0.36034349449E+02 -0.18873806818E+02 -0.15130387986E+02  0.47787267694E+02  0.19999984726E+02 0.  0.
         12    1    1    2    0    0 -0.36034349449E+02  0.18873806818E+02  0.15130387986E+02  0.43400732306E+02  0.00000000000E+00 0. -1.
         11    1    3    3    0    0  0.46058792447E+01 -0.68714945227E+01  0.34517119332E-01  0.82724090980E+01  0.51100000000E-03 0. -1.
        -11    1    3    3    0    0  0.28521257619E+02 -0.14089474385E+02 -0.16320854892E+02  0.35753961029E+02  0.51100000000E-03 0.  1.
         12    1    3    3    0    0  0.29072125860E+01  0.20871620892E+01  0.11559497863E+01  0.37608975678E+01  0.00000000000E+00 0. -1.
</event>
<event>
 7    1  0.1265344E-009  0.4778727E+02  0.7816164E-02  0.1312668E+00
        -11   -1    0    0    0    0  0.00000000000E+00  0.00000000000E+00  0.45593999997E+02  0.45594000000E+02  0.51100000000E-03 0.  1.
         11   -1    0    0    0    0 -0.00000000000E+00 -0.00000000000E+00 -0.45593999997E+02  0.45594000000E+02  0.51100000000E-03 0. -1.
    9900012    2    1    2    0    0 -0.39573093567E+02 -0.98225940032E+01  0.14869781942E+02  0.47787268412E+02  0.19999987996E+02 0.  0.
         12    1    1    2    0    0  0.39573093567E+02  0.98225940032E+01 -0.14869781942E+02  0.43400731588E+02  0.00000000000E+00 0. -1.
         11    1    3    3    0    0 -0.10777200458E+01 -0.57363815754E+01  0.97632419512E+00  0.59178343396E+01  0.51100000000E-03 0. -1.
        -11    1    3    3    0    0 -0.13101916299E+02  0.21731423301E+01  0.35719250937E+01  0.13752869062E+02  0.51100000000E-03 0.  1.
        -12    1    3    3    0    0 -0.25393457222E+02 -0.62593547579E+01  0.10321532654E+02  0.28116565010E+02  0.00000000000E+00 0.  1.
</event>
<event>
 7    1  0.1265344E-009  0.4778727E+02  0.7816164E-02  0.1312668E+00
        -11   -1    0    0    0    0  0.00000000000E+00  0.00000000000E+00  0.45593999997E+02  0.45594000000E+02  0.51100000000E-03 0.  1.
         11   -1    0    0    0    0 -0.00000000000E+00 -0.00000000000E+00 -0.45593999997E+02  0.45594000000E+02  0.51100000000E-03 0. -1.
    9900012    2    1    2    0    0  0.17036542784E+02 -0.31457742818E+02  0.24572140542E+02  0.47787268854E+02  0.19999990012E+02 0.  0.
         12    1    1    2    0    0 -0.17036542784E+02  0.31457742818E+02 -0.24572140542E+02  0.43400731146E+02  0.00000000000E+00 0. -1.
         11    1    3    3    0    0  0.43032701169E+01 -0.61455853498E+01  0.66377134120E+01  0.10017264726E+02  0.51100000000E-03 0. -1.
        -11    1    3    3    0    0  0.71709385428E+01 -0.23541575863E+02  0.19859721108E+02  0.31623356502E+02  0.51100000000E-03 0.  1.
         12    1    3    3    0    0  0.55623341242E+01 -0.17705816056E+01 -0.19252939788E+01  0.61466476259E+01  0.00000000000E+00 0. -1.
</event>
<event>
 7    1  0.1265344E-009  0.4778727E+02  0.7816164E-02  0.1312668E+00
        -11   -1    0    0    0    0  0.00000000000E+00  0.00000000000E+00  0.45593999997E+02  0.45594000000E+02  0.51100000000E-03 0.  1.
         11   -1    0    0    0    0 -0.00000000000E+00 -0.00000000000E+00 -0.45593999997E+02  0.45594000000E+02  0.51100000000E-03 0. -1.
    9900012    2    1    2    0    0 -0.22516223460E+02  0.14166715878E+02  0.34292086282E+02  0.47787270292E+02  0.19999996569E+02 0.  0.
         12    1    1    2    0    0  0.22516223460E+02 -0.14166715878E+02 -0.34292086282E+02  0.43400729708E+02  0.00000000000E+00 0. -1.
         11    1    3    3    0    0  0.31056077365E+00 -0.57541105253E+00  0.78785704353E+00  0.10238480628E+01  0.51100000000E-03 0. -1.
        -11    1    3    3    0    0 -0.30643625330E+01  0.85972154723E+01  0.20183824839E+02  0.22151505976E+02  0.51100000000E-03 0.  1.
         12    1    3    3    0    0 -0.19762421701E+02  0.61449114577E+01  0.13320404399E+02  0.24611916253E+02  0.00000000000E+00 0. -1.
</event>
<event>
 7    1  0.1265344E-009  0.4778727E+02  0.7816164E-02  0.1312668E+00
        -11   -1    0    0    0    0  0.00000000000E+00  0.00000000000E+00  0.45593999997E+02  0.45594000000E+02  0.51100000000E-03 0.  1.
         11   -1    0    0    0    0 -0.00000000000E+00 -0.00000000000E+00 -0.45593999997E+02  0.45594000000E+02  0.51100000000E-03 0. -1.
    9900012    2    1    2    0    0 -0.58857360309E+01  0.12129855798E+02  0.41253462055E+02  0.47787269340E+02  0.19999992228E+02 0.  0.
         12    1    1    2    0    0  0.58857360309E+01 -0.12129855798E+02 -0.41253462055E+02  0.43400730660E+02  0.00000000000E+00 0. -1.
         11    1    3    3    0    0  0.20183411116E+01 -0.10720293040E+01 -0.29298094385E+00  0.23040802430E+01  0.51100000000E-03 0. -1.
        -11    1    3    3    0    0 -0.75002375228E+00  0.54994076447E+01  0.26828121010E+02  0.27396242393E+02  0.51100000000E-03 0.  1.
        -12    1    3    3    0    0 -0.71540533902E+01  0.77024774575E+01  0.14718321989E+02  0.18086946703E+02  0.00000000000E+00 0.  1.
</event>
<event>
 7    1  0.1265344E-009  0.4778727E+02  0.7816164E-02  0.1312668E+00
        -11   -1    0    0    0    0  0.00000000000E+00  0.00000000000E+00  0.45593999997E+02  0.45594000000E+02  0.51100000000E-03 0.  1.
         11   -1    0    0    0    0 -0.00000000000E+00 -0.00000000000E+00 -0.45593999997E+02  0.45594000000E+02  0.51100000000E-03 0. -1.
    9900012    2    1    2    0    0  0.20281157358E+02  0.94418287481E+01  0.37190719271E+02  0.47787273350E+02  0.20000010512E+02 0.  0.
         12    1    1    2    0    0 -0.20281157358E+02 -0.94418287481E+01 -0.37190719271E+02  0.43400726650E+02  0.00000000000E+00 0. -1.
         11    1    3    3    0    0  0.13073714770E+02  0.14660072586E+02  0.18801254595E+02  0.27190566760E+02  0.51100000000E-03 0. -1.
        -11    1    3    3    0    0  0.89810439149E+00 -0.19913482752E+01  0.40440482564E+01  0.45963448535E+01  0.51100000000E-03 0.  1.
         12    1    3    3    0    0  0.63093381964E+01 -0.32268955631E+01  0.14345416420E+02  0.16000361737E+02  0.00000000000E+00 0. -1.
</event>
<event>
 7    1  0.1265344E-009  0.4778728E+02  0.7816164E-02  0.1312668E+00
        -11   -1    0    0    0    0  0.00000000000E+00  0.00000000000E+00  0.45593999997E+02  0.45594000000E+02  0.51100000000E-03 0.  1.
         11   -1    0    0    0    0 -0.00000000000E+00 -0.00000000000E+00 -0.45593999997E+02  0.45594000000E+02  0.51100000000E-03 0. -1.
    9900012    2    1    2    0    0 -0.19039515870E+02  0.65534485968E+01  0.38447001142E+02  0.47787277081E+02  0.20000027522E+02 0.  0.
         12    1    1    2    0    0  0.19039515870E+02 -0.65534485968E+01 -0.38447001142E+02  0.43400722919E+02  0.00000000000E+00 0. -1.
         11    1    3    3    0    0  0.23754688326E+00  0.49462002641E+01  0.10961442547E+02  0.12028073352E+02  0.51100000000E-03 0. -1.
        -11    1    3    3    0    0 -0.65548863905E+01  0.11496998564E+01  0.14985973096E+01  0.68215936195E+01  0.51100000000E-03 0.  1.
        -12    1    3    3    0    0 -0.12722176363E+02  0.45754847631E+00  0.25986961285E+02  0.28937610110E+02  0.00000000000E+00 0.  1.
</event>
<event>
 7    1  0.1265344E-009  0.4778727E+02  0.7816164E-02  0.1312668E+00
        -11   -1    0    0    0    0  0.00000000000E+00  0.00000000000E+00  0.45593999997E+02  0.45594000000E+02  0.51100000000E-03 0.  1.
         11   -1    0    0    0    0 -0.00000000000E+00 -0.00000000000E+00 -0.45593999997E+02  0.45594000000E+02  0.51100000000E-03 0. -1.
    9900012    2    1    2    0    0  0.16745018363E+02 -0.97193749779E+01  0.38842777639E+02  0.47787271151E+02  0.20000000486E+02 0.  0.
         12    1    1    2    0    0 -0.16745018363E+02  0.97193749779E+01 -0.38842777639E+02  0.43400728849E+02  0.00000000000E+00 0. -1.
         11    1    3    3    0    0 -0.21008408813E+00 -0.28226034282E+00 -0.21163632464E+01  0.21454136844E+01  0.51100000000E-03 0. -1.
        -11    1    3    3    0    0  0.56751857919E+01 -0.53287161537E+01  0.12130927674E+02  0.14413963928E+02  0.51100000000E-03 0.  1.
        -12    1    3    3    0    0  0.11279916659E+02 -0.41083984814E+01  0.28828213211E+02  0.31227893539E+02  0.00000000000E+00 0.  1.
</event>
<event>
 7    1  0.1265344E-009  0.4778727E+02  0.7816164E-02  0.1312668E+00
        -11   -1    0    0    0    0  0.00000000000E+00  0.00000000000E+00  0.45593999997E+02  0.45594000000E+02  0.51100000000E-03 0. -1.
         11   -1    0    0    0    0 -0.00000000000E+00 -0.00000000000E+00 -0.45593999997E+02  0.45594000000E+02  0.51100000000E-03 0.  1.
    9900012    2    1    2    0    0 -0.36288756848E+02  0.23453017910E+02  0.40872134600E+01  0.47787271475E+02  0.20000001961E+02 0.  0.
         12    1    1    2    0    0  0.36288756848E+02 -0.23453017910E+02 -0.40872134600E+01  0.43400728525E+02  0.00000000000E+00 0. -1.
         11    1    3    3    0    0 -0.71539389936E+01 -0.36524910337E+00  0.20255762441E+01  0.74441392661E+01  0.51100000000E-03 0. -1.
        -11    1    3    3    0    0 -0.13735394749E+02  0.17273850949E+02  0.65474509293E+01  0.23019906808E+02  0.51100000000E-03 0.  1.
        -12    1    3    3    0    0 -0.15399423105E+02  0.65444160648E+01 -0.44858137134E+01  0.17323225400E+02  0.00000000000E+00 0.  1.
</event>
<event>
 7    1  0.1265344E-009  0.4778727E+02  0.7816164E-02  0.1312668E+00
        -11   -1    0    0    0    0  0.00000000000E+00  0.00000000000E+00  0.45593999997E+02  0.45594000000E+02  0.51100000000E-03 0.  1.
         11   -1    0    0    0    0 -0.00000000000E+00 -0.00000000000E+00 -0.45593999997E+02  0.45594000000E+02  0.51100000000E-03 0. -1.
    9900012    2    1    2    0    0 -0.27137833582E+02 -0.20695418200E+01  0.33806482429E+02  0.47787271100E+02  0.20000000251E+02 0.  0.
         12    1    1    2    0    0  0.27137833582E+02  0.20695418200E+01 -0.33806482429E+02  0.43400728900E+02  0.00000000000E+00 0. -1.
         11    1    3    3    0    0 -0.27123210506E+02 -0.14758065994E+01  0.22114036488E+02  0.35026806353E+02  0.51100000000E-03 0.  1.
        -11    1    3    3    0    0 -0.95038324302E+00 -0.22547337775E+01  0.96959650884E+01  0.99999395984E+01  0.51100000000E-03 0. -1.
        -12    1    3    3    0    0  0.93576016680E+00  0.16609985570E+01  0.19964808529E+01  0.27605251479E+01  0.00000000000E+00 0.  1.
</event>
<event>
 7    1  0.1265344E-009  0.4778728E+02  0.7816164E-02  0.1312668E+00
        -11   -1    0    0    0    0  0.00000000000E+00  0.00000000000E+00  0.45593999997E+02  0.45594000000E+02  0.51100000000E-03 0. -1.
         11   -1    0    0    0    0 -0.00000000000E+00 -0.00000000000E+00 -0.45593999997E+02  0.45594000000E+02  0.51100000000E-03 0.  1.
    9900012    2    1    2    0    0  0.11713828329E+02 -0.41668205155E+02  0.31890160205E+01  0.47787275143E+02  0.20000018686E+02 0.  0.
         12    1    1    2    0    0 -0.11713828329E+02  0.41668205155E+02 -0.31890160205E+01  0.43400724857E+02  0.00000000000E+00 0. -1.
         11    1    3    3    0    0  0.13769910568E+02 -0.29009339176E+02  0.28637859532E+01  0.32239005362E+02  0.51100000000E-03 0. -1.
        -11    1    3    3    0    0  0.12355620116E+01  0.10821246532E+00 -0.18076919814E+01  0.21922759824E+01  0.51100000000E-03 0.  1.
         12    1    3    3    0    0 -0.32916442507E+01 -0.12767078445E+02  0.21329220486E+01  0.13355993799E+02  0.00000000000E+00 0. -1.
</event>
<event>
 7    1  0.1265344E-009  0.4778727E+02  0.7816164E-02  0.1312668E+00
        -11   -1    0    0    0    0  0.00000000000E+00  0.00000000000E+00  0.45593999997E+02  0.45594000000E+02  0.51100000000E-03 0.  1.
         11   -1    0    0    0    0 -0.00000000000E+00 -0.00000000000E+00 -0.45593999997E+02  0.45594000000E+02  0.51100000000E-03 0. -1.
    9900012    2    1    2    0    0  0.43652729517E+01 -0.41734876638E+02 -0.11080059848E+02  0.47787271180E+02  0.20000000617E+02 0.  0.
         12    1    1    2    0    0 -0.43652729517E+01  0.41734876638E+02  0.11080059848E+02  0.43400728820E+02  0.00000000000E+00 0. -1.
         11    1    3    3    0    0  0.26427734509E+01 -0.72826767854E+01  0.22129929524E+01  0.80572309600E+01  0.51100000000E-03 0. -1.
        -11    1    3    3    0    0  0.35315441750E+01 -0.24800657092E+02 -0.15771973349E+02  0.29602357001E+02  0.51100000000E-03 0.  1.
         12    1    3    3    0    0 -0.18090446743E+01 -0.96515427603E+01  0.24789205489E+01  0.10127683218E+02  0.00000000000E+00 0. -1.
</event>
<event>
 7    1  0.1265344E-009  0.4778727E+02  0.7816164E-02  0.1312668E+00
        -11   -1    0    0    0    0  0.00000000000E+00  0.00000000000E+00  0.45593999997E+02  0.45594000000E+02  0.51100000000E-03 0.  1.
         11   -1    0    0    0    0 -0.00000000000E+00 -0.00000000000E+00 -0.45593999997E+02  0.45594000000E+02  0.51100000000E-03 0. -1.
    9900012    2    1    2    0    0 -0.57861155327E+01  0.29029954787E+02  0.31739657843E+02  0.47787270883E+02  0.19999999266E+02 0.  0.
         12    1    1    2    0    0  0.57861155327E+01 -0.29029954787E+02 -0.31739657843E+02  0.43400729117E+02  0.00000000000E+00 0. -1.
         11    1    3    3    0    0 -0.54545417700E+01  0.44355346022E+01  0.60613534865E+01  0.92825642727E+01  0.51100000000E-03 0. -1.
        -11    1    3    3    0    0 -0.10588591428E+01 -0.36716315820E+00  0.75836091453E+01  0.76659715235E+01  0.51100000000E-03 0.  1.
        -12    1    3    3    0    0  0.72728538015E+00  0.24961583343E+02  0.18094695211E+02  0.30838735087E+02  0.00000000000E+00 0.  1.
</event>
<event>
 7    1  0.1265344E-009  0.4778722E+02  0.7816164E-02  0.1312668E+00
        -11   -1    0    0    0    0  0.00000000000E+00  0.00000000000E+00  0.45593999997E+02  0.45594000000E+02  0.51100000000E-03 0. -1.
         11   -1    0    0    0    0 -0.00000000000E+00 -0.00000000000E+00 -0.45593999997E+02  0.45594000000E+02  0.51100000000E-03 0.  1.
    9900012    2    1    2    0    0 -0.23081753793E+02  0.27252201387E+02 -0.24661256103E+02  0.47787223611E+02  0.19999783730E+02 0.  0.
         12    1    1    2    0    0  0.23081753793E+02 -0.27252201387E+02  0.24661256103E+02  0.43400776389E+02  0.00000000000E+00 0. -1.
         11    1    3    3    0    0  0.18297478777E+01 -0.46265860434E+00  0.15795212088E+00  0.18939322622E+01  0.51100000000E-03 0. -1.
        -11    1    3    3    0    0 -0.11854188645E+02  0.17090810007E+02 -0.85672434533E+01  0.22494782413E+02  0.51100000000E-03 0.  1.
        -12    1    3    3    0    0 -0.13057313026E+02  0.10624049984E+02 -0.16251964770E+02  0.23398508936E+02  0.00000000000E+00 0.  1.
</event>
<event>
 7    1  0.1265344E-009  0.4778727E+02  0.7816164E-02  0.1312668E+00
        -11   -1    0    0    0    0  0.00000000000E+00  0.00000000000E+00  0.45593999997E+02  0.45594000000E+02  0.51100000000E-03 0.  1.
         11   -1    0    0    0    0 -0.00000000000E+00 -0.00000000000E+00 -0.45593999997E+02  0.45594000000E+02  0.51100000000E-03 0. -1.
    9900012    2    1    2    0    0  0.13698113588E+02 -0.37924906449E+02  0.16052612643E+02  0.47787271692E+02  0.20000002951E+02 0.  0.
         12    1    1    2    0    0 -0.13698113588E+02  0.37924906449E+02 -0.16052612643E+02  0.43400728308E+02  0.00000000000E+00 0. -1.
         11    1    3    3    0    0  0.51374717569E+01 -0.14582246157E+02  0.43802473533E+01  0.16069290158E+02  0.51100000000E-03 0. -1.
        -11    1    3    3    0    0  0.94739079923E+01 -0.25098673094E+02  0.88077056401E+01  0.28236040846E+02  0.51100000000E-03 0.  1.
         12    1    3    3    0    0 -0.91326616149E+00  0.17560128025E+01  0.28646596501E+01  0.34819406881E+01  0.00000000000E+00 0. -1.
</event>
<event>
 7    1  0.1265344E-009  0.4778727E+02  0.7816164E-02  0.1312668E+00
        -11   -1    0    0    0    0  0.00000000000E+00  0.00000000000E+00  0.45593999997E+02  0.45594000000E+02  0.51100000000E-03 0. -1.
         11   -1    0    0    0    0 -0.00000000000E+00 -0.00000000000E+00 -0.45593999997E+02  0.45594000000E+02  0.51100000000E-03 0.  1.
    9900012    2    1    2    0    0  0.29603620112E+02 -0.15698378005E+02 -0.27582778441E+02  0.47787273483E+02  0.20000011119E+02 0.  0.
         12    1    1    2    0    0 -0.29603620112E+02  0.15698378005E+02  0.27582778441E+02  0.43400726517E+02  0.00000000000E+00 0. -1.
         11    1    3    3    0    0  0.83452377985E+00  0.30231127222E+01  0.51487981286E-02  0.31361867358E+01  0.51100000000E-03 0. -1.
        -11    1    3    3    0    0  0.11259833119E+02 -0.38534461939E+01 -0.11934776826E+02  0.16854429316E+02  0.51100000000E-03 0.  1.
         12    1    3    3    0    0  0.17509263213E+02 -0.14868044533E+02 -0.15653150413E+02  0.27796657431E+02  0.00000000000E+00 0. -1.
</event>
<event>
 7    1  0.1265344E-009  0.4778727E+02  0.7816164E-02  0.1312668E+00
        -11   -1    0    0    0    0  0.00000000000E+00  0.00000000000E+00  0.45593999997E+02  0.45594000000E+02  0.51100000000E-03 0. -1.
         11   -1    0    0    0    0 -0.00000000000E+00 -0.00000000000E+00 -0.45593999997E+02  0.45594000000E+02  0.51100000000E-03 0.  1.
    9900012    2    1    2    0    0  0.45493856629E+00  0.25461612228E+02 -0.35144309014E+02  0.47787272789E+02  0.20000007955E+02 0.  0.
         12    1    1    2    0    0 -0.45493856629E+00 -0.25461612228E+02  0.35144309014E+02  0.43400727211E+02  0.00000000000E+00 0. -1.
         11    1    3    3    0    0 -0.44127871791E+01  0.14388129099E+02 -0.25971543835E+02  0.30016862579E+02  0.51100000000E-03 0. -1.
        -11    1    3    3    0    0 -0.11288203423E+01  0.72044261830E+01 -0.18034882537E+01  0.75120278310E+01  0.51100000000E-03 0.  1.
        -12    1    3    3    0    0  0.59965460878E+01  0.38690569462E+01 -0.73692769252E+01  0.10258382379E+02  0.00000000000E+00 0.  1.
</event>
<event>
 7    1  0.1265344E-009  0.4778727E+02  0.7816164E-02  0.1312668E+00
        -11   -1    0    0    0    0  0.00000000000E+00  0.00000000000E+00  0.45593999997E+02  0.45594000000E+02  0.51100000000E-03 0.  1.
         11   -1    0    0    0    0 -0.00000000000E+00 -0.00000000000E+00 -0.45593999997E+02  0.45594000000E+02  0.51100000000E-03 0. -1.
    9900012    2    1    2    0    0 -0.21701809489E+02  0.19114961107E+02  0.32361597407E+02  0.47787271205E+02  0.20000000732E+02 0.  0.
         12    1    1    2    0    0  0.21701809489E+02 -0.19114961107E+02 -0.32361597407E+02  0.43400728795E+02  0.00000000000E+00 0. -1.
         11    1    3    3    0    0 -0.12582820014E+02  0.12247567551E+02  0.83461734933E+01  0.19441936186E+02  0.51100000000E-03 0.  1.
        -11    1    3    3    0    0 -0.11108207021E+02  0.68818754871E+01  0.20930221907E+02  0.24674413119E+02  0.51100000000E-03 0. -1.
         12    1    3    3    0    0  0.19892175465E+01 -0.14481930781E-01  0.30852020069E+01  0.36709219002E+01  0.00000000000E+00 0. -1.
</event>
<event>
 7    1  0.1265344E-009  0.4778726E+02  0.7816164E-02  0.1312668E+00
        -11   -1    0    0    0    0  0.00000000000E+00  0.00000000000E+00  0.45593999997E+02  0.45594000000E+02  0.51100000000E-03 0.  1.
         11   -1    0    0    0    0 -0.00000000000E+00 -0.00000000000E+00 -0.45593999997E+02  0.45594000000E+02  0.51100000000E-03 0. -1.
    9900012    2    1    2    0    0  0.13206437355E+02 -0.94371537214E+01  0.40251137284E+02  0.47787263709E+02  0.19999966554E+02 0.  0.
         12    1    1    2    0    0 -0.13206437355E+02  0.94371537214E+01 -0.40251137284E+02  0.43400736291E+02  0.00000000000E+00 0. -1.
         11    1    3    3    0    0 -0.26738475781E+01  0.78580871300E+00 -0.45958329043E+00  0.28245660315E+01  0.51100000000E-03 0. -1.
        -11    1    3    3    0    0  0.57123694203E+01 -0.21842848889E+01  0.12424848365E+02  0.13848433920E+02  0.51100000000E-03 0.  1.
         12    1    3    3    0    0  0.10167915513E+02 -0.80386775454E+01  0.28285872209E+02  0.31114263758E+02  0.00000000000E+00 0. -1.
</event>
<event>
 7    1  0.1265344E-009  0.4778727E+02  0.7816164E-02  0.1312668E+00
        -11   -1    0    0    0    0  0.00000000000E+00  0.00000000000E+00  0.45593999997E+02  0.45594000000E+02  0.51100000000E-03 0.  1.
         11   -1    0    0    0    0 -0.00000000000E+00 -0.00000000000E+00 -0.45593999997E+02  0.45594000000E+02  0.51100000000E-03 0. -1.
    9900012    2    1    2    0    0  0.38167695408E+02 -0.52717418855E+01  0.19976464967E+02  0.47787269731E+02  0.19999994013E+02 0.  0.
         12    1    1    2    0    0 -0.38167695408E+02  0.52717418855E+01 -0.19976464967E+02  0.43400730269E+02  0.00000000000E+00 0. -1.
         11    1    3    3    0    0  0.11225893145E+02  0.48649519367E+01  0.57179590552E+01  0.13504943179E+02  0.51100000000E-03 0. -1.
        -11    1    3    3    0    0  0.15720334039E+02 -0.52586462640E+01  0.15628424460E+01  0.16650067255E+02  0.51100000000E-03 0.  1.
        -12    1    3    3    0    0  0.11221468225E+02 -0.48780475582E+01  0.12695663466E+02  0.17632259297E+02  0.00000000000E+00 0.  1.
</event>
<event>
 7    1  0.1265344E-009  0.4778727E+02  0.7816164E-02  0.1312668E+00
        -11   -1    0    0    0    0  0.00000000000E+00  0.00000000000E+00  0.45593999997E+02  0.45594000000E+02  0.51100000000E-03 0.  1.
         11   -1    0    0    0    0 -0.00000000000E+00 -0.00000000000E+00 -0.45593999997E+02  0.45594000000E+02  0.51100000000E-03 0. -1.
    9900012    2    1    2    0    0  0.25482431654E+02  0.29891558195E+02  0.18459789277E+02  0.47787269655E+02  0.19999993667E+02 0.  0.
         12    1    1    2    0    0 -0.25482431654E+02 -0.29891558195E+02 -0.18459789277E+02  0.43400730345E+02  0.00000000000E+00 0. -1.
         11    1    3    3    0    0 -0.21973504825E+01  0.11960428755E+01  0.70733627401E+00  0.25998447201E+01  0.51100000000E-03 0. -1.
        -11    1    3    3    0    0  0.15333323820E+02  0.11776166412E+02  0.14093187614E+02  0.23925025645E+02  0.51100000000E-03 0.  1.
        -12    1    3    3    0    0  0.12346458317E+02  0.16919348907E+02  0.36592653893E+01  0.21262399290E+02  0.00000000000E+00 0.  1.
</event>
<event>
 7    1  0.1265344E-009  0.4778727E+02  0.7816164E-02  0.1312668E+00
        -11   -1    0    0    0    0  0.00000000000E+00  0.00000000000E+00  0.45593999997E+02  0.45594000000E+02  0.51100000000E-03 0.  1.
         11   -1    0    0    0    0 -0.00000000000E+00 -0.00000000000E+00 -0.45593999997E+02  0.45594000000E+02  0.51100000000E-03 0. -1.
    9900012    2    1    2    0    0 -0.17979709452E+02 -0.12719679577E+01  0.39480828827E+02  0.47787266143E+02  0.19999977651E+02 0.  0.
         12    1    1    2    0    0  0.17979709452E+02  0.12719679577E+01 -0.39480828827E+02  0.43400733857E+02  0.00000000000E+00 0. -1.
         11    1    3    3    0    0  0.71119482941E+00 -0.17751830590E+01  0.64046142210E+01  0.66840224835E+01  0.51100000000E-03 0. -1.
        -11    1    3    3    0    0  0.65438690768E+00 -0.17216805580E+01  0.13017522952E+02  0.13147178794E+02  0.51100000000E-03 0.  1.
         12    1    3    3    0    0 -0.19345291189E+02  0.22248956593E+01  0.20058691654E+02  0.27956064865E+02  0.00000000000E+00 0. -1.
</event>
<event>
 7    1  0.1265344E-009  0.4778727E+02  0.7816164E-02  0.1312668E+00
        -11   -1    0    0    0    0  0.00000000000E+00  0.00000000000E+00  0.45593999997E+02  0.45594000000E+02  0.51100000000E-03 0. -1.
         11   -1    0    0    0    0 -0.00000000000E+00 -0.00000000000E+00 -0.45593999997E+02  0.45594000000E+02  0.51100000000E-03 0.  1.
    9900012    2    1    2    0    0  0.23350035773E+02  0.36058133394E+02  0.61814520041E+01  0.47787268400E+02  0.19999987944E+02 0.  0.
         12    1    1    2    0    0 -0.23350035773E+02 -0.36058133394E+02 -0.61814520041E+01  0.43400731600E+02  0.00000000000E+00 0. -1.
         11    1    3    3    0    0  0.15970927223E+01  0.28095486794E+01  0.41747550431E+01  0.52794742993E+01  0.51100000000E-03 0. -1.
        -11    1    3    3    0    0  0.18108275670E+02  0.24287894258E+02 -0.48084545148E+01  0.30674626164E+02  0.51100000000E-03 0.  1.
        -12    1    3    3    0    0  0.36446673816E+01  0.89606904573E+01  0.68151514758E+01  0.11833167937E+02  0.00000000000E+00 0.  1.
</event>
<event>
 7    1  0.1265344E-009  0.4778722E+02  0.7816164E-02  0.1312668E+00
        -11   -1    0    0    0    0  0.00000000000E+00  0.00000000000E+00  0.45593999997E+02  0.45594000000E+02  0.51100000000E-03 0.  1.
         11   -1    0    0    0    0 -0.00000000000E+00 -0.00000000000E+00 -0.45593999997E+02  0.45594000000E+02  0.51100000000E-03 0. -1.
    9900012    2    1    2    0    0 -0.41340084206E+02  0.55146232961E+01  0.12008914830E+02  0.47787220425E+02  0.19999769206E+02 0.  0.
         12    1    1    2    0    0  0.41340084206E+02 -0.55146232961E+01 -0.12008914830E+02  0.43400779575E+02  0.00000000000E+00 0. -1.
         11    1    3    3    0    0 -0.23905778039E+02  0.21765647354E+01  0.80399762407E+01  0.25315309122E+02  0.51100000000E-03 0. -1.
        -11    1    3    3    0    0 -0.12571137123E+02  0.13710701207E+01  0.87470979869E+01  0.15376119318E+02  0.51100000000E-03 0.  1.
         12    1    3    3    0    0 -0.48631690443E+01  0.19669884400E+01 -0.47781593974E+01  0.70957919856E+01  0.00000000000E+00 0. -1.
</event>
<event>
 7    1  0.1265344E-009  0.4778727E+02  0.7816164E-02  0.1312668E+00
        -11   -1    0    0    0    0  0.00000000000E+00  0.00000000000E+00  0.45593999997E+02  0.45594000000E+02  0.51100000000E-03 0.  1.
         11   -1    0    0    0    0 -0.00000000000E+00 -0.00000000000E+00 -0.45593999997E+02  0.45594000000E+02  0.51100000000E-03 0. -1.
    9900012    2    1    2    0    0 -0.29992498793E+02 -0.75383328367E+00  0.31360880653E+02  0.47787273234E+02  0.20000009984E+02 0.  0.
         12    1    1    2    0    0  0.29992498793E+02  0.75383328367E+00 -0.31360880653E+02  0.43400726766E+02  0.00000000000E+00 0. -1.
         11    1    3    3    0    0 -0.66867313800E+01  0.14307331499E+01  0.43683332532E+01  0.81142904537E+01  0.51100000000E-03 0.  1.
        -11    1    3    3    0    0 -0.37854516741E+01 -0.27939692549E+01 -0.16672907206E+01  0.49915696111E+01  0.51100000000E-03 0. -1.
         12    1    3    3    0    0 -0.19520315739E+02  0.60940282132E+00  0.28659838121E+02  0.34681413169E+02  0.00000000000E+00 0. -1.
</event>
<event>
 7    1  0.1265344E-009  0.4778727E+02  0.7816164E-02  0.1312668E+00
        -11   -1    0    0    0    0  0.00000000000E+00  0.00000000000E+00  0.45593999997E+02  0.45594000000E+02  0.51100000000E-03 0.  1.
         11   -1    0    0    0    0 -0.00000000000E+00 -0.00000000000E+00 -0.45593999997E+02  0.45594000000E+02  0.51100000000E-03 0. -1.
    9900012    2    1    2    0    0  0.37526150559E+02 -0.14268860109E+02  0.16486686391E+02  0.47787272209E+02  0.20000005311E+02 0.  0.
         12    1    1    2    0    0 -0.37526150559E+02  0.14268860109E+02 -0.16486686391E+02  0.43400727791E+02  0.00000000000E+00 0. -1.
         11    1    3    3    0    0 -0.19570283708E+00 -0.21454699197E+01  0.40819761682E+00  0.21927075346E+01  0.51100000000E-03 0. -1.
        -11    1    3    3    0    0  0.30619434995E+02 -0.61005939291E+01  0.18067601514E+02  0.36072222976E+02  0.51100000000E-03 0.  1.
        -12    1    3    3    0    0  0.71024184018E+01 -0.60227962597E+01 -0.19891127398E+01  0.95223416989E+01  0.00000000000E+00 0.  1.
</event>
<event>
 7    1  0.1265344E-009  0.4778728E+02  0.7816164E-02  0.1312668E+00
        -11   -1    0    0    0    0  0.00000000000E+00  0.00000000000E+00  0.45593999997E+02  0.45594000000E+02  0.51100000000E-03 0. -1.
         11   -1    0    0    0    0 -0.00000000000E+00 -0.00000000000E+00 -0.45593999997E+02  0.45594000000E+02  0.51100000000E-03 0.  1.
    9900012    2    1    2    0    0  0.38513593863E+02 -0.12024999264E+02 -0.15991410829E+02  0.47787277197E+02  0.20000028051E+02 0.  0.
         12    1    1    2    0    0 -0.38513593863E+02  0.12024999264E+02  0.15991410829E+02  0.43400722803E+02  0.00000000000E+00 0. -1.
         11    1    3    3    0    0  0.23079029579E+02  0.20220113106E+01 -0.12715110361E+02  0.26427337508E+02  0.51100000000E-03 0.  1.
        -11    1    3    3    0    0  0.15270976714E+00 -0.91690882224E+00  0.85940183135E-01  0.93350309987E+00  0.51100000000E-03 0. -1.
         12    1    3    3    0    0  0.15281854517E+02 -0.13130101752E+02 -0.33622406515E+01  0.20426436588E+02  0.00000000000E+00 0. -1.
</event>
<event>
 7    1  0.1265344E-009  0.4778727E+02  0.7816164E-02  0.1312668E+00
        -11   -1    0    0    0    0  0.00000000000E+00  0.00000000000E+00  0.45593999997E+02  0.45594000000E+02  0.51100000000E-03 0.  1.
         11   -1    0    0    0    0 -0.00000000000E+00 -0.00000000000E+00 -0.45593999997E+02  0.45594000000E+02  0.51100000000E-03 0. -1.
    9900012    2    1    2    0    0  0.40854923709E+01  0.31913453381E+02  0.29128394580E+02  0.47787272755E+02  0.20000007798E+02 0.  0.
         12    1    1    2    0    0 -0.40854923709E+01 -0.31913453381E+02 -0.29128394580E+02  0.43400727245E+02  0.00000000000E+00 0. -1.
         11    1    3    3    0    0  0.11690589333E+01  0.26581706787E+01 -0.18251475070E+01  0.34298300002E+01  0.51100000000E-03 0. -1.
        -11    1    3    3    0    0 -0.11688253798E+01  0.42354325061E+01  0.60481332614E-01  0.43941665347E+01  0.51100000000E-03 0.  1.
        -12    1    3    3    0    0  0.40852588174E+01  0.25019850196E+02  0.30893060754E+02  0.39963276220E+02  0.00000000000E+00 0.  1.
</event>
<event>
 7    1  0.1265344E-009  0.4778725E+02  0.7816164E-02  0.1312668E+00
        -11   -1    0    0    0    0  0.00000000000E+00  0.00000000000E+00  0.45593999997E+02  0.45594000000E+02  0.51100000000E-03 0.  1.
         11   -1    0    0    0    0 -0.00000000000E+00 -0.00000000000E+00 -0.45593999997E+02  0.45594000000E+02  0.51100000000E-03 0. -1.
    9900012    2    1    2    0    0  0.22058761658E+02 -0.92779679841E+01  0.36207116094E+02  0.47787252177E+02  0.19999913974E+02 0.  0.
         12    1    1    2    0    0 -0.22058761658E+02  0.92779679841E+01 -0.36207116094E+02  0.43400747823E+02  0.00000000000E+00 0. -1.
         11    1    3    3    0    0 -0.21065422228E+01 -0.18356817843E+01  0.45468238976E+01  0.53367457843E+01  0.51100000000E-03 0. -1.
        -11    1    3    3    0    0 -0.13576456342E+01 -0.15389231751E+01  0.28328270990E+01  0.34980560088E+01  0.51100000000E-03 0.  1.
        -12    1    3    3    0    0  0.25522949515E+02 -0.59033630248E+01  0.28827465097E+02  0.38952450383E+02  0.00000000000E+00 0.  1.
</event>
<event>
 7    1  0.1265344E-009  0.4778728E+02  0.7816164E-02  0.1312668E+00
        -11   -1    0    0    0    0  0.00000000000E+00  0.00000000000E+00  0.45593999997E+02  0.45594000000E+02  0.51100000000E-03 0.  1.
         11   -1    0    0    0    0 -0.00000000000E+00 -0.00000000000E+00 -0.45593999997E+02  0.45594000000E+02  0.51100000000E-03 0. -1.
    9900012    2    1    2    0    0 -0.35314786787E+02  0.25220544041E+02 -0.64246477443E+00  0.47787276866E+02  0.20000026545E+02 0.  0.
         12    1    1    2    0    0  0.35314786787E+02 -0.25220544041E+02  0.64246477443E+00  0.43400723134E+02  0.00000000000E+00 0. -1.
         11    1    3    3    0    0 -0.14835186988E+02  0.31665382844E+01 -0.50180241037E+00  0.15177665947E+02  0.51100000000E-03 0. -1.
        -11    1    3    3    0    0 -0.12799015661E+02  0.14335803454E+02 -0.61433757035E+01  0.20176003763E+02  0.51100000000E-03 0.  1.
        -12    1    3    3    0    0 -0.76805841380E+01  0.77182023028E+01  0.60027133394E+01  0.12433607157E+02  0.00000000000E+00 0.  1.
</event>
<event>
 7    1  0.1265344E-009  0.4778728E+02  0.7816164E-02  0.1312668E+00
        -11   -1    0    0    0    0  0.00000000000E+00  0.00000000000E+00  0.45593999997E+02  0.45594000000E+02  0.51100000000E-03 0.  1.
         11   -1    0    0    0    0 -0.00000000000E+00 -0.00000000000E+00 -0.45593999997E+02  0.45594000000E+02  0.51100000000E-03 0. -1.
    9900012    2    1    2    0    0  0.58255091684E+01 -0.42340291200E+02  0.75489118413E+01  0.47787275514E+02  0.20000020377E+02 0.  0.
         12    1    1    2    0    0 -0.58255091684E+01  0.42340291200E+02 -0.75489118413E+01  0.43400724486E+02  0.00000000000E+00 0. -1.
         11    1    3    3    0    0  0.11782157160E-01  0.11129649672E+01 -0.38930044561E+00  0.11791458500E+01  0.51100000000E-03 0. -1.
        -11    1    3    3    0    0 -0.14091567436E+01 -0.23974970019E+02  0.93815837044E+01  0.25783696849E+02  0.51100000000E-03 0.  1.
         12    1    3    3    0    0  0.72228837548E+01 -0.19478286148E+02 -0.14433714175E+01  0.20824432815E+02  0.00000000000E+00 0. -1.
</event>
<event>
 7    1  0.1265344E-009  0.4778727E+02  0.7816164E-02  0.1312668E+00
        -11   -1    0    0    0    0  0.00000000000E+00  0.00000000000E+00  0.45593999997E+02  0.45594000000E+02  0.51100000000E-03 0.  1.
         11   -1    0    0    0    0 -0.00000000000E+00 -0.00000000000E+00 -0.45593999997E+02  0.45594000000E+02  0.51100000000E-03 0. -1.
    9900012    2    1    2    0    0 -0.27675810205E+02  0.30279725476E+02  0.14170778734E+02  0.47787271719E+02  0.20000003075E+02 0.  0.
         12    1    1    2    0    0  0.27675810205E+02 -0.30279725476E+02 -0.14170778734E+02  0.43400728281E+02  0.00000000000E+00 0. -1.
         11    1    3    3    0    0 -0.75128556813E+01  0.39488282395E+01  0.47518187150E+01  0.97270769666E+01  0.51100000000E-03 0. -1.
        -11    1    3    3    0    0 -0.21191834971E+02  0.16164485466E+02  0.65297899552E+01  0.27441257568E+02  0.51100000000E-03 0.  1.
         12    1    3    3    0    0  0.10288804467E+01  0.10166411770E+02  0.28891700635E+01  0.10618937184E+02  0.00000000000E+00 0. -1.
</event>
<event>
 7    1  0.1541218E-009  0.4778726E+02  0.7816164E-02  0.1312668E+00
        -11   -1    0    0    0    0  0.00000000000E+00  0.00000000000E+00  0.45593999997E+02  0.45594000000E+02  0.51100000000E-03 0. -1.
         11   -1    0    0    0    0 -0.00000000000E+00 -0.00000000000E+00 -0.45593999997E+02  0.45594000000E+02  0.51100000000E-03 0.  1.
    9900012    2    1    2    0    0 -0.25651033704E+00  0.25382918280E+02 -0.35203208855E+02  0.47787259780E+02  0.19999948641E+02 0.  0.
         12    1    1    2    0    0  0.25651033704E+00 -0.25382918280E+02  0.35203208855E+02  0.43400740220E+02  0.00000000000E+00 0. -1.
         11    1    3    3    0    0 -0.10359549191E+00  0.60575101036E+01 -0.12395521393E+00  0.60596638387E+01  0.51100000000E-03 0. -1.
        -11    1    3    3    0    0 -0.49418756181E+01  0.14771377707E+02 -0.20730137101E+02  0.25929795959E+02  0.51100000000E-03 0.  1.
         12    1    3    3    0    0  0.47889607730E+01  0.45540304689E+01 -0.14349116540E+02  0.15797799982E+02  0.00000000000E+00 0. -1.
</event>
<event>
 7    1  0.1265344E-009  0.4778726E+02  0.7816164E-02  0.1312668E+00
        -11   -1    0    0    0    0  0.00000000000E+00  0.00000000000E+00  0.45593999997E+02  0.45594000000E+02  0.51100000000E-03 0.  1.
         11   -1    0    0    0    0 -0.00000000000E+00 -0.00000000000E+00 -0.45593999997E+02  0.45594000000E+02  0.51100000000E-03 0. -1.
    9900012    2    1    2    0    0  0.12347609013E+01  0.77318328733E+01  0.42688621973E+02  0.47787258992E+02  0.19999945050E+02 0.  0.
         12    1    1    2    0    0 -0.12347609013E+01 -0.77318328733E+01 -0.42688621973E+02  0.43400741008E+02  0.00000000000E+00 0. -1.
         11    1    3    3    0    0  0.67769341007E+00 -0.25838942561E+01  0.71929052663E+01  0.76729175882E+01  0.51100000000E-03 0. -1.
        -11    1    3    3    0    0 -0.71469511161E+01  0.39410093794E+01  0.11347757360E+02  0.13977913383E+02  0.51100000000E-03 0.  1.
         12    1    3    3    0    0  0.77040186074E+01  0.63747177500E+01  0.24147959347E+02  0.26136428021E+02  0.00000000000E+00 0. -1.
</event>
<event>
 7    1  0.1265344E-009  0.4778727E+02  0.7816164E-02  0.1312668E+00
        -11   -1    0    0    0    0  0.00000000000E+00  0.00000000000E+00  0.45593999997E+02  0.45594000000E+02  0.51100000000E-03 0. -1.
         11   -1    0    0    0    0 -0.00000000000E+00 -0.00000000000E+00 -0.45593999997E+02  0.45594000000E+02  0.51100000000E-03 0.  1.
    9900012    2    1    2    0    0  0.19355712051E+02  0.16982487650E+02 -0.34936723659E+02  0.47787272635E+02  0.20000007251E+02 0.  0.
         12    1    1    2    0    0 -0.19355712051E+02 -0.16982487650E+02  0.34936723659E+02  0.43400727365E+02  0.00000000000E+00 0. -1.
         11    1    3    3    0    0  0.94451096065E+01  0.10190795122E+02 -0.19747950668E+02  0.24146303165E+02  0.51100000000E-03 0. -1.
        -11    1    3    3    0    0  0.21334759168E+00 -0.15518493399E+01 -0.95210076991E+01  0.96490072773E+01  0.51100000000E-03 0.  1.
         12    1    3    3    0    0  0.96972548526E+01  0.83435418684E+01 -0.56677652917E+01  0.13991962192E+02  0.00000000000E+00 0. -1.
</event>
<event>
 7    1  0.1265344E-009  0.4778728E+02  0.7816164E-02  0.1312668E+00
        -11   -1    0    0    0    0  0.00000000000E+00  0.00000000000E+00  0.45593999997E+02  0.45594000000E+02  0.51100000000E-03 0.  1.
         11   -1    0    0    0    0 -0.00000000000E+00 -0.00000000000E+00 -0.45593999997E+02  0.45594000000E+02  0.51100000000E-03 0. -1.
    9900012    2    1    2    0    0 -0.12544783772E+02  0.24853982489E+01  0.41473767155E+02  0.47787283803E+02  0.20000058173E+02 0.  0.
         12    1    1    2    0    0  0.12544783772E+02 -0.24853982489E+01 -0.41473767155E+02  0.43400716197E+02  0.00000000000E+00 0. -1.
         11    1    3    3    0    0 -0.55422293639E+00 -0.17442742526E+01  0.74943217817E+00  0.19777018436E+01  0.51100000000E-03 0. -1.
        -11    1    3    3    0    0 -0.11927232734E+02  0.92536452511E+01  0.24055063557E+02  0.28399558344E+02  0.51100000000E-03 0.  1.
        -12    1    3    3    0    0 -0.63328101136E-01 -0.50239727496E+01  0.16669271420E+02  0.17410023616E+02  0.00000000000E+00 0.  1.
</event>
<event>
 7    1  0.1265344E-009  0.4778727E+02  0.7816164E-02  0.1312668E+00
        -11   -1    0    0    0    0  0.00000000000E+00  0.00000000000E+00  0.45593999997E+02  0.45594000000E+02  0.51100000000E-03 0.  1.
         11   -1    0    0    0    0 -0.00000000000E+00 -0.00000000000E+00 -0.45593999997E+02  0.45594000000E+02  0.51100000000E-03 0. -1.
    9900012    2    1    2    0    0  0.17430212404E+02  0.16407630861E+02  0.36202219294E+02  0.47787270320E+02  0.19999996699E+02 0.  0.
         12    1    1    2    0    0 -0.17430212404E+02 -0.16407630861E+02 -0.36202219294E+02  0.43400729680E+02  0.00000000000E+00 0. -1.
         11    1    3    3    0    0 -0.20664144310E+01  0.80913523382E+01  0.11161745479E+02  0.13940036358E+02  0.51100000000E-03 0. -1.
        -11    1    3    3    0    0  0.93800418818E+01  0.31791293694E+01  0.17852672396E+02  0.20415924206E+02  0.51100000000E-03 0.  1.
        -12    1    3    3    0    0  0.10116584953E+02  0.51371491533E+01  0.71878014187E+01  0.13431309756E+02  0.00000000000E+00 0.  1.
</event>
<event>
 7    1  0.1265344E-009  0.4778727E+02  0.7816164E-02  0.1312668E+00
        -11   -1    0    0    0    0  0.00000000000E+00  0.00000000000E+00  0.45593999997E+02  0.45594000000E+02  0.51100000000E-03 0. -1.
         11   -1    0    0    0    0 -0.00000000000E+00 -0.00000000000E+00 -0.45593999997E+02  0.45594000000E+02  0.51100000000E-03 0.  1.
    9900012    2    1    2    0    0 -0.38447535730E+02 -0.36311896411E+01 -0.19804663680E+02  0.47787271372E+02  0.20000001494E+02 0.  0.
         12    1    1    2    0    0  0.38447535730E+02  0.36311896411E+01  0.19804663680E+02  0.43400728628E+02  0.00000000000E+00 0. -1.
         11    1    3    3    0    0 -0.89808155366E+01 -0.37866409411E+01 -0.13574386722E+02  0.16711004532E+02  0.51100000000E-03 0.  1.
        -11    1    3    3    0    0 -0.50877029023E+01 -0.20910037461E-03  0.18178003507E+01  0.54026955534E+01  0.51100000000E-03 0. -1.
        -12    1    3    3    0    0 -0.24379017291E+02  0.15566040037E+00 -0.80480773085E+01  0.25673571287E+02  0.00000000000E+00 0.  1.
</event>
<event>
 7    1  0.1265344E-009  0.4778727E+02  0.7816164E-02  0.1312668E+00
        -11   -1    0    0    0    0  0.00000000000E+00  0.00000000000E+00  0.45593999997E+02  0.45594000000E+02  0.51100000000E-03 0. -1.
         11   -1    0    0    0    0 -0.00000000000E+00 -0.00000000000E+00 -0.45593999997E+02  0.45594000000E+02  0.51100000000E-03 0.  1.
    9900012    2    1    2    0    0 -0.59279525052E+01 -0.57738240254E+01 -0.42604530458E+02  0.47787266362E+02  0.19999978652E+02 0.  0.
         12    1    1    2    0    0  0.59279525052E+01  0.57738240254E+01  0.42604530458E+02  0.43400733638E+02  0.00000000000E+00 0. -1.
         11    1    3    3    0    0 -0.62182614639E+01 -0.44433903987E+01 -0.37487349804E+01  0.85125500341E+01  0.51100000000E-03 0. -1.
        -11    1    3    3    0    0  0.23067721262E+01 -0.21594288617E+01 -0.15590150148E+02  0.15907140301E+02  0.51100000000E-03 0.  1.
        -12    1    3    3    0    0 -0.20164631675E+01  0.82899523497E+00 -0.23265645329E+02  0.23367576028E+02  0.00000000000E+00 0.  1.
</event>
<event>
 7    1  0.1265344E-009  0.4778727E+02  0.7816164E-02  0.1312668E+00
        -11   -1    0    0    0    0  0.00000000000E+00  0.00000000000E+00  0.45593999997E+02  0.45594000000E+02  0.51100000000E-03 0.  1.
         11   -1    0    0    0    0 -0.00000000000E+00 -0.00000000000E+00 -0.45593999997E+02  0.45594000000E+02  0.51100000000E-03 0. -1.
    9900012    2    1    2    0    0 -0.32548087474E+02 -0.17614213463E+02  0.22671231094E+02  0.47787271510E+02  0.20000002124E+02 0.  0.
         12    1    1    2    0    0  0.32548087474E+02  0.17614213463E+02 -0.22671231094E+02  0.43400728490E+02  0.00000000000E+00 0. -1.
         11    1    3    3    0    0 -0.19465199938E+02 -0.59010372553E+01  0.31270005384E+01  0.20578979128E+02  0.51100000000E-03 0. -1.
        -11    1    3    3    0    0  0.25004025337E+00 -0.33826120210E+00  0.32529540274E+01  0.32800382520E+01  0.51100000000E-03 0.  1.
        -12    1    3    3    0    0 -0.13332927789E+02 -0.11374915006E+02  0.16291276528E+02  0.23928254131E+02  0.00000000000E+00 0.  1.
</event>
<event>
 7    1  0.1265344E-009  0.4778727E+02  0.7816164E-02  0.1312668E+00
        -11   -1    0    0    0    0  0.00000000000E+00  0.00000000000E+00  0.45593999997E+02  0.45594000000E+02  0.51100000000E-03 0.  1.
         11   -1    0    0    0    0 -0.00000000000E+00 -0.00000000000E+00 -0.45593999997E+02  0.45594000000E+02  0.51100000000E-03 0. -1.
    9900012    2    1    2    0    0  0.29623034653E+02 -0.16378393278E+01  0.31676753066E+02  0.47787269770E+02  0.19999994187E+02 0.  0.
         12    1    1    2    0    0 -0.29623034653E+02  0.16378393278E+01 -0.31676753066E+02  0.43400730230E+02  0.00000000000E+00 0. -1.
         11    1    3    3    0    0  0.58055162444E+01  0.24630565587E+01  0.41552854764E+00  0.63200736317E+01  0.51100000000E-03 0. -1.
        -11    1    3    3    0    0  0.22529929300E+02 -0.36610190671E+01  0.20684775721E+02  0.30803582937E+02  0.51100000000E-03 0.  1.
         12    1    3    3    0    0  0.12875891086E+01 -0.43987681935E+00  0.10576448797E+02  0.10663613201E+02  0.00000000000E+00 0. -1.
</event>
<event>
 7    1  0.1265344E-009  0.4778728E+02  0.7816164E-02  0.1312668E+00
        -11   -1    0    0    0    0  0.00000000000E+00  0.00000000000E+00  0.45593999997E+02  0.45594000000E+02  0.51100000000E-03 0. -1.
         11   -1    0    0    0    0 -0.00000000000E+00 -0.00000000000E+00 -0.45593999997E+02  0.45594000000E+02  0.51100000000E-03 0.  1.
    9900012    2    1    2    0    0 -0.33765811869E+02  0.11254509447E+02 -0.24836025146E+02  0.47787283656E+02  0.20000057503E+02 0.  0.
         12    1    1    2    0    0  0.33765811869E+02 -0.11254509447E+02  0.24836025146E+02  0.43400716344E+02  0.00000000000E+00 0. -1.
         11    1    3    3    0    0 -0.26046409593E+02  0.12760719219E+02 -0.19056394446E+02  0.34704431665E+02  0.51100000000E-03 0. -1.
        -11    1    3    3    0    0  0.59651294448E+00  0.11907534269E+01 -0.39265965784E+01  0.41463094876E+01  0.51100000000E-03 0.  1.
        -12    1    3    3    0    0 -0.83159152211E+01 -0.26969631994E+01 -0.18530341219E+01  0.89365425037E+01  0.00000000000E+00 0.  1.
</event>
<event>
 7    1  0.1265344E-009  0.4778726E+02  0.7816164E-02  0.1312668E+00
        -11   -1    0    0    0    0  0.00000000000E+00  0.00000000000E+00  0.45593999997E+02  0.45594000000E+02  0.51100000000E-03 0.  1.
         11   -1    0    0    0    0 -0.00000000000E+00 -0.00000000000E+00 -0.45593999997E+02  0.45594000000E+02  0.51100000000E-03 0. -1.
    9900012    2    1    2    0    0  0.27258910149E+02  0.29489573337E+02  0.16460279408E+02  0.47787263643E+02  0.19999966254E+02 0.  0.
         12    1    1    2    0    0 -0.27258910149E+02 -0.29489573337E+02 -0.16460279408E+02  0.43400736357E+02  0.00000000000E+00 0. -1.
         11    1    3    3    0    0  0.35795414883E+01  0.81641406110E+01 -0.15467519097E+01  0.90475826005E+01  0.51100000000E-03 0. -1.
        -11    1    3    3    0    0  0.21403624924E+02  0.22186850623E+02  0.13577106457E+02  0.33685446716E+02  0.51100000000E-03 0.  1.
         12    1    3    3    0    0  0.22757437369E+01 -0.86141789720E+00  0.44299248611E+01  0.50542343263E+01  0.00000000000E+00 0. -1.
</event>
<event>
 7    1  0.1265344E-009  0.4778726E+02  0.7816164E-02  0.1312668E+00
        -11   -1    0    0    0    0  0.00000000000E+00  0.00000000000E+00  0.45593999997E+02  0.45594000000E+02  0.51100000000E-03 0.  1.
         11   -1    0    0    0    0 -0.00000000000E+00 -0.00000000000E+00 -0.45593999997E+02  0.45594000000E+02  0.51100000000E-03 0. -1.
    9900012    2    1    2    0    0 -0.36878989542E+02 -0.20982893330E+02  0.91259044132E+01  0.47787264827E+02  0.19999971654E+02 0.  0.
         12    1    1    2    0    0  0.36878989542E+02  0.20982893330E+02 -0.91259044132E+01  0.43400735173E+02  0.00000000000E+00 0. -1.
         11    1    3    3    0    0  0.17380479043E+00 -0.11475450058E+01  0.15852994945E+01  0.19647499571E+01  0.51100000000E-03 0. -1.
        -11    1    3    3    0    0 -0.28479538973E+02 -0.10627449766E+02 -0.13326966745E+01  0.30427009537E+02  0.51100000000E-03 0.  1.
        -12    1    3    3    0    0 -0.85732553595E+01 -0.92078985582E+01  0.88733015932E+01  0.15395505334E+02  0.00000000000E+00 0.  1.
</event>
<event>
 7    1  0.1265344E-009  0.4778727E+02  0.7816164E-02  0.1312668E+00
        -11   -1    0    0    0    0  0.00000000000E+00  0.00000000000E+00  0.45593999997E+02  0.45594000000E+02  0.51100000000E-03 0.  1.
         11   -1    0    0    0    0 -0.00000000000E+00 -0.00000000000E+00 -0.45593999997E+02  0.45594000000E+02  0.51100000000E-03 0. -1.
    9900012    2    1    2    0    0 -0.33936631582E+02  0.21914532340E+02  0.15864472072E+02  0.47787272299E+02  0.20000005722E+02 0.  0.
         12    1    1    2    0    0  0.33936631582E+02 -0.21914532340E+02 -0.15864472072E+02  0.43400727701E+02  0.00000000000E+00 0. -1.
         11    1    3    3    0    0 -0.95995123991E+00  0.16364991240E+01 -0.19433789409E+01  0.27159450905E+01  0.51100000000E-03 0. -1.
        -11    1    3    3    0    0 -0.30620551559E+02  0.22511681159E+02  0.15301670457E+02  0.40969929039E+02  0.51100000000E-03 0.  1.
         12    1    3    3    0    0 -0.23561287825E+01 -0.22336479426E+01  0.25061805561E+01  0.41013981702E+01  0.00000000000E+00 0. -1.
</event>
<event>
 7    1  0.1265344E-009  0.4778727E+02  0.7816164E-02  0.1312668E+00
        -11   -1    0    0    0    0  0.00000000000E+00  0.00000000000E+00  0.45593999997E+02  0.45594000000E+02  0.51100000000E-03 0.  1.
         11   -1    0    0    0    0 -0.00000000000E+00 -0.00000000000E+00 -0.45593999997E+02  0.45594000000E+02  0.51100000000E-03 0. -1.
    9900012    2    1    2    0    0  0.13308645781E+02  0.28646783616E+02  0.29763479720E+02  0.47787274325E+02  0.20000014957E+02 0.  0.
         12    1    1    2    0    0 -0.13308645781E+02 -0.28646783616E+02 -0.29763479720E+02  0.43400725675E+02  0.00000000000E+00 0. -1.
         11    1    3    3    0    0 -0.30152543834E+01  0.29238188332E+01  0.83746664271E+00  0.42827358317E+01  0.51100000000E-03 0. -1.
        -11    1    3    3    0    0  0.72784183479E+01  0.20568623166E+02  0.22098104792E+02  0.31054305148E+02  0.51100000000E-03 0.  1.
        -12    1    3    3    0    0  0.90454818161E+01  0.51543416175E+01  0.68279082851E+01  0.12450233345E+02  0.00000000000E+00 0.  1.
</event>
<event>
 7    1  0.1265344E-009  0.4778727E+02  0.7816164E-02  0.1312668E+00
        -11   -1    0    0    0    0  0.00000000000E+00  0.00000000000E+00  0.45593999997E+02  0.45594000000E+02  0.51100000000E-03 0. -1.
         11   -1    0    0    0    0 -0.00000000000E+00 -0.00000000000E+00 -0.45593999997E+02  0.45594000000E+02  0.51100000000E-03 0.  1.
    9900012    2    1    2    0    0 -0.12097335222E+02  0.39506042285E+02 -0.13287225587E+02  0.47787271201E+02  0.20000000714E+02 0.  0.
         12    1    1    2    0    0  0.12097335222E+02 -0.39506042285E+02  0.13287225587E+02  0.43400728799E+02  0.00000000000E+00 0. -1.
         11    1    3    3    0    0  0.36703665522E+00  0.12164433988E+02 -0.98566538213E+01  0.15660836343E+02  0.51100000000E-03 0. -1.
        -11    1    3    3    0    0  0.19234972100E+01  0.44152678183E+01 -0.12262768749E+01  0.49697270206E+01  0.51100000000E-03 0.  1.
        -12    1    3    3    0    0 -0.14387869087E+02  0.22926340478E+02 -0.22042948907E+01  0.27156707837E+02  0.00000000000E+00 0.  1.
</event>
<event>
 7    1  0.1265344E-009  0.4778727E+02  0.7816164E-02  0.1312668E+00
        -11   -1    0    0    0    0  0.00000000000E+00  0.00000000000E+00  0.45593999997E+02  0.45594000000E+02  0.51100000000E-03 0.  1.
         11   -1    0    0    0    0 -0.00000000000E+00 -0.00000000000E+00 -0.45593999997E+02  0.45594000000E+02  0.51100000000E-03 0. -1.
    9900012    2    1    2    0    0 -0.19246967782E+02  0.24610973249E+02  0.30124372450E+02  0.47787267419E+02  0.19999983472E+02 0.  0.
         12    1    1    2    0    0  0.19246967782E+02 -0.24610973249E+02 -0.30124372450E+02  0.43400732581E+02  0.00000000000E+00 0. -1.
         11    1    3    3    0    0  0.23186366724E+01  0.21868556529E+01  0.67556199584E+00  0.32580359017E+01  0.51100000000E-03 0. -1.
        -11    1    3    3    0    0 -0.17940047002E+01  0.32141712492E+01  0.10370292646E+02  0.11004195541E+02  0.51100000000E-03 0.  1.
         12    1    3    3    0    0 -0.19771599754E+02  0.19209946347E+02  0.19078517808E+02  0.33525035976E+02  0.00000000000E+00 0. -1.
</event>
<event>
 7    1  0.1265344E-009  0.4778727E+02  0.7816164E-02  0.1312668E+00
        -11   -1    0    0    0    0  0.00000000000E+00  0.00000000000E+00  0.45593999997E+02  0.45594000000E+02  0.51100000000E-03 0. -1.
         11   -1    0    0    0    0 -0.00000000000E+00 -0.00000000000E+00 -0.45593999997E+02  0.45594000000E+02  0.51100000000E-03 0.  1.
    9900012    2    1    2    0    0 -0.64827846175E+01  0.42581026266E+02  0.53341354858E+01  0.47787270794E+02  0.19999998857E+02 0.  0.
         12    1    1    2    0    0  0.64827846175E+01 -0.42581026266E+02 -0.53341354858E+01  0.43400729206E+02  0.00000000000E+00 0. -1.
         11    1    3    3    0    0 -0.12210013563E+01  0.26643696327E+02  0.35044282007E+01  0.26900899902E+02  0.51100000000E-03 0.  1.
        -11    1    3    3    0    0 -0.31726214389E+01  0.23655783152E+01  0.54031373268E+01  0.66974159788E+01  0.51100000000E-03 0. -1.
         12    1    3    3    0    0 -0.20891618223E+01  0.13571751624E+02 -0.35734300417E+01  0.14188954913E+02  0.00000000000E+00 0. -1.
</event>
<event>
 7    1  0.1265344E-009  0.4778727E+02  0.7816164E-02  0.1312668E+00
        -11   -1    0    0    0    0  0.00000000000E+00  0.00000000000E+00  0.45593999997E+02  0.45594000000E+02  0.51100000000E-03 0. -1.
         11   -1    0    0    0    0 -0.00000000000E+00 -0.00000000000E+00 -0.45593999997E+02  0.45594000000E+02  0.51100000000E-03 0.  1.
    9900012    2    1    2    0    0  0.36316124576E+02  0.94570146510E+01 -0.21802004769E+02  0.47787269104E+02  0.19999991153E+02 0.  0.
         12    1    1    2    0    0 -0.36316124576E+02 -0.94570146510E+01  0.21802004769E+02  0.43400730896E+02  0.00000000000E+00 0. -1.
         11    1    3    3    0    0  0.10651575382E+02  0.81303191663E+00 -0.21421491993E+01  0.10895222920E+02  0.51100000000E-03 0. -1.
        -11    1    3    3    0    0  0.23107643774E+02  0.10036526753E+02 -0.21770159615E+02  0.33296169750E+02  0.51100000000E-03 0.  1.
        -12    1    3    3    0    0  0.25569054202E+01 -0.13925440186E+01  0.21103040454E+01  0.35958764349E+01  0.00000000000E+00 0.  1.
</event>
<event>
 7    1  0.1265344E-009  0.4778727E+02  0.7816164E-02  0.1312668E+00
        -11   -1    0    0    0    0  0.00000000000E+00  0.00000000000E+00  0.45593999997E+02  0.45594000000E+02  0.51100000000E-03 0.  1.
         11   -1    0    0    0    0 -0.00000000000E+00 -0.00000000000E+00 -0.45593999997E+02  0.45594000000E+02  0.51100000000E-03 0. -1.
    9900012    2    1    2    0    0 -0.39729083438E+02 -0.10205952299E+02 -0.14179629493E+02  0.47787269295E+02  0.19999992023E+02 0.  0.
         12    1    1    2    0    0  0.39729083438E+02  0.10205952299E+02  0.14179629493E+02  0.43400730705E+02  0.00000000000E+00 0. -1.
         11    1    3    3    0    0 -0.37863280941E+01 -0.32008569995E+01  0.25912514767E+01  0.55943141174E+01  0.51100000000E-03 0. -1.
        -11    1    3    3    0    0 -0.31247846951E+02 -0.10314912816E+02 -0.15136263236E+02  0.36220599533E+02  0.51100000000E-03 0.  1.
         12    1    3    3    0    0 -0.46949083931E+01  0.33098175167E+01 -0.16346177336E+01  0.59723556448E+01  0.00000000000E+00 0. -1.
</event>
<event>
 7    1  0.1265344E-009  0.4778727E+02  0.7816164E-02  0.1312668E+00
        -11   -1    0    0    0    0  0.00000000000E+00  0.00000000000E+00  0.45593999997E+02  0.45594000000E+02  0.51100000000E-03 0.  1.
         11   -1    0    0    0    0 -0.00000000000E+00 -0.00000000000E+00 -0.45593999997E+02  0.45594000000E+02  0.51100000000E-03 0. -1.
    9900012    2    1    2    0    0  0.16948983103E+02 -0.18411864680E+02  0.35459251633E+02  0.47787270564E+02  0.19999997810E+02 0.  0.
         12    1    1    2    0    0 -0.16948983103E+02  0.18411864680E+02 -0.35459251633E+02  0.43400729436E+02  0.00000000000E+00 0. -1.
         11    1    3    3    0    0  0.97814122209E+00  0.30135251626E+01  0.70150304985E+01  0.76973207879E+01  0.51100000000E-03 0. -1.
        -11    1    3    3    0    0  0.47192367035E+01 -0.84638329930E+00  0.50328890245E+01  0.69510813509E+01  0.51100000000E-03 0.  1.
        -12    1    3    3    0    0  0.11251605177E+02 -0.20579006543E+02  0.23411332110E+02  0.33138868425E+02  0.00000000000E+00 0.  1.
</event>
<event>
 7    1  0.1265344E-009  0.4778728E+02  0.7816164E-02  0.1312668E+00
        -11   -1    0    0    0    0  0.00000000000E+00  0.00000000000E+00  0.45593999997E+02  0.45594000000E+02  0.51100000000E-03 0. -1.
         11   -1    0    0    0    0 -0.00000000000E+00 -0.00000000000E+00 -0.45593999997E+02  0.45594000000E+02  0.51100000000E-03 0.  1.
    9900012    2    1    2    0    0  0.27670607722E+02 -0.33333175794E+02 -0.26191034670E+01  0.47787276006E+02  0.20000022623E+02 0.  0.
         12    1    1    2    0    0 -0.27670607722E+02  0.33333175794E+02  0.26191034670E+01  0.43400723994E+02  0.00000000000E+00 0. -1.
         11    1    3    3    0    0  0.30946886977E+01 -0.32963078614E+01  0.28771378309E+01  0.53591665408E+01  0.51100000000E-03 0. -1.
        -11    1    3    3    0    0  0.25498985420E+02 -0.30707912764E+02 -0.70170927618E+01  0.40526704219E+02  0.51100000000E-03 0.  1.
        -12    1    3    3    0    0 -0.92306639587E+00  0.67104483129E+00  0.15208514639E+01  0.19014052466E+01  0.00000000000E+00 0.  1.
</event>
<event>
 7    1  0.1265344E-009  0.4778727E+02  0.7816164E-02  0.1312668E+00
        -11   -1    0    0    0    0  0.00000000000E+00  0.00000000000E+00  0.45593999997E+02  0.45594000000E+02  0.51100000000E-03 0. -1.
         11   -1    0    0    0    0 -0.00000000000E+00 -0.00000000000E+00 -0.45593999997E+02  0.45594000000E+02  0.51100000000E-03 0.  1.
    9900012    2    1    2    0    0 -0.36553229676E+02 -0.15530514127E+02  0.17501078942E+02  0.47787271516E+02  0.20000002151E+02 0.  0.
         12    1    1    2    0    0  0.36553229676E+02  0.15530514127E+02 -0.17501078942E+02  0.43400728484E+02  0.00000000000E+00 0. -1.
         11    1    3    3    0    0 -0.11391244028E+02 -0.12461137065E+02  0.38300855304E+01  0.17312132535E+02  0.51100000000E-03 0. -1.
        -11    1    3    3    0    0 -0.19547872463E+02 -0.62258096107E+01  0.12199592327E+02  0.23868600218E+02  0.51100000000E-03 0.  1.
         12    1    3    3    0    0 -0.56141131844E+01  0.31564325493E+01  0.14714010851E+01  0.66065387639E+01  0.00000000000E+00 0. -1.
</event>
<event>
 7    1  0.1265344E-009  0.4778727E+02  0.7816164E-02  0.1312668E+00
        -11   -1    0    0    0    0  0.00000000000E+00  0.00000000000E+00  0.45593999997E+02  0.45594000000E+02  0.51100000000E-03 0.  1.
         11   -1    0    0    0    0 -0.00000000000E+00 -0.00000000000E+00 -0.45593999997E+02  0.45594000000E+02  0.51100000000E-03 0. -1.
    9900012    2    1    2    0    0  0.14470897652E+02  0.25738837164E+02  0.31807682400E+02  0.47787271008E+02  0.19999999835E+02 0.  0.
         12    1    1    2    0    0 -0.14470897652E+02 -0.25738837164E+02 -0.31807682400E+02  0.43400728992E+02  0.00000000000E+00 0. -1.
         11    1    3    3    0    0  0.85807438663E+01  0.17685451426E+02  0.14627770713E+02  0.24502571982E+02  0.51100000000E-03 0. -1.
        -11    1    3    3    0    0  0.55431044021E+01  0.10889471341E+02  0.16140943687E+02  0.20244422834E+02  0.51100000000E-03 0.  1.
         12    1    3    3    0    0  0.34704938321E+00 -0.28360856030E+01  0.10389679994E+01  0.30402761923E+01  0.00000000000E+00 0. -1.
</event>
<event>
 7    1  0.1265344E-009  0.4778727E+02  0.7816164E-02  0.1312668E+00
        -11   -1    0    0    0    0  0.00000000000E+00  0.00000000000E+00  0.45593999997E+02  0.45594000000E+02  0.51100000000E-03 0. -1.
         11   -1    0    0    0    0 -0.00000000000E+00 -0.00000000000E+00 -0.45593999997E+02  0.45594000000E+02  0.51100000000E-03 0.  1.
    9900012    2    1    2    0    0  0.22301009930E+02 -0.32355340896E+02 -0.18423358378E+02  0.47787271177E+02  0.20000000605E+02 0.  0.
         12    1    1    2    0    0 -0.22301009930E+02  0.32355340896E+02  0.18423358378E+02  0.43400728823E+02  0.00000000000E+00 0. -1.
         11    1    3    3    0    0  0.31116505174E+01 -0.85963908736E+01  0.28657459927E+01  0.95808561909E+01  0.51100000000E-03 0. -1.
        -11    1    3    3    0    0  0.54165931112E+01 -0.55208017338E+01 -0.10208808218E+02  0.12807751489E+02  0.51100000000E-03 0.  1.
        -12    1    3    3    0    0  0.13772766301E+02 -0.18238148289E+02 -0.11080296154E+02  0.25398663497E+02  0.00000000000E+00 0.  1.
</event>
<event>
 7    1  0.1265344E-009  0.4778727E+02  0.7816164E-02  0.1312668E+00
        -11   -1    0    0    0    0  0.00000000000E+00  0.00000000000E+00  0.45593999997E+02  0.45594000000E+02  0.51100000000E-03 0.  1.
         11   -1    0    0    0    0 -0.00000000000E+00 -0.00000000000E+00 -0.45593999997E+02  0.45594000000E+02  0.51100000000E-03 0. -1.
    9900012    2    1    2    0    0 -0.13969424385E+02 -0.19372429794E+02  0.36237927600E+02  0.47787271314E+02  0.20000001228E+02 0.  0.
         12    1    1    2    0    0  0.13969424385E+02  0.19372429794E+02 -0.36237927600E+02  0.43400728686E+02  0.00000000000E+00 0. -1.
         11    1    3    3    0    0 -0.74318262406E+01 -0.10130512727E+02  0.31831779601E+02  0.34221652827E+02  0.51100000000E-03 0. -1.
        -11    1    3    3    0    0 -0.52841348695E+00 -0.56210770298E+01  0.30603531129E+01  0.64219536922E+01  0.51100000000E-03 0.  1.
         12    1    3    3    0    0 -0.60091846579E+01 -0.36208400367E+01  0.13457948863E+01  0.71436647948E+01  0.00000000000E+00 0. -1.
</event>
<event>
 7    1  0.1265344E-009  0.4778727E+02  0.7816164E-02  0.1312668E+00
        -11   -1    0    0    0    0  0.00000000000E+00  0.00000000000E+00  0.45593999997E+02  0.45594000000E+02  0.51100000000E-03 0.  1.
         11   -1    0    0    0    0 -0.00000000000E+00 -0.00000000000E+00 -0.45593999997E+02  0.45594000000E+02  0.51100000000E-03 0. -1.
    9900012    2    1    2    0    0  0.29203064945E+02 -0.12504349539E+02  0.29571023270E+02  0.47787272163E+02  0.20000005099E+02 0.  0.
         12    1    1    2    0    0 -0.29203064945E+02  0.12504349539E+02 -0.29571023270E+02  0.43400727837E+02  0.00000000000E+00 0. -1.
         11    1    3    3    0    0  0.20085113823E+02 -0.68606251447E+01  0.63221012968E+01  0.22146081814E+02  0.51100000000E-03 0. -1.
        -11    1    3    3    0    0  0.55610627028E+01 -0.34259277144E+01  0.12494391389E+02  0.14098660061E+02  0.51100000000E-03 0.  1.
         12    1    3    3    0    0  0.35568884192E+01 -0.22177966803E+01  0.10754530584E+02  0.11542530287E+02  0.00000000000E+00 0. -1.
</event>
<event>
 7    1  0.1531670E-009  0.4778725E+02  0.7816164E-02  0.1312668E+00
        -11   -1    0    0    0    0  0.00000000000E+00  0.00000000000E+00  0.45593999997E+02  0.45594000000E+02  0.51100000000E-03 0. -1.
         11   -1    0    0    0    0 -0.00000000000E+00 -0.00000000000E+00 -0.45593999997E+02  0.45594000000E+02  0.51100000000E-03 0.  1.
    9900012    2    1    2    0    0 -0.53668613482E+01 -0.35485754533E+02 -0.24404572934E+02  0.47787249366E+02  0.19999901158E+02 0.  0.
         12    1    1    2    0    0  0.53668613482E+01  0.35485754533E+02  0.24404572934E+02  0.43400750634E+02  0.00000000000E+00 0. -1.
         11    1    3    3    0    0  0.18128976191E+01 -0.87414092993E+01  0.74960987690E+00  0.89588363945E+01  0.51100000000E-03 0. -1.
        -11    1    3    3    0    0 -0.32131147261E+01 -0.22567363516E+02 -0.15430365445E+02  0.27526463273E+02  0.51100000000E-03 0.  1.
        -12    1    3    3    0    0 -0.39666442412E+01 -0.41769817178E+01 -0.97238173658E+01  0.11301949698E+02  0.00000000000E+00 0.  1.
</event>
<event>
 7    1  0.1265344E-009  0.4778728E+02  0.7816164E-02  0.1312668E+00
        -11   -1    0    0    0    0  0.00000000000E+00  0.00000000000E+00  0.45593999997E+02  0.45594000000E+02  0.51100000000E-03 0.  1.
         11   -1    0    0    0    0 -0.00000000000E+00 -0.00000000000E+00 -0.45593999997E+02  0.45594000000E+02  0.51100000000E-03 0. -1.
    9900012    2    1    2    0    0  0.16934345875E+00 -0.43632430961E+01  0.43180507458E+02  0.47787276597E+02  0.20000025317E+02 0.  0.
         12    1    1    2    0    0 -0.16934345875E+00  0.43632430961E+01 -0.43180507458E+02  0.43400723403E+02  0.00000000000E+00 0. -1.
         11    1    3    3    0    0 -0.17773687909E+01 -0.18507714962E+01  0.26035096823E+02  0.26161243506E+02  0.51100000000E-03 0. -1.
        -11    1    3    3    0    0 -0.18313498988E+01  0.45191339815E+01  0.42935249851E+01  0.64969817187E+01  0.51100000000E-03 0.  1.
         12    1    3    3    0    0  0.37780621485E+01 -0.70316055814E+01  0.12851885650E+02  0.15129051372E+02  0.00000000000E+00 0. -1.
</event>
<event>
 7    1  0.1265344E-009  0.4778727E+02  0.7816164E-02  0.1312668E+00
        -11   -1    0    0    0    0  0.00000000000E+00  0.00000000000E+00  0.45593999997E+02  0.45594000000E+02  0.51100000000E-03 0.  1.
         11   -1    0    0    0    0 -0.00000000000E+00 -0.00000000000E+00 -0.45593999997E+02  0.45594000000E+02  0.51100000000E-03 0. -1.
    9900012    2    1    2    0    0 -0.36072503409E+02 -0.23152919855E+02  0.68073639681E+01  0.47787269543E+02  0.19999993152E+02 0.  0.
         12    1    1    2    0    0  0.36072503409E+02  0.23152919855E+02 -0.68073639681E+01  0.43400730457E+02  0.00000000000E+00 0. -1.
         11    1    3    3    0    0 -0.66373484476E+01 -0.54030489176E+01 -0.33369605528E+01  0.91860022868E+01  0.51100000000E-03 0. -1.
        -11    1    3    3    0    0 -0.27188358290E+02 -0.20206381928E+02  0.87121327176E+01  0.34977220499E+02  0.51100000000E-03 0.  1.
        -12    1    3    3    0    0 -0.22467966721E+01  0.24565109903E+01  0.14321918033E+01  0.36240467564E+01  0.00000000000E+00 0.  1.
</event>
<event>
 7    1  0.1265344E-009  0.4778727E+02  0.7816164E-02  0.1312668E+00
        -11   -1    0    0    0    0  0.00000000000E+00  0.00000000000E+00  0.45593999997E+02  0.45594000000E+02  0.51100000000E-03 0.  1.
         11   -1    0    0    0    0 -0.00000000000E+00 -0.00000000000E+00 -0.45593999997E+02  0.45594000000E+02  0.51100000000E-03 0. -1.
    9900012    2    1    2    0    0  0.25416981873E+02  0.79933673520E+01  0.34259398730E+02  0.47787270853E+02  0.19999999125E+02 0.  0.
         12    1    1    2    0    0 -0.25416981873E+02 -0.79933673520E+01 -0.34259398730E+02  0.43400729147E+02  0.00000000000E+00 0. -1.
         11    1    3    3    0    0  0.16479699113E+02 -0.15873719116E+01  0.27041790068E+02  0.31707390981E+02  0.51100000000E-03 0. -1.
        -11    1    3    3    0    0  0.64017078702E+01  0.60851501253E+01  0.77221821006E+01  0.11732135882E+02  0.51100000000E-03 0.  1.
         12    1    3    3    0    0  0.25355748897E+01  0.34955891384E+01 -0.50457343835E+00  0.43477439897E+01  0.00000000000E+00 0. -1.
</event>
<event>
 7    1  0.1265344E-009  0.4778727E+02  0.7816164E-02  0.1312668E+00
        -11   -1    0    0    0    0  0.00000000000E+00  0.00000000000E+00  0.45593999997E+02  0.45594000000E+02  0.51100000000E-03 0.  1.
         11   -1    0    0    0    0 -0.00000000000E+00 -0.00000000000E+00 -0.45593999997E+02  0.45594000000E+02  0.51100000000E-03 0. -1.
    9900012    2    1    2    0    0  0.66834940834E+01 -0.38793201842E+02  0.18276800499E+02  0.47787273752E+02  0.20000012347E+02 0.  0.
         12    1    1    2    0    0 -0.66834940834E+01  0.38793201842E+02 -0.18276800499E+02  0.43400726248E+02  0.00000000000E+00 0. -1.
         11    1    3    3    0    0  0.42999902221E+01 -0.10858163684E+02  0.15641182167E+02  0.19520148932E+02  0.51100000000E-03 0. -1.
        -11    1    3    3    0    0  0.19655002727E+01 -0.10164318277E+02  0.51457018457E+00  0.10365391459E+02  0.51100000000E-03 0.  1.
         12    1    3    3    0    0  0.41800358862E+00 -0.17770719881E+02  0.21210481476E+01  0.17901733361E+02  0.00000000000E+00 0. -1.
</event>
<event>
 7    1  0.1468137E-009  0.4778727E+02  0.7816164E-02  0.1312668E+00
        -11   -1    0    0    0    0  0.00000000000E+00  0.00000000000E+00  0.45593999997E+02  0.45594000000E+02  0.51100000000E-03 0. -1.
         11   -1    0    0    0    0 -0.00000000000E+00 -0.00000000000E+00 -0.45593999997E+02  0.45594000000E+02  0.51100000000E-03 0.  1.
    9900012    2    1    2    0    0  0.18336552320E+02 -0.35194202527E+01 -0.39179177371E+02  0.47787269484E+02  0.19999992884E+02 0.  0.
         12    1    1    2    0    0 -0.18336552320E+02  0.35194202527E+01  0.39179177371E+02  0.43400730516E+02  0.00000000000E+00 0. -1.
         11    1    3    3    0    0  0.85720674498E-01 -0.50087746562E+01 -0.93147892450E+01  0.10576411042E+02  0.51100000000E-03 0. -1.
        -11    1    3    3    0    0  0.15359711420E+02 -0.36752119329E+01 -0.17960144861E+02  0.23916411130E+02  0.51100000000E-03 0.  1.
        -12    1    3    3    0    0  0.28911202247E+01  0.51645663364E+01 -0.11904243265E+02  0.13294447312E+02  0.00000000000E+00 0.  1.
</event>
<event>
 7    1  0.1265344E-009  0.4778727E+02  0.7816164E-02  0.1312668E+00
        -11   -1    0    0    0    0  0.00000000000E+00  0.00000000000E+00  0.45593999997E+02  0.45594000000E+02  0.51100000000E-03 0.  1.
         11   -1    0    0    0    0 -0.00000000000E+00 -0.00000000000E+00 -0.45593999997E+02  0.45594000000E+02  0.51100000000E-03 0. -1.
    9900012    2    1    2    0    0  0.28403745992E+02  0.32803975203E+02  0.86612631892E+00  0.47787265555E+02  0.19999974973E+02 0.  0.
         12    1    1    2    0    0 -0.28403745992E+02 -0.32803975203E+02 -0.86612631892E+00  0.43400734445E+02  0.00000000000E+00 0. -1.
         11    1    3    3    0    0  0.92679485759E+01  0.38149649401E+01 -0.16829926537E+01  0.10162740419E+02  0.51100000000E-03 0. -1.
        -11    1    3    3    0    0  0.20505504942E+02  0.27270389104E+02 -0.18055348806E+00  0.34120118034E+02  0.51100000000E-03 0.  1.
        -12    1    3    3    0    0 -0.13697075258E+01  0.17186211594E+01  0.27296724607E+01  0.35044071023E+01  0.00000000000E+00 0.  1.
</event>
<event>
 7    1  0.1265344E-009  0.4778727E+02  0.7816164E-02  0.1312668E+00
        -11   -1    0    0    0    0  0.00000000000E+00  0.00000000000E+00  0.45593999997E+02  0.45594000000E+02  0.51100000000E-03 0.  1.
         11   -1    0    0    0    0 -0.00000000000E+00 -0.00000000000E+00 -0.45593999997E+02  0.45594000000E+02  0.51100000000E-03 0. -1.
    9900012    2    1    2    0    0  0.14136641739E+02 -0.31769946979E+02  0.25970152150E+02  0.47787274506E+02  0.20000015784E+02 0.  0.
         12    1    1    2    0    0 -0.14136641739E+02  0.31769946979E+02 -0.25970152150E+02  0.43400725494E+02  0.00000000000E+00 0. -1.
         11    1    3    3    0    0  0.13830673611E+02 -0.24918661626E+02  0.14458681847E+02  0.31957482860E+02  0.51100000000E-03 0. -1.
        -11    1    3    3    0    0 -0.38481505406E+01 -0.41595887347E+01  0.78089355562E+01  0.96483115522E+01  0.51100000000E-03 0.  1.
        -12    1    3    3    0    0  0.41541186683E+01 -0.26916966176E+01  0.37025347476E+01  0.61814800937E+01  0.00000000000E+00 0.  1.
</event>
<event>
 7    1  0.1265344E-009  0.4778729E+02  0.7816164E-02  0.1312668E+00
        -11   -1    0    0    0    0  0.00000000000E+00  0.00000000000E+00  0.45593999997E+02  0.45594000000E+02  0.51100000000E-03 0.  1.
         11   -1    0    0    0    0 -0.00000000000E+00 -0.00000000000E+00 -0.45593999997E+02  0.45594000000E+02  0.51100000000E-03 0. -1.
    9900012    2    1    2    0    0 -0.41694026618E+02 -0.76371755247E+01  0.93221948740E+01  0.47787290064E+02  0.20000086719E+02 0.  0.
         12    1    1    2    0    0  0.41694026618E+02  0.76371755247E+01 -0.93221948740E+01  0.43400709936E+02  0.00000000000E+00 0. -1.
         11    1    3    3    0    0 -0.89177431003E+01 -0.47302052091E+01 -0.51226551537E+01  0.11320007924E+02  0.51100000000E-03 0. -1.
        -11    1    3    3    0    0 -0.49323439682E+01 -0.11475619784E+01  0.30454205092E-01  0.50641725123E+01  0.51100000000E-03 0.  1.
        -12    1    3    3    0    0 -0.27843939550E+02 -0.17594083372E+01  0.14414395823E+02  0.31403109628E+02  0.00000000000E+00 0.  1.
</event>
<event>
 7    1  0.1265344E-009  0.4778727E+02  0.7816164E-02  0.1312668E+00
        -11   -1    0    0    0    0  0.00000000000E+00  0.00000000000E+00  0.45593999997E+02  0.45594000000E+02  0.51100000000E-03 0.  1.
         11   -1    0    0    0    0 -0.00000000000E+00 -0.00000000000E+00 -0.45593999997E+02  0.45594000000E+02  0.51100000000E-03 0. -1.
    9900012    2    1    2    0    0  0.15734322496E+02  0.37524122579E+02  0.15099492912E+02  0.47787269984E+02  0.19999995166E+02 0.  0.
         12    1    1    2    0    0 -0.15734322496E+02 -0.37524122579E+02 -0.15099492912E+02  0.43400730016E+02  0.00000000000E+00 0. -1.
         11    1    3    3    0    0  0.24268743559E+01  0.56985225704E+01 -0.46403825585E+01  0.77392524946E+01  0.51100000000E-03 0. -1.
        -11    1    3    3    0    0  0.61343636669E+01  0.14945884343E+02  0.64371367216E+01  0.17390992088E+02  0.51100000000E-03 0.  1.
         12    1    3    3    0    0  0.71730844732E+01  0.16879715666E+02  0.13302738749E+02  0.22657025401E+02  0.00000000000E+00 0. -1.
</event>
<event>
 7    1  0.1265344E-009  0.4778727E+02  0.7816164E-02  0.1312668E+00
        -11   -1    0    0    0    0  0.00000000000E+00  0.00000000000E+00  0.45593999997E+02  0.45594000000E+02  0.51100000000E-03 0.  1.
         11   -1    0    0    0    0 -0.00000000000E+00 -0.00000000000E+00 -0.45593999997E+02  0.45594000000E+02  0.51100000000E-03 0. -1.
    9900012    2    1    2    0    0  0.14873483224E+02 -0.39114524068E+02  0.11508990170E+02  0.47787270156E+02  0.19999995949E+02 0.  0.
         12    1    1    2    0    0 -0.14873483224E+02  0.39114524068E+02 -0.11508990170E+02  0.43400729844E+02  0.00000000000E+00 0. -1.
         11    1    3    3    0    0  0.10175606001E+02 -0.18920605107E+02  0.22744080290E+01  0.21603360554E+02  0.51100000000E-03 0. -1.
        -11    1    3    3    0    0 -0.90945011512E+00 -0.18515747580E+02  0.59354748012E+01  0.19465093613E+02  0.51100000000E-03 0.  1.
        -12    1    3    3    0    0  0.56073273376E+01 -0.16781713808E+01  0.32991073402E+01  0.67188159891E+01  0.00000000000E+00 0.  1.
</event>
<event>
 7    1  0.1265344E-009  0.4778727E+02  0.7816164E-02  0.1312668E+00
        -11   -1    0    0    0    0  0.00000000000E+00  0.00000000000E+00  0.45593999997E+02  0.45594000000E+02  0.51100000000E-03 0. -1.
         11   -1    0    0    0    0 -0.00000000000E+00 -0.00000000000E+00 -0.45593999997E+02  0.45594000000E+02  0.51100000000E-03 0.  1.
    9900012    2    1    2    0    0 -0.50916273061E+01  0.23319077128E+02 -0.36248025989E+02  0.47787269421E+02  0.19999992596E+02 0.  0.
         12    1    1    2    0    0  0.50916273061E+01 -0.23319077128E+02  0.36248025989E+02  0.43400730579E+02  0.00000000000E+00 0. -1.
         11    1    3    3    0    0 -0.12729061959E+00  0.83419775746E+01 -0.51833977000E+01  0.98220366898E+01  0.51100000000E-03 0.  1.
        -11    1    3    3    0    0  0.24819105500E+01 -0.16492401840E+00 -0.13038973154E+02  0.13274106414E+02  0.51100000000E-03 0. -1.
         12    1    3    3    0    0 -0.74462472365E+01  0.15142023572E+02 -0.18025655134E+02  0.24691126317E+02  0.00000000000E+00 0. -1.
</event>
<event>
 7    1  0.1265344E-009  0.4778727E+02  0.7816164E-02  0.1312668E+00
        -11   -1    0    0    0    0  0.00000000000E+00  0.00000000000E+00  0.45593999997E+02  0.45594000000E+02  0.51100000000E-03 0.  1.
         11   -1    0    0    0    0 -0.00000000000E+00 -0.00000000000E+00 -0.45593999997E+02  0.45594000000E+02  0.51100000000E-03 0. -1.
    9900012    2    1    2    0    0  0.54897200768E+01  0.29481466345E+02  0.31374031022E+02  0.47787266056E+02  0.19999977255E+02 0.  0.
         12    1    1    2    0    0 -0.54897200768E+01 -0.29481466345E+02 -0.31374031022E+02  0.43400733944E+02  0.00000000000E+00 0. -1.
         11    1    3    3    0    0  0.97123506372E+00  0.16928366045E+02  0.73239202343E+01  0.18470318957E+02  0.51100000000E-03 0. -1.
        -11    1    3    3    0    0  0.11812704904E+01 -0.16019606471E+01  0.15358581726E+01  0.25140681124E+01  0.51100000000E-03 0.  1.
        -12    1    3    3    0    0  0.33372145226E+01  0.14155060947E+02  0.22514252615E+02  0.26802878987E+02  0.00000000000E+00 0.  1.
</event>
<event>
 7    1  0.1265344E-009  0.4778727E+02  0.7816164E-02  0.1312668E+00
        -11   -1    0    0    0    0  0.00000000000E+00  0.00000000000E+00  0.45593999997E+02  0.45594000000E+02  0.51100000000E-03 0. -1.
         11   -1    0    0    0    0 -0.00000000000E+00 -0.00000000000E+00 -0.45593999997E+02  0.45594000000E+02  0.51100000000E-03 0.  1.
    9900012    2    1    2    0    0  0.14809916906E+02 -0.40678267212E+02 -0.30932905747E+01  0.47787268339E+02  0.19999987663E+02 0.  0.
         12    1    1    2    0    0 -0.14809916906E+02  0.40678267212E+02  0.30932905747E+01  0.43400731661E+02  0.00000000000E+00 0. -1.
         11    1    3    3    0    0  0.15160877839E+02 -0.22996393197E+02  0.17313423213E+01  0.27598620679E+02  0.51100000000E-03 0. -1.
        -11    1    3    3    0    0  0.21697406019E+01 -0.16789343091E+02 -0.41091362767E+01  0.17420528606E+02  0.51100000000E-03 0.  1.
        -12    1    3    3    0    0 -0.25207015354E+01 -0.89253092480E+00 -0.71549661927E+00  0.27681190535E+01  0.00000000000E+00 0.  1.
</event>
<event>
 7    1  0.1265344E-009  0.4778727E+02  0.7816164E-02  0.1312668E+00
        -11   -1    0    0    0    0  0.00000000000E+00  0.00000000000E+00  0.45593999997E+02  0.45594000000E+02  0.51100000000E-03 0.  1.
         11   -1    0    0    0    0 -0.00000000000E+00 -0.00000000000E+00 -0.45593999997E+02  0.45594000000E+02  0.51100000000E-03 0. -1.
    9900012    2    1    2    0    0  0.27640757045E+02  0.32275815756E+02 -0.88251538743E+01  0.47787273351E+02  0.20000010517E+02 0.  0.
         12    1    1    2    0    0 -0.27640757045E+02 -0.32275815756E+02  0.88251538743E+01  0.43400726649E+02  0.00000000000E+00 0. -1.
         11    1    3    3    0    0  0.14649251681E+02  0.17968501161E+02 -0.13086188097E+02  0.26621719102E+02  0.51100000000E-03 0. -1.
        -11    1    3    3    0    0  0.81548560876E+01  0.39527617197E+01  0.29049179226E+00  0.90669944725E+01  0.51100000000E-03 0.  1.
         12    1    3    3    0    0  0.48366492769E+01  0.10354552876E+02  0.39705424304E+01  0.12098559777E+02  0.00000000000E+00 0. -1.
</event>
<event>
 7    1  0.1328469E-009  0.4778727E+02  0.7816164E-02  0.1312668E+00
        -11   -1    0    0    0    0  0.00000000000E+00  0.00000000000E+00  0.45593999997E+02  0.45594000000E+02  0.51100000000E-03 0. -1.
         11   -1    0    0    0    0 -0.00000000000E+00 -0.00000000000E+00 -0.45593999997E+02  0.45594000000E+02  0.51100000000E-03 0.  1.
    9900012    2    1    2    0    0  0.64862319265E+00  0.38062807864E+02 -0.20842876441E+02  0.47787267830E+02  0.19999985344E+02 0.  0.
         12    1    1    2    0    0 -0.64862319265E+00 -0.38062807864E+02  0.20842876441E+02  0.43400732170E+02  0.00000000000E+00 0. -1.
         11    1    3    3    0    0  0.52080059650E+01  0.14966908224E+02 -0.45095696720E+01  0.16476282554E+02  0.51100000000E-03 0. -1.
        -11    1    3    3    0    0 -0.35777483066E+01  0.24430043343E+02 -0.13803500598E+02  0.28287168994E+02  0.51100000000E-03 0.  1.
        -12    1    3    3    0    0 -0.98163446576E+00 -0.13341437026E+01 -0.25298061708E+01  0.30238162817E+01  0.00000000000E+00 0.  1.
</event>
<event>
 7    1  0.1265344E-009  0.4778725E+02  0.7816164E-02  0.1312668E+00
        -11   -1    0    0    0    0  0.00000000000E+00  0.00000000000E+00  0.45593999997E+02  0.45594000000E+02  0.51100000000E-03 0. -1.
         11   -1    0    0    0    0 -0.00000000000E+00 -0.00000000000E+00 -0.45593999997E+02  0.45594000000E+02  0.51100000000E-03 0.  1.
    9900012    2    1    2    0    0  0.42261197100E+01  0.34631648984E+02 -0.25814987469E+02  0.47787253726E+02  0.19999921039E+02 0.  0.
         12    1    1    2    0    0 -0.42261197100E+01 -0.34631648984E+02  0.25814987469E+02  0.43400746274E+02  0.00000000000E+00 0. -1.
         11    1    3    3    0    0 -0.52593701583E+01  0.18340018807E+02 -0.14341170162E+02  0.23868104788E+02  0.51100000000E-03 0. -1.
        -11    1    3    3    0    0  0.59620823393E+01  0.14640136699E+02 -0.12190850994E+02  0.19962386546E+02  0.51100000000E-03 0.  1.
        -12    1    3    3    0    0  0.35234075290E+01  0.16514934783E+01  0.71703368746E+00  0.39567623929E+01  0.00000000000E+00 0.  1.
</event>
<event>
 7    1  0.1265344E-009  0.4778727E+02  0.7816164E-02  0.1312668E+00
        -11   -1    0    0    0    0  0.00000000000E+00  0.00000000000E+00  0.45593999997E+02  0.45594000000E+02  0.51100000000E-03 0.  1.
         11   -1    0    0    0    0 -0.00000000000E+00 -0.00000000000E+00 -0.45593999997E+02  0.45594000000E+02  0.51100000000E-03 0. -1.
    9900012    2    1    2    0    0  0.28242440107E+02  0.22749415887E+02  0.23842233755E+02  0.47787268937E+02  0.19999990390E+02 0.  0.
         12    1    1    2    0    0 -0.28242440107E+02 -0.22749415887E+02 -0.23842233755E+02  0.43400731063E+02  0.00000000000E+00 0. -1.
         11    1    3    3    0    0 -0.17129654505E+01 -0.63936582640E+00  0.19090415524E+01  0.26433840441E+01  0.51100000000E-03 0. -1.
        -11    1    3    3    0    0  0.68999170518E+01  0.26854238510E+01  0.40987992483E+00  0.74154135687E+01  0.51100000000E-03 0.  1.
        -12    1    3    3    0    0  0.23055488506E+02  0.20703357863E+02  0.21523312278E+02  0.37728471324E+02  0.00000000000E+00 0.  1.
</event>
<event>
 7    1  0.1265344E-009  0.4778728E+02  0.7816164E-02  0.1312668E+00
        -11   -1    0    0    0    0  0.00000000000E+00  0.00000000000E+00  0.45593999997E+02  0.45594000000E+02  0.51100000000E-03 0. -1.
         11   -1    0    0    0    0 -0.00000000000E+00 -0.00000000000E+00 -0.45593999997E+02  0.45594000000E+02  0.51100000000E-03 0.  1.
    9900012    2    1    2    0    0 -0.12906205654E+02  0.38004509431E+02  0.16513929139E+02  0.47787277229E+02  0.20000028198E+02 0.  0.
         12    1    1    2    0    0  0.12906205654E+02 -0.38004509431E+02 -0.16513929139E+02  0.43400722771E+02  0.00000000000E+00 0. -1.
         11    1    3    3    0    0  0.16064925896E+01  0.43370375565E+01  0.80335512534E+01  0.92697712599E+01  0.51100000000E-03 0. -1.
        -11    1    3    3    0    0 -0.64723984667E+01  0.19692446246E+02  0.84755035401E+01  0.22394609655E+02  0.51100000000E-03 0.  1.
         12    1    3    3    0    0 -0.80402997772E+01  0.13975025628E+02  0.48743450294E-02  0.16122896314E+02  0.00000000000E+00 0. -1.
</event>
<event>
 7    1  0.1265344E-009  0.4778727E+02  0.7816164E-02  0.1312668E+00
        -11   -1    0    0    0    0  0.00000000000E+00  0.00000000000E+00  0.45593999997E+02  0.45594000000E+02  0.51100000000E-03 0. -1.
         11   -1    0    0    0    0 -0.00000000000E+00 -0.00000000000E+00 -0.45593999997E+02  0.45594000000E+02  0.51100000000E-03 0.  1.
    9900012    2    1    2    0    0  0.39255970239E+02 -0.15415259710E+02  0.10245089869E+02  0.47787270770E+02  0.19999998747E+02 0.  0.
         12    1    1    2    0    0 -0.39255970239E+02  0.15415259710E+02 -0.10245089869E+02  0.43400729230E+02  0.00000000000E+00 0. -1.
         11    1    3    3    0    0  0.27434533728E+02 -0.60044294904E+01  0.57721263999E+01  0.28670965415E+02  0.51100000000E-03 0. -1.
        -11    1    3    3    0    0  0.13903172878E+02 -0.83979962444E+01  0.35632508483E+01  0.16628930028E+02  0.51100000000E-03 0.  1.
        -12    1    3    3    0    0 -0.20817363676E+01 -0.10128339749E+01  0.90971262107E+00  0.24873753271E+01  0.00000000000E+00 0.  1.
</event>
<event>
 7    1  0.1265344E-009  0.4778727E+02  0.7816164E-02  0.1312668E+00
        -11   -1    0    0    0    0  0.00000000000E+00  0.00000000000E+00  0.45593999997E+02  0.45594000000E+02  0.51100000000E-03 0. -1.
         11   -1    0    0    0    0 -0.00000000000E+00 -0.00000000000E+00 -0.45593999997E+02  0.45594000000E+02  0.51100000000E-03 0.  1.
    9900012    2    1    2    0    0  0.41825651369E+02  0.47085961194E+00  0.11576540745E+02  0.47787272853E+02  0.20000008247E+02 0.  0.
         12    1    1    2    0    0 -0.41825651369E+02 -0.47085961194E+00 -0.11576540745E+02  0.43400727147E+02  0.00000000000E+00 0. -1.
         11    1    3    3    0    0  0.83940622655E+01  0.69293116281E+01  0.65450631900E+01  0.12700924902E+02  0.51100000000E-03 0. -1.
        -11    1    3    3    0    0  0.15562959668E+02 -0.10105811158E+00  0.42507830119E+00  0.15569091759E+02  0.51100000000E-03 0.  1.
         12    1    3    3    0    0  0.17868629436E+02 -0.63573939046E+01  0.46063992541E+01  0.19517256192E+02  0.00000000000E+00 0. -1.
</event>
<event>
 7    1  0.1265344E-009  0.4778726E+02  0.7816164E-02  0.1312668E+00
        -11   -1    0    0    0    0  0.00000000000E+00  0.00000000000E+00  0.45593999997E+02  0.45594000000E+02  0.51100000000E-03 0.  1.
         11   -1    0    0    0    0 -0.00000000000E+00 -0.00000000000E+00 -0.45593999997E+02  0.45594000000E+02  0.51100000000E-03 0. -1.
    9900012    2    1    2    0    0 -0.31822380240E+02  0.18813470870E+02  0.22737925762E+02  0.47787264542E+02  0.19999970355E+02 0.  0.
         12    1    1    2    0    0  0.31822380240E+02 -0.18813470870E+02 -0.22737925762E+02  0.43400735458E+02  0.00000000000E+00 0. -1.
         11    1    3    3    0    0  0.63416057479E+00  0.41673029486E+01  0.15587151779E+01  0.44942370617E+01  0.51100000000E-03 0. -1.
        -11    1    3    3    0    0 -0.12735068780E+02  0.13040607625E+01  0.12659450705E+02  0.18004006324E+02  0.51100000000E-03 0.  1.
        -12    1    3    3    0    0 -0.19721472034E+02  0.13342107159E+02  0.85197598786E+01  0.25289021156E+02  0.00000000000E+00 0.  1.
</event>
<event>
 7    1  0.1265344E-009  0.4778727E+02  0.7816164E-02  0.1312668E+00
        -11   -1    0    0    0    0  0.00000000000E+00  0.00000000000E+00  0.45593999997E+02  0.45594000000E+02  0.51100000000E-03 0.  1.
         11   -1    0    0    0    0 -0.00000000000E+00 -0.00000000000E+00 -0.45593999997E+02  0.45594000000E+02  0.51100000000E-03 0. -1.
    9900012    2    1    2    0    0  0.20069587033E+02  0.29129536869E+02  0.25145685461E+02  0.47787265684E+02  0.19999975560E+02 0.  0.
         12    1    1    2    0    0 -0.20069587033E+02 -0.29129536869E+02 -0.25145685461E+02  0.43400734316E+02  0.00000000000E+00 0. -1.
         11    1    3    3    0    0 -0.19421027420E+01 -0.31820334738E+00  0.99984882262E+00  0.22074225603E+01  0.51100000000E-03 0. -1.
        -11    1    3    3    0    0  0.13558556802E+02  0.11412288051E+02  0.16593480248E+02  0.24277939948E+02  0.51100000000E-03 0.  1.
        -12    1    3    3    0    0  0.84531329729E+01  0.18035452165E+02  0.75523563898E+01  0.21301903176E+02  0.00000000000E+00 0.  1.
</event>
<event>
 7    1  0.1265344E-009  0.4778725E+02  0.7816164E-02  0.1312668E+00
        -11   -1    0    0    0    0  0.00000000000E+00  0.00000000000E+00  0.45593999997E+02  0.45594000000E+02  0.51100000000E-03 0.  1.
         11   -1    0    0    0    0 -0.00000000000E+00 -0.00000000000E+00 -0.45593999997E+02  0.45594000000E+02  0.51100000000E-03 0. -1.
    9900012    2    1    2    0    0  0.39334091427E+02 -0.13197547555E+02  0.12738881918E+02  0.47787249749E+02  0.19999902904E+02 0.  0.
         12    1    1    2    0    0 -0.39334091427E+02  0.13197547555E+02 -0.12738881918E+02  0.43400750251E+02  0.00000000000E+00 0. -1.
         11    1    3    3    0    0  0.21409985419E+02 -0.31683071341E+01  0.40055749541E+01  0.22010685512E+02  0.51100000000E-03 0. -1.
        -11    1    3    3    0    0  0.15899848802E+02 -0.20677175742E+01  0.55683065835E+01  0.16973116578E+02  0.51100000000E-03 0.  1.
         12    1    3    3    0    0  0.20242572060E+01 -0.79615228464E+01  0.31650003802E+01  0.88034476585E+01  0.00000000000E+00 0. -1.
</event>
<event>
 7    1  0.1265344E-009  0.4778727E+02  0.7816164E-02  0.1312668E+00
        -11   -1    0    0    0    0  0.00000000000E+00  0.00000000000E+00  0.45593999997E+02  0.45594000000E+02  0.51100000000E-03 0. -1.
         11   -1    0    0    0    0 -0.00000000000E+00 -0.00000000000E+00 -0.45593999997E+02  0.45594000000E+02  0.51100000000E-03 0.  1.
    9900012    2    1    2    0    0 -0.24933090033E+02  0.54176735636E+01 -0.35108590009E+02  0.47787271229E+02  0.20000000843E+02 0.  0.
         12    1    1    2    0    0  0.24933090033E+02 -0.54176735636E+01  0.35108590009E+02  0.43400728771E+02  0.00000000000E+00 0. -1.
         11    1    3    3    0    0 -0.47375134025E+01 -0.42282924712E+01 -0.25665319474E+01  0.68490566474E+01  0.51100000000E-03 0. -1.
        -11    1    3    3    0    0 -0.31503954620E+01  0.30387151829E+01 -0.14911949045E+02  0.15541074806E+02  0.51100000000E-03 0.  1.
         12    1    3    3    0    0 -0.17045181168E+02  0.66072508519E+01 -0.17630109016E+02  0.25397139776E+02  0.00000000000E+00 0. -1.
</event>
<event>
 7    1  0.1265344E-009  0.4778727E+02  0.7816164E-02  0.1312668E+00
        -11   -1    0    0    0    0  0.00000000000E+00  0.00000000000E+00  0.45593999997E+02  0.45594000000E+02  0.51100000000E-03 0. -1.
         11   -1    0    0    0    0 -0.00000000000E+00 -0.00000000000E+00 -0.45593999997E+02  0.45594000000E+02  0.51100000000E-03 0.  1.
    9900012    2    1    2    0    0  0.32571636060E+02  0.26431021118E+02 -0.11140604947E+02  0.47787269228E+02  0.19999991716E+02 0.  0.
         12    1    1    2    0    0 -0.32571636060E+02 -0.26431021118E+02  0.11140604947E+02  0.43400730772E+02  0.00000000000E+00 0. -1.
         11    1    3    3    0    0 -0.12817629190E+01  0.86800041193E+00 -0.18923822023E+01  0.24448827286E+01  0.51100000000E-03 0. -1.
        -11    1    3    3    0    0  0.26484934475E+01  0.50153113046E+01 -0.53160537917E+01  0.77735637388E+01  0.51100000000E-03 0.  1.
        -12    1    3    3    0    0  0.31204905532E+02  0.20547709402E+02 -0.39321689525E+01  0.37568822760E+02  0.00000000000E+00 0.  1.
</event>
<event>
 7    1  0.1265344E-009  0.4778727E+02  0.7816164E-02  0.1312668E+00
        -11   -1    0    0    0    0  0.00000000000E+00  0.00000000000E+00  0.45593999997E+02  0.45594000000E+02  0.51100000000E-03 0. -1.
         11   -1    0    0    0    0 -0.00000000000E+00 -0.00000000000E+00 -0.45593999997E+02  0.45594000000E+02  0.51100000000E-03 0.  1.
    9900012    2    1    2    0    0  0.39169168072E+02 -0.75930362166E+01  0.17080549960E+02  0.47787272894E+02  0.20000008431E+02 0.  0.
         12    1    1    2    0    0 -0.39169168072E+02  0.75930362166E+01 -0.17080549960E+02  0.43400727106E+02  0.00000000000E+00 0. -1.
         11    1    3    3    0    0  0.49858824341E+01 -0.46891254472E+00  0.25902873631E+01  0.56381283690E+01  0.51100000000E-03 0. -1.
        -11    1    3    3    0    0  0.32394532454E+02 -0.87242965863E+01  0.17864294274E+02  0.38008579216E+02  0.51100000000E-03 0.  1.
         12    1    3    3    0    0  0.17887531840E+01  0.16001729144E+01 -0.33740316779E+01  0.41405653084E+01  0.00000000000E+00 0. -1.
</event>
<event>
 7    1  0.1265344E-009  0.4778727E+02  0.7816164E-02  0.1312668E+00
        -11   -1    0    0    0    0  0.00000000000E+00  0.00000000000E+00  0.45593999997E+02  0.45594000000E+02  0.51100000000E-03 0. -1.
         11   -1    0    0    0    0 -0.00000000000E+00 -0.00000000000E+00 -0.45593999997E+02  0.45594000000E+02  0.51100000000E-03 0.  1.
    9900012    2    1    2    0    0  0.13839322835E+02  0.12601053179E+02 -0.39157502450E+02  0.47787269639E+02  0.19999993590E+02 0.  0.
         12    1    1    2    0    0 -0.13839322835E+02 -0.12601053179E+02  0.39157502450E+02  0.43400730361E+02  0.00000000000E+00 0. -1.
         11    1    3    3    0    0  0.71329768868E+01 -0.47678112629E+01 -0.13841030295E+02  0.16284517291E+02  0.51100000000E-03 0. -1.
        -11    1    3    3    0    0  0.25218788079E+01  0.54879129765E+01 -0.66444834905E+01  0.89792105819E+01  0.51100000000E-03 0.  1.
         12    1    3    3    0    0  0.41844671407E+01  0.11880951465E+02 -0.18671988665E+02  0.22523541765E+02  0.00000000000E+00 0. -1.
</event>
<event>
 7    1  0.1265344E-009  0.4778727E+02  0.7816164E-02  0.1312668E+00
        -11   -1    0    0    0    0  0.00000000000E+00  0.00000000000E+00  0.45593999997E+02  0.45594000000E+02  0.51100000000E-03 0. -1.
         11   -1    0    0    0    0 -0.00000000000E+00 -0.00000000000E+00 -0.45593999997E+02  0.45594000000E+02  0.51100000000E-03 0.  1.
    9900012    2    1    2    0    0  0.21003639405E+02 -0.33855462273E+02 -0.17212735515E+02  0.47787268925E+02  0.19999990335E+02 0.  0.
         12    1    1    2    0    0 -0.21003639405E+02  0.33855462273E+02  0.17212735515E+02  0.43400731075E+02  0.00000000000E+00 0. -1.
         11    1    3    3    0    0 -0.13314961488E+01  0.20658754918E+00 -0.10503100732E+01  0.17084238118E+01  0.51100000000E-03 0. -1.
        -11    1    3    3    0    0  0.14730672163E+02 -0.15397073805E+02 -0.19103253549E+01  0.21394203125E+02  0.51100000000E-03 0.  1.
         12    1    3    3    0    0  0.76044633906E+01 -0.18664976017E+02 -0.14252100087E+02  0.24684641988E+02  0.00000000000E+00 0. -1.
</event>
<event>
 7    1  0.1265344E-009  0.4778727E+02  0.7816164E-02  0.1312668E+00
        -11   -1    0    0    0    0  0.00000000000E+00  0.00000000000E+00  0.45593999997E+02  0.45594000000E+02  0.51100000000E-03 0.  1.
         11   -1    0    0    0    0 -0.00000000000E+00 -0.00000000000E+00 -0.45593999997E+02  0.45594000000E+02  0.51100000000E-03 0. -1.
    9900012    2    1    2    0    0 -0.18748762846E+01  0.37561098529E+02  0.21662689649E+02  0.47787269515E+02  0.19999993026E+02 0.  0.
         12    1    1    2    0    0  0.18748762846E+01 -0.37561098529E+02 -0.21662689649E+02  0.43400730485E+02  0.00000000000E+00 0. -1.
         11    1    3    3    0    0 -0.36284938706E+00  0.20298540846E+02  0.95484974185E+01  0.22435155969E+02  0.51100000000E-03 0.  1.
        -11    1    3    3    0    0  0.48680581064E+01  0.17809536810E+01  0.10690906651E+01  0.52927063826E+01  0.51100000000E-03 0. -1.
         12    1    3    3    0    0 -0.63800850039E+01  0.15481604003E+02  0.11045101565E+02  0.20059407163E+02  0.00000000000E+00 0. -1.
</event>
<event>
 7    1  0.1265344E-009  0.4778727E+02  0.7816164E-02  0.1312668E+00
        -11   -1    0    0    0    0  0.00000000000E+00  0.00000000000E+00  0.45593999997E+02  0.45594000000E+02  0.51100000000E-03 0.  1.
         11   -1    0    0    0    0 -0.00000000000E+00 -0.00000000000E+00 -0.45593999997E+02  0.45594000000E+02  0.51100000000E-03 0. -1.
    9900012    2    1    2    0    0 -0.10763625645E+02  0.56966017603E+01  0.41657126528E+02  0.47787273057E+02  0.20000009176E+02 0.  0.
         12    1    1    2    0    0  0.10763625645E+02 -0.56966017603E+01 -0.41657126528E+02  0.43400726943E+02  0.00000000000E+00 0. -1.
         11    1    3    3    0    0 -0.19382785621E+01  0.35797659694E+01  0.17030156590E+02  0.17509936662E+02  0.51100000000E-03 0. -1.
        -11    1    3    3    0    0 -0.93963088792E+01 -0.48123651636E+01  0.16423894855E+02  0.19524185040E+02  0.51100000000E-03 0.  1.
         12    1    3    3    0    0  0.57096179611E+00  0.69292009545E+01  0.82030750824E+01  0.10753151354E+02  0.00000000000E+00 0. -1.
</event>
<event>
 7    1  0.1265344E-009  0.4778727E+02  0.7816164E-02  0.1312668E+00
        -11   -1    0    0    0    0  0.00000000000E+00  0.00000000000E+00  0.45593999997E+02  0.45594000000E+02  0.51100000000E-03 0.  1.
         11   -1    0    0    0    0 -0.00000000000E+00 -0.00000000000E+00 -0.45593999997E+02  0.45594000000E+02  0.51100000000E-03 0. -1.
    9900012    2    1    2    0    0  0.12426782385E+02 -0.35402852768E+02  0.21813674564E+02  0.47787270714E+02  0.19999998495E+02 0.  0.
         12    1    1    2    0    0 -0.12426782385E+02  0.35402852768E+02 -0.21813674564E+02  0.43400729286E+02  0.00000000000E+00 0. -1.
         11    1    3    3    0    0  0.29814904584E+01 -0.11972443320E+02  0.12623131140E+02  0.17651405735E+02  0.51100000000E-03 0.  1.
        -11    1    3    3    0    0 -0.28721819421E+00 -0.16577498288E+02  0.35131249720E+01  0.16948096976E+02  0.51100000000E-03 0. -1.
         12    1    3    3    0    0  0.97325101209E+01 -0.68529111595E+01  0.56774184522E+01  0.13187768003E+02  0.00000000000E+00 0. -1.
</event>
<event>
 7    1  0.1265344E-009  0.4778727E+02  0.7816164E-02  0.1312668E+00
        -11   -1    0    0    0    0  0.00000000000E+00  0.00000000000E+00  0.45593999997E+02  0.45594000000E+02  0.51100000000E-03 0.  1.
         11   -1    0    0    0    0 -0.00000000000E+00 -0.00000000000E+00 -0.45593999997E+02  0.45594000000E+02  0.51100000000E-03 0. -1.
    9900012    2    1    2    0    0 -0.12337951799E+02  0.41589659782E+02  0.13032152213E+01  0.47787271604E+02  0.20000002551E+02 0.  0.
         12    1    1    2    0    0  0.12337951799E+02 -0.41589659782E+02 -0.13032152213E+01  0.43400728396E+02  0.00000000000E+00 0. -1.
         11    1    3    3    0    0 -0.88145206904E+01  0.99763894612E+01  0.53033008737E+01  0.14330007750E+02  0.51100000000E-03 0. -1.
        -11    1    3    3    0    0 -0.53299077404E+01  0.91654663604E+01 -0.10827015920E+00  0.10603085061E+02  0.51100000000E-03 0.  1.
        -12    1    3    3    0    0  0.18064766318E+01  0.22447803961E+02 -0.38918154933E+01  0.22854178793E+02  0.00000000000E+00 0.  1.
</event>
<event>
 7    1  0.1330403E-009  0.4778727E+02  0.7816164E-02  0.1312668E+00
        -11   -1    0    0    0    0  0.00000000000E+00  0.00000000000E+00  0.45593999997E+02  0.45594000000E+02  0.51100000000E-03 0. -1.
         11   -1    0    0    0    0 -0.00000000000E+00 -0.00000000000E+00 -0.45593999997E+02  0.45594000000E+02  0.51100000000E-03 0.  1.
    9900012    2    1    2    0    0  0.16365064287E+01  0.25706411039E+02 -0.34930299118E+02  0.47787268229E+02  0.19999987163E+02 0.  0.
         12    1    1    2    0    0 -0.16365064287E+01 -0.25706411039E+02  0.34930299118E+02  0.43400731771E+02  0.00000000000E+00 0. -1.
         11    1    3    3    0    0  0.35148684138E+01  0.13631089889E+02 -0.14110520170E+02  0.19931575233E+02  0.51100000000E-03 0.  1.
        -11    1    3    3    0    0 -0.26459895629E+01  0.71315724545E+01 -0.21500686526E+02  0.22806580362E+02  0.51100000000E-03 0. -1.
         12    1    3    3    0    0  0.76762757782E+00  0.49437486951E+01  0.68090757872E+00  0.50491126339E+01  0.00000000000E+00 0. -1.
</event>
<event>
 7    1  0.1265344E-009  0.4778727E+02  0.7816164E-02  0.1312668E+00
        -11   -1    0    0    0    0  0.00000000000E+00  0.00000000000E+00  0.45593999997E+02  0.45594000000E+02  0.51100000000E-03 0.  1.
         11   -1    0    0    0    0 -0.00000000000E+00 -0.00000000000E+00 -0.45593999997E+02  0.45594000000E+02  0.51100000000E-03 0. -1.
    9900012    2    1    2    0    0 -0.37855454955E+02  0.20810200747E+02  0.41860755634E+01  0.47787272430E+02  0.20000006319E+02 0.  0.
         12    1    1    2    0    0  0.37855454955E+02 -0.20810200747E+02 -0.41860755634E+01  0.43400727570E+02  0.00000000000E+00 0. -1.
         11    1    3    3    0    0 -0.97123997413E+01  0.79879601660E+01  0.77204395659E+01  0.14756131055E+02  0.51100000000E-03 0.  1.
        -11    1    3    3    0    0 -0.45722205216E+01 -0.15404176188E+01 -0.24420038463E+01  0.54075382555E+01  0.51100000000E-03 0. -1.
        -12    1    3    3    0    0 -0.23570834692E+02  0.14362658200E+02 -0.10923601561E+01  0.27623603120E+02  0.00000000000E+00 0.  1.
</event>
<event>
 7    1  0.1265344E-009  0.4778727E+02  0.7816164E-02  0.1312668E+00
        -11   -1    0    0    0    0  0.00000000000E+00  0.00000000000E+00  0.45593999997E+02  0.45594000000E+02  0.51100000000E-03 0. -1.
         11   -1    0    0    0    0 -0.00000000000E+00 -0.00000000000E+00 -0.45593999997E+02  0.45594000000E+02  0.51100000000E-03 0.  1.
    9900012    2    1    2    0    0  0.75173791330E+01 -0.35646328737E+02 -0.23589224090E+02  0.47787271497E+02  0.20000002064E+02 0.  0.
         12    1    1    2    0    0 -0.75173791330E+01  0.35646328737E+02  0.23589224090E+02  0.43400728503E+02  0.00000000000E+00 0. -1.
         11    1    3    3    0    0  0.35855508432E+01 -0.64927519395E+01 -0.79833514340E+01  0.10897059373E+02  0.51100000000E-03 0. -1.
        -11    1    3    3    0    0  0.26447827162E+01 -0.27387903178E+02 -0.75343861365E+01  0.28528215696E+02  0.51100000000E-03 0.  1.
         12    1    3    3    0    0  0.12870455736E+01 -0.17656736194E+01 -0.80714865190E+01  0.83619964282E+01  0.00000000000E+00 0. -1.
</event>
<event>
 7    1  0.1265344E-009  0.4778727E+02  0.7816164E-02  0.1312668E+00
        -11   -1    0    0    0    0  0.00000000000E+00  0.00000000000E+00  0.45593999997E+02  0.45594000000E+02  0.51100000000E-03 0.  1.
         11   -1    0    0    0    0 -0.00000000000E+00 -0.00000000000E+00 -0.45593999997E+02  0.45594000000E+02  0.51100000000E-03 0. -1.
    9900012    2    1    2    0    0 -0.15103160376E+02  0.36950666579E+02  0.17034255683E+02  0.47787273270E+02  0.20000010148E+02 0.  0.
         12    1    1    2    0    0  0.15103160376E+02 -0.36950666579E+02 -0.17034255683E+02  0.43400726730E+02  0.00000000000E+00 0. -1.
         11    1    3    3    0    0 -0.31326091808E+01  0.19619895825E+02  0.15197824277E+02  0.25014544079E+02  0.51100000000E-03 0. -1.
        -11    1    3    3    0    0 -0.80363673454E+01  0.81701211191E+01  0.47204904745E+01  0.12394236959E+02  0.51100000000E-03 0.  1.
        -12    1    3    3    0    0 -0.39341838502E+01  0.91606496350E+01 -0.28840590689E+01  0.10378492232E+02  0.00000000000E+00 0.  1.
</event>
<event>
 7    1  0.1265344E-009  0.4778727E+02  0.7816164E-02  0.1312668E+00
        -11   -1    0    0    0    0  0.00000000000E+00  0.00000000000E+00  0.45593999997E+02  0.45594000000E+02  0.51100000000E-03 0.  1.
         11   -1    0    0    0    0 -0.00000000000E+00 -0.00000000000E+00 -0.45593999997E+02  0.45594000000E+02  0.51100000000E-03 0. -1.
    9900012    2    1    2    0    0 -0.75530243915E+01 -0.85365911436E+00  0.42729925555E+02  0.47787269024E+02  0.19999990788E+02 0.  0.
         12    1    1    2    0    0  0.75530243915E+01  0.85365911436E+00 -0.42729925555E+02  0.43400730976E+02  0.00000000000E+00 0. -1.
         11    1    3    3    0    0 -0.55882355597E+01 -0.23351390372E+01  0.23362569875E+02  0.24134848714E+02  0.51100000000E-03 0. -1.
        -11    1    3    3    0    0 -0.49982323461E+01 -0.16074128001E+01  0.17858897876E+01  0.55457646083E+01  0.51100000000E-03 0.  1.
         12    1    3    3    0    0  0.30334435143E+01  0.30888927229E+01  0.17581465892E+02  0.18106655702E+02  0.00000000000E+00 0. -1.
</event>
<event>
 7    1  0.1265344E-009  0.4778727E+02  0.7816164E-02  0.1312668E+00
        -11   -1    0    0    0    0  0.00000000000E+00  0.00000000000E+00  0.45593999997E+02  0.45594000000E+02  0.51100000000E-03 0.  1.
         11   -1    0    0    0    0 -0.00000000000E+00 -0.00000000000E+00 -0.45593999997E+02  0.45594000000E+02  0.51100000000E-03 0. -1.
    9900012    2    1    2    0    0 -0.27910586671E+02  0.20608267806E+02  0.26075310088E+02  0.47787270208E+02  0.19999996187E+02 0.  0.
         12    1    1    2    0    0  0.27910586671E+02 -0.20608267806E+02 -0.26075310088E+02  0.43400729792E+02  0.00000000000E+00 0. -1.
         11    1    3    3    0    0 -0.12913633066E+02  0.13865152697E+02  0.15645192226E+02  0.24571862329E+02  0.51100000000E-03 0.  1.
        -11    1    3    3    0    0  0.22303009616E+01  0.13827700733E+01  0.69533615867E+00  0.27147353627E+01  0.51100000000E-03 0. -1.
         12    1    3    3    0    0 -0.17227254567E+02  0.53603450359E+01  0.97347817033E+01  0.20500672516E+02  0.00000000000E+00 0. -1.
</event>
<event>
 7    1  0.1265344E-009  0.4778727E+02  0.7816164E-02  0.1312668E+00
        -11   -1    0    0    0    0  0.00000000000E+00  0.00000000000E+00  0.45593999997E+02  0.45594000000E+02  0.51100000000E-03 0.  1.
         11   -1    0    0    0    0 -0.00000000000E+00 -0.00000000000E+00 -0.45593999997E+02  0.45594000000E+02  0.51100000000E-03 0. -1.
    9900012    2    1    2    0    0 -0.18192922563E+02  0.20752503633E+02  0.33495888611E+02  0.47787269680E+02  0.19999993781E+02 0.  0.
         12    1    1    2    0    0  0.18192922563E+02 -0.20752503633E+02 -0.33495888611E+02  0.43400730320E+02  0.00000000000E+00 0. -1.
         11    1    3    3    0    0 -0.13030865485E+02  0.97495693598E+01  0.10391318900E+02  0.19308989273E+02  0.51100000000E-03 0.  1.
        -11    1    3    3    0    0 -0.33032205210E+01 -0.11920323406E+01  0.20229015824E+01  0.40526951507E+01  0.51100000000E-03 0. -1.
         12    1    3    3    0    0 -0.18588365571E+01  0.12194966614E+02  0.21081668129E+02  0.24425585257E+02  0.00000000000E+00 0. -1.
</event>
<event>
 7    1  0.1265344E-009  0.4778727E+02  0.7816164E-02  0.1312668E+00
        -11   -1    0    0    0    0  0.00000000000E+00  0.00000000000E+00  0.45593999997E+02  0.45594000000E+02  0.51100000000E-03 0.  1.
         11   -1    0    0    0    0 -0.00000000000E+00 -0.00000000000E+00 -0.45593999997E+02  0.45594000000E+02  0.51100000000E-03 0. -1.
    9900012    2    1    2    0    0 -0.20322860705E+02 -0.12555368762E+02  0.36234891511E+02  0.47787270573E+02  0.19999997851E+02 0.  0.
         12    1    1    2    0    0  0.20322860705E+02  0.12555368762E+02 -0.36234891511E+02  0.43400729427E+02  0.00000000000E+00 0. -1.
         11    1    3    3    0    0 -0.53725280584E+01 -0.77534125961E+00  0.32231761695E+01  0.63130085291E+01  0.51100000000E-03 0. -1.
        -11    1    3    3    0    0 -0.77658658990E+00 -0.10209000442E+02  0.18401441905E+02  0.21058011330E+02  0.51100000000E-03 0.  1.
        -12    1    3    3    0    0 -0.14173746057E+02 -0.15710270604E+01  0.14610273437E+02  0.20416250714E+02  0.00000000000E+00 0.  1.
</event>
<event>
 7    1  0.1265344E-009  0.4778727E+02  0.7816164E-02  0.1312668E+00
        -11   -1    0    0    0    0  0.00000000000E+00  0.00000000000E+00  0.45593999997E+02  0.45594000000E+02  0.51100000000E-03 0.  1.
         11   -1    0    0    0    0 -0.00000000000E+00 -0.00000000000E+00 -0.45593999997E+02  0.45594000000E+02  0.51100000000E-03 0. -1.
    9900012    2    1    2    0    0 -0.24219438336E+01  0.21120645389E+02  0.37837495419E+02  0.47787268058E+02  0.19999986381E+02 0.  0.
         12    1    1    2    0    0  0.24219438336E+01 -0.21120645389E+02 -0.37837495419E+02  0.43400731942E+02  0.00000000000E+00 0. -1.
         11    1    3    3    0    0  0.29561001598E+01  0.21206057435E+02  0.25359588881E+02  0.33189518655E+02  0.51100000000E-03 0. -1.
        -11    1    3    3    0    0 -0.40744870979E+01  0.16789142023E+01  0.44003495595E+01  0.62276218990E+01  0.51100000000E-03 0.  1.
         12    1    3    3    0    0 -0.13035568955E+01 -0.17643262479E+01  0.80775569784E+01  0.83701275037E+01  0.00000000000E+00 0. -1.
</event>
<event>
 7    1  0.1265344E-009  0.4778726E+02  0.7816164E-02  0.1312668E+00
        -11   -1    0    0    0    0  0.00000000000E+00  0.00000000000E+00  0.45593999997E+02  0.45594000000E+02  0.51100000000E-03 0. -1.
         11   -1    0    0    0    0 -0.00000000000E+00 -0.00000000000E+00 -0.45593999997E+02  0.45594000000E+02  0.51100000000E-03 0.  1.
    9900012    2    1    2    0    0 -0.15827820552E+02  0.23634004730E+02 -0.32780143033E+02  0.47787264289E+02  0.19999969199E+02 0.  0.
         12    1    1    2    0    0  0.15827820552E+02 -0.23634004730E+02  0.32780143033E+02  0.43400735711E+02  0.00000000000E+00 0. -1.
         11    1    3    3    0    0 -0.13291630582E+01 -0.15338738582E+01 -0.27383891583E+01  0.34085508492E+01  0.51100000000E-03 0. -1.
        -11    1    3    3    0    0 -0.13826638233E+02  0.22513793176E+02 -0.31630500869E+02  0.41213291466E+02  0.51100000000E-03 0.  1.
        -12    1    3    3    0    0 -0.67201926155E+00  0.26540854119E+01  0.15887469940E+01  0.31654219738E+01  0.00000000000E+00 0.  1.
</event>
<event>
 7    1  0.1265344E-009  0.4778726E+02  0.7816164E-02  0.1312668E+00
        -11   -1    0    0    0    0  0.00000000000E+00  0.00000000000E+00  0.45593999997E+02  0.45594000000E+02  0.51100000000E-03 0.  1.
         11   -1    0    0    0    0 -0.00000000000E+00 -0.00000000000E+00 -0.45593999997E+02  0.45594000000E+02  0.51100000000E-03 0. -1.
    9900012    2    1    2    0    0 -0.23816606699E+02  0.33732336551E+02  0.13361233535E+02  0.47787264460E+02  0.19999969980E+02 0.  0.
         12    1    1    2    0    0  0.23816606699E+02 -0.33732336551E+02 -0.13361233535E+02  0.43400735540E+02  0.00000000000E+00 0. -1.
         11    1    3    3    0    0  0.12149679306E+00  0.15619059108E+01  0.26889651512E+01  0.31120484235E+01  0.51100000000E-03 0. -1.
        -11    1    3    3    0    0 -0.16335137428E+02  0.18713201096E+02 -0.16694408893E+01  0.24895936278E+02  0.51100000000E-03 0.  1.
        -12    1    3    3    0    0 -0.76029660643E+01  0.13457229544E+02  0.12341709273E+02  0.19779279758E+02  0.00000000000E+00 0.  1.
</event>
<event>
 7    1  0.1265344E-009  0.4778727E+02  0.7816164E-02  0.1312668E+00
        -11   -1    0    0    0    0  0.00000000000E+00  0.00000000000E+00  0.45593999997E+02  0.45594000000E+02  0.51100000000E-03 0.  1.
         11   -1    0    0    0    0 -0.00000000000E+00 -0.00000000000E+00 -0.45593999997E+02  0.45594000000E+02  0.51100000000E-03 0. -1.
    9900012    2    1    2    0    0  0.41295659471E+02 -0.20897315005E+01  0.13188058156E+02  0.47787270205E+02  0.19999996171E+02 0.  0.
         12    1    1    2    0    0 -0.41295659471E+02  0.20897315005E+01 -0.13188058156E+02  0.43400729795E+02  0.00000000000E+00 0. -1.
         11    1    3    3    0    0  0.70947625374E+01 -0.68810612773E+00 -0.46361792732E+01  0.85031349525E+01  0.51100000000E-03 0. -1.
        -11    1    3    3    0    0  0.68574897782E+01 -0.87515707701E-01  0.71342143695E+01  0.98959506864E+01  0.51100000000E-03 0.  1.
        -12    1    3    3    0    0  0.27343407155E+02 -0.13141096651E+01  0.10690023059E+02  0.29388184566E+02  0.00000000000E+00 0.  1.
</event>
<event>
 7    1  0.1925585E-009  0.4778727E+02  0.7816164E-02  0.1312668E+00
        -11   -1    0    0    0    0  0.00000000000E+00  0.00000000000E+00  0.45593999997E+02  0.45594000000E+02  0.51100000000E-03 0.  1.
         11   -1    0    0    0    0 -0.00000000000E+00 -0.00000000000E+00 -0.45593999997E+02  0.45594000000E+02  0.51100000000E-03 0. -1.
    9900012    2    1    2    0    0 -0.30074993843E+01  0.36043001894E+02  0.23989171725E+02  0.47787269613E+02  0.19999993474E+02 0.  0.
         12    1    1    2    0    0  0.30074993843E+01 -0.36043001894E+02 -0.23989171725E+02  0.43400730387E+02  0.00000000000E+00 0. -1.
         11    1    3    3    0    0 -0.10273917870E+00  0.52498240312E+01 -0.17802329260E+01  0.55444059402E+01  0.51100000000E-03 0. -1.
        -11    1    3    3    0    0  0.33902895701E+01  0.22696625135E+02  0.15262847613E+02  0.27560576435E+02  0.51100000000E-03 0.  1.
        -12    1    3    3    0    0 -0.62950497757E+01  0.80965527269E+01  0.10506557038E+02  0.14682287238E+02  0.00000000000E+00 0.  1.
</event>
<event>
 7    1  0.1265344E-009  0.4778727E+02  0.7816164E-02  0.1312668E+00
        -11   -1    0    0    0    0  0.00000000000E+00  0.00000000000E+00  0.45593999997E+02  0.45594000000E+02  0.51100000000E-03 0.  1.
         11   -1    0    0    0    0 -0.00000000000E+00 -0.00000000000E+00 -0.45593999997E+02  0.45594000000E+02  0.51100000000E-03 0. -1.
    9900012    2    1    2    0    0  0.94106261917E+01 -0.41742028657E+02 -0.72571794530E+01  0.47787268493E+02  0.19999988367E+02 0.  0.
         12    1    1    2    0    0 -0.94106261917E+01  0.41742028657E+02  0.72571794530E+01  0.43400731507E+02  0.00000000000E+00 0. -1.
         11    1    3    3    0    0  0.24949814256E+00 -0.21451616943E+02 -0.10363638481E+01  0.21478085787E+02  0.51100000000E-03 0. -1.
        -11    1    3    3    0    0 -0.66178063259E+00  0.12615429562E+01  0.76302414037E+00  0.16160601276E+01  0.51100000000E-03 0.  1.
        -12    1    3    3    0    0  0.98229086818E+01 -0.21551954671E+02 -0.69838397452E+01  0.24693122579E+02  0.00000000000E+00 0.  1.
</event>
<event>
 7    1  0.1265344E-009  0.4778727E+02  0.7816164E-02  0.1312668E+00
        -11   -1    0    0    0    0  0.00000000000E+00  0.00000000000E+00  0.45593999997E+02  0.45594000000E+02  0.51100000000E-03 0.  1.
         11   -1    0    0    0    0 -0.00000000000E+00 -0.00000000000E+00 -0.45593999997E+02  0.45594000000E+02  0.51100000000E-03 0. -1.
    9900012    2    1    2    0    0  0.27224496065E+02 -0.24227496849E+02  0.23568592945E+02  0.47787270018E+02  0.19999995320E+02 0.  0.
         12    1    1    2    0    0 -0.27224496065E+02  0.24227496849E+02 -0.23568592945E+02  0.43400729982E+02  0.00000000000E+00 0. -1.
         11    1    3    3    0    0  0.15205228202E+02 -0.27276398476E+01  0.10489384377E+02  0.18672604765E+02  0.51100000000E-03 0. -1.
        -11    1    3    3    0    0 -0.33463314041E+00 -0.67706346078E+01  0.30863994130E+01  0.74484450678E+01  0.51100000000E-03 0.  1.
        -12    1    3    3    0    0  0.12353901003E+02 -0.14729222394E+02  0.99928091549E+01  0.21666220185E+02  0.00000000000E+00 0.  1.
</event>
<event>
 7    1  0.1265344E-009  0.4778727E+02  0.7816164E-02  0.1312668E+00
        -11   -1    0    0    0    0  0.00000000000E+00  0.00000000000E+00  0.45593999997E+02  0.45594000000E+02  0.51100000000E-03 0.  1.
         11   -1    0    0    0    0 -0.00000000000E+00 -0.00000000000E+00 -0.45593999997E+02  0.45594000000E+02  0.51100000000E-03 0. -1.
    9900012    2    1    2    0    0  0.81159541022E+01 -0.30135476274E+02  0.30159706664E+02  0.47787267894E+02  0.19999985637E+02 0.  0.
         12    1    1    2    0    0 -0.81159541022E+01  0.30135476274E+02 -0.30159706664E+02  0.43400732106E+02  0.00000000000E+00 0. -1.
         11    1    3    3    0    0  0.12556652955E+01 -0.20812147779E+02  0.16207800843E+02  0.26408615998E+02  0.51100000000E-03 0.  1.
        -11    1    3    3    0    0  0.52536860471E+01 -0.56532889104E+01  0.95277475748E+00  0.77761605298E+01  0.51100000000E-03 0. -1.
         12    1    3    3    0    0  0.16066027597E+01 -0.36700395854E+01  0.12999131063E+02  0.13602491367E+02  0.00000000000E+00 0. -1.
</event>
<event>
 7    1  0.1265344E-009  0.4778727E+02  0.7816164E-02  0.1312668E+00
        -11   -1    0    0    0    0  0.00000000000E+00  0.00000000000E+00  0.45593999997E+02  0.45594000000E+02  0.51100000000E-03 0.  1.
         11   -1    0    0    0    0 -0.00000000000E+00 -0.00000000000E+00 -0.45593999997E+02  0.45594000000E+02  0.51100000000E-03 0. -1.
    9900012    2    1    2    0    0 -0.23399463995E+02 -0.17945289096E+02  0.31844236938E+02  0.47787265649E+02  0.19999975401E+02 0.  0.
         12    1    1    2    0    0  0.23399463995E+02  0.17945289096E+02 -0.31844236938E+02  0.43400734351E+02  0.00000000000E+00 0. -1.
         11    1    3    3    0    0 -0.10498182055E+02 -0.74434366135E+01  0.22629822717E+02  0.26033160614E+02  0.51100000000E-03 0.  1.
        -11    1    3    3    0    0  0.16883338343E+01 -0.14361806776E+01 -0.91451975869E-01  0.22184340873E+01  0.51100000000E-03 0. -1.
        -12    1    3    3    0    0 -0.14589615774E+02 -0.90656718046E+01  0.93058661973E+01  0.19535670948E+02  0.00000000000E+00 0.  1.
</event>
<event>
 7    1  0.1265344E-009  0.4778727E+02  0.7816164E-02  0.1312668E+00
        -11   -1    0    0    0    0  0.00000000000E+00  0.00000000000E+00  0.45593999997E+02  0.45594000000E+02  0.51100000000E-03 0.  1.
         11   -1    0    0    0    0 -0.00000000000E+00 -0.00000000000E+00 -0.45593999997E+02  0.45594000000E+02  0.51100000000E-03 0. -1.
    9900012    2    1    2    0    0  0.37379382833E+02 -0.55089444033E+01 -0.21355480021E+02  0.47787271246E+02  0.20000000921E+02 0.  0.
         12    1    1    2    0    0 -0.37379382833E+02  0.55089444033E+01  0.21355480021E+02  0.43400728754E+02  0.00000000000E+00 0. -1.
         11    1    3    3    0    0  0.84920975247E+01  0.22265170237E+01  0.11670953177E+01  0.88563655168E+01  0.51100000000E-03 0.  1.
        -11    1    3    3    0    0  0.15864963756E+02 -0.88799770480E+01 -0.96453814210E+01  0.20581167371E+02  0.51100000000E-03 0. -1.
         12    1    3    3    0    0  0.13022321553E+02  0.11445156210E+01 -0.12877193918E+02  0.18349738358E+02  0.00000000000E+00 0. -1.
</event>
<event>
 7    1  0.1265344E-009  0.4778727E+02  0.7816164E-02  0.1312668E+00
        -11   -1    0    0    0    0  0.00000000000E+00  0.00000000000E+00  0.45593999997E+02  0.45594000000E+02  0.51100000000E-03 0.  1.
         11   -1    0    0    0    0 -0.00000000000E+00 -0.00000000000E+00 -0.45593999997E+02  0.45594000000E+02  0.51100000000E-03 0. -1.
    9900012    2    1    2    0    0  0.23567976096E+02 -0.36069127904E+02  0.52145988008E+01  0.47787268144E+02  0.19999986776E+02 0.  0.
         12    1    1    2    0    0 -0.23567976096E+02  0.36069127904E+02 -0.52145988008E+01  0.43400731856E+02  0.00000000000E+00 0. -1.
         11    1    3    3    0    0 -0.64732206971E+00  0.16670957040E+01  0.19201578098E+00  0.17986395607E+01  0.51100000000E-03 0. -1.
        -11    1    3    3    0    0  0.75928592323E+01 -0.18072463580E+02 -0.68809573186E+00  0.19614762990E+02  0.51100000000E-03 0.  1.
        -12    1    3    3    0    0  0.16622438933E+02 -0.19663760028E+02  0.57106787517E+01  0.26373865593E+02  0.00000000000E+00 0.  1.
</event>
<event>
 7    1  0.1265344E-009  0.4778727E+02  0.7816164E-02  0.1312668E+00
        -11   -1    0    0    0    0  0.00000000000E+00  0.00000000000E+00  0.45593999997E+02  0.45594000000E+02  0.51100000000E-03 0. -1.
         11   -1    0    0    0    0 -0.00000000000E+00 -0.00000000000E+00 -0.45593999997E+02  0.45594000000E+02  0.51100000000E-03 0.  1.
    9900012    2    1    2    0    0 -0.36622716712E+02  0.21455284427E+02  0.90592867666E+01  0.47787270905E+02  0.19999999366E+02 0.  0.
         12    1    1    2    0    0  0.36622716712E+02 -0.21455284427E+02 -0.90592867666E+01  0.43400729095E+02  0.00000000000E+00 0. -1.
         11    1    3    3    0    0 -0.24809216176E+02  0.13807387546E+02  0.33133585759E+01  0.28585302227E+02  0.51100000000E-03 0. -1.
        -11    1    3    3    0    0 -0.12361828786E+02  0.57607644805E+01  0.55277716980E+00  0.13649424208E+02  0.51100000000E-03 0.  1.
         12    1    3    3    0    0  0.54832825039E+00  0.18871324007E+01  0.51931510209E+01  0.55525444702E+01  0.00000000000E+00 0. -1.
</event>
<event>
 7    1  0.1265344E-009  0.4778727E+02  0.7816164E-02  0.1312668E+00
        -11   -1    0    0    0    0  0.00000000000E+00  0.00000000000E+00  0.45593999997E+02  0.45594000000E+02  0.51100000000E-03 0.  1.
         11   -1    0    0    0    0 -0.00000000000E+00 -0.00000000000E+00 -0.45593999997E+02  0.45594000000E+02  0.51100000000E-03 0. -1.
    9900012    2    1    2    0    0  0.16521689338E+02 -0.30058931935E+02  0.26591690571E+02  0.47787267113E+02  0.19999982075E+02 0.  0.
         12    1    1    2    0    0 -0.16521689338E+02  0.30058931935E+02 -0.26591690571E+02  0.43400732887E+02  0.00000000000E+00 0. -1.
         11    1    3    3    0    0  0.67778494636E+01 -0.15082157710E+01  0.12271154997E+02  0.14099475288E+02  0.51100000000E-03 0. -1.
        -11    1    3    3    0    0  0.19538078116E+00 -0.51537506184E+00  0.11486253136E+01  0.12740194175E+01  0.51100000000E-03 0.  1.
         12    1    3    3    0    0  0.95484590934E+01 -0.28035341103E+02  0.13171910260E+02  0.32413772408E+02  0.00000000000E+00 0. -1.
</event>
<event>
 7    1  0.1265344E-009  0.4778727E+02  0.7816164E-02  0.1312668E+00
        -11   -1    0    0    0    0  0.00000000000E+00  0.00000000000E+00  0.45593999997E+02  0.45594000000E+02  0.51100000000E-03 0.  1.
         11   -1    0    0    0    0 -0.00000000000E+00 -0.00000000000E+00 -0.45593999997E+02  0.45594000000E+02  0.51100000000E-03 0. -1.
    9900012    2    1    2    0    0  0.28233533344E+02  0.57023519769E+01  0.32464961460E+02  0.47787274824E+02  0.20000017235E+02 0.  0.
         12    1    1    2    0    0 -0.28233533344E+02 -0.57023519769E+01 -0.32464961460E+02  0.43400725176E+02  0.00000000000E+00 0. -1.
         11    1    3    3    0    0  0.35741650946E+01  0.30446773791E+01  0.61434063010E+00  0.47352012774E+01  0.51100000000E-03 0. -1.
        -11    1    3    3    0    0  0.26545690355E+02  0.37097788455E+01  0.29615026237E+02  0.39943534080E+02  0.51100000000E-03 0.  1.
        -12    1    3    3    0    0 -0.18863221057E+01 -0.10521042477E+01  0.22355945932E+01  0.31085394673E+01  0.00000000000E+00 0.  1.
</event>
<event>
 7    1  0.1265344E-009  0.4778727E+02  0.7816164E-02  0.1312668E+00
        -11   -1    0    0    0    0  0.00000000000E+00  0.00000000000E+00  0.45593999997E+02  0.45594000000E+02  0.51100000000E-03 0. -1.
         11   -1    0    0    0    0 -0.00000000000E+00 -0.00000000000E+00 -0.45593999997E+02  0.45594000000E+02  0.51100000000E-03 0.  1.
    9900012    2    1    2    0    0 -0.10768262646E+02 -0.35469505038E+02 -0.22573928902E+02  0.47787268046E+02  0.19999986330E+02 0.  0.
         12    1    1    2    0    0  0.10768262646E+02  0.35469505038E+02  0.22573928902E+02  0.43400731954E+02  0.00000000000E+00 0. -1.
         11    1    3    3    0    0 -0.16110044438E+01 -0.66221914407E+01 -0.11178934517E+01  0.69064057820E+01  0.51100000000E-03 0. -1.
        -11    1    3    3    0    0  0.29615890118E+01 -0.16718558770E+02 -0.66762559952E+01  0.18244276121E+02  0.51100000000E-03 0.  1.
         12    1    3    3    0    0 -0.12118847214E+02 -0.12128754828E+02 -0.14779779455E+02  0.22636586143E+02  0.00000000000E+00 0. -1.
</event>
<event>
 7    1  0.1265344E-009  0.4778728E+02  0.7816164E-02  0.1312668E+00
        -11   -1    0    0    0    0  0.00000000000E+00  0.00000000000E+00  0.45593999997E+02  0.45594000000E+02  0.51100000000E-03 0.  1.
         11   -1    0    0    0    0 -0.00000000000E+00 -0.00000000000E+00 -0.45593999997E+02  0.45594000000E+02  0.51100000000E-03 0. -1.
    9900012    2    1    2    0    0 -0.92322477460E+01 -0.41165108454E+02  0.10189323705E+02  0.47787275697E+02  0.20000021212E+02 0.  0.
         12    1    1    2    0    0  0.92322477460E+01  0.41165108454E+02 -0.10189323705E+02  0.43400724303E+02  0.00000000000E+00 0. -1.
         11    1    3    3    0    0 -0.27887464283E+00 -0.15095815200E+02  0.75161975290E+01  0.16865782911E+02  0.51100000000E-03 0. -1.
        -11    1    3    3    0    0 -0.92413436886E+01 -0.27179610964E+02  0.79251064854E+00  0.28718665685E+02  0.51100000000E-03 0.  1.
         12    1    3    3    0    0  0.28797058547E+00  0.11103177105E+01  0.18806155275E+01  0.22028271014E+01  0.00000000000E+00 0. -1.
</event>
<event>
 7    1  0.1265344E-009  0.4778727E+02  0.7816164E-02  0.1312668E+00
        -11   -1    0    0    0    0  0.00000000000E+00  0.00000000000E+00  0.45593999997E+02  0.45594000000E+02  0.51100000000E-03 0. -1.
         11   -1    0    0    0    0 -0.00000000000E+00 -0.00000000000E+00 -0.45593999997E+02  0.45594000000E+02  0.51100000000E-03 0.  1.
    9900012    2    1    2    0    0 -0.28719963914E+02 -0.23954869158E+02 -0.22021612501E+02  0.47787268430E+02  0.19999988082E+02 0.  0.
         12    1    1    2    0    0  0.28719963914E+02  0.23954869158E+02  0.22021612501E+02  0.43400731570E+02  0.00000000000E+00 0. -1.
         11    1    3    3    0    0 -0.30891981072E+01 -0.12543377877E+02 -0.36869927788E+01  0.13434038467E+02  0.51100000000E-03 0. -1.
        -11    1    3    3    0    0 -0.11709389356E+02 -0.18817757088E+01 -0.10112163691E+02  0.15585465463E+02  0.51100000000E-03 0.  1.
        -12    1    3    3    0    0 -0.13921376451E+02 -0.95297155718E+01 -0.82224560317E+01  0.18767764501E+02  0.00000000000E+00 0.  1.
</event>
<event>
 7    1  0.1265344E-009  0.4778727E+02  0.7816164E-02  0.1312668E+00
        -11   -1    0    0    0    0  0.00000000000E+00  0.00000000000E+00  0.45593999997E+02  0.45594000000E+02  0.51100000000E-03 0.  1.
         11   -1    0    0    0    0 -0.00000000000E+00 -0.00000000000E+00 -0.45593999997E+02  0.45594000000E+02  0.51100000000E-03 0. -1.
    9900012    2    1    2    0    0 -0.15565976623E+02  0.20044821665E+02  0.35206943999E+02  0.47787269482E+02  0.19999992874E+02 0.  0.
         12    1    1    2    0    0  0.15565976623E+02 -0.20044821665E+02 -0.35206943999E+02  0.43400730518E+02  0.00000000000E+00 0. -1.
         11    1    3    3    0    0 -0.80753541479E+00 -0.84152465561E+00 -0.78017661047E+00  0.14031938557E+01  0.51100000000E-03 0. -1.
        -11    1    3    3    0    0 -0.47056379705E+01  0.18212507549E+02  0.24472467830E+02  0.30866488979E+02  0.51100000000E-03 0.  1.
        -12    1    3    3    0    0 -0.10052803238E+02  0.26738387710E+01  0.11514652779E+02  0.15517586647E+02  0.00000000000E+00 0.  1.
</event>
<event>
 7    1  0.1265344E-009  0.4778727E+02  0.7816164E-02  0.1312668E+00
        -11   -1    0    0    0    0  0.00000000000E+00  0.00000000000E+00  0.45593999997E+02  0.45594000000E+02  0.51100000000E-03 0.  1.
         11   -1    0    0    0    0 -0.00000000000E+00 -0.00000000000E+00 -0.45593999997E+02  0.45594000000E+02  0.51100000000E-03 0. -1.
    9900012    2    1    2    0    0 -0.12982487522E+02 -0.29798834751E+02  0.28759487604E+02  0.47787266573E+02  0.19999979612E+02 0.  0.
         12    1    1    2    0    0  0.12982487522E+02  0.29798834751E+02 -0.28759487604E+02  0.43400733427E+02  0.00000000000E+00 0. -1.
         11    1    3    3    0    0 -0.61191515130E+01 -0.78910071592E+00  0.48021602543E+01  0.78184038363E+01  0.51100000000E-03 0. -1.
        -11    1    3    3    0    0 -0.25528424685E+01 -0.42479516516E+00  0.28231055246E+00  0.26032969694E+01  0.51100000000E-03 0.  1.
        -12    1    3    3    0    0 -0.43104935406E+01 -0.28584938870E+02  0.23675016797E+02  0.37365565767E+02  0.00000000000E+00 0.  1.
</event>
<event>
 7    1  0.1265344E-009  0.4778727E+02  0.7816164E-02  0.1312668E+00
        -11   -1    0    0    0    0  0.00000000000E+00  0.00000000000E+00  0.45593999997E+02  0.45594000000E+02  0.51100000000E-03 0.  1.
         11   -1    0    0    0    0 -0.00000000000E+00 -0.00000000000E+00 -0.45593999997E+02  0.45594000000E+02  0.51100000000E-03 0. -1.
    9900012    2    1    2    0    0 -0.24622421919E+02 -0.25201799466E+02  0.25342237128E+02  0.47787270281E+02  0.19999996518E+02 0.  0.
         12    1    1    2    0    0  0.24622421919E+02  0.25201799466E+02 -0.25342237128E+02  0.43400729719E+02  0.00000000000E+00 0. -1.
         11    1    3    3    0    0  0.96251525817E+00  0.20359288567E+01  0.21214638488E+01  0.30938731478E+01  0.51100000000E-03 0. -1.
        -11    1    3    3    0    0 -0.82467430572E+01 -0.13858748807E+02  0.11887759317E+02  0.20034782539E+02  0.51100000000E-03 0.  1.
         12    1    3    3    0    0 -0.17338194120E+02 -0.13378979517E+02  0.11333013962E+02  0.24658614594E+02  0.00000000000E+00 0. -1.
</event>
<event>
 7    1  0.1265344E-009  0.4778727E+02  0.7816164E-02  0.1312668E+00
        -11   -1    0    0    0    0  0.00000000000E+00  0.00000000000E+00  0.45593999997E+02  0.45594000000E+02  0.51100000000E-03 0. -1.
         11   -1    0    0    0    0 -0.00000000000E+00 -0.00000000000E+00 -0.45593999997E+02  0.45594000000E+02  0.51100000000E-03 0.  1.
    9900012    2    1    2    0    0 -0.11134098032E+02 -0.62242506999E+01 -0.41483901697E+02  0.47787268027E+02  0.19999986244E+02 0.  0.
         12    1    1    2    0    0  0.11134098032E+02  0.62242506999E+01  0.41483901697E+02  0.43400731973E+02  0.00000000000E+00 0. -1.
         11    1    3    3    0    0 -0.49427593920E+01 -0.73384125243E+01 -0.12940328348E+02  0.15675945483E+02  0.51100000000E-03 0. -1.
        -11    1    3    3    0    0 -0.15073457142E+01  0.30400209886E+01 -0.26391237115E+02  0.26608480141E+02  0.51100000000E-03 0.  1.
         12    1    3    3    0    0 -0.46839929255E+01 -0.19258591643E+01 -0.21523362346E+01  0.55028424031E+01  0.00000000000E+00 0. -1.
</event>
<event>
 7    1  0.1265344E-009  0.4778727E+02  0.7816164E-02  0.1312668E+00
        -11   -1    0    0    0    0  0.00000000000E+00  0.00000000000E+00  0.45593999997E+02  0.45594000000E+02  0.51100000000E-03 0.  1.
         11   -1    0    0    0    0 -0.00000000000E+00 -0.00000000000E+00 -0.45593999997E+02  0.45594000000E+02  0.51100000000E-03 0. -1.
    9900012    2    1    2    0    0  0.21322464563E+02 -0.20711536338E+01  0.37745017405E+02  0.47787268309E+02  0.19999987530E+02 0.  0.
         12    1    1    2    0    0 -0.21322464563E+02  0.20711536338E+01 -0.37745017405E+02  0.43400731691E+02  0.00000000000E+00 0. -1.
         11    1    3    3    0    0  0.10925648486E+02 -0.45610981659E+01  0.99815655907E+01  0.15485640549E+02  0.51100000000E-03 0. -1.
        -11    1    3    3    0    0  0.76983233814E+01 -0.37326442358E+01  0.93242807356E+01  0.12654604987E+02  0.51100000000E-03 0.  1.
         12    1    3    3    0    0  0.26984926956E+01  0.62225887678E+01  0.18439171078E+02  0.19647022773E+02  0.00000000000E+00 0. -1.
</event>
<event>
 7    1  0.1265344E-009  0.4778727E+02  0.7816164E-02  0.1312668E+00
        -11   -1    0    0    0    0  0.00000000000E+00  0.00000000000E+00  0.45593999997E+02  0.45594000000E+02  0.51100000000E-03 0. -1.
         11   -1    0    0    0    0 -0.00000000000E+00 -0.00000000000E+00 -0.45593999997E+02  0.45594000000E+02  0.51100000000E-03 0.  1.
    9900012    2    1    2    0    0  0.24528479765E+02 -0.78098610956E+01 -0.34942572392E+02  0.47787267111E+02  0.19999982066E+02 0.  0.
         12    1    1    2    0    0 -0.24528479765E+02  0.78098610956E+01  0.34942572392E+02  0.43400732889E+02  0.00000000000E+00 0. -1.
         11    1    3    3    0    0  0.10518095254E+01  0.42132317050E+00  0.14225721497E+01  0.18186611212E+01  0.51100000000E-03 0. -1.
        -11    1    3    3    0    0  0.16835168186E+00 -0.58985832344E+00  0.10580867579E+01  0.12230384208E+01  0.51100000000E-03 0.  1.
        -12    1    3    3    0    0  0.23308318558E+02 -0.76413259427E+01 -0.37423231300E+02  0.44745567569E+02  0.00000000000E+00 0.  1.
</event>
<event>
 7    1  0.1265344E-009  0.4778727E+02  0.7816164E-02  0.1312668E+00
        -11   -1    0    0    0    0  0.00000000000E+00  0.00000000000E+00  0.45593999997E+02  0.45594000000E+02  0.51100000000E-03 0. -1.
         11   -1    0    0    0    0 -0.00000000000E+00 -0.00000000000E+00 -0.45593999997E+02  0.45594000000E+02  0.51100000000E-03 0.  1.
    9900012    2    1    2    0    0  0.36951917785E+02 -0.19940386399E+02 -0.10979975402E+02  0.47787273076E+02  0.20000009261E+02 0.  0.
         12    1    1    2    0    0 -0.36951917785E+02  0.19940386399E+02  0.10979975402E+02  0.43400726924E+02  0.00000000000E+00 0. -1.
         11    1    3    3    0    0  0.28690002252E+02 -0.12216181020E+02 -0.11123098956E+01  0.31202380382E+02  0.51100000000E-03 0. -1.
        -11    1    3    3    0    0 -0.25032210524E+00 -0.28011208548E+01 -0.23903095330E+00  0.28224236495E+01  0.51100000000E-03 0.  1.
         12    1    3    3    0    0  0.85122376383E+01 -0.49230845245E+01 -0.96286345529E+01  0.13762469044E+02  0.00000000000E+00 0. -1.
</event>
<event>
 7    1  0.1265344E-009  0.4778728E+02  0.7816164E-02  0.1312668E+00
        -11   -1    0    0    0    0  0.00000000000E+00  0.00000000000E+00  0.45593999997E+02  0.45594000000E+02  0.51100000000E-03 0.  1.
         11   -1    0    0    0    0 -0.00000000000E+00 -0.00000000000E+00 -0.45593999997E+02  0.45594000000E+02  0.51100000000E-03 0. -1.
    9900012    2    1    2    0    0 -0.40116250287E+01 -0.36950249841E+02  0.22410015323E+02  0.47787275519E+02  0.20000020402E+02 0.  0.
         12    1    1    2    0    0  0.40116250287E+01  0.36950249841E+02 -0.22410015323E+02  0.43400724481E+02  0.00000000000E+00 0. -1.
         11    1    3    3    0    0 -0.62375642662E-01 -0.49800391516E+01  0.55249171552E+01  0.74383728399E+01  0.51100000000E-03 0. -1.
        -11    1    3    3    0    0  0.43472970853E+01 -0.25427014652E+02  0.96450273164E+01  0.27540127419E+02  0.51100000000E-03 0.  1.
         12    1    3    3    0    0 -0.82965464714E+01 -0.65431960376E+01  0.72400708515E+01  0.12808775260E+02  0.00000000000E+00 0. -1.
</event>
<event>
 7    1  0.1265344E-009  0.4778727E+02  0.7816164E-02  0.1312668E+00
        -11   -1    0    0    0    0  0.00000000000E+00  0.00000000000E+00  0.45593999997E+02  0.45594000000E+02  0.51100000000E-03 0. -1.
         11   -1    0    0    0    0 -0.00000000000E+00 -0.00000000000E+00 -0.45593999997E+02  0.45594000000E+02  0.51100000000E-03 0.  1.
    9900012    2    1    2    0    0 -0.28498594361E+02 -0.13100353072E+02 -0.29997235648E+02  0.47787271000E+02  0.19999999800E+02 0.  0.
         12    1    1    2    0    0  0.28498594361E+02  0.13100353072E+02  0.29997235648E+02  0.43400729000E+02  0.00000000000E+00 0. -1.
         11    1    3    3    0    0  0.19237665359E+01  0.16683912935E+01 -0.12912455865E+01  0.28551221722E+01  0.51100000000E-03 0. -1.
        -11    1    3    3    0    0 -0.19325746137E+02 -0.66992477346E+01 -0.13806443413E+02  0.24677566005E+02  0.51100000000E-03 0.  1.
        -12    1    3    3    0    0 -0.11096614760E+02 -0.80694966308E+01 -0.14899546648E+02  0.20254582823E+02  0.00000000000E+00 0.  1.
</event>
<event>
 7    1  0.1265344E-009  0.4778727E+02  0.7816164E-02  0.1312668E+00
        -11   -1    0    0    0    0  0.00000000000E+00  0.00000000000E+00  0.45593999997E+02  0.45594000000E+02  0.51100000000E-03 0.  1.
         11   -1    0    0    0    0 -0.00000000000E+00 -0.00000000000E+00 -0.45593999997E+02  0.45594000000E+02  0.51100000000E-03 0. -1.
    9900012    2    1    2    0    0 -0.79145069672E+00 -0.14105798439E+02  0.41036849588E+02  0.47787274569E+02  0.20000016070E+02 0.  0.
         12    1    1    2    0    0  0.79145069672E+00  0.14105798439E+02 -0.41036849588E+02  0.43400725431E+02  0.00000000000E+00 0. -1.
         11    1    3    3    0    0  0.33087815448E+01 -0.77266490237E+01  0.56122124585E+01  0.10106733863E+02  0.51100000000E-03 0. -1.
        -11    1    3    3    0    0  0.22747510680E+01 -0.52775667916E+01  0.22564096165E+02  0.23284450599E+02  0.51100000000E-03 0.  1.
        -12    1    3    3    0    0 -0.63749833094E+01 -0.11015826239E+01  0.12860540964E+02  0.14396090107E+02  0.00000000000E+00 0.  1.
</event>
<event>
 7    1  0.1265344E-009  0.4778727E+02  0.7816164E-02  0.1312668E+00
        -11   -1    0    0    0    0  0.00000000000E+00  0.00000000000E+00  0.45593999997E+02  0.45594000000E+02  0.51100000000E-03 0. -1.
         11   -1    0    0    0    0 -0.00000000000E+00 -0.00000000000E+00 -0.45593999997E+02  0.45594000000E+02  0.51100000000E-03 0.  1.
    9900012    2    1    2    0    0  0.39522639024E+01 -0.39914231867E+02 -0.16578814901E+02  0.47787269603E+02  0.19999993428E+02 0.  0.
         12    1    1    2    0    0 -0.39522639024E+01  0.39914231867E+02  0.16578814901E+02  0.43400730397E+02  0.00000000000E+00 0. -1.
         11    1    3    3    0    0  0.64852751384E+00  0.53345701167E+00 -0.26469978371E+01  0.27770059651E+01  0.51100000000E-03 0. -1.
        -11    1    3    3    0    0  0.68556810499E+01 -0.29956690990E+02 -0.14371495816E+02  0.33925559538E+02  0.51100000000E-03 0.  1.
         12    1    3    3    0    0 -0.35519446613E+01 -0.10490997888E+02  0.43967875206E+00  0.11084704099E+02  0.00000000000E+00 0. -1.
</event>
<event>
 7    1  0.1265344E-009  0.4778727E+02  0.7816164E-02  0.1312668E+00
        -11   -1    0    0    0    0  0.00000000000E+00  0.00000000000E+00  0.45593999997E+02  0.45594000000E+02  0.51100000000E-03 0.  1.
         11   -1    0    0    0    0 -0.00000000000E+00 -0.00000000000E+00 -0.45593999997E+02  0.45594000000E+02  0.51100000000E-03 0. -1.
    9900012    2    1    2    0    0 -0.80755212726E+01  0.14072257934E+02  0.40253949833E+02  0.47787274610E+02  0.20000016258E+02 0.  0.
         12    1    1    2    0    0  0.80755212726E+01 -0.14072257934E+02 -0.40253949833E+02  0.43400725390E+02  0.00000000000E+00 0. -1.
         11    1    3    3    0    0  0.48030331512E+01  0.50115704173E+01  0.11332541184E+02  0.13289524275E+02  0.51100000000E-03 0. -1.
        -11    1    3    3    0    0  0.23740905896E+00  0.29317169491E+01  0.11378426877E+02  0.11752443397E+02  0.51100000000E-03 0.  1.
        -12    1    3    3    0    0 -0.13115963483E+02  0.61289705674E+01  0.17542981772E+02  0.22745306939E+02  0.00000000000E+00 0.  1.
</event>
<event>
 7    1  0.1265344E-009  0.4778727E+02  0.7816164E-02  0.1312668E+00
        -11   -1    0    0    0    0  0.00000000000E+00  0.00000000000E+00  0.45593999997E+02  0.45594000000E+02  0.51100000000E-03 0. -1.
         11   -1    0    0    0    0 -0.00000000000E+00 -0.00000000000E+00 -0.45593999997E+02  0.45594000000E+02  0.51100000000E-03 0.  1.
    9900012    2    1    2    0    0  0.36040093488E+02 -0.22055117862E+01 -0.24080503611E+02  0.47787271032E+02  0.19999999942E+02 0.  0.
         12    1    1    2    0    0 -0.36040093488E+02  0.22055117862E+01  0.24080503611E+02  0.43400728968E+02  0.00000000000E+00 0. -1.
         11    1    3    3    0    0  0.10663460089E+02 -0.54796583457E+01 -0.26131249242E+01  0.12270471009E+02  0.51100000000E-03 0. -1.
        -11    1    3    3    0    0  0.37770794629E+01  0.53309177403E+01 -0.60032691319E+01  0.88726689195E+01  0.51100000000E-03 0.  1.
         12    1    3    3    0    0  0.21599553936E+02 -0.20567711808E+01 -0.15464109555E+02  0.26644131103E+02  0.00000000000E+00 0. -1.
</event>
<event>
 7    1  0.1265344E-009  0.4778727E+02  0.7816164E-02  0.1312668E+00
        -11   -1    0    0    0    0  0.00000000000E+00  0.00000000000E+00  0.45593999997E+02  0.45594000000E+02  0.51100000000E-03 0. -1.
         11   -1    0    0    0    0 -0.00000000000E+00 -0.00000000000E+00 -0.45593999997E+02  0.45594000000E+02  0.51100000000E-03 0.  1.
    9900012    2    1    2    0    0  0.38066401470E+02 -0.10139878346E+02 -0.18214148933E+02  0.47787271031E+02  0.19999999937E+02 0.  0.
         12    1    1    2    0    0 -0.38066401470E+02  0.10139878346E+02  0.18214148933E+02  0.43400728969E+02  0.00000000000E+00 0. -1.
         11    1    3    3    0    0  0.25647054481E+02  0.22715592775E+01 -0.61765996243E+01  0.26477948718E+02  0.51100000000E-03 0. -1.
        -11    1    3    3    0    0  0.48871108687E+01 -0.54185459173E+01 -0.53323832209E+01  0.90376326312E+01  0.51100000000E-03 0.  1.
         12    1    3    3    0    0  0.75322361197E+01 -0.69928917059E+01 -0.67051660879E+01  0.12271689682E+02  0.00000000000E+00 0. -1.
</event>
<event>
 7    1  0.1265344E-009  0.4778727E+02  0.7816164E-02  0.1312668E+00
        -11   -1    0    0    0    0  0.00000000000E+00  0.00000000000E+00  0.45593999997E+02  0.45594000000E+02  0.51100000000E-03 0. -1.
         11   -1    0    0    0    0 -0.00000000000E+00 -0.00000000000E+00 -0.45593999997E+02  0.45594000000E+02  0.51100000000E-03 0.  1.
    9900012    2    1    2    0    0  0.26299084874E+02 -0.34174635301E+02 -0.49067301972E+01  0.47787267698E+02  0.19999984742E+02 0.  0.
         12    1    1    2    0    0 -0.26299084874E+02  0.34174635301E+02  0.49067301972E+01  0.43400732302E+02  0.00000000000E+00 0. -1.
         11    1    3    3    0    0  0.29545792798E+01 -0.19086145093E+02 -0.21177949636E+01  0.19429244169E+02  0.51100000000E-03 0. -1.
        -11    1    3    3    0    0  0.58326038335E+01 -0.20927233880E+01  0.83170627997E+00  0.62522391392E+01  0.51100000000E-03 0.  1.
        -12    1    3    3    0    0  0.17511901760E+02 -0.12995766820E+02 -0.36206415135E+01  0.22105784390E+02  0.00000000000E+00 0.  1.
</event>
<event>
 7    1  0.1265344E-009  0.4778727E+02  0.7816164E-02  0.1312668E+00
        -11   -1    0    0    0    0  0.00000000000E+00  0.00000000000E+00  0.45593999997E+02  0.45594000000E+02  0.51100000000E-03 0.  1.
         11   -1    0    0    0    0 -0.00000000000E+00 -0.00000000000E+00 -0.45593999997E+02  0.45594000000E+02  0.51100000000E-03 0. -1.
    9900012    2    1    2    0    0  0.23604217491E+01  0.61599755389E+01  0.42896462977E+02  0.47787269299E+02  0.19999992042E+02 0.  0.
         12    1    1    2    0    0 -0.23604217491E+01 -0.61599755389E+01 -0.42896462977E+02  0.43400730701E+02  0.00000000000E+00 0. -1.
         11    1    3    3    0    0 -0.18725419788E+01 -0.14756499938E+01 -0.54944025452E+00  0.24465978870E+01  0.51100000000E-03 0. -1.
        -11    1    3    3    0    0  0.31434090843E+01 -0.12872399996E+01  0.67078189292E+01  0.75188325248E+01  0.51100000000E-03 0.  1.
        -12    1    3    3    0    0  0.10895546435E+01  0.89228655323E+01  0.36738084302E+02  0.37821838887E+02  0.00000000000E+00 0.  1.
</event>
<event>
 7    1  0.1265344E-009  0.4778727E+02  0.7816164E-02  0.1312668E+00
        -11   -1    0    0    0    0  0.00000000000E+00  0.00000000000E+00  0.45593999997E+02  0.45594000000E+02  0.51100000000E-03 0. -1.
         11   -1    0    0    0    0 -0.00000000000E+00 -0.00000000000E+00 -0.45593999997E+02  0.45594000000E+02  0.51100000000E-03 0.  1.
    9900012    2    1    2    0    0  0.19149088554E+02  0.25306028507E+02 -0.29606429691E+02  0.47787270164E+02  0.19999995987E+02 0.  0.
         12    1    1    2    0    0 -0.19149088554E+02 -0.25306028507E+02  0.29606429691E+02  0.43400729836E+02  0.00000000000E+00 0. -1.
         11    1    3    3    0    0  0.69563980995E+01  0.80008257555E+01 -0.28258357691E+01  0.10972239304E+02  0.51100000000E-03 0. -1.
        -11    1    3    3    0    0  0.84892914451E+01  0.17892071265E+02 -0.16187545223E+02  0.25577937837E+02  0.51100000000E-03 0.  1.
        -12    1    3    3    0    0  0.37033990097E+01 -0.58686851351E+00 -0.10593048699E+02  0.11237093023E+02  0.00000000000E+00 0.  1.
</event>
<event>
 7    1  0.1265344E-009  0.4778728E+02  0.7816164E-02  0.1312668E+00
        -11   -1    0    0    0    0  0.00000000000E+00  0.00000000000E+00  0.45593999997E+02  0.45594000000E+02  0.51100000000E-03 0. -1.
         11   -1    0    0    0    0 -0.00000000000E+00 -0.00000000000E+00 -0.45593999997E+02  0.45594000000E+02  0.51100000000E-03 0.  1.
    9900012    2    1    2    0    0  0.36833991287E+02 -0.13435310043E+02 -0.18611081479E+02  0.47787276229E+02  0.20000023637E+02 0.  0.
         12    1    1    2    0    0 -0.36833991287E+02  0.13435310043E+02  0.18611081479E+02  0.43400723771E+02  0.00000000000E+00 0. -1.
         11    1    3    3    0    0 -0.23459874651E+00 -0.21212008139E+00  0.20353659920E+01  0.20597928253E+01  0.51100000000E-03 0. -1.
        -11    1    3    3    0    0  0.34555525646E+02 -0.12978931628E+02 -0.21887703867E+02  0.42913967420E+02  0.51100000000E-03 0.  1.
        -12    1    3    3    0    0  0.25130643876E+01 -0.24425833312E+00  0.12412563961E+01  0.28135159836E+01  0.00000000000E+00 0.  1.
</event>
<event>
 7    1  0.1265344E-009  0.4778732E+02  0.7816164E-02  0.1312668E+00
        -11   -1    0    0    0    0  0.00000000000E+00  0.00000000000E+00  0.45593999997E+02  0.45594000000E+02  0.51100000000E-03 0. -1.
         11   -1    0    0    0    0 -0.00000000000E+00 -0.00000000000E+00 -0.45593999997E+02  0.45594000000E+02  0.51100000000E-03 0.  1.
    9900012    2    1    2    0    0 -0.21681407684E+02 -0.26514221818E+02 -0.26655801774E+02  0.47787318370E+02  0.20000215774E+02 0.  0.
         12    1    1    2    0    0  0.21681407684E+02  0.26514221818E+02  0.26655801774E+02  0.43400681630E+02  0.00000000000E+00 0. -1.
         11    1    3    3    0    0 -0.19650634143E+01  0.13541843952E+00 -0.25216551474E+01  0.31997745732E+01  0.51100000000E-03 0. -1.
        -11    1    3    3    0    0 -0.11907403275E+02 -0.12661214182E+02 -0.22575892768E+02  0.28491464192E+02  0.51100000000E-03 0.  1.
        -12    1    3    3    0    0 -0.78089409945E+01 -0.13988426076E+02 -0.15582538587E+01  0.16096079604E+02  0.00000000000E+00 0.  1.
</event>
<event>
 7    1  0.1265344E-009  0.4778727E+02  0.7816164E-02  0.1312668E+00
        -11   -1    0    0    0    0  0.00000000000E+00  0.00000000000E+00  0.45593999997E+02  0.45594000000E+02  0.51100000000E-03 0.  1.
         11   -1    0    0    0    0 -0.00000000000E+00 -0.00000000000E+00 -0.45593999997E+02  0.45594000000E+02  0.51100000000E-03 0. -1.
    9900012    2    1    2    0    0 -0.38371406046E+02  0.19470142496E+02  0.56720357094E+01  0.47787271437E+02  0.20000001788E+02 0.  0.
         12    1    1    2    0    0  0.38371406046E+02 -0.19470142496E+02 -0.56720357094E+01  0.43400728563E+02  0.00000000000E+00 0. -1.
         11    1    3    3    0    0 -0.24370242717E+02  0.13080831844E+02 -0.60525976932E+00  0.27665560386E+02  0.51100000000E-03 0. -1.
        -11    1    3    3    0    0 -0.12089457291E+02  0.84852273666E+01  0.80053751186E+01  0.16800002741E+02  0.51100000000E-03 0.  1.
         12    1    3    3    0    0 -0.19117060376E+01 -0.20959167149E+01 -0.17280796399E+01  0.33217083093E+01  0.00000000000E+00 0. -1.
</event>
<event>
 7    1  0.1265344E-009  0.4778727E+02  0.7816164E-02  0.1312668E+00
        -11   -1    0    0    0    0  0.00000000000E+00  0.00000000000E+00  0.45593999997E+02  0.45594000000E+02  0.51100000000E-03 0.  1.
         11   -1    0    0    0    0 -0.00000000000E+00 -0.00000000000E+00 -0.45593999997E+02  0.45594000000E+02  0.51100000000E-03 0. -1.
    9900012    2    1    2    0    0  0.24478738744E+01 -0.23510751916E+02  0.36398846491E+02  0.47787267656E+02  0.19999984551E+02 0.  0.
         12    1    1    2    0    0 -0.24478738744E+01  0.23510751916E+02 -0.36398846491E+02  0.43400732344E+02  0.00000000000E+00 0. -1.
         11    1    3    3    0    0 -0.75845856939E+00  0.14897286440E+01 -0.45168911855E+00  0.17316391527E+01  0.51100000000E-03 0. -1.
        -11    1    3    3    0    0  0.31520780271E+01 -0.77579702316E+01  0.21104700055E+02  0.22705287108E+02  0.51100000000E-03 0.  1.
        -12    1    3    3    0    0  0.54254416681E-01 -0.17242510328E+02  0.15745835554E+02  0.23350341395E+02  0.00000000000E+00 0.  1.
</event>
<event>
 7    1  0.1265344E-009  0.4778726E+02  0.7816164E-02  0.1312668E+00
        -11   -1    0    0    0    0  0.00000000000E+00  0.00000000000E+00  0.45593999997E+02  0.45594000000E+02  0.51100000000E-03 0.  1.
         11   -1    0    0    0    0 -0.00000000000E+00 -0.00000000000E+00 -0.45593999997E+02  0.45594000000E+02  0.51100000000E-03 0. -1.
    9900012    2    1    2    0    0  0.22344241648E+02  0.19577365113E+02  0.31639937599E+02  0.47787262554E+02  0.19999961289E+02 0.  0.
         12    1    1    2    0    0 -0.22344241648E+02 -0.19577365113E+02 -0.31639937599E+02  0.43400737446E+02  0.00000000000E+00 0. -1.
         11    1    3    3    0    0  0.87206749767E+01  0.29140894117E+01  0.18060093680E+02  0.20265958480E+02  0.51100000000E-03 0. -1.
        -11    1    3    3    0    0  0.95871791386E+01  0.56410938058E+01  0.25456512243E+01  0.11411234972E+02  0.51100000000E-03 0.  1.
         12    1    3    3    0    0  0.40363875327E+01  0.11022181895E+02  0.11034192695E+02  0.16110069102E+02  0.00000000000E+00 0. -1.
</event>
<event>
 7    1  0.1265344E-009  0.4778727E+02  0.7816164E-02  0.1312668E+00
        -11   -1    0    0    0    0  0.00000000000E+00  0.00000000000E+00  0.45593999997E+02  0.45594000000E+02  0.51100000000E-03 0.  1.
         11   -1    0    0    0    0 -0.00000000000E+00 -0.00000000000E+00 -0.45593999997E+02  0.45594000000E+02  0.51100000000E-03 0. -1.
    9900012    2    1    2    0    0 -0.33516889053E+02 -0.47296446848E+01  0.27163797323E+02  0.47787271024E+02  0.19999999908E+02 0.  0.
         12    1    1    2    0    0  0.33516889053E+02  0.47296446848E+01 -0.27163797323E+02  0.43400728976E+02  0.00000000000E+00 0. -1.
         11    1    3    3    0    0 -0.17020417176E+02  0.24548909186E+01  0.75157696062E+01  0.18767202331E+02  0.51100000000E-03 0. -1.
        -11    1    3    3    0    0 -0.16287020158E+02 -0.79860624816E+01  0.12990931833E+02  0.22311623198E+02  0.51100000000E-03 0.  1.
         12    1    3    3    0    0 -0.20945171851E+00  0.80152687825E+00  0.66570958842E+01  0.67084454958E+01  0.00000000000E+00 0. -1.
</event>
<event>
 7    1  0.1265344E-009  0.4778728E+02  0.7816164E-02  0.1312668E+00
        -11   -1    0    0    0    0  0.00000000000E+00  0.00000000000E+00  0.45593999997E+02  0.45594000000E+02  0.51100000000E-03 0.  1.
         11   -1    0    0    0    0 -0.00000000000E+00 -0.00000000000E+00 -0.45593999997E+02  0.45594000000E+02  0.51100000000E-03 0. -1.
    9900012    2    1    2    0    0  0.25416489864E+02 -0.36333408591E+01  0.34991763459E+02  0.47787278430E+02  0.20000033676E+02 0.  0.
         12    1    1    2    0    0 -0.25416489864E+02  0.36333408591E+01 -0.34991763459E+02  0.43400721570E+02  0.00000000000E+00 0. -1.
         11    1    3    3    0    0  0.31072622776E+01  0.32848628664E+01  0.61574264294E+01  0.76393261095E+01  0.51100000000E-03 0. -1.
        -11    1    3    3    0    0  0.12293295649E+02 -0.88022201926E+01  0.25083649734E+02  0.29288115038E+02  0.51100000000E-03 0.  1.
         12    1    3    3    0    0  0.10015931937E+02  0.18840164671E+01  0.37506872952E+01  0.10859837283E+02  0.00000000000E+00 0. -1.
</event>
<event>
 7    1  0.1265344E-009  0.4778728E+02  0.7816164E-02  0.1312668E+00
        -11   -1    0    0    0    0  0.00000000000E+00  0.00000000000E+00  0.45593999997E+02  0.45594000000E+02  0.51100000000E-03 0. -1.
         11   -1    0    0    0    0 -0.00000000000E+00 -0.00000000000E+00 -0.45593999997E+02  0.45594000000E+02  0.51100000000E-03 0.  1.
    9900012    2    1    2    0    0  0.20325326341E+02  0.27774076337E+02 -0.26440583762E+02  0.47787277922E+02  0.20000031358E+02 0.  0.
         12    1    1    2    0    0 -0.20325326341E+02 -0.27774076337E+02  0.26440583762E+02  0.43400722078E+02  0.00000000000E+00 0. -1.
         11    1    3    3    0    0  0.38213306634E+01  0.51719828351E+00 -0.42574752059E+00  0.38796034999E+01  0.51100000000E-03 0. -1.
        -11    1    3    3    0    0  0.14535661588E+02  0.14179119722E+02 -0.86287741181E+01  0.22063287083E+02  0.51100000000E-03 0.  1.
         12    1    3    3    0    0  0.19683340890E+01  0.13077758332E+02 -0.17386062123E+02  0.21844387339E+02  0.00000000000E+00 0. -1.
</event>
<event>
 7    1  0.1265344E-009  0.4778727E+02  0.7816164E-02  0.1312668E+00
        -11   -1    0    0    0    0  0.00000000000E+00  0.00000000000E+00  0.45593999997E+02  0.45594000000E+02  0.51100000000E-03 0.  1.
         11   -1    0    0    0    0 -0.00000000000E+00 -0.00000000000E+00 -0.45593999997E+02  0.45594000000E+02  0.51100000000E-03 0. -1.
    9900012    2    1    2    0    0 -0.13061409938E+02 -0.69589042754E+01  0.40799466039E+02  0.47787271811E+02  0.20000003496E+02 0.  0.
         12    1    1    2    0    0  0.13061409938E+02  0.69589042754E+01 -0.40799466039E+02  0.43400728189E+02  0.00000000000E+00 0. -1.
         11    1    3    3    0    0 -0.37066828667E+01 -0.35176422486E+01 -0.50367393995E+00  0.51348799950E+01  0.51100000000E-03 0. -1.
        -11    1    3    3    0    0 -0.32551826117E+01  0.62092660224E+00  0.12609394046E+02  0.13037583448E+02  0.51100000000E-03 0.  1.
         12    1    3    3    0    0 -0.60995444594E+01 -0.40621886291E+01  0.28693745932E+02  0.29614808369E+02  0.00000000000E+00 0. -1.
</event>
<event>
 7    1  0.1265344E-009  0.4778727E+02  0.7816164E-02  0.1312668E+00
        -11   -1    0    0    0    0  0.00000000000E+00  0.00000000000E+00  0.45593999997E+02  0.45594000000E+02  0.51100000000E-03 0. -1.
         11   -1    0    0    0    0 -0.00000000000E+00 -0.00000000000E+00 -0.45593999997E+02  0.45594000000E+02  0.51100000000E-03 0.  1.
    9900012    2    1    2    0    0  0.35271938463E+02  0.16370928757E+02 -0.19274504006E+02  0.47787268947E+02  0.19999990436E+02 0.  0.
         12    1    1    2    0    0 -0.35271938463E+02 -0.16370928757E+02  0.19274504006E+02  0.43400731053E+02  0.00000000000E+00 0. -1.
         11    1    3    3    0    0  0.69121429649E+01  0.11437681925E+01 -0.76407271222E+01  0.10366611658E+02  0.51100000000E-03 0.  1.
        -11    1    3    3    0    0  0.25972410748E+02  0.14305792625E+02 -0.46899268837E+01  0.30020280431E+02  0.51100000000E-03 0. -1.
         12    1    3    3    0    0  0.23873847498E+01  0.92136793920E+00 -0.69438500002E+01  0.74003768585E+01  0.00000000000E+00 0. -1.
</event>
<event>
 7    1  0.1265344E-009  0.4778728E+02  0.7816164E-02  0.1312668E+00
        -11   -1    0    0    0    0  0.00000000000E+00  0.00000000000E+00  0.45593999997E+02  0.45594000000E+02  0.51100000000E-03 0.  1.
         11   -1    0    0    0    0 -0.00000000000E+00 -0.00000000000E+00 -0.45593999997E+02  0.45594000000E+02  0.51100000000E-03 0. -1.
    9900012    2    1    2    0    0  0.27210342291E+02  0.31485029380E+02  0.12325291206E+02  0.47787278739E+02  0.20000035084E+02 0.  0.
         12    1    1    2    0    0 -0.27210342291E+02 -0.31485029380E+02 -0.12325291206E+02  0.43400721261E+02  0.00000000000E+00 0. -1.
         11    1    3    3    0    0  0.33130054543E+01  0.88436541549E+01  0.49972265194E+00  0.94570580490E+01  0.51100000000E-03 0. -1.
        -11    1    3    3    0    0  0.25964133063E+02  0.18800437711E+02  0.11001310605E+02  0.33891318935E+02  0.51100000000E-03 0.  1.
         12    1    3    3    0    0 -0.20667962269E+01  0.38409375140E+01  0.82425794895E+00  0.44389017557E+01  0.00000000000E+00 0. -1.
</event>
<event>
 7    1  0.1265344E-009  0.4778727E+02  0.7816164E-02  0.1312668E+00
        -11   -1    0    0    0    0  0.00000000000E+00  0.00000000000E+00  0.45593999997E+02  0.45594000000E+02  0.51100000000E-03 0.  1.
         11   -1    0    0    0    0 -0.00000000000E+00 -0.00000000000E+00 -0.45593999997E+02  0.45594000000E+02  0.51100000000E-03 0. -1.
    9900012    2    1    2    0    0 -0.30851200923E+02 -0.24990873135E+02  0.17529494384E+02  0.47787268303E+02  0.19999987503E+02 0.  0.
         12    1    1    2    0    0  0.30851200923E+02  0.24990873135E+02 -0.17529494384E+02  0.43400731697E+02  0.00000000000E+00 0. -1.
         11    1    3    3    0    0 -0.12040147976E+02 -0.17923390731E+02  0.11574668637E+02  0.24498694923E+02  0.51100000000E-03 0. -1.
        -11    1    3    3    0    0  0.74178807170E-01 -0.18890875843E+01  0.29110828073E+01  0.34711032495E+01  0.51100000000E-03 0.  1.
         12    1    3    3    0    0 -0.18885231754E+02 -0.51783948189E+01  0.30437429392E+01  0.19817470131E+02  0.00000000000E+00 0. -1.
</event>
<event>
 7    1  0.1265344E-009  0.4778727E+02  0.7816164E-02  0.1312668E+00
        -11   -1    0    0    0    0  0.00000000000E+00  0.00000000000E+00  0.45593999997E+02  0.45594000000E+02  0.51100000000E-03 0.  1.
         11   -1    0    0    0    0 -0.00000000000E+00 -0.00000000000E+00 -0.45593999997E+02  0.45594000000E+02  0.51100000000E-03 0. -1.
    9900012    2    1    2    0    0 -0.39104076822E+02 -0.12262779171E+02 -0.14287008274E+02  0.47787272097E+02  0.20000004799E+02 0.  0.
         12    1    1    2    0    0  0.39104076822E+02  0.12262779171E+02  0.14287008274E+02  0.43400727903E+02  0.00000000000E+00 0. -1.
         11    1    3    3    0    0 -0.17913771480E+01  0.38794491822E+00  0.18599305589E+01  0.26112976260E+01  0.51100000000E-03 0. -1.
        -11    1    3    3    0    0 -0.19949079624E+02 -0.13026084928E+02 -0.14108076708E+02  0.27689032035E+02  0.51100000000E-03 0.  1.
         12    1    3    3    0    0 -0.17363620050E+02  0.37536083792E+00 -0.20388621248E+01  0.17486942436E+02  0.00000000000E+00 0. -1.
</event>
<event>
 7    1  0.1265344E-009  0.4778727E+02  0.7816164E-02  0.1312668E+00
        -11   -1    0    0    0    0  0.00000000000E+00  0.00000000000E+00  0.45593999997E+02  0.45594000000E+02  0.51100000000E-03 0. -1.
         11   -1    0    0    0    0 -0.00000000000E+00 -0.00000000000E+00 -0.45593999997E+02  0.45594000000E+02  0.51100000000E-03 0.  1.
    9900012    2    1    2    0    0 -0.32231413483E+02  0.18440314667E+02 -0.22465852430E+02  0.47787265611E+02  0.19999975225E+02 0.  0.
         12    1    1    2    0    0  0.32231413483E+02 -0.18440314667E+02  0.22465852430E+02  0.43400734389E+02  0.00000000000E+00 0. -1.
         11    1    3    3    0    0  0.11279238551E+01  0.17681570822E+00  0.89261298576E-01  0.11451828928E+01  0.51100000000E-03 0. -1.
        -11    1    3    3    0    0 -0.20473328674E+02  0.71125707554E+01 -0.19845891668E+02  0.29387161586E+02  0.51100000000E-03 0.  1.
         12    1    3    3    0    0 -0.12886008664E+02  0.11150928203E+02 -0.27092220610E+01  0.17254921132E+02  0.00000000000E+00 0. -1.
</event>
<event>
 7    1  0.1265344E-009  0.4778727E+02  0.7816164E-02  0.1312668E+00
        -11   -1    0    0    0    0  0.00000000000E+00  0.00000000000E+00  0.45593999997E+02  0.45594000000E+02  0.51100000000E-03 0.  1.
         11   -1    0    0    0    0 -0.00000000000E+00 -0.00000000000E+00 -0.45593999997E+02  0.45594000000E+02  0.51100000000E-03 0. -1.
    9900012    2    1    2    0    0 -0.31482712270E+02 -0.94371091929E+01  0.28344361500E+02  0.47787273846E+02  0.20000012774E+02 0.  0.
         12    1    1    2    0    0  0.31482712270E+02  0.94371091929E+01 -0.28344361500E+02  0.43400726154E+02  0.00000000000E+00 0. -1.
         11    1    3    3    0    0 -0.70630887314E+00 -0.52564577927E+01  0.29889608564E+01  0.60879477670E+01  0.51100000000E-03 0. -1.
        -11    1    3    3    0    0 -0.11122553162E+02  0.18062584213E+01  0.14798638778E+02  0.18600362047E+02  0.51100000000E-03 0.  1.
        -12    1    3    3    0    0 -0.19653850235E+02 -0.59869098215E+01  0.10556761866E+02  0.23098964032E+02  0.00000000000E+00 0.  1.
</event>
<event>
 7    1  0.1265344E-009  0.4778727E+02  0.7816164E-02  0.1312668E+00
        -11   -1    0    0    0    0  0.00000000000E+00  0.00000000000E+00  0.45593999997E+02  0.45594000000E+02  0.51100000000E-03 0.  1.
         11   -1    0    0    0    0 -0.00000000000E+00 -0.00000000000E+00 -0.45593999997E+02  0.45594000000E+02  0.51100000000E-03 0. -1.
    9900012    2    1    2    0    0 -0.43324363858E+01  0.21840937050E+02  0.37253553332E+02  0.47787265305E+02  0.19999973830E+02 0.  0.
         12    1    1    2    0    0  0.43324363858E+01 -0.21840937050E+02 -0.37253553332E+02  0.43400734695E+02  0.00000000000E+00 0. -1.
         11    1    3    3    0    0  0.25034749206E+01 -0.51675025659E+00  0.63428541809E+01  0.68385829619E+01  0.51100000000E-03 0. -1.
        -11    1    3    3    0    0 -0.77180230226E+01  0.63660546283E+01  0.71615871514E+01  0.12303774287E+02  0.51100000000E-03 0.  1.
        -12    1    3    3    0    0  0.88211171621E+00  0.15991632678E+02  0.23749111999E+02  0.28644908056E+02  0.00000000000E+00 0.  1.
</event>
<event>
 7    1  0.1265344E-009  0.4778728E+02  0.7816164E-02  0.1312668E+00
        -11   -1    0    0    0    0  0.00000000000E+00  0.00000000000E+00  0.45593999997E+02  0.45594000000E+02  0.51100000000E-03 0.  1.
         11   -1    0    0    0    0 -0.00000000000E+00 -0.00000000000E+00 -0.45593999997E+02  0.45594000000E+02  0.51100000000E-03 0. -1.
    9900012    2    1    2    0    0  0.16297976199E+02 -0.10878503927E+02  0.38725405652E+02  0.47787275135E+02  0.20000018650E+02 0.  0.
         12    1    1    2    0    0 -0.16297976199E+02  0.10878503927E+02 -0.38725405652E+02  0.43400724865E+02  0.00000000000E+00 0. -1.
         11    1    3    3    0    0 -0.19279527200E+01  0.11265060362E+01  0.20377485896E+01  0.30229848025E+01  0.51100000000E-03 0. -1.
        -11    1    3    3    0    0 -0.53234211228E+00 -0.28360278296E+00  0.10362417229E+02  0.10379957117E+02  0.51100000000E-03 0.  1.
        -12    1    3    3    0    0  0.18758271031E+02 -0.11721407180E+02  0.26325239834E+02  0.34384333215E+02  0.00000000000E+00 0.  1.
</event>
<event>
 7    1  0.1265344E-009  0.4778728E+02  0.7816164E-02  0.1312668E+00
        -11   -1    0    0    0    0  0.00000000000E+00  0.00000000000E+00  0.45593999997E+02  0.45594000000E+02  0.51100000000E-03 0.  1.
         11   -1    0    0    0    0 -0.00000000000E+00 -0.00000000000E+00 -0.45593999997E+02  0.45594000000E+02  0.51100000000E-03 0. -1.
    9900012    2    1    2    0    0  0.33077072924E+02  0.23874628213E+02  0.14816593700E+02  0.47787284863E+02  0.20000063004E+02 0.  0.
         12    1    1    2    0    0 -0.33077072924E+02 -0.23874628213E+02 -0.14816593700E+02  0.43400715137E+02  0.00000000000E+00 0. -1.
         11    1    3    3    0    0  0.15964256351E+02  0.59021258519E+01  0.11801101543E+02  0.20711314982E+02  0.51100000000E-03 0. -1.
        -11    1    3    3    0    0  0.18087113909E+02  0.16399756556E+02  0.43437426688E+01  0.24798463769E+02  0.51100000000E-03 0.  1.
        -12    1    3    3    0    0 -0.97429733540E+00  0.15727458053E+01 -0.13282505126E+01  0.22775061120E+01  0.00000000000E+00 0.  1.
</event>
<event>
 7    1  0.1265344E-009  0.4778727E+02  0.7816164E-02  0.1312668E+00
        -11   -1    0    0    0    0  0.00000000000E+00  0.00000000000E+00  0.45593999997E+02  0.45594000000E+02  0.51100000000E-03 0. -1.
         11   -1    0    0    0    0 -0.00000000000E+00 -0.00000000000E+00 -0.45593999997E+02  0.45594000000E+02  0.51100000000E-03 0.  1.
    9900012    2    1    2    0    0  0.29820467878E+02 -0.27907088130E+02 -0.14681867061E+02  0.47787273131E+02  0.20000009513E+02 0.  0.
         12    1    1    2    0    0 -0.29820467878E+02  0.27907088130E+02  0.14681867061E+02  0.43400726869E+02  0.00000000000E+00 0. -1.
         11    1    3    3    0    0  0.46051260884E+01 -0.73233267647E+01 -0.67317532111E+01  0.10961514619E+02  0.51100000000E-03 0.  1.
        -11    1    3    3    0    0  0.19846245514E+02 -0.21455077815E+02 -0.28429184330E+01  0.29364536614E+02  0.51100000000E-03 0. -1.
         12    1    3    3    0    0  0.53690962758E+01  0.87131645054E+00 -0.51071954172E+01  0.74612218976E+01  0.00000000000E+00 0. -1.
</event>
<event>
 7    1  0.1265344E-009  0.4778727E+02  0.7816164E-02  0.1312668E+00
        -11   -1    0    0    0    0  0.00000000000E+00  0.00000000000E+00  0.45593999997E+02  0.45594000000E+02  0.51100000000E-03 0.  1.
         11   -1    0    0    0    0 -0.00000000000E+00 -0.00000000000E+00 -0.45593999997E+02  0.45594000000E+02  0.51100000000E-03 0. -1.
    9900012    2    1    2    0    0 -0.22889377551E+02 -0.52575037249E+01  0.36497377406E+02  0.47787268352E+02  0.19999987723E+02 0.  0.
         12    1    1    2    0    0  0.22889377551E+02  0.52575037249E+01 -0.36497377406E+02  0.43400731648E+02  0.00000000000E+00 0. -1.
         11    1    3    3    0    0 -0.79928603292E+00  0.17975309011E+01  0.57758756375E+01  0.61016977264E+01  0.51100000000E-03 0. -1.
        -11    1    3    3    0    0 -0.22557548872E+02 -0.90783870548E+01  0.31198239169E+02  0.39554901721E+02  0.51100000000E-03 0.  1.
        -12    1    3    3    0    0  0.46745735460E+00  0.20233524288E+01 -0.47673740080E+00  0.21306689041E+01  0.00000000000E+00 0.  1.
</event>
<event>
 7    1  0.1265344E-009  0.4778727E+02  0.7816164E-02  0.1312668E+00
        -11   -1    0    0    0    0  0.00000000000E+00  0.00000000000E+00  0.45593999997E+02  0.45594000000E+02  0.51100000000E-03 0.  1.
         11   -1    0    0    0    0 -0.00000000000E+00 -0.00000000000E+00 -0.45593999997E+02  0.45594000000E+02  0.51100000000E-03 0. -1.
    9900012    2    1    2    0    0 -0.24152866454E+02 -0.33237809711E+02  0.13982499315E+02  0.47787271441E+02  0.20000001807E+02 0.  0.
         12    1    1    2    0    0  0.24152866454E+02  0.33237809711E+02 -0.13982499315E+02  0.43400728559E+02  0.00000000000E+00 0. -1.
         11    1    3    3    0    0 -0.62712180381E+01 -0.12985460884E+02  0.98930045675E+00  0.14454379465E+02  0.51100000000E-03 0. -1.
        -11    1    3    3    0    0 -0.18059293389E+02 -0.17140981107E+02  0.15503613720E+02  0.29331098678E+02  0.51100000000E-03 0.  1.
         12    1    3    3    0    0  0.17764497238E+00 -0.31113677200E+01 -0.25104148615E+01  0.40017932982E+01  0.00000000000E+00 0. -1.
</event>
<event>
 7    1  0.1265344E-009  0.4778728E+02  0.7816164E-02  0.1312668E+00
        -11   -1    0    0    0    0  0.00000000000E+00  0.00000000000E+00  0.45593999997E+02  0.45594000000E+02  0.51100000000E-03 0.  1.
         11   -1    0    0    0    0 -0.00000000000E+00 -0.00000000000E+00 -0.45593999997E+02  0.45594000000E+02  0.51100000000E-03 0. -1.
    9900012    2    1    2    0    0 -0.20414316468E+02  0.25070855402E+02  0.28953942597E+02  0.47787275359E+02  0.20000019670E+02 0.  0.
         12    1    1    2    0    0  0.20414316468E+02 -0.25070855402E+02 -0.28953942597E+02  0.43400724641E+02  0.00000000000E+00 0. -1.
         11    1    3    3    0    0  0.75556217017E-01  0.24414906610E+01  0.77928096763E+01  0.81666681273E+01  0.51100000000E-03 0. -1.
        -11    1    3    3    0    0 -0.18059728101E+02  0.10171941553E+02  0.11812241599E+02  0.23856890533E+02  0.51100000000E-03 0.  1.
         12    1    3    3    0    0 -0.24301445842E+01  0.12457423188E+02  0.93488913219E+01  0.15763716698E+02  0.00000000000E+00 0. -1.
</event>
<event>
 7    1  0.1265344E-009  0.4778727E+02  0.7816164E-02  0.1312668E+00
        -11   -1    0    0    0    0  0.00000000000E+00  0.00000000000E+00  0.45593999997E+02  0.45594000000E+02  0.51100000000E-03 0.  1.
         11   -1    0    0    0    0 -0.00000000000E+00 -0.00000000000E+00 -0.45593999997E+02  0.45594000000E+02  0.51100000000E-03 0. -1.
    9900012    2    1    2    0    0  0.34461487499E+02  0.20047535383E+02  0.17150081648E+02  0.47787273093E+02  0.20000009339E+02 0.  0.
         12    1    1    2    0    0 -0.34461487499E+02 -0.20047535383E+02 -0.17150081648E+02  0.43400726907E+02  0.00000000000E+00 0. -1.
         11    1    3    3    0    0  0.38801448802E+01 -0.32568856480E+01 -0.45662169457E+00  0.50863869346E+01  0.51100000000E-03 0. -1.
        -11    1    3    3    0    0  0.10055726143E+02  0.10671622441E+02  0.84149151647E+01  0.16905973834E+02  0.51100000000E-03 0.  1.
         12    1    3    3    0    0  0.20525616476E+02  0.12632798590E+02  0.91917881775E+01  0.25794912324E+02  0.00000000000E+00 0. -1.
</event>
<event>
 7    1  0.1265344E-009  0.4778725E+02  0.7816164E-02  0.1312668E+00
        -11   -1    0    0    0    0  0.00000000000E+00  0.00000000000E+00  0.45593999997E+02  0.45594000000E+02  0.51100000000E-03 0.  1.
         11   -1    0    0    0    0 -0.00000000000E+00 -0.00000000000E+00 -0.45593999997E+02  0.45594000000E+02  0.51100000000E-03 0. -1.
    9900012    2    1    2    0    0 -0.16111407675E+01  0.12156365130E+02  0.41632340597E+02  0.47787253793E+02  0.19999921342E+02 0.  0.
         12    1    1    2    0    0  0.16111407675E+01 -0.12156365130E+02 -0.41632340597E+02  0.43400746207E+02  0.00000000000E+00 0. -1.
         11    1    3    3    0    0 -0.21548397882E+01  0.12194689299E+02  0.27590102196E+02  0.30241817423E+02  0.51100000000E-03 0. -1.
        -11    1    3    3    0    0  0.43529094382E+01 -0.10810044577E+01  0.12543548702E+02  0.13321298942E+02  0.51100000000E-03 0.  1.
         12    1    3    3    0    0 -0.38092104176E+01  0.10426802891E+01  0.14986896999E+01  0.42241374276E+01  0.00000000000E+00 0. -1.
</event>
<event>
 7    1  0.1265344E-009  0.4778727E+02  0.7816164E-02  0.1312668E+00
        -11   -1    0    0    0    0  0.00000000000E+00  0.00000000000E+00  0.45593999997E+02  0.45594000000E+02  0.51100000000E-03 0.  1.
         11   -1    0    0    0    0 -0.00000000000E+00 -0.00000000000E+00 -0.45593999997E+02  0.45594000000E+02  0.51100000000E-03 0. -1.
    9900012    2    1    2    0    0 -0.26916731425E+02 -0.81597000343E+01  0.33053473387E+02  0.47787271455E+02  0.20000001874E+02 0.  0.
         12    1    1    2    0    0  0.26916731425E+02  0.81597000343E+01 -0.33053473387E+02  0.43400728545E+02  0.00000000000E+00 0. -1.
         11    1    3    3    0    0 -0.15233583256E+01  0.24529423828E+01  0.24671080098E+01  0.37979164175E+01  0.51100000000E-03 0. -1.
        -11    1    3    3    0    0 -0.20139336211E+02 -0.94448732124E+01  0.31467228288E+02  0.38535502454E+02  0.51100000000E-03 0.  1.
        -12    1    3    3    0    0 -0.52540368879E+01 -0.11677692047E+01 -0.88086291066E+00  0.54538525834E+01  0.00000000000E+00 0.  1.
</event>
<event>
 7    1  0.1265344E-009  0.4778728E+02  0.7816164E-02  0.1312668E+00
        -11   -1    0    0    0    0  0.00000000000E+00  0.00000000000E+00  0.45593999997E+02  0.45594000000E+02  0.51100000000E-03 0.  1.
         11   -1    0    0    0    0 -0.00000000000E+00 -0.00000000000E+00 -0.45593999997E+02  0.45594000000E+02  0.51100000000E-03 0. -1.
    9900012    2    1    2    0    0  0.26439935764E+02  0.30562762948E+02  0.15826249197E+02  0.47787275975E+02  0.20000022482E+02 0.  0.
         12    1    1    2    0    0 -0.26439935764E+02 -0.30562762948E+02 -0.15826249197E+02  0.43400724025E+02  0.00000000000E+00 0. -1.
         11    1    3    3    0    0 -0.28178330901E+01  0.23840241586E+01  0.12381320484E+01  0.38931639759E+01  0.51100000000E-03 0. -1.
        -11    1    3    3    0    0  0.17123492543E+02  0.13686552811E+02  0.11458769664E+02  0.24735382091E+02  0.51100000000E-03 0.  1.
        -12    1    3    3    0    0  0.12134276311E+02  0.14492185978E+02  0.31293474853E+01  0.19158729908E+02  0.00000000000E+00 0.  1.
</event>
<event>
 7    1  0.1265344E-009  0.4778727E+02  0.7816164E-02  0.1312668E+00
        -11   -1    0    0    0    0  0.00000000000E+00  0.00000000000E+00  0.45593999997E+02  0.45594000000E+02  0.51100000000E-03 0. -1.
         11   -1    0    0    0    0 -0.00000000000E+00 -0.00000000000E+00 -0.45593999997E+02  0.45594000000E+02  0.51100000000E-03 0.  1.
    9900012    2    1    2    0    0 -0.26858183277E+02 -0.96381943865E+01 -0.32701172266E+02  0.47787268814E+02  0.19999989829E+02 0.  0.
         12    1    1    2    0    0  0.26858183277E+02  0.96381943865E+01  0.32701172266E+02  0.43400731186E+02  0.00000000000E+00 0. -1.
         11    1    3    3    0    0  0.51012921708E+00 -0.37879697965E+01 -0.67405850823E+01  0.77488343969E+01  0.51100000000E-03 0. -1.
        -11    1    3    3    0    0 -0.16164114597E+02 -0.91893875075E+01 -0.13689023440E+02  0.23089235728E+02  0.51100000000E-03 0.  1.
         12    1    3    3    0    0 -0.11204197896E+02  0.33391629176E+01 -0.12271563743E+02  0.16949198689E+02  0.00000000000E+00 0. -1.
</event>
<event>
 7    1  0.1265344E-009  0.4778727E+02  0.7816164E-02  0.1312668E+00
        -11   -1    0    0    0    0  0.00000000000E+00  0.00000000000E+00  0.45593999997E+02  0.45594000000E+02  0.51100000000E-03 0. -1.
         11   -1    0    0    0    0 -0.00000000000E+00 -0.00000000000E+00 -0.45593999997E+02  0.45594000000E+02  0.51100000000E-03 0.  1.
    9900012    2    1    2    0    0 -0.38484895073E+02  0.82217811784E+01 -0.18301324268E+02  0.47787270692E+02  0.19999998392E+02 0.  0.
         12    1    1    2    0    0  0.38484895073E+02 -0.82217811784E+01  0.18301324268E+02  0.43400729308E+02  0.00000000000E+00 0. -1.
         11    1    3    3    0    0 -0.96842049840E+01  0.21573880959E+01 -0.85711573297E+01  0.13111174158E+02  0.51100000000E-03 0. -1.
        -11    1    3    3    0    0 -0.26285842431E+02  0.84791736398E+01 -0.39147718872E+01  0.27895650864E+02  0.51100000000E-03 0.  1.
         12    1    3    3    0    0 -0.25148476577E+01 -0.24147805573E+01 -0.58153950514E+01  0.67804456701E+01  0.00000000000E+00 0. -1.
</event>
<event>
 7    1  0.1265344E-009  0.4778728E+02  0.7816164E-02  0.1312668E+00
        -11   -1    0    0    0    0  0.00000000000E+00  0.00000000000E+00  0.45593999997E+02  0.45594000000E+02  0.51100000000E-03 0. -1.
         11   -1    0    0    0    0 -0.00000000000E+00 -0.00000000000E+00 -0.45593999997E+02  0.45594000000E+02  0.51100000000E-03 0.  1.
    9900012    2    1    2    0    0 -0.14470235897E+02  0.37263095094E+02 -0.16902563944E+02  0.47787278223E+02  0.20000032730E+02 0.  0.
         12    1    1    2    0    0  0.14470235897E+02 -0.37263095094E+02  0.16902563944E+02  0.43400721777E+02  0.00000000000E+00 0. -1.
         11    1    3    3    0    0 -0.10002706273E+02  0.17886105114E+02 -0.25574068762E+01  0.20652051209E+02  0.51100000000E-03 0. -1.
        -11    1    3    3    0    0 -0.77366785045E+01  0.15759012695E+02 -0.13589519471E+02  0.22200849423E+02  0.51100000000E-03 0.  1.
        -12    1    3    3    0    0  0.32691488802E+01  0.36179772845E+01 -0.75563759662E+00  0.49343775909E+01  0.00000000000E+00 0.  1.
</event>
<event>
 7    1  0.1265344E-009  0.4778727E+02  0.7816164E-02  0.1312668E+00
        -11   -1    0    0    0    0  0.00000000000E+00  0.00000000000E+00  0.45593999997E+02  0.45594000000E+02  0.51100000000E-03 0.  1.
         11   -1    0    0    0    0 -0.00000000000E+00 -0.00000000000E+00 -0.45593999997E+02  0.45594000000E+02  0.51100000000E-03 0. -1.
    9900012    2    1    2    0    0 -0.21070718755E+02 -0.22790832207E+02  0.30335229036E+02  0.47787270258E+02  0.19999996413E+02 0.  0.
         12    1    1    2    0    0  0.21070718755E+02  0.22790832207E+02 -0.30335229036E+02  0.43400729742E+02  0.00000000000E+00 0. -1.
         11    1    3    3    0    0 -0.27174121273E+01 -0.91553994129E+01  0.41571758384E+01  0.10415746651E+02  0.51100000000E-03 0. -1.
        -11    1    3    3    0    0 -0.99423838668E+01 -0.91717438546E+00  0.47106481244E+01  0.11040036767E+02  0.51100000000E-03 0.  1.
        -12    1    3    3    0    0 -0.84109227610E+01 -0.12718258408E+02  0.21467405073E+02  0.26331486840E+02  0.00000000000E+00 0.  1.
</event>
<event>
 7    1  0.1265344E-009  0.4778727E+02  0.7816164E-02  0.1312668E+00
        -11   -1    0    0    0    0  0.00000000000E+00  0.00000000000E+00  0.45593999997E+02  0.45594000000E+02  0.51100000000E-03 0.  1.
         11   -1    0    0    0    0 -0.00000000000E+00 -0.00000000000E+00 -0.45593999997E+02  0.45594000000E+02  0.51100000000E-03 0. -1.
    9900012    2    1    2    0    0  0.17920029862E+02 -0.26453113167E+02  0.29372246282E+02  0.47787268231E+02  0.19999987171E+02 0.  0.
         12    1    1    2    0    0 -0.17920029862E+02  0.26453113167E+02 -0.29372246282E+02  0.43400731769E+02  0.00000000000E+00 0. -1.
         11    1    3    3    0    0  0.12033851599E+01 -0.42750159054E+01  0.47668580663E+00  0.44666683841E+01  0.51100000000E-03 0. -1.
        -11    1    3    3    0    0  0.11387906417E+02 -0.87816109555E+01  0.24213624357E+02  0.28162043752E+02  0.51100000000E-03 0.  1.
        -12    1    3    3    0    0  0.53287382860E+01 -0.13396486306E+02  0.46819361186E+01  0.15158556095E+02  0.00000000000E+00 0.  1.
</event>
<event>
 7    1  0.1265344E-009  0.4778727E+02  0.7816164E-02  0.1312668E+00
        -11   -1    0    0    0    0  0.00000000000E+00  0.00000000000E+00  0.45593999997E+02  0.45594000000E+02  0.51100000000E-03 0.  1.
         11   -1    0    0    0    0 -0.00000000000E+00 -0.00000000000E+00 -0.45593999997E+02  0.45594000000E+02  0.51100000000E-03 0. -1.
    9900012    2    1    2    0    0 -0.37267117334E+01  0.43227894899E+02 -0.10410801846E+01  0.47787272751E+02  0.20000007782E+02 0.  0.
         12    1    1    2    0    0  0.37267117334E+01 -0.43227894899E+02  0.10410801846E+01  0.43400727249E+02  0.00000000000E+00 0. -1.
         11    1    3    3    0    0  0.19051153226E+01  0.97136713615E+01  0.93555642122E+00  0.99428437476E+01  0.51100000000E-03 0. -1.
        -11    1    3    3    0    0 -0.36631824798E+00  0.32299759402E+02 -0.78774875373E+00  0.32311440619E+02  0.51100000000E-03 0.  1.
         12    1    3    3    0    0 -0.52655088080E+01  0.12144641357E+01 -0.11888878521E+01  0.55329883850E+01  0.00000000000E+00 0. -1.
</event>
<event>
 7    1  0.1265344E-009  0.4778728E+02  0.7816164E-02  0.1312668E+00
        -11   -1    0    0    0    0  0.00000000000E+00  0.00000000000E+00  0.45593999997E+02  0.45594000000E+02  0.51100000000E-03 0. -1.
         11   -1    0    0    0    0 -0.00000000000E+00 -0.00000000000E+00 -0.45593999997E+02  0.45594000000E+02  0.51100000000E-03 0.  1.
    9900012    2    1    2    0    0 -0.38192402159E+01 -0.42896041649E+02 -0.53819650706E+01  0.47787279579E+02  0.20000038914E+02 0.  0.
         12    1    1    2    0    0  0.38192402159E+01  0.42896041649E+02  0.53819650706E+01  0.43400720421E+02  0.00000000000E+00 0. -1.
         11    1    3    3    0    0 -0.14319318145E+01 -0.15437110629E+01  0.29115836652E+01  0.35931590930E+01  0.51100000000E-03 0. -1.
        -11    1    3    3    0    0  0.41573825906E+01 -0.13044358910E+02 -0.63009375876E+01  0.15071195843E+02  0.51100000000E-03 0.  1.
        -12    1    3    3    0    0 -0.65446909921E+01 -0.28307971676E+02 -0.19926111482E+01  0.29122924644E+02  0.00000000000E+00 0.  1.
</event>
<event>
 7    1  0.1265344E-009  0.4778727E+02  0.7816164E-02  0.1312668E+00
        -11   -1    0    0    0    0  0.00000000000E+00  0.00000000000E+00  0.45593999997E+02  0.45594000000E+02  0.51100000000E-03 0.  1.
         11   -1    0    0    0    0 -0.00000000000E+00 -0.00000000000E+00 -0.45593999997E+02  0.45594000000E+02  0.51100000000E-03 0. -1.
    9900012    2    1    2    0    0 -0.12276705174E+02 -0.26715198958E+02  0.31924977362E+02  0.47787268153E+02  0.19999986816E+02 0.  0.
         12    1    1    2    0    0  0.12276705174E+02  0.26715198958E+02 -0.31924977362E+02  0.43400731847E+02  0.00000000000E+00 0. -1.
         11    1    3    3    0    0 -0.32817574981E+01 -0.96234527911E+01  0.13300587586E+02  0.16741756368E+02  0.51100000000E-03 0. -1.
        -11    1    3    3    0    0 -0.54365345671E+01 -0.19506926993E+02  0.13416936715E+02  0.24291774326E+02  0.51100000000E-03 0.  1.
         12    1    3    3    0    0 -0.35584131085E+01  0.24151808267E+01  0.52074530609E+01  0.67537374584E+01  0.00000000000E+00 0. -1.
</event>
<event>
 7    1  0.1265344E-009  0.4778727E+02  0.7816164E-02  0.1312668E+00
        -11   -1    0    0    0    0  0.00000000000E+00  0.00000000000E+00  0.45593999997E+02  0.45594000000E+02  0.51100000000E-03 0.  1.
         11   -1    0    0    0    0 -0.00000000000E+00 -0.00000000000E+00 -0.45593999997E+02  0.45594000000E+02  0.51100000000E-03 0. -1.
    9900012    2    1    2    0    0 -0.51339548671E+00  0.39372126113E+01  0.43218722736E+02  0.47787271746E+02  0.20000003198E+02 0.  0.
         12    1    1    2    0    0  0.51339548671E+00 -0.39372126113E+01 -0.43218722736E+02  0.43400728254E+02  0.00000000000E+00 0. -1.
         11    1    3    3    0    0 -0.38758840202E+01  0.46515938381E+01  0.53139211333E+01  0.80559021993E+01  0.51100000000E-03 0. -1.
        -11    1    3    3    0    0  0.46103009788E-01  0.17526619587E+01  0.34000173734E+02  0.34045348634E+02  0.51100000000E-03 0.  1.
         12    1    3    3    0    0  0.33163855237E+01 -0.24670431855E+01  0.39046278688E+01  0.56860209123E+01  0.00000000000E+00 0. -1.
</event>
<event>
 7    1  0.1265344E-009  0.4778727E+02  0.7816164E-02  0.1312668E+00
        -11   -1    0    0    0    0  0.00000000000E+00  0.00000000000E+00  0.45593999997E+02  0.45594000000E+02  0.51100000000E-03 0.  1.
         11   -1    0    0    0    0 -0.00000000000E+00 -0.00000000000E+00 -0.45593999997E+02  0.45594000000E+02  0.51100000000E-03 0. -1.
    9900012    2    1    2    0    0 -0.34450774243E+02 -0.25993127638E+02 -0.45961735809E+01  0.47787270261E+02  0.19999996426E+02 0.  0.
         12    1    1    2    0    0  0.34450774243E+02  0.25993127638E+02  0.45961735809E+01  0.43400729739E+02  0.00000000000E+00 0. -1.
         11    1    3    3    0    0 -0.17316894726E+02 -0.12153740284E+02  0.72865871141E+01  0.22375937921E+02  0.51100000000E-03 0. -1.
        -11    1    3    3    0    0 -0.40182613502E+01 -0.58713194883E+01 -0.38678120688E+01  0.80980730592E+01  0.51100000000E-03 0.  1.
         12    1    3    3    0    0 -0.13115618167E+02 -0.79680678661E+01 -0.80149486262E+01  0.17313259280E+02  0.00000000000E+00 0. -1.
</event>
<event>
 7    1  0.1265344E-009  0.4778727E+02  0.7816164E-02  0.1312668E+00
        -11   -1    0    0    0    0  0.00000000000E+00  0.00000000000E+00  0.45593999997E+02  0.45594000000E+02  0.51100000000E-03 0.  1.
         11   -1    0    0    0    0 -0.00000000000E+00 -0.00000000000E+00 -0.45593999997E+02  0.45594000000E+02  0.51100000000E-03 0. -1.
    9900012    2    1    2    0    0  0.44141112609E+01  0.11391387509E+02  0.41645831137E+02  0.47787270298E+02  0.19999996596E+02 0.  0.
         12    1    1    2    0    0 -0.44141112609E+01 -0.11391387509E+02 -0.41645831137E+02  0.43400729702E+02  0.00000000000E+00 0. -1.
         11    1    3    3    0    0  0.28088897023E+01 -0.53238653326E+01  0.10856426315E+02  0.12413516667E+02  0.51100000000E-03 0. -1.
        -11    1    3    3    0    0  0.29159116303E+01  0.81404266219E+01  0.17211582942E+02  0.19261559486E+02  0.51100000000E-03 0.  1.
         12    1    3    3    0    0 -0.13106900717E+01  0.85748262196E+01  0.13577821880E+02  0.16112194145E+02  0.00000000000E+00 0. -1.
</event>
<event>
 7    1  0.1265344E-009  0.4778732E+02  0.7816164E-02  0.1312668E+00
        -11   -1    0    0    0    0  0.00000000000E+00  0.00000000000E+00  0.45593999997E+02  0.45594000000E+02  0.51100000000E-03 0.  1.
         11   -1    0    0    0    0 -0.00000000000E+00 -0.00000000000E+00 -0.45593999997E+02  0.45594000000E+02  0.51100000000E-03 0. -1.
    9900012    2    1    2    0    0 -0.30451946690E+02  0.11799068568E+02  0.28584617507E+02  0.47787315278E+02  0.20000201679E+02 0.  0.
         12    1    1    2    0    0  0.30451946690E+02 -0.11799068568E+02 -0.28584617507E+02  0.43400684722E+02  0.00000000000E+00 0. -1.
         11    1    3    3    0    0 -0.26669210297E+01  0.68179173861E+01  0.55655763175E+01  0.91963093287E+01  0.51100000000E-03 0. -1.
        -11    1    3    3    0    0 -0.22497457990E+02  0.37753785461E+01  0.10834915556E+02  0.25254395549E+02  0.51100000000E-03 0.  1.
         12    1    3    3    0    0 -0.52875676701E+01  0.12057726360E+01  0.12184125634E+02  0.13336610400E+02  0.00000000000E+00 0. -1.
</event>
<event>
 7    1  0.1265344E-009  0.4778729E+02  0.7816164E-02  0.1312668E+00
        -11   -1    0    0    0    0  0.00000000000E+00  0.00000000000E+00  0.45593999997E+02  0.45594000000E+02  0.51100000000E-03 0.  1.
         11   -1    0    0    0    0 -0.00000000000E+00 -0.00000000000E+00 -0.45593999997E+02  0.45594000000E+02  0.51100000000E-03 0. -1.
    9900012    2    1    2    0    0 -0.51570291585E+01 -0.36181429316E+02  0.23407932105E+02  0.47787285000E+02  0.20000063630E+02 0.  0.
         12    1    1    2    0    0  0.51570291585E+01  0.36181429316E+02 -0.23407932105E+02  0.43400715000E+02  0.00000000000E+00 0. -1.
         11    1    3    3    0    0  0.47532182791E+00 -0.57303485624E+01  0.17507157084E+01  0.60106431635E+01  0.51100000000E-03 0.  1.
        -11    1    3    3    0    0 -0.28479828767E+01 -0.30297664322E+02  0.23487411528E+02  0.38441097414E+02  0.51100000000E-03 0. -1.
         12    1    3    3    0    0 -0.27843681097E+01 -0.15341643121E+00 -0.18301951321E+01  0.33355444223E+01  0.00000000000E+00 0. -1.
</event>
<event>
 7    1  0.1412865E-009  0.4778727E+02  0.7816164E-02  0.1312668E+00
        -11   -1    0    0    0    0  0.00000000000E+00  0.00000000000E+00  0.45593999997E+02  0.45594000000E+02  0.51100000000E-03 0. -1.
         11   -1    0    0    0    0 -0.00000000000E+00 -0.00000000000E+00 -0.45593999997E+02  0.45594000000E+02  0.51100000000E-03 0.  1.
    9900012    2    1    2    0    0  0.87642370925E+01  0.36047596473E+02 -0.22525145058E+02  0.47787271629E+02  0.20000002665E+02 0.  0.
         12    1    1    2    0    0 -0.87642370925E+01 -0.36047596473E+02  0.22525145058E+02  0.43400728371E+02  0.00000000000E+00 0. -1.
         11    1    3    3    0    0  0.76319553150E+01  0.21708701134E+02 -0.99055971351E+01  0.25052650593E+02  0.51100000000E-03 0. -1.
        -11    1    3    3    0    0 -0.21274770688E+01  0.14727773503E+02 -0.12525353399E+02  0.19450397144E+02  0.51100000000E-03 0.  1.
         12    1    3    3    0    0  0.32597588463E+01 -0.38887816490E+00 -0.94194523611E-01  0.32842238918E+01  0.00000000000E+00 0. -1.
</event>
<event>
 7    1  0.1265344E-009  0.4778727E+02  0.7816164E-02  0.1312668E+00
        -11   -1    0    0    0    0  0.00000000000E+00  0.00000000000E+00  0.45593999997E+02  0.45594000000E+02  0.51100000000E-03 0. -1.
         11   -1    0    0    0    0 -0.00000000000E+00 -0.00000000000E+00 -0.45593999997E+02  0.45594000000E+02  0.51100000000E-03 0.  1.
    9900012    2    1    2    0    0  0.40322286861E+02 -0.87728845554E+01 -0.13445184970E+02  0.47787270513E+02  0.19999997577E+02 0.  0.
         12    1    1    2    0    0 -0.40322286861E+02  0.87728845554E+01  0.13445184970E+02  0.43400729487E+02  0.00000000000E+00 0. -1.
         11    1    3    3    0    0  0.87109244060E+01 -0.28618113651E+01 -0.75481138269E+01  0.11876202714E+02  0.51100000000E-03 0. -1.
        -11    1    3    3    0    0  0.16710626292E+02  0.37744594963E+01  0.16888480143E+00  0.17132428255E+02  0.51100000000E-03 0.  1.
        -12    1    3    3    0    0  0.14900736163E+02 -0.96855326866E+01 -0.60659559445E+01  0.18778639545E+02  0.00000000000E+00 0.  1.
</event>
<event>
 7    1  0.1265344E-009  0.4778728E+02  0.7816164E-02  0.1312668E+00
        -11   -1    0    0    0    0  0.00000000000E+00  0.00000000000E+00  0.45593999997E+02  0.45594000000E+02  0.51100000000E-03 0. -1.
         11   -1    0    0    0    0 -0.00000000000E+00 -0.00000000000E+00 -0.45593999997E+02  0.45594000000E+02  0.51100000000E-03 0.  1.
    9900012    2    1    2    0    0  0.15427358640E+02  0.37752192828E+02 -0.14845579639E+02  0.47787277740E+02  0.20000030526E+02 0.  0.
         12    1    1    2    0    0 -0.15427358640E+02 -0.37752192828E+02  0.14845579639E+02  0.43400722260E+02  0.00000000000E+00 0. -1.
         11    1    3    3    0    0  0.20749788900E+01  0.55145477950E+01  0.10460922979E+01  0.59841527499E+01  0.51100000000E-03 0. -1.
        -11    1    3    3    0    0  0.14269111205E+02  0.26507790075E+02 -0.18613281073E+02  0.35393851186E+02  0.51100000000E-03 0.  1.
        -12    1    3    3    0    0 -0.91673145500E+00  0.57298549578E+01  0.27216091363E+01  0.64092738036E+01  0.00000000000E+00 0.  1.
</event>
<event>
 7    1  0.1265344E-009  0.4778727E+02  0.7816164E-02  0.1312668E+00
        -11   -1    0    0    0    0  0.00000000000E+00  0.00000000000E+00  0.45593999997E+02  0.45594000000E+02  0.51100000000E-03 0. -1.
         11   -1    0    0    0    0 -0.00000000000E+00 -0.00000000000E+00 -0.45593999997E+02  0.45594000000E+02  0.51100000000E-03 0.  1.
    9900012    2    1    2    0    0 -0.59861897340E+01 -0.35309856367E+02 -0.24515358146E+02  0.47787271789E+02  0.20000003397E+02 0.  0.
         12    1    1    2    0    0  0.59861897340E+01  0.35309856367E+02  0.24515358146E+02  0.43400728211E+02  0.00000000000E+00 0. -1.
         11    1    3    3    0    0  0.91768165737E-01 -0.87642548166E+00 -0.39426108305E+01  0.40398915138E+01  0.51100000000E-03 0. -1.
        -11    1    3    3    0    0  0.33426254228E+01 -0.20795313974E+01 -0.56674121590E+01  0.69005185596E+01  0.51100000000E-03 0.  1.
         12    1    3    3    0    0 -0.94205833226E+01 -0.32353899488E+02 -0.14905335156E+02  0.36846861716E+02  0.00000000000E+00 0. -1.
</event>
<event>
 7    1  0.1265344E-009  0.4778727E+02  0.7816164E-02  0.1312668E+00
        -11   -1    0    0    0    0  0.00000000000E+00  0.00000000000E+00  0.45593999997E+02  0.45594000000E+02  0.51100000000E-03 0. -1.
         11   -1    0    0    0    0 -0.00000000000E+00 -0.00000000000E+00 -0.45593999997E+02  0.45594000000E+02  0.51100000000E-03 0.  1.
    9900012    2    1    2    0    0 -0.19651749321E+02  0.38233349048E+02 -0.59701993085E+01  0.47787268317E+02  0.19999987565E+02 0.  0.
         12    1    1    2    0    0  0.19651749321E+02 -0.38233349048E+02  0.59701993085E+01  0.43400731683E+02  0.00000000000E+00 0. -1.
         11    1    3    3    0    0 -0.10291024640E+02  0.26183209446E+02  0.13966922151E+01  0.28167648010E+02  0.51100000000E-03 0. -1.
        -11    1    3    3    0    0 -0.15701121026E+01  0.54127223660E+01  0.17623340438E+01  0.59049671438E+01  0.51100000000E-03 0.  1.
        -12    1    3    3    0    0 -0.77906125786E+01  0.66374172366E+01 -0.91292255674E+01  0.13714653163E+02  0.00000000000E+00 0.  1.
</event>
<event>
 7    1  0.1265344E-009  0.4778727E+02  0.7816164E-02  0.1312668E+00
        -11   -1    0    0    0    0  0.00000000000E+00  0.00000000000E+00  0.45593999997E+02  0.45594000000E+02  0.51100000000E-03 0. -1.
         11   -1    0    0    0    0 -0.00000000000E+00 -0.00000000000E+00 -0.45593999997E+02  0.45594000000E+02  0.51100000000E-03 0.  1.
    9900012    2    1    2    0    0  0.15467656014E+02 -0.58969587232E+01 -0.40119835406E+02  0.47787266162E+02  0.19999977737E+02 0.  0.
         12    1    1    2    0    0 -0.15467656014E+02  0.58969587232E+01  0.40119835406E+02  0.43400733838E+02  0.00000000000E+00 0. -1.
         11    1    3    3    0    0  0.96478620844E+01  0.23109239569E+01 -0.25054854744E+02  0.26947492626E+02  0.51100000000E-03 0. -1.
        -11    1    3    3    0    0 -0.26467518242E+01 -0.33246530120E+01 -0.69026931711E+01  0.81059105685E+01  0.51100000000E-03 0.  1.
         12    1    3    3    0    0  0.84665457533E+01 -0.48832296681E+01 -0.81622874910E+01  0.12733862967E+02  0.00000000000E+00 0. -1.
</event>
<event>
 7    1  0.1265344E-009  0.4778724E+02  0.7816164E-02  0.1312668E+00
        -11   -1    0    0    0    0  0.00000000000E+00  0.00000000000E+00  0.45593999997E+02  0.45594000000E+02  0.51100000000E-03 0. -1.
         11   -1    0    0    0    0 -0.00000000000E+00 -0.00000000000E+00 -0.45593999997E+02  0.45594000000E+02  0.51100000000E-03 0.  1.
    9900012    2    1    2    0    0 -0.27079413432E+02 -0.18903269787E+02 -0.28160212964E+02  0.47787241544E+02  0.19999865494E+02 0.  0.
         12    1    1    2    0    0  0.27079413432E+02  0.18903269787E+02  0.28160212964E+02  0.43400758456E+02  0.00000000000E+00 0. -1.
         11    1    3    3    0    0 -0.51692574503E+01  0.29684675254E+01 -0.73873889930E+01  0.94924463882E+01  0.51100000000E-03 0. -1.
        -11    1    3    3    0    0 -0.18281062568E+02 -0.12832171099E+02 -0.13087009982E+02  0.25886901983E+02  0.51100000000E-03 0.  1.
        -12    1    3    3    0    0 -0.36290934131E+01 -0.90395662134E+01 -0.76858139880E+01  0.12407893173E+02  0.00000000000E+00 0.  1.
</event>
<event>
 7    1  0.1265344E-009  0.4778727E+02  0.7816164E-02  0.1312668E+00
        -11   -1    0    0    0    0  0.00000000000E+00  0.00000000000E+00  0.45593999997E+02  0.45594000000E+02  0.51100000000E-03 0. -1.
         11   -1    0    0    0    0 -0.00000000000E+00 -0.00000000000E+00 -0.45593999997E+02  0.45594000000E+02  0.51100000000E-03 0.  1.
    9900012    2    1    2    0    0 -0.20072362682E+02 -0.12642226141E+02 -0.36344155308E+02  0.47787271314E+02  0.20000001228E+02 0.  0.
         12    1    1    2    0    0  0.20072362682E+02  0.12642226141E+02  0.36344155308E+02  0.43400728686E+02  0.00000000000E+00 0. -1.
         11    1    3    3    0    0 -0.13728661787E+01 -0.79125775473E+01 -0.59873359690E+01  0.10017077281E+02  0.51100000000E-03 0. -1.
        -11    1    3    3    0    0 -0.14196147466E+01  0.23119640772E+01 -0.90493694723E+01  0.94473050142E+01  0.51100000000E-03 0.  1.
        -12    1    3    3    0    0 -0.17279881757E+02 -0.70416126706E+01 -0.21307449867E+02  0.28322889019E+02  0.00000000000E+00 0.  1.
</event>
<event>
 7    1  0.1265344E-009  0.4778725E+02  0.7816164E-02  0.1312668E+00
        -11   -1    0    0    0    0  0.00000000000E+00  0.00000000000E+00  0.45593999997E+02  0.45594000000E+02  0.51100000000E-03 0.  1.
         11   -1    0    0    0    0 -0.00000000000E+00 -0.00000000000E+00 -0.45593999997E+02  0.45594000000E+02  0.51100000000E-03 0. -1.
    9900012    2    1    2    0    0  0.29107661264E+02  0.44248048318E+01  0.31887142020E+02  0.47787254981E+02  0.19999926759E+02 0.  0.
         12    1    1    2    0    0 -0.29107661264E+02 -0.44248048318E+01 -0.31887142020E+02  0.43400745019E+02  0.00000000000E+00 0. -1.
         11    1    3    3    0    0  0.48264741512E+01  0.45958411763E+01  0.88670906128E+00  0.67233073758E+01  0.51100000000E-03 0. -1.
        -11    1    3    3    0    0  0.50821273271E+01  0.48087378165E+01  0.96843891734E+01  0.11947358347E+02  0.51100000000E-03 0.  1.
         12    1    3    3    0    0  0.19199059786E+02 -0.49797741609E+01  0.21316043785E+02  0.29116589257E+02  0.00000000000E+00 0. -1.
</event>
<event>
 7    1  0.1265344E-009  0.4778727E+02  0.7816164E-02  0.1312668E+00
        -11   -1    0    0    0    0  0.00000000000E+00  0.00000000000E+00  0.45593999997E+02  0.45594000000E+02  0.51100000000E-03 0.  1.
         11   -1    0    0    0    0 -0.00000000000E+00 -0.00000000000E+00 -0.45593999997E+02  0.45594000000E+02  0.51100000000E-03 0. -1.
    9900012    2    1    2    0    0  0.10145599585E+02  0.32623865796E+02  0.26765153428E+02  0.47787271337E+02  0.20000001336E+02 0.  0.
         12    1    1    2    0    0 -0.10145599585E+02 -0.32623865796E+02 -0.26765153428E+02  0.43400728663E+02  0.00000000000E+00 0. -1.
         11    1    3    3    0    0 -0.26389385778E+01  0.49804051000E+01  0.27572480883E+01  0.62746194354E+01  0.51100000000E-03 0. -1.
        -11    1    3    3    0    0  0.13709492568E+02  0.26005765557E+02  0.16374141036E+02  0.33650594699E+02  0.51100000000E-03 0.  1.
         12    1    3    3    0    0 -0.92495440523E+00  0.16376951390E+01  0.76337643035E+01  0.78620572029E+01  0.00000000000E+00 0. -1.
</event>
<event>
 7    1  0.1265344E-009  0.4778727E+02  0.7816164E-02  0.1312668E+00
        -11   -1    0    0    0    0  0.00000000000E+00  0.00000000000E+00  0.45593999997E+02  0.45594000000E+02  0.51100000000E-03 0.  1.
         11   -1    0    0    0    0 -0.00000000000E+00 -0.00000000000E+00 -0.45593999997E+02  0.45594000000E+02  0.51100000000E-03 0. -1.
    9900012    2    1    2    0    0  0.11434216258E+02  0.43735420279E+01  0.41638370988E+02  0.47787272935E+02  0.20000008618E+02 0.  0.
         12    1    1    2    0    0 -0.11434216258E+02 -0.43735420279E+01 -0.41638370988E+02  0.43400727065E+02  0.00000000000E+00 0. -1.
         11    1    3    3    0    0 -0.40532480757E+00 -0.67918134066E+01  0.11128462674E+02  0.13043607603E+02  0.51100000000E-03 0. -1.
        -11    1    3    3    0    0  0.26358771447E+01  0.44812770380E+01  0.83837640554E+01  0.98649476538E+01  0.51100000000E-03 0.  1.
         12    1    3    3    0    0  0.92036639206E+01  0.66840783965E+01  0.22126144258E+02  0.24878717678E+02  0.00000000000E+00 0. -1.
</event>
<event>
 7    1  0.1265344E-009  0.4778733E+02  0.7816164E-02  0.1312667E+00
        -11   -1    0    0    0    0  0.00000000000E+00  0.00000000000E+00  0.45593999997E+02  0.45594000000E+02  0.51100000000E-03 0.  1.
         11   -1    0    0    0    0 -0.00000000000E+00 -0.00000000000E+00 -0.45593999997E+02  0.45594000000E+02  0.51100000000E-03 0. -1.
    9900012    2    1    2    0    0  0.32410138375E+02 -0.27388845193E+02  0.91133027845E+01  0.47787329520E+02  0.20000266610E+02 0.  0.
         12    1    1    2    0    0 -0.32410138375E+02  0.27388845193E+02 -0.91133027845E+01  0.43400670480E+02  0.00000000000E+00 0. -1.
         11    1    3    3    0    0  0.58043691931E+01 -0.37766749148E+01 -0.31013443648E+01  0.75876420759E+01  0.51100000000E-03 0. -1.
        -11    1    3    3    0    0  0.13880110847E+02 -0.61144465116E+01 -0.36672165457E+00  0.15171632025E+02  0.51100000000E-03 0.  1.
        -12    1    3    3    0    0  0.12725658335E+02 -0.17497723766E+02  0.12581368804E+02  0.25028055418E+02  0.00000000000E+00 0.  1.
</event>
<event>
 7    1  0.1265344E-009  0.4778726E+02  0.7816164E-02  0.1312668E+00
        -11   -1    0    0    0    0  0.00000000000E+00  0.00000000000E+00  0.45593999997E+02  0.45594000000E+02  0.51100000000E-03 0. -1.
         11   -1    0    0    0    0 -0.00000000000E+00 -0.00000000000E+00 -0.45593999997E+02  0.45594000000E+02  0.51100000000E-03 0.  1.
    9900012    2    1    2    0    0 -0.14430693397E+02 -0.11022033765E+02 -0.39419458220E+02  0.47787264677E+02  0.19999970966E+02 0.  0.
         12    1    1    2    0    0  0.14430693397E+02  0.11022033765E+02  0.39419458220E+02  0.43400735323E+02  0.00000000000E+00 0. -1.
         11    1    3    3    0    0  0.10184504913E-01  0.39288805310E+00 -0.64498645275E+00  0.75529632050E+00  0.51100000000E-03 0. -1.
        -11    1    3    3    0    0 -0.16739230374E+02 -0.38554635193E+01 -0.33140975619E+02  0.37328148865E+02  0.51100000000E-03 0.  1.
        -12    1    3    3    0    0  0.22983524714E+01 -0.75594582991E+01 -0.56334961483E+01  0.97038194908E+01  0.00000000000E+00 0.  1.
</event>
<event>
 7    1  0.1265344E-009  0.4778727E+02  0.7816164E-02  0.1312668E+00
        -11   -1    0    0    0    0  0.00000000000E+00  0.00000000000E+00  0.45593999997E+02  0.45594000000E+02  0.51100000000E-03 0.  1.
         11   -1    0    0    0    0 -0.00000000000E+00 -0.00000000000E+00 -0.45593999997E+02  0.45594000000E+02  0.51100000000E-03 0. -1.
    9900012    2    1    2    0    0  0.15733589301E+02 -0.62917241264E+01  0.39956123646E+02  0.47787269112E+02  0.19999991189E+02 0.  0.
         12    1    1    2    0    0 -0.15733589301E+02  0.62917241264E+01 -0.39956123646E+02  0.43400730888E+02  0.00000000000E+00 0. -1.
         11    1    3    3    0    0  0.65647288085E+01 -0.52644620732E-01  0.57998235484E+01  0.87599308924E+01  0.51100000000E-03 0. -1.
        -11    1    3    3    0    0  0.34117543812E+01 -0.10876793687E+02  0.22530559818E+02  0.25250165046E+02  0.51100000000E-03 0.  1.
        -12    1    3    3    0    0  0.57571061109E+01  0.46377141814E+01  0.11625740280E+02  0.13777173174E+02  0.00000000000E+00 0.  1.
</event>
<event>
 7    1  0.1265344E-009  0.4778727E+02  0.7816164E-02  0.1312668E+00
        -11   -1    0    0    0    0  0.00000000000E+00  0.00000000000E+00  0.45593999997E+02  0.45594000000E+02  0.51100000000E-03 0.  1.
         11   -1    0    0    0    0 -0.00000000000E+00 -0.00000000000E+00 -0.45593999997E+02  0.45594000000E+02  0.51100000000E-03 0. -1.
    9900012    2    1    2    0    0  0.12274044513E+02  0.11252969467E+02  0.40079195002E+02  0.47787270023E+02  0.19999995341E+02 0.  0.
         12    1    1    2    0    0 -0.12274044513E+02 -0.11252969467E+02 -0.40079195002E+02  0.43400729977E+02  0.00000000000E+00 0. -1.
         11    1    3    3    0    0  0.13178923946E+02  0.72100095816E+01  0.22227380550E+02  0.26827685716E+02  0.51100000000E-03 0.  1.
        -11    1    3    3    0    0 -0.12924723663E+01 -0.66618881774E+00  0.15700718813E+02  0.15767906134E+02  0.51100000000E-03 0. -1.
         12    1    3    3    0    0  0.38759293379E+00  0.47091487029E+01  0.21510956395E+01  0.51916781717E+01  0.00000000000E+00 0. -1.
</event>
<event>
 7    1  0.1265344E-009  0.4778727E+02  0.7816164E-02  0.1312668E+00
        -11   -1    0    0    0    0  0.00000000000E+00  0.00000000000E+00  0.45593999997E+02  0.45594000000E+02  0.51100000000E-03 0. -1.
         11   -1    0    0    0    0 -0.00000000000E+00 -0.00000000000E+00 -0.45593999997E+02  0.45594000000E+02  0.51100000000E-03 0.  1.
    9900012    2    1    2    0    0  0.38254595104E+02  0.11535319274E+02 -0.16945373018E+02  0.47787270697E+02  0.19999998415E+02 0.  0.
         12    1    1    2    0    0 -0.38254595104E+02 -0.11535319274E+02  0.16945373018E+02  0.43400729303E+02  0.00000000000E+00 0. -1.
         11    1    3    3    0    0  0.22189838933E+02  0.11086686825E+02 -0.62909116177E+01  0.25590606594E+02  0.51100000000E-03 0. -1.
        -11    1    3    3    0    0  0.17725498914E+02 -0.93745478219E-02 -0.10014684909E+02  0.20358961509E+02  0.51100000000E-03 0.  1.
         12    1    3    3    0    0 -0.16607427423E+01  0.45800699604E+00 -0.63977649058E+00  0.18377025936E+01  0.00000000000E+00 0. -1.
</event>
<event>
 7    1 -0.1265344E-009  0.4778722E+02  0.7816164E-02  0.1312668E+00
        -11   -1    0    0    0    0  0.00000000000E+00  0.00000000000E+00  0.45593999997E+02  0.45594000000E+02  0.51100000000E-03 0. -1.
         11   -1    0    0    0    0 -0.00000000000E+00 -0.00000000000E+00 -0.45593999997E+02  0.45594000000E+02  0.51100000000E-03 0.  1.
    9900012    2    1    2    0    0 -0.19432486878E+02  0.23433627532E+02 -0.30933335062E+02  0.47787220472E+02  0.19999769421E+02 0.  0.
         12    1    1    2    0    0  0.19432486878E+02 -0.23433627532E+02  0.30933335062E+02  0.43400779528E+02  0.00000000000E+00 0. -1.
         11    1    3    3    0    0 -0.10318709919E+01 -0.22842282534E+01  0.91944824937E+00  0.26698018283E+01  0.51100000000E-03 0. -1.
        -11    1    3    3    0    0 -0.59832084944E+01  0.51355679183E+01 -0.87243760895E+01  0.11759573978E+02  0.51100000000E-03 0.  1.
         12    1    3    3    0    0 -0.12417407391E+02  0.20582287867E+02 -0.23128407222E+02  0.33357844666E+02  0.00000000000E+00 0. -1.
</event>
<event>
 7    1  0.1363499E-009  0.4778727E+02  0.7816164E-02  0.1312668E+00
        -11   -1    0    0    0    0  0.00000000000E+00  0.00000000000E+00  0.45593999997E+02  0.45594000000E+02  0.51100000000E-03 0.  1.
         11   -1    0    0    0    0 -0.00000000000E+00 -0.00000000000E+00 -0.45593999997E+02  0.45594000000E+02  0.51100000000E-03 0. -1.
    9900012    2    1    2    0    0  0.37670375264E+00 -0.36890307955E+02  0.22860155837E+02  0.47787268996E+02  0.19999990662E+02 0.  0.
         12    1    1    2    0    0 -0.37670375264E+00  0.36890307955E+02 -0.22860155837E+02  0.43400731004E+02  0.00000000000E+00 0. -1.
         11    1    3    3    0    0  0.17772314263E+01 -0.16491263189E+01 -0.19019151755E+01  0.30814689280E+01  0.51100000000E-03 0. -1.
        -11    1    3    3    0    0 -0.38256437911E+01 -0.92322027725E+01  0.12050922764E+02  0.15655473745E+02  0.51100000000E-03 0.  1.
        -12    1    3    3    0    0  0.24251161174E+01 -0.26008978864E+02  0.12711148249E+02  0.29050326324E+02  0.00000000000E+00 0.  1.
</event>
<event>
 7    1  0.1265344E-009  0.4778727E+02  0.7816164E-02  0.1312668E+00
        -11   -1    0    0    0    0  0.00000000000E+00  0.00000000000E+00  0.45593999997E+02  0.45594000000E+02  0.51100000000E-03 0.  1.
         11   -1    0    0    0    0 -0.00000000000E+00 -0.00000000000E+00 -0.45593999997E+02  0.45594000000E+02  0.51100000000E-03 0. -1.
    9900012    2    1    2    0    0  0.14499971556E+02 -0.40739720477E+02  0.36944706983E+01  0.47787272893E+02  0.20000008428E+02 0.  0.
         12    1    1    2    0    0 -0.14499971556E+02  0.40739720477E+02 -0.36944706983E+01  0.43400727107E+02  0.00000000000E+00 0. -1.
         11    1    3    3    0    0  0.52211471679E+00 -0.15177065497E+02  0.85994910332E+01  0.17451852829E+02  0.51100000000E-03 0. -1.
        -11    1    3    3    0    0  0.56994030252E+01 -0.13418071896E+02  0.72480179094E+00  0.14596341533E+02  0.51100000000E-03 0.  1.
         12    1    3    3    0    0  0.82784538136E+01 -0.12144583084E+02 -0.56298221258E+01  0.15739078530E+02  0.00000000000E+00 0. -1.
</event>
<event>
 7    1  0.1265344E-009  0.4778727E+02  0.7816164E-02  0.1312668E+00
        -11   -1    0    0    0    0  0.00000000000E+00  0.00000000000E+00  0.45593999997E+02  0.45594000000E+02  0.51100000000E-03 0.  1.
         11   -1    0    0    0    0 -0.00000000000E+00 -0.00000000000E+00 -0.45593999997E+02  0.45594000000E+02  0.51100000000E-03 0. -1.
    9900012    2    1    2    0    0  0.78584714994E+01  0.23087165624E+02  0.35900564109E+02  0.47787270810E+02  0.19999998932E+02 0.  0.
         12    1    1    2    0    0 -0.78584714994E+01 -0.23087165624E+02 -0.35900564109E+02  0.43400729190E+02  0.00000000000E+00 0. -1.
         11    1    3    3    0    0 -0.45855478413E+01  0.14091150470E+01  0.82258169260E+01  0.95224428894E+01  0.51100000000E-03 0. -1.
        -11    1    3    3    0    0  0.32917311425E+01  0.13087111647E+02  0.17546482532E+02  0.22135650763E+02  0.51100000000E-03 0.  1.
        -12    1    3    3    0    0  0.91522881981E+01  0.85909389303E+01  0.10128264650E+02  0.16129177158E+02  0.00000000000E+00 0.  1.
</event>
<event>
 7    1  0.1265344E-009  0.4778727E+02  0.7816164E-02  0.1312668E+00
        -11   -1    0    0    0    0  0.00000000000E+00  0.00000000000E+00  0.45593999997E+02  0.45594000000E+02  0.51100000000E-03 0. -1.
         11   -1    0    0    0    0 -0.00000000000E+00 -0.00000000000E+00 -0.45593999997E+02  0.45594000000E+02  0.51100000000E-03 0.  1.
    9900012    2    1    2    0    0  0.25456074479E+01 -0.27907123468E+02 -0.33141146933E+02  0.47787271002E+02  0.19999999808E+02 0.  0.
         12    1    1    2    0    0 -0.25456074479E+01  0.27907123468E+02  0.33141146933E+02  0.43400728998E+02  0.00000000000E+00 0. -1.
         11    1    3    3    0    0  0.44058919137E+00 -0.34214371449E+00  0.11444886415E+01  0.12731989902E+01  0.51100000000E-03 0. -1.
        -11    1    3    3    0    0 -0.38437061996E+01 -0.22449352095E+02 -0.20454798088E+02  0.30612844557E+02  0.51100000000E-03 0.  1.
        -12    1    3    3    0    0  0.59487244562E+01 -0.51156276586E+01 -0.13830837487E+02  0.15901227455E+02  0.00000000000E+00 0.  1.
</event>
<event>
 7    1  0.1265344E-009  0.4778726E+02  0.7816164E-02  0.1312668E+00
        -11   -1    0    0    0    0  0.00000000000E+00  0.00000000000E+00  0.45593999997E+02  0.45594000000E+02  0.51100000000E-03 0. -1.
         11   -1    0    0    0    0 -0.00000000000E+00 -0.00000000000E+00 -0.45593999997E+02  0.45594000000E+02  0.51100000000E-03 0.  1.
    9900012    2    1    2    0    0  0.23927398651E+02  0.29500367923E+02 -0.20995996067E+02  0.47787263086E+02  0.19999963716E+02 0.  0.
         12    1    1    2    0    0 -0.23927398651E+02 -0.29500367923E+02  0.20995996067E+02  0.43400736914E+02  0.00000000000E+00 0. -1.
         11    1    3    3    0    0  0.18021896411E+01  0.35030902193E+01 -0.48759838137E+01  0.62685522252E+01  0.51100000000E-03 0. -1.
        -11    1    3    3    0    0  0.17471749600E+02  0.22705969205E+02 -0.19716807785E+02  0.34778953134E+02  0.51100000000E-03 0.  1.
         12    1    3    3    0    0  0.46534594104E+01  0.32913084984E+01  0.35967955320E+01  0.67397577267E+01  0.00000000000E+00 0. -1.
</event>
<event>
 7    1  0.1265344E-009  0.4778728E+02  0.7816164E-02  0.1312668E+00
        -11   -1    0    0    0    0  0.00000000000E+00  0.00000000000E+00  0.45593999997E+02  0.45594000000E+02  0.51100000000E-03 0.  1.
         11   -1    0    0    0    0 -0.00000000000E+00 -0.00000000000E+00 -0.45593999997E+02  0.45594000000E+02  0.51100000000E-03 0. -1.
    9900012    2    1    2    0    0 -0.70250480751E+01  0.35157258902E+02  0.24458903848E+02  0.47787284206E+02  0.20000060010E+02 0.  0.
         12    1    1    2    0    0  0.70250480751E+01 -0.35157258902E+02 -0.24458903848E+02  0.43400715794E+02  0.00000000000E+00 0. -1.
         11    1    3    3    0    0 -0.48141198997E+01  0.13304491393E+01  0.76404583376E+01  0.91281131232E+01  0.51100000000E-03 0. -1.
        -11    1    3    3    0    0  0.29268498351E+01  0.94159471177E+01  0.45349963248E+01  0.10853234633E+02  0.51100000000E-03 0.  1.
        -12    1    3    3    0    0 -0.51377780105E+01  0.24410862645E+02  0.12283449186E+02  0.27805936450E+02  0.00000000000E+00 0.  1.
</event>
<event>
 7    1  0.1265344E-009  0.4778727E+02  0.7816164E-02  0.1312668E+00
        -11   -1    0    0    0    0  0.00000000000E+00  0.00000000000E+00  0.45593999997E+02  0.45594000000E+02  0.51100000000E-03 0. -1.
         11   -1    0    0    0    0 -0.00000000000E+00 -0.00000000000E+00 -0.45593999997E+02  0.45594000000E+02  0.51100000000E-03 0.  1.
    9900012    2    1    2    0    0 -0.10058184914E+02  0.30593012853E+02 -0.29095079605E+02  0.47787272167E+02  0.20000005118E+02 0.  0.
         12    1    1    2    0    0  0.10058184914E+02 -0.30593012853E+02  0.29095079605E+02  0.43400727833E+02  0.00000000000E+00 0. -1.
         11    1    3    3    0    0 -0.87940014651E+01  0.99358597619E+01 -0.73397982352E+01  0.15163390431E+02  0.51100000000E-03 0. -1.
        -11    1    3    3    0    0 -0.11735226632E+01  0.22237729667E+02 -0.21616018132E+02  0.31034593864E+02  0.51100000000E-03 0.  1.
         12    1    3    3    0    0 -0.90660785750E-01 -0.15805765753E+01 -0.13926323774E+00  0.15892878713E+01  0.00000000000E+00 0. -1.
</event>
<event>
 7    1  0.1265344E-009  0.4778725E+02  0.7816164E-02  0.1312668E+00
        -11   -1    0    0    0    0  0.00000000000E+00  0.00000000000E+00  0.45593999997E+02  0.45594000000E+02  0.51100000000E-03 0.  1.
         11   -1    0    0    0    0 -0.00000000000E+00 -0.00000000000E+00 -0.45593999997E+02  0.45594000000E+02  0.51100000000E-03 0. -1.
    9900012    2    1    2    0    0 -0.96666839561E+00 -0.18424789867E+02  0.39283813180E+02  0.47787247617E+02  0.19999893186E+02 0.  0.
         12    1    1    2    0    0  0.96666839561E+00  0.18424789867E+02 -0.39283813180E+02  0.43400752383E+02  0.00000000000E+00 0. -1.
         11    1    3    3    0    0 -0.10441363605E+01 -0.19445555154E+01 -0.19851399714E+01  0.29685514748E+01  0.51100000000E-03 0. -1.
        -11    1    3    3    0    0 -0.27512399504E+01 -0.61831395811E+01  0.17407310863E+02  0.18676589841E+02  0.51100000000E-03 0.  1.
         12    1    3    3    0    0  0.28287079153E+01 -0.10297094770E+02  0.23861642289E+02  0.26142106302E+02  0.00000000000E+00 0. -1.
</event>
<event>
 7    1  0.1265344E-009  0.4778727E+02  0.7816164E-02  0.1312668E+00
        -11   -1    0    0    0    0  0.00000000000E+00  0.00000000000E+00  0.45593999997E+02  0.45594000000E+02  0.51100000000E-03 0.  1.
         11   -1    0    0    0    0 -0.00000000000E+00 -0.00000000000E+00 -0.45593999997E+02  0.45594000000E+02  0.51100000000E-03 0. -1.
    9900012    2    1    2    0    0 -0.92541527663E+01 -0.42198402591E+02  0.41567364200E+01  0.47787274404E+02  0.20000015315E+02 0.  0.
         12    1    1    2    0    0  0.92541527663E+01  0.42198402591E+02 -0.41567364200E+01  0.43400725596E+02  0.00000000000E+00 0. -1.
         11    1    3    3    0    0 -0.31705186739E+01 -0.14758929195E+02  0.54671905544E+01  0.16055165912E+02  0.51100000000E-03 0. -1.
        -11    1    3    3    0    0 -0.29695644039E+01 -0.10192087571E+02  0.66032725151E+01  0.12502006638E+02  0.51100000000E-03 0.  1.
         12    1    3    3    0    0 -0.31140696885E+01 -0.17247385825E+02 -0.79137266495E+01  0.19230101854E+02  0.00000000000E+00 0. -1.
</event>
<event>
 7    1  0.1265344E-009  0.4778727E+02  0.7816164E-02  0.1312668E+00
        -11   -1    0    0    0    0  0.00000000000E+00  0.00000000000E+00  0.45593999997E+02  0.45594000000E+02  0.51100000000E-03 0. -1.
         11   -1    0    0    0    0 -0.00000000000E+00 -0.00000000000E+00 -0.45593999997E+02  0.45594000000E+02  0.51100000000E-03 0.  1.
    9900012    2    1    2    0    0  0.52400578506E+01 -0.35252227313E+02  0.24767832031E+02  0.47787271431E+02  0.20000001764E+02 0.  0.
         12    1    1    2    0    0 -0.52400578506E+01  0.35252227313E+02 -0.24767832031E+02  0.43400728569E+02  0.00000000000E+00 0. -1.
         11    1    3    3    0    0 -0.52807464118E+01 -0.63950343164E+01  0.75382548449E+01  0.11207498960E+02  0.51100000000E-03 0. -1.
        -11    1    3    3    0    0  0.18507713991E+01 -0.14960370670E+02  0.12353880565E+02  0.19489905352E+02  0.51100000000E-03 0.  1.
        -12    1    3    3    0    0  0.86700328633E+01 -0.13896822326E+02  0.48756966212E+01  0.17089867119E+02  0.00000000000E+00 0.  1.
</event>
<event>
 7    1  0.1265344E-009  0.4778726E+02  0.7816164E-02  0.1312668E+00
        -11   -1    0    0    0    0  0.00000000000E+00  0.00000000000E+00  0.45593999997E+02  0.45594000000E+02  0.51100000000E-03 0. -1.
         11   -1    0    0    0    0 -0.00000000000E+00 -0.00000000000E+00 -0.45593999997E+02  0.45594000000E+02  0.51100000000E-03 0.  1.
    9900012    2    1    2    0    0  0.42975682607E+02  0.51639305473E+01  0.31699144403E+01  0.47787264617E+02  0.19999970695E+02 0.  0.
         12    1    1    2    0    0 -0.42975682607E+02 -0.51639305473E+01 -0.31699144403E+01  0.43400735383E+02  0.00000000000E+00 0. -1.
         11    1    3    3    0    0  0.49389583029E+01  0.72183183432E+01  0.82179985441E+00  0.87848041574E+01  0.51100000000E-03 0. -1.
        -11    1    3    3    0    0  0.15126657353E+02 -0.14940952715E+01  0.48357005089E+01  0.15950927340E+02  0.51100000000E-03 0.  1.
        -12    1    3    3    0    0  0.22910066951E+02 -0.56029252450E+00 -0.24875859230E+01  0.23051533119E+02  0.00000000000E+00 0.  1.
</event>
<event>
 7    1  0.1265344E-009  0.4778727E+02  0.7816164E-02  0.1312668E+00
        -11   -1    0    0    0    0  0.00000000000E+00  0.00000000000E+00  0.45593999997E+02  0.45594000000E+02  0.51100000000E-03 0. -1.
         11   -1    0    0    0    0 -0.00000000000E+00 -0.00000000000E+00 -0.45593999997E+02  0.45594000000E+02  0.51100000000E-03 0.  1.
    9900012    2    1    2    0    0  0.29703245923E+02 -0.29355301716E+02 -0.11815534110E+02  0.47787269551E+02  0.19999993191E+02 0.  0.
         12    1    1    2    0    0 -0.29703245923E+02  0.29355301716E+02  0.11815534110E+02  0.43400730449E+02  0.00000000000E+00 0. -1.
         11    1    3    3    0    0  0.16098015734E+02 -0.22862927744E+02 -0.30084315260E+01  0.28123126357E+02  0.51100000000E-03 0. -1.
        -11    1    3    3    0    0 -0.25665446894E+00 -0.22986923799E+01  0.60653005701E+00  0.23911790282E+01  0.51100000000E-03 0.  1.
        -12    1    3    3    0    0  0.13861884658E+02 -0.41936815924E+01 -0.94136326412E+01  0.17272964166E+02  0.00000000000E+00 0.  1.
</event>
<event>
 7    1  0.1265344E-009  0.4778727E+02  0.7816164E-02  0.1312668E+00
        -11   -1    0    0    0    0  0.00000000000E+00  0.00000000000E+00  0.45593999997E+02  0.45594000000E+02  0.51100000000E-03 0. -1.
         11   -1    0    0    0    0 -0.00000000000E+00 -0.00000000000E+00 -0.45593999997E+02  0.45594000000E+02  0.51100000000E-03 0.  1.
    9900012    2    1    2    0    0 -0.61521207599E+01  0.39736772081E+02 -0.16332904786E+02  0.47787269315E+02  0.19999992114E+02 0.  0.
         12    1    1    2    0    0  0.61521207599E+01 -0.39736772081E+02  0.16332904786E+02  0.43400730685E+02  0.00000000000E+00 0. -1.
         11    1    3    3    0    0 -0.46467537910E+01  0.25957600641E+02 -0.40388976706E+00  0.26373328933E+02  0.51100000000E-03 0. -1.
        -11    1    3    3    0    0 -0.37836291172E+00  0.99592335804E+01 -0.90348784162E+01  0.13452082376E+02  0.51100000000E-03 0.  1.
         12    1    3    3    0    0 -0.11270040571E+01  0.38199378598E+01 -0.68941366026E+01  0.79618580050E+01  0.00000000000E+00 0. -1.
</event>
<event>
 7    1  0.1265344E-009  0.4778727E+02  0.7816164E-02  0.1312668E+00
        -11   -1    0    0    0    0  0.00000000000E+00  0.00000000000E+00  0.45593999997E+02  0.45594000000E+02  0.51100000000E-03 0.  1.
         11   -1    0    0    0    0 -0.00000000000E+00 -0.00000000000E+00 -0.45593999997E+02  0.45594000000E+02  0.51100000000E-03 0. -1.
    9900012    2    1    2    0    0 -0.14766376736E+02  0.13668144788E+02  0.38454636706E+02  0.47787272494E+02  0.20000006610E+02 0.  0.
         12    1    1    2    0    0  0.14766376736E+02 -0.13668144788E+02 -0.38454636706E+02  0.43400727506E+02  0.00000000000E+00 0. -1.
         11    1    3    3    0    0 -0.62748662761E+01  0.42790011827E+00  0.19355437957E+02  0.20351659001E+02  0.51100000000E-03 0. -1.
        -11    1    3    3    0    0 -0.94411759247E+01  0.43069415590E+01  0.12727557786E+02  0.16421823160E+02  0.51100000000E-03 0.  1.
         12    1    3    3    0    0  0.94966546489E+00  0.89333031103E+01  0.63716409624E+01  0.11013790333E+02  0.00000000000E+00 0. -1.
</event>
<event>
 7    1  0.1265344E-009  0.4778727E+02  0.7816164E-02  0.1312668E+00
        -11   -1    0    0    0    0  0.00000000000E+00  0.00000000000E+00  0.45593999997E+02  0.45594000000E+02  0.51100000000E-03 0.  1.
         11   -1    0    0    0    0 -0.00000000000E+00 -0.00000000000E+00 -0.45593999997E+02  0.45594000000E+02  0.51100000000E-03 0. -1.
    9900012    2    1    2    0    0 -0.27512520859E+02 -0.61237660013E+01  0.33002786198E+02  0.47787271770E+02  0.20000003307E+02 0.  0.
         12    1    1    2    0    0  0.27512520859E+02  0.61237660013E+01 -0.33002786198E+02  0.43400728230E+02  0.00000000000E+00 0. -1.
         11    1    3    3    0    0  0.18297255448E+00 -0.33745717607E+01  0.59839721595E+01  0.68723457851E+01  0.51100000000E-03 0. -1.
        -11    1    3    3    0    0 -0.22365817902E+02 -0.14869557709E+01  0.27428357391E+02  0.35422530080E+02  0.51100000000E-03 0.  1.
         12    1    3    3    0    0 -0.53296755115E+01 -0.12622384697E+01 -0.40954335174E+00  0.54923959043E+01  0.00000000000E+00 0. -1.
</event>
<event>
 7    1  0.1265344E-009  0.4778727E+02  0.7816164E-02  0.1312668E+00
        -11   -1    0    0    0    0  0.00000000000E+00  0.00000000000E+00  0.45593999997E+02  0.45594000000E+02  0.51100000000E-03 0.  1.
         11   -1    0    0    0    0 -0.00000000000E+00 -0.00000000000E+00 -0.45593999997E+02  0.45594000000E+02  0.51100000000E-03 0. -1.
    9900012    2    1    2    0    0 -0.86683623915E+01 -0.24756233735E+02  0.34577616605E+02  0.47787272064E+02  0.20000004647E+02 0.  0.
         12    1    1    2    0    0  0.86683623915E+01  0.24756233735E+02 -0.34577616605E+02  0.43400727936E+02  0.00000000000E+00 0. -1.
         11    1    3    3    0    0 -0.13330976446E+01 -0.20626089206E+02  0.16205892694E+02  0.26264875091E+02  0.51100000000E-03 0.  1.
        -11    1    3    3    0    0 -0.66911425567E+00  0.19554451853E+01  0.23211989983E+01  0.31079647377E+01  0.51100000000E-03 0. -1.
        -12    1    3    3    0    0 -0.66661504912E+01 -0.60855897143E+01  0.16050524913E+02  0.18414432235E+02  0.00000000000E+00 0.  1.
</event>
<event>
 7    1  0.1265344E-009  0.4778727E+02  0.7816164E-02  0.1312668E+00
        -11   -1    0    0    0    0  0.00000000000E+00  0.00000000000E+00  0.45593999997E+02  0.45594000000E+02  0.51100000000E-03 0. -1.
         11   -1    0    0    0    0 -0.00000000000E+00 -0.00000000000E+00 -0.45593999997E+02  0.45594000000E+02  0.51100000000E-03 0.  1.
    9900012    2    1    2    0    0  0.38744675792E+02  0.17321716374E+02 -0.90791845384E+01  0.47787270142E+02  0.19999995885E+02 0.  0.
         12    1    1    2    0    0 -0.38744675792E+02 -0.17321716374E+02  0.90791845384E+01  0.43400729858E+02  0.00000000000E+00 0. -1.
         11    1    3    3    0    0  0.69790883638E+01 -0.17737260214E+01  0.26946260797E+00  0.72059967213E+01  0.51100000000E-03 0. -1.
        -11    1    3    3    0    0  0.38965593343E+01  0.90624940043E+01 -0.26191969471E+01  0.10206476627E+02  0.51100000000E-03 0.  1.
        -12    1    3    3    0    0  0.27869028093E+02  0.10032948391E+02 -0.67294501993E+01  0.30374796794E+02  0.00000000000E+00 0.  1.
</event>
<event>
 7    1  0.1265344E-009  0.4778727E+02  0.7816164E-02  0.1312668E+00
        -11   -1    0    0    0    0  0.00000000000E+00  0.00000000000E+00  0.45593999997E+02  0.45594000000E+02  0.51100000000E-03 0.  1.
         11   -1    0    0    0    0 -0.00000000000E+00 -0.00000000000E+00 -0.45593999997E+02  0.45594000000E+02  0.51100000000E-03 0. -1.
    9900012    2    1    2    0    0 -0.39248154127E+02  0.17553413365E+02  0.59231076995E+01  0.47787272725E+02  0.20000007662E+02 0.  0.
         12    1    1    2    0    0  0.39248154127E+02 -0.17553413365E+02 -0.59231076995E+01  0.43400727275E+02  0.00000000000E+00 0. -1.
         11    1    3    3    0    0 -0.13524109781E+02  0.10497283198E+02  0.28719197235E+01  0.17359217237E+02  0.51100000000E-03 0. -1.
        -11    1    3    3    0    0 -0.15229126980E+02  0.77484636429E+00  0.80164683898E+01  0.17227607529E+02  0.51100000000E-03 0.  1.
         12    1    3    3    0    0 -0.10494917366E+02  0.62812838030E+01 -0.49652804138E+01  0.13200447959E+02  0.00000000000E+00 0. -1.
</event>
<event>
 7    1  0.1265344E-009  0.4778727E+02  0.7816164E-02  0.1312668E+00
        -11   -1    0    0    0    0  0.00000000000E+00  0.00000000000E+00  0.45593999997E+02  0.45594000000E+02  0.51100000000E-03 0.  1.
         11   -1    0    0    0    0 -0.00000000000E+00 -0.00000000000E+00 -0.45593999997E+02  0.45594000000E+02  0.51100000000E-03 0. -1.
    9900012    2    1    2    0    0 -0.30823189839E+02 -0.23823328125E+02  0.19131215059E+02  0.47787269771E+02  0.19999994193E+02 0.  0.
         12    1    1    2    0    0  0.30823189839E+02  0.23823328125E+02 -0.19131215059E+02  0.43400730229E+02  0.00000000000E+00 0. -1.
         11    1    3    3    0    0 -0.23605183814E+02 -0.24342442459E+02  0.13194252083E+02  0.36384715143E+02  0.51100000000E-03 0. -1.
        -11    1    3    3    0    0 -0.63900910938E+01 -0.58389677539E+00  0.12766851947E+01  0.65424861466E+01  0.51100000000E-03 0.  1.
         12    1    3    3    0    0 -0.82791493082E+00  0.11030111094E+01  0.46602777811E+01  0.48600684808E+01  0.00000000000E+00 0. -1.
</event>
<event>
 7    1  0.1265344E-009  0.4778727E+02  0.7816164E-02  0.1312668E+00
        -11   -1    0    0    0    0  0.00000000000E+00  0.00000000000E+00  0.45593999997E+02  0.45594000000E+02  0.51100000000E-03 0.  1.
         11   -1    0    0    0    0 -0.00000000000E+00 -0.00000000000E+00 -0.45593999997E+02  0.45594000000E+02  0.51100000000E-03 0. -1.
    9900012    2    1    2    0    0  0.41782924114E+02 -0.81071363313E+01  0.84902751547E+01  0.47787272135E+02  0.20000004974E+02 0.  0.
         12    1    1    2    0    0 -0.41782924114E+02  0.81071363313E+01 -0.84902751547E+01  0.43400727865E+02  0.00000000000E+00 0. -1.
         11    1    3    3    0    0  0.10012388998E+02 -0.82703392126E+01  0.41862481822E+01  0.13644453754E+02  0.51100000000E-03 0. -1.
        -11    1    3    3    0    0  0.29576769794E+02 -0.16438078700E+01  0.67629327277E+01  0.30384612472E+02  0.51100000000E-03 0.  1.
         12    1    3    3    0    0  0.21937653223E+01  0.18070107513E+01 -0.24589057552E+01  0.37582059094E+01  0.00000000000E+00 0. -1.
</event>
<event>
 7    1  0.1265344E-009  0.4778727E+02  0.7816164E-02  0.1312668E+00
        -11   -1    0    0    0    0  0.00000000000E+00  0.00000000000E+00  0.45593999997E+02  0.45594000000E+02  0.51100000000E-03 0.  1.
         11   -1    0    0    0    0 -0.00000000000E+00 -0.00000000000E+00 -0.45593999997E+02  0.45594000000E+02  0.51100000000E-03 0. -1.
    9900012    2    1    2    0    0  0.28083577540E+02 -0.23802399220E+00  0.33088964884E+02  0.47787267518E+02  0.19999983921E+02 0.  0.
         12    1    1    2    0    0 -0.28083577540E+02  0.23802399220E+00 -0.33088964884E+02  0.43400732482E+02  0.00000000000E+00 0. -1.
         11    1    3    3    0    0  0.89056516605E+01 -0.86953215065E+01  0.18048176926E+02  0.21923866862E+02  0.51100000000E-03 0. -1.
        -11    1    3    3    0    0  0.87711005154E+01  0.46470692967E+01  0.63992761087E+01  0.11810088580E+02  0.51100000000E-03 0.  1.
         12    1    3    3    0    0  0.10406825364E+02  0.38102282176E+01  0.86415118499E+01  0.14053312075E+02  0.00000000000E+00 0. -1.
</event>
<event>
 7    1  0.1265344E-009  0.4778727E+02  0.7816164E-02  0.1312668E+00
        -11   -1    0    0    0    0  0.00000000000E+00  0.00000000000E+00  0.45593999997E+02  0.45594000000E+02  0.51100000000E-03 0. -1.
         11   -1    0    0    0    0 -0.00000000000E+00 -0.00000000000E+00 -0.45593999997E+02  0.45594000000E+02  0.51100000000E-03 0.  1.
    9900012    2    1    2    0    0  0.20919582623E+02 -0.29171075460E+02 -0.24393496541E+02  0.47787271272E+02  0.20000001039E+02 0.  0.
         12    1    1    2    0    0 -0.20919582623E+02  0.29171075460E+02  0.24393496541E+02  0.43400728728E+02  0.00000000000E+00 0. -1.
         11    1    3    3    0    0  0.93975351382E+01 -0.17403672697E+02 -0.33154074733E+01  0.20054760457E+02  0.51100000000E-03 0. -1.
        -11    1    3    3    0    0  0.86408270038E+01 -0.11194170041E+02 -0.13279365415E+02  0.19398837086E+02  0.51100000000E-03 0.  1.
         12    1    3    3    0    0  0.28812204807E+01 -0.57323272233E+00 -0.77987236528E+01  0.83336737292E+01  0.00000000000E+00 0. -1.
</event>
<event>
 7    1  0.1265344E-009  0.4778725E+02  0.7816164E-02  0.1312668E+00
        -11   -1    0    0    0    0  0.00000000000E+00  0.00000000000E+00  0.45593999997E+02  0.45594000000E+02  0.51100000000E-03 0. -1.
         11   -1    0    0    0    0 -0.00000000000E+00 -0.00000000000E+00 -0.45593999997E+02  0.45594000000E+02  0.51100000000E-03 0.  1.
    9900012    2    1    2    0    0  0.34330997151E+02 -0.26548939367E+02  0.40158621022E+00  0.47787253251E+02  0.19999918872E+02 0.  0.
         12    1    1    2    0    0 -0.34330997151E+02  0.26548939367E+02 -0.40158621022E+00  0.43400746749E+02  0.00000000000E+00 0. -1.
         11    1    3    3    0    0  0.46716837023E+01  0.64507079894E+00  0.11048400678E+01  0.48436986680E+01  0.51100000000E-03 0. -1.
        -11    1    3    3    0    0  0.12286658757E+02 -0.33983806546E+01  0.34077336788E+01  0.13195591066E+02  0.51100000000E-03 0.  1.
         12    1    3    3    0    0  0.17372654691E+02 -0.23795629512E+02 -0.41109875364E+01  0.29747963517E+02  0.00000000000E+00 0. -1.
</event>
<event>
 7    1  0.1265344E-009  0.4778727E+02  0.7816164E-02  0.1312668E+00
        -11   -1    0    0    0    0  0.00000000000E+00  0.00000000000E+00  0.45593999997E+02  0.45594000000E+02  0.51100000000E-03 0.  1.
         11   -1    0    0    0    0 -0.00000000000E+00 -0.00000000000E+00 -0.45593999997E+02  0.45594000000E+02  0.51100000000E-03 0. -1.
    9900012    2    1    2    0    0 -0.12114417978E+02  0.18235347807E+02  0.37474478685E+02  0.47787267456E+02  0.19999983640E+02 0.  0.
         12    1    1    2    0    0  0.12114417978E+02 -0.18235347807E+02 -0.37474478685E+02  0.43400732544E+02  0.00000000000E+00 0. -1.
         11    1    3    3    0    0 -0.23134946434E+00  0.11292544000E+02  0.15627310539E+02  0.19281802496E+02  0.51100000000E-03 0. -1.
        -11    1    3    3    0    0 -0.73559172417E+00 -0.86760650978E+00 -0.12536964613E+01  0.16928057534E+01  0.51100000000E-03 0.  1.
        -12    1    3    3    0    0 -0.11147476790E+02  0.78104103169E+01  0.23100864608E+02  0.26812659207E+02  0.00000000000E+00 0.  1.
</event>
<event>
 7    1  0.1265344E-009  0.4778727E+02  0.7816164E-02  0.1312668E+00
        -11   -1    0    0    0    0  0.00000000000E+00  0.00000000000E+00  0.45593999997E+02  0.45594000000E+02  0.51100000000E-03 0.  1.
         11   -1    0    0    0    0 -0.00000000000E+00 -0.00000000000E+00 -0.45593999997E+02  0.45594000000E+02  0.51100000000E-03 0. -1.
    9900012    2    1    2    0    0  0.37389573969E+01  0.36094781534E+02  0.23807778556E+02  0.47787269866E+02  0.19999994626E+02 0.  0.
         12    1    1    2    0    0 -0.37389573969E+01 -0.36094781534E+02 -0.23807778556E+02  0.43400730134E+02  0.00000000000E+00 0. -1.
         11    1    3    3    0    0 -0.30039887129E+01  0.28971181701E+02  0.15519742656E+02  0.33003268470E+02  0.51100000000E-03 0. -1.
        -11    1    3    3    0    0  0.21776344369E+01  0.70617560365E+01  0.66251640839E+01  0.99248823399E+01  0.51100000000E-03 0.  1.
         12    1    3    3    0    0  0.45653116728E+01  0.61843797034E-01  0.16628718162E+01  0.48591190562E+01  0.00000000000E+00 0. -1.
</event>
<event>
 7    1  0.1265344E-009  0.4778727E+02  0.7816164E-02  0.1312668E+00
        -11   -1    0    0    0    0  0.00000000000E+00  0.00000000000E+00  0.45593999997E+02  0.45594000000E+02  0.51100000000E-03 0.  1.
         11   -1    0    0    0    0 -0.00000000000E+00 -0.00000000000E+00 -0.45593999997E+02  0.45594000000E+02  0.51100000000E-03 0. -1.
    9900012    2    1    2    0    0 -0.41316998584E+02 -0.46872467518E+01  0.12432168608E+02  0.47787268780E+02  0.19999989677E+02 0.  0.
         12    1    1    2    0    0  0.41316998584E+02  0.46872467518E+01 -0.12432168608E+02  0.43400731220E+02  0.00000000000E+00 0. -1.
         11    1    3    3    0    0 -0.73821750697E+01 -0.64088563489E+01 -0.18081809444E+01  0.99418040139E+01  0.51100000000E-03 0. -1.
        -11    1    3    3    0    0 -0.78234995698E+01  0.21827608391E+01  0.70579438118E+01  0.10760397832E+02  0.51100000000E-03 0.  1.
        -12    1    3    3    0    0 -0.26111323944E+02 -0.46115124202E+00  0.71824057406E+01  0.27085066934E+02  0.00000000000E+00 0.  1.
</event>
<event>
 7    1  0.1265344E-009  0.4778727E+02  0.7816164E-02  0.1312668E+00
        -11   -1    0    0    0    0  0.00000000000E+00  0.00000000000E+00  0.45593999997E+02  0.45594000000E+02  0.51100000000E-03 0.  1.
         11   -1    0    0    0    0 -0.00000000000E+00 -0.00000000000E+00 -0.45593999997E+02  0.45594000000E+02  0.51100000000E-03 0. -1.
    9900012    2    1    2    0    0  0.11857214845E+02  0.31040498377E+02  0.27919834585E+02  0.47787271359E+02  0.20000001433E+02 0.  0.
         12    1    1    2    0    0 -0.11857214845E+02 -0.31040498377E+02 -0.27919834585E+02  0.43400728641E+02  0.00000000000E+00 0. -1.
         11    1    3    3    0    0  0.82445234529E+01  0.22808175207E+02  0.19062487776E+02  0.30847422318E+02  0.51100000000E-03 0.  1.
        -11    1    3    3    0    0  0.52539801417E+01  0.33067066839E+01  0.98604973277E+01  0.11651953666E+02  0.51100000000E-03 0. -1.
         12    1    3    3    0    0 -0.16412887501E+01  0.49256164862E+01 -0.10031505185E+01  0.52878953746E+01  0.00000000000E+00 0. -1.
</event>
<event>
 7    1  0.1265344E-009  0.4778727E+02  0.7816164E-02  0.1312668E+00
        -11   -1    0    0    0    0  0.00000000000E+00  0.00000000000E+00  0.45593999997E+02  0.45594000000E+02  0.51100000000E-03 0.  1.
         11   -1    0    0    0    0 -0.00000000000E+00 -0.00000000000E+00 -0.45593999997E+02  0.45594000000E+02  0.51100000000E-03 0. -1.
    9900012    2    1    2    0    0  0.39385909866E+02  0.12850948896E+02  0.12931605759E+02  0.47787271769E+02  0.20000003304E+02 0.  0.
         12    1    1    2    0    0 -0.39385909866E+02 -0.12850948896E+02 -0.12931605759E+02  0.43400728231E+02  0.00000000000E+00 0. -1.
         11    1    3    3    0    0 -0.16543341490E+01 -0.65790587483E+00  0.43508222882E-01  0.17808859714E+01  0.51100000000E-03 0. -1.
        -11    1    3    3    0    0  0.21342170596E+02  0.32415817035E+01  0.93005549234E+01  0.23505242390E+02  0.51100000000E-03 0.  1.
        -12    1    3    3    0    0  0.19698073419E+02  0.10267273067E+02  0.35875426126E+01  0.22501143407E+02  0.00000000000E+00 0.  1.
</event>
<event>
 7    1  0.1265344E-009  0.4778727E+02  0.7816164E-02  0.1312668E+00
        -11   -1    0    0    0    0  0.00000000000E+00  0.00000000000E+00  0.45593999997E+02  0.45594000000E+02  0.51100000000E-03 0. -1.
         11   -1    0    0    0    0 -0.00000000000E+00 -0.00000000000E+00 -0.45593999997E+02  0.45594000000E+02  0.51100000000E-03 0.  1.
    9900012    2    1    2    0    0 -0.36312715811E+02  0.11687719945E+02  0.20697998077E+02  0.47787271302E+02  0.20000001175E+02 0.  0.
         12    1    1    2    0    0  0.36312715811E+02 -0.11687719945E+02 -0.20697998077E+02  0.43400728698E+02  0.00000000000E+00 0. -1.
         11    1    3    3    0    0 -0.11534592472E+01  0.75057422382E+00 -0.18763083787E+01  0.23268784441E+01  0.51100000000E-03 0. -1.
        -11    1    3    3    0    0 -0.17683598901E+02  0.11568288761E+02  0.16955305987E+02  0.27092755053E+02  0.51100000000E-03 0.  1.
         12    1    3    3    0    0 -0.17475657663E+02 -0.63114304000E+00  0.56190004685E+01  0.18367637805E+02  0.00000000000E+00 0. -1.
</event>
<event>
 7    1  0.1265344E-009  0.4778727E+02  0.7816164E-02  0.1312668E+00
        -11   -1    0    0    0    0  0.00000000000E+00  0.00000000000E+00  0.45593999997E+02  0.45594000000E+02  0.51100000000E-03 0. -1.
         11   -1    0    0    0    0 -0.00000000000E+00 -0.00000000000E+00 -0.45593999997E+02  0.45594000000E+02  0.51100000000E-03 0.  1.
    9900012    2    1    2    0    0  0.27905539760E+02  0.33228217596E+02 -0.88848511512E+00  0.47787274203E+02  0.20000014403E+02 0.  0.
         12    1    1    2    0    0 -0.27905539760E+02 -0.33228217596E+02  0.88848511512E+00  0.43400725797E+02  0.00000000000E+00 0. -1.
         11    1    3    3    0    0  0.20014132490E+02  0.14127935750E+02 -0.49434001030E+01  0.24992024182E+02  0.51100000000E-03 0. -1.
        -11    1    3    3    0    0  0.16332740502E+01  0.45818540433E+01 -0.27447792979E+01  0.55852291137E+01  0.51100000000E-03 0.  1.
        -12    1    3    3    0    0  0.62581332194E+01  0.14518427803E+02  0.67996942858E+01  0.17210020907E+02  0.00000000000E+00 0.  1.
</event>
<event>
 7    1  0.1265344E-009  0.4778727E+02  0.7816164E-02  0.1312668E+00
        -11   -1    0    0    0    0  0.00000000000E+00  0.00000000000E+00  0.45593999997E+02  0.45594000000E+02  0.51100000000E-03 0.  1.
         11   -1    0    0    0    0 -0.00000000000E+00 -0.00000000000E+00 -0.45593999997E+02  0.45594000000E+02  0.51100000000E-03 0. -1.
    9900012    2    1    2    0    0 -0.14472743501E+02  0.26868576640E+02  0.30858424589E+02  0.47787273241E+02  0.20000010015E+02 0.  0.
         12    1    1    2    0    0  0.14472743501E+02 -0.26868576640E+02 -0.30858424589E+02  0.43400726759E+02  0.00000000000E+00 0. -1.
         11    1    3    3    0    0 -0.34006563890E+01  0.50714489202E+01  0.84918556700E+00  0.61648336891E+01  0.51100000000E-03 0. -1.
        -11    1    3    3    0    0 -0.13825719405E+02  0.21717472761E+02  0.28753773278E+02  0.38595059505E+02  0.51100000000E-03 0.  1.
        -12    1    3    3    0    0  0.27536322927E+01  0.79654958900E-01  0.12554657434E+01  0.30273800470E+01  0.00000000000E+00 0.  1.
</event>
<event>
 7    1  0.1265344E-009  0.4778727E+02  0.7816164E-02  0.1312668E+00
        -11   -1    0    0    0    0  0.00000000000E+00  0.00000000000E+00  0.45593999997E+02  0.45594000000E+02  0.51100000000E-03 0.  1.
         11   -1    0    0    0    0 -0.00000000000E+00 -0.00000000000E+00 -0.45593999997E+02  0.45594000000E+02  0.51100000000E-03 0. -1.
    9900012    2    1    2    0    0  0.33630716593E+02 -0.20406527042E+02  0.18334995434E+02  0.47787268416E+02  0.19999988014E+02 0.  0.
         12    1    1    2    0    0 -0.33630716593E+02  0.20406527042E+02 -0.18334995434E+02  0.43400731584E+02  0.00000000000E+00 0. -1.
         11    1    3    3    0    0 -0.63395853823E+00 -0.42391310508E+01  0.34144567262E+01  0.54800228549E+01  0.51100000000E-03 0.  1.
        -11    1    3    3    0    0  0.17554914692E+02 -0.19948058442E+01  0.61808878910E+01  0.18717843241E+02  0.51100000000E-03 0. -1.
        -12    1    3    3    0    0  0.16709760440E+02 -0.14172590147E+02  0.87396508172E+01  0.23589402320E+02  0.00000000000E+00 0.  1.
</event>
<event>
 7    1  0.1265344E-009  0.4778727E+02  0.7816164E-02  0.1312668E+00
        -11   -1    0    0    0    0  0.00000000000E+00  0.00000000000E+00  0.45593999997E+02  0.45594000000E+02  0.51100000000E-03 0.  1.
         11   -1    0    0    0    0 -0.00000000000E+00 -0.00000000000E+00 -0.45593999997E+02  0.45594000000E+02  0.51100000000E-03 0. -1.
    9900012    2    1    2    0    0  0.10108801258E+02 -0.17286439298E+02  0.38504731780E+02  0.47787271712E+02  0.20000003043E+02 0.  0.
         12    1    1    2    0    0 -0.10108801258E+02  0.17286439298E+02 -0.38504731780E+02  0.43400728288E+02  0.00000000000E+00 0. -1.
         11    1    3    3    0    0  0.99915085449E+00  0.13018743285E+01  0.30459088421E+01  0.34598757395E+01  0.51100000000E-03 0. -1.
        -11    1    3    3    0    0  0.11916808875E+02 -0.55317125102E+01  0.15595131198E+02  0.20391623143E+02  0.51100000000E-03 0.  1.
         12    1    3    3    0    0 -0.28071584721E+01 -0.13056601116E+02  0.19863691740E+02  0.23935772829E+02  0.00000000000E+00 0. -1.
</event>
<event>
 7    1  0.1265344E-009  0.4778727E+02  0.7816164E-02  0.1312668E+00
        -11   -1    0    0    0    0  0.00000000000E+00  0.00000000000E+00  0.45593999997E+02  0.45594000000E+02  0.51100000000E-03 0. -1.
         11   -1    0    0    0    0 -0.00000000000E+00 -0.00000000000E+00 -0.45593999997E+02  0.45594000000E+02  0.51100000000E-03 0.  1.
    9900012    2    1    2    0    0 -0.22765017071E+02 -0.36580418871E+02  0.52201693703E+01  0.47787271719E+02  0.20000003077E+02 0.  0.
         12    1    1    2    0    0  0.22765017071E+02  0.36580418871E+02 -0.52201693703E+01  0.43400728281E+02  0.00000000000E+00 0. -1.
         11    1    3    3    0    0 -0.19128352968E+02 -0.20061392472E+02 -0.35579957032E+01  0.27946604245E+02  0.51100000000E-03 0.  1.
        -11    1    3    3    0    0 -0.39284255774E+01 -0.65380439818E+01  0.52100577223E+01  0.92370584255E+01  0.51100000000E-03 0. -1.
        -12    1    3    3    0    0  0.29176147395E+00 -0.99809824177E+01  0.35681073512E+01  0.10603609048E+02  0.00000000000E+00 0.  1.
</event>
<event>
 7    1  0.1265344E-009  0.4778727E+02  0.7816164E-02  0.1312668E+00
        -11   -1    0    0    0    0  0.00000000000E+00  0.00000000000E+00  0.45593999997E+02  0.45594000000E+02  0.51100000000E-03 0.  1.
         11   -1    0    0    0    0 -0.00000000000E+00 -0.00000000000E+00 -0.45593999997E+02  0.45594000000E+02  0.51100000000E-03 0. -1.
    9900012    2    1    2    0    0 -0.22922465212E+02  0.33484575141E+02  0.15393730121E+02  0.47787272923E+02  0.20000008563E+02 0.  0.
         12    1    1    2    0    0  0.22922465212E+02 -0.33484575141E+02 -0.15393730121E+02  0.43400727077E+02  0.00000000000E+00 0. -1.
         11    1    3    3    0    0 -0.26473676977E+01 -0.77237810299E+00  0.33364238935E+01  0.43286081272E+01  0.51100000000E-03 0. -1.
        -11    1    3    3    0    0 -0.14405036621E+02  0.23551954373E+02  0.14227712453E+02  0.31058451937E+02  0.51100000000E-03 0.  1.
         12    1    3    3    0    0 -0.58700608937E+01  0.10704998872E+02 -0.21704062261E+01  0.12400212858E+02  0.00000000000E+00 0. -1.
</event>
<event>
 7    1  0.1265344E-009  0.4778727E+02  0.7816164E-02  0.1312668E+00
        -11   -1    0    0    0    0  0.00000000000E+00  0.00000000000E+00  0.45593999997E+02  0.45594000000E+02  0.51100000000E-03 0.  1.
         11   -1    0    0    0    0 -0.00000000000E+00 -0.00000000000E+00 -0.45593999997E+02  0.45594000000E+02  0.51100000000E-03 0. -1.
    9900012    2    1    2    0    0 -0.13372579097E+02  0.41210301060E+02  0.25511820072E+01  0.47787270573E+02  0.19999997850E+02 0.  0.
         12    1    1    2    0    0  0.13372579097E+02 -0.41210301060E+02 -0.25511820072E+01  0.43400729427E+02  0.00000000000E+00 0. -1.
         11    1    3    3    0    0  0.86557467470E-02  0.14467453570E+02 -0.52547288892E+01  0.15392188398E+02  0.51100000000E-03 0. -1.
        -11    1    3    3    0    0 -0.36962637002E+01  0.51803755230E+01  0.59044283479E+01  0.86810673467E+01  0.51100000000E-03 0.  1.
        -12    1    3    3    0    0 -0.96849711436E+01  0.21562471967E+02  0.19014825484E+01  0.23714014828E+02  0.00000000000E+00 0.  1.
</event>
<event>
 7    1  0.1265344E-009  0.4778727E+02  0.7816164E-02  0.1312668E+00
        -11   -1    0    0    0    0  0.00000000000E+00  0.00000000000E+00  0.45593999997E+02  0.45594000000E+02  0.51100000000E-03 0.  1.
         11   -1    0    0    0    0 -0.00000000000E+00 -0.00000000000E+00 -0.45593999997E+02  0.45594000000E+02  0.51100000000E-03 0. -1.
    9900012    2    1    2    0    0  0.27033452090E+02  0.31046200133E+02  0.13745892372E+02  0.47787266922E+02  0.19999981205E+02 0.  0.
         12    1    1    2    0    0 -0.27033452090E+02 -0.31046200133E+02 -0.13745892372E+02  0.43400733078E+02  0.00000000000E+00 0. -1.
         11    1    3    3    0    0  0.17041318134E+02  0.17400928413E+02  0.39969089171E+01  0.24681452845E+02  0.51100000000E-03 0. -1.
        -11    1    3    3    0    0  0.96026757989E+01  0.10145328643E+02  0.12415096139E+02  0.18688865353E+02  0.51100000000E-03 0.  1.
         12    1    3    3    0    0  0.38945815777E+00  0.34999430761E+01 -0.26661126839E+01  0.44169487246E+01  0.00000000000E+00 0. -1.
</event>
<event>
 7    1  0.1265344E-009  0.4778727E+02  0.7816164E-02  0.1312668E+00
        -11   -1    0    0    0    0  0.00000000000E+00  0.00000000000E+00  0.45593999997E+02  0.45594000000E+02  0.51100000000E-03 0.  1.
         11   -1    0    0    0    0 -0.00000000000E+00 -0.00000000000E+00 -0.45593999997E+02  0.45594000000E+02  0.51100000000E-03 0. -1.
    9900012    2    1    2    0    0  0.37906214195E+02 -0.15362828336E+02  0.14516392717E+02  0.47787271590E+02  0.20000002485E+02 0.  0.
         12    1    1    2    0    0 -0.37906214195E+02  0.15362828336E+02 -0.14516392717E+02  0.43400728410E+02  0.00000000000E+00 0. -1.
         11    1    3    3    0    0  0.12397685526E+02 -0.12418435975E+02  0.56411977961E+01  0.18432126065E+02  0.51100000000E-03 0. -1.
        -11    1    3    3    0    0  0.19830858629E+02 -0.40880004572E+01  0.11171012258E+02  0.23125012796E+02  0.51100000000E-03 0.  1.
         12    1    3    3    0    0  0.56776700403E+01  0.11436080963E+01 -0.22958173371E+01  0.62301327281E+01  0.00000000000E+00 0. -1.
</event>
<event>
 7    1  0.1265344E-009  0.4778727E+02  0.7816164E-02  0.1312668E+00
        -11   -1    0    0    0    0  0.00000000000E+00  0.00000000000E+00  0.45593999997E+02  0.45594000000E+02  0.51100000000E-03 0.  1.
         11   -1    0    0    0    0 -0.00000000000E+00 -0.00000000000E+00 -0.45593999997E+02  0.45594000000E+02  0.51100000000E-03 0. -1.
    9900012    2    1    2    0    0 -0.39846451978E+02 -0.15778486265E+02  0.68500260665E+01  0.47787271652E+02  0.20000002769E+02 0.  0.
         12    1    1    2    0    0  0.39846451978E+02  0.15778486265E+02 -0.68500260665E+01  0.43400728348E+02  0.00000000000E+00 0. -1.
         11    1    3    3    0    0 -0.24772809666E+02 -0.30346069713E+01  0.12017054305E+01  0.24986897255E+02  0.51100000000E-03 0. -1.
        -11    1    3    3    0    0 -0.93476703884E+01 -0.40620517773E+01  0.69251995450E+01  0.12322239867E+02  0.51100000000E-03 0.  1.
         12    1    3    3    0    0 -0.57259719236E+01 -0.86818275162E+01 -0.12768789090E+01  0.10478134531E+02  0.00000000000E+00 0. -1.
</event>
<event>
 7    1  0.1265344E-009  0.4778726E+02  0.7816164E-02  0.1312668E+00
        -11   -1    0    0    0    0  0.00000000000E+00  0.00000000000E+00  0.45593999997E+02  0.45594000000E+02  0.51100000000E-03 0.  1.
         11   -1    0    0    0    0 -0.00000000000E+00 -0.00000000000E+00 -0.45593999997E+02  0.45594000000E+02  0.51100000000E-03 0. -1.
    9900012    2    1    2    0    0  0.37909134657E+02 -0.18304733584E+02  0.10557377040E+02  0.47787263002E+02  0.19999963331E+02 0.  0.
         12    1    1    2    0    0 -0.37909134657E+02  0.18304733584E+02 -0.10557377040E+02  0.43400736998E+02  0.00000000000E+00 0. -1.
         11    1    3    3    0    0  0.16448442606E+02 -0.65066768580E+01 -0.70773950395E+00  0.17702796484E+02  0.51100000000E-03 0. -1.
        -11    1    3    3    0    0  0.11427859569E+02  0.92407933773E+00  0.27908500339E+01  0.11799946658E+02  0.51100000000E-03 0.  1.
        -12    1    3    3    0    0  0.10032832482E+02 -0.12722136063E+02  0.84742665105E+01  0.18284519860E+02  0.00000000000E+00 0.  1.
</event>
<event>
 7    1  0.1265344E-009  0.4778727E+02  0.7816164E-02  0.1312668E+00
        -11   -1    0    0    0    0  0.00000000000E+00  0.00000000000E+00  0.45593999997E+02  0.45594000000E+02  0.51100000000E-03 0.  1.
         11   -1    0    0    0    0 -0.00000000000E+00 -0.00000000000E+00 -0.45593999997E+02  0.45594000000E+02  0.51100000000E-03 0. -1.
    9900012    2    1    2    0    0  0.30832675723E+02 -0.14580411625E+01  0.30509729939E+02  0.47787269623E+02  0.19999993520E+02 0.  0.
         12    1    1    2    0    0 -0.30832675723E+02  0.14580411625E+01 -0.30509729939E+02  0.43400730377E+02  0.00000000000E+00 0. -1.
         11    1    3    3    0    0  0.57485218335E+01  0.73372391499E+01  0.79314785454E+01  0.12238828939E+02  0.51100000000E-03 0. -1.
        -11    1    3    3    0    0  0.87456260474E+01 -0.39272274317E+01  0.12467972560E+02  0.15727664489E+02  0.51100000000E-03 0.  1.
        -12    1    3    3    0    0  0.16338527842E+02 -0.48680528807E+01  0.10110278834E+02  0.19820776196E+02  0.00000000000E+00 0.  1.
</event>
<event>
 7    1  0.1265344E-009  0.4778728E+02  0.7816164E-02  0.1312668E+00
        -11   -1    0    0    0    0  0.00000000000E+00  0.00000000000E+00  0.45593999997E+02  0.45594000000E+02  0.51100000000E-03 0. -1.
         11   -1    0    0    0    0 -0.00000000000E+00 -0.00000000000E+00 -0.45593999997E+02  0.45594000000E+02  0.51100000000E-03 0.  1.
    9900012    2    1    2    0    0  0.30421249060E+02  0.41256367355E+01 -0.30678162106E+02  0.47787275316E+02  0.20000019476E+02 0.  0.
         12    1    1    2    0    0 -0.30421249060E+02 -0.41256367355E+01  0.30678162106E+02  0.43400724684E+02  0.00000000000E+00 0. -1.
         11    1    3    3    0    0  0.18627912485E+02  0.86621463677E+01 -0.15252330570E+02  0.25586431782E+02  0.51100000000E-03 0. -1.
        -11    1    3    3    0    0 -0.94121819242E+00  0.11618937822E+01 -0.36486695493E+01  0.39431812776E+01  0.51100000000E-03 0.  1.
         12    1    3    3    0    0  0.12734554768E+02 -0.56984034145E+01 -0.11777161987E+02  0.18257662257E+02  0.00000000000E+00 0. -1.
</event>
<event>
 7    1 -0.1265344E-009  0.4778727E+02  0.7816164E-02  0.1312668E+00
        -11   -1    0    0    0    0  0.00000000000E+00  0.00000000000E+00  0.45593999997E+02  0.45594000000E+02  0.51100000000E-03 0.  1.
         11   -1    0    0    0    0 -0.00000000000E+00 -0.00000000000E+00 -0.45593999997E+02  0.45594000000E+02  0.51100000000E-03 0. -1.
    9900012    2    1    2    0    0  0.20321753108E+02  0.60768321087E+01  0.37864523264E+02  0.47787266598E+02  0.19999979727E+02 0.  0.
         12    1    1    2    0    0 -0.20321753108E+02 -0.60768321087E+01 -0.37864523264E+02  0.43400733402E+02  0.00000000000E+00 0. -1.
         11    1    3    3    0    0  0.54769566794E+00 -0.29109978964E+01  0.64854551995E+01  0.71298673693E+01  0.51100000000E-03 0. -1.
        -11    1    3    3    0    0  0.86599487746E+01  0.52381362255E+01  0.40202176766E+01  0.10890130133E+02  0.51100000000E-03 0.  1.
        -12    1    3    3    0    0  0.11114108665E+02  0.37496937796E+01  0.27358850388E+02  0.29767269095E+02  0.00000000000E+00 0.  1.
</event>
<event>
 7    1  0.1265344E-009  0.4778727E+02  0.7816164E-02  0.1312668E+00
        -11   -1    0    0    0    0  0.00000000000E+00  0.00000000000E+00  0.45593999997E+02  0.45594000000E+02  0.51100000000E-03 0. -1.
         11   -1    0    0    0    0 -0.00000000000E+00 -0.00000000000E+00 -0.45593999997E+02  0.45594000000E+02  0.51100000000E-03 0.  1.
    9900012    2    1    2    0    0 -0.13398398692E+02  0.29709191997E+02 -0.28661299336E+02  0.47787271248E+02  0.20000000927E+02 0.  0.
         12    1    1    2    0    0  0.13398398692E+02 -0.29709191997E+02  0.28661299336E+02  0.43400728752E+02  0.00000000000E+00 0. -1.
         11    1    3    3    0    0 -0.84731980745E+01  0.23701181549E+02 -0.97917905518E+01  0.27007781377E+02  0.51100000000E-03 0. -1.
        -11    1    3    3    0    0 -0.17961007326E+01  0.23102022726E+01 -0.30154117170E+01  0.42018710673E+01  0.51100000000E-03 0.  1.
         12    1    3    3    0    0 -0.31290998847E+01  0.36978081751E+01 -0.15854097067E+02  0.16577618804E+02  0.00000000000E+00 0. -1.
</event>
<event>
 7    1  0.1265344E-009  0.4778727E+02  0.7816164E-02  0.1312668E+00
        -11   -1    0    0    0    0  0.00000000000E+00  0.00000000000E+00  0.45593999997E+02  0.45594000000E+02  0.51100000000E-03 0.  1.
         11   -1    0    0    0    0 -0.00000000000E+00 -0.00000000000E+00 -0.45593999997E+02  0.45594000000E+02  0.51100000000E-03 0. -1.
    9900012    2    1    2    0    0  0.14881036889E+01  0.38582906920E+02  0.19818384928E+02  0.47787267977E+02  0.19999986015E+02 0.  0.
         12    1    1    2    0    0 -0.14881036889E+01 -0.38582906920E+02 -0.19818384928E+02  0.43400732023E+02  0.00000000000E+00 0. -1.
         11    1    3    3    0    0 -0.10692285472E+00  0.19239060459E+01 -0.24700283452E+01  0.31327124441E+01  0.51100000000E-03 0. -1.
        -11    1    3    3    0    0  0.68527626071E+01  0.17036309858E+02  0.11235816898E+02  0.21527651766E+02  0.51100000000E-03 0.  1.
         12    1    3    3    0    0 -0.52577360634E+01  0.19622691017E+02  0.11052596375E+02  0.23126903767E+02  0.00000000000E+00 0. -1.
</event>
<event>
 7    1  0.1265344E-009  0.4778724E+02  0.7816164E-02  0.1312668E+00
        -11   -1    0    0    0    0  0.00000000000E+00  0.00000000000E+00  0.45593999997E+02  0.45594000000E+02  0.51100000000E-03 0.  1.
         11   -1    0    0    0    0 -0.00000000000E+00 -0.00000000000E+00 -0.45593999997E+02  0.45594000000E+02  0.51100000000E-03 0. -1.
    9900012    2    1    2    0    0 -0.38323585491E+02  0.10965176911E+02  0.17166641626E+02  0.47787240856E+02  0.19999862358E+02 0.  0.
         12    1    1    2    0    0  0.38323585491E+02 -0.10965176911E+02 -0.17166641626E+02  0.43400759144E+02  0.00000000000E+00 0. -1.
         11    1    3    3    0    0 -0.14387300075E+02  0.99403286712E+01  0.42474121072E+01  0.17995695247E+02  0.51100000000E-03 0. -1.
        -11    1    3    3    0    0 -0.14904295137E+02  0.59069101018E+01  0.49010231986E+01  0.16764534862E+02  0.51100000000E-03 0.  1.
         12    1    3    3    0    0 -0.90319902785E+01 -0.48820618619E+01  0.80182063199E+01  0.13027010747E+02  0.00000000000E+00 0. -1.
</event>
<event>
 7    1  0.1265344E-009  0.4778728E+02  0.7816164E-02  0.1312668E+00
        -11   -1    0    0    0    0  0.00000000000E+00  0.00000000000E+00  0.45593999997E+02  0.45594000000E+02  0.51100000000E-03 0.  1.
         11   -1    0    0    0    0 -0.00000000000E+00 -0.00000000000E+00 -0.45593999997E+02  0.45594000000E+02  0.51100000000E-03 0. -1.
    9900012    2    1    2    0    0 -0.25318230862E+02  0.23133264855E+02  0.26598159411E+02  0.47787276033E+02  0.20000022745E+02 0.  0.
         12    1    1    2    0    0  0.25318230862E+02 -0.23133264855E+02 -0.26598159411E+02  0.43400723967E+02  0.00000000000E+00 0. -1.
         11    1    3    3    0    0 -0.55000949488E+01  0.17370296685E+01  0.96422320964E+00  0.58479092994E+01  0.51100000000E-03 0. -1.
        -11    1    3    3    0    0 -0.84467338443E+01  0.19624474600E+02  0.19359245969E+02  0.28831366959E+02  0.51100000000E-03 0.  1.
        -12    1    3    3    0    0 -0.11371402069E+02  0.17717605865E+01  0.62746902322E+01  0.13107999775E+02  0.00000000000E+00 0.  1.
</event>
<event>
 7    1  0.1279266E-009  0.4778727E+02  0.7816164E-02  0.1312668E+00
        -11   -1    0    0    0    0  0.00000000000E+00  0.00000000000E+00  0.45593999997E+02  0.45594000000E+02  0.51100000000E-03 0. -1.
         11   -1    0    0    0    0 -0.00000000000E+00 -0.00000000000E+00 -0.45593999997E+02  0.45594000000E+02  0.51100000000E-03 0.  1.
    9900012    2    1    2    0    0  0.40317354267E+01  0.93165884265E+01 -0.42196795768E+02  0.47787270933E+02  0.19999999492E+02 0.  0.
         12    1    1    2    0    0 -0.40317354267E+01 -0.93165884265E+01  0.42196795768E+02  0.43400729067E+02  0.00000000000E+00 0. -1.
         11    1    3    3    0    0  0.22175011781E+01  0.29816884414E+01 -0.67650756224E+00  0.37769617657E+01  0.51100000000E-03 0. -1.
        -11    1    3    3    0    0  0.58922607704E+01  0.21695246828E+01 -0.33568632920E+02  0.34150822695E+02  0.51100000000E-03 0.  1.
         12    1    3    3    0    0 -0.40780265218E+01  0.41653753022E+01 -0.79516552855E+01  0.98594864725E+01  0.00000000000E+00 0. -1.
</event>
<event>
 7    1  0.1413882E-009  0.4778728E+02  0.7816164E-02  0.1312668E+00
        -11   -1    0    0    0    0  0.00000000000E+00  0.00000000000E+00  0.45593999997E+02  0.45594000000E+02  0.51100000000E-03 0.  1.
         11   -1    0    0    0    0 -0.00000000000E+00 -0.00000000000E+00 -0.45593999997E+02  0.45594000000E+02  0.51100000000E-03 0. -1.
    9900012    2    1    2    0    0 -0.39438808235E+02  0.80082819849E+01  0.16250245748E+02  0.47787278091E+02  0.20000032129E+02 0.  0.
         12    1    1    2    0    0  0.39438808235E+02 -0.80082819849E+01 -0.16250245748E+02  0.43400721909E+02  0.00000000000E+00 0. -1.
         11    1    3    3    0    0 -0.12327151167E+00  0.30040893935E+01  0.22602506928E+00  0.30151014150E+01  0.51100000000E-03 0. -1.
        -11    1    3    3    0    0 -0.28815457243E+02  0.95530433486E+01  0.11310409416E+02  0.32396243219E+02  0.51100000000E-03 0.  1.
        -12    1    3    3    0    0 -0.10500079480E+02 -0.45488507571E+01  0.47138112632E+01  0.12375933457E+02  0.00000000000E+00 0.  1.
</event>
<event>
 7    1  0.1265344E-009  0.4778726E+02  0.7816164E-02  0.1312668E+00
        -11   -1    0    0    0    0  0.00000000000E+00  0.00000000000E+00  0.45593999997E+02  0.45594000000E+02  0.51100000000E-03 0.  1.
         11   -1    0    0    0    0 -0.00000000000E+00 -0.00000000000E+00 -0.45593999997E+02  0.45594000000E+02  0.51100000000E-03 0. -1.
    9900012    2    1    2    0    0 -0.24879747018E+02  0.15926452381E+02  0.31795757713E+02  0.47787263765E+02  0.19999966811E+02 0.  0.
         12    1    1    2    0    0  0.24879747018E+02 -0.15926452381E+02 -0.31795757713E+02  0.43400736235E+02  0.00000000000E+00 0. -1.
         11    1    3    3    0    0 -0.74890760233E+01  0.11922632535E+02  0.48212845269E+01  0.14882211227E+02  0.51100000000E-03 0. -1.
        -11    1    3    3    0    0 -0.63915208299E+01 -0.63336321114E+00  0.60957923711E+01  0.88550196142E+01  0.51100000000E-03 0.  1.
         12    1    3    3    0    0 -0.10999150165E+02  0.46371830569E+01  0.20878680816E+02  0.24050032924E+02  0.00000000000E+00 0. -1.
</event>
<event>
 7    1  0.1265344E-009  0.4778727E+02  0.7816164E-02  0.1312668E+00
        -11   -1    0    0    0    0  0.00000000000E+00  0.00000000000E+00  0.45593999997E+02  0.45594000000E+02  0.51100000000E-03 0.  1.
         11   -1    0    0    0    0 -0.00000000000E+00 -0.00000000000E+00 -0.45593999997E+02  0.45594000000E+02  0.51100000000E-03 0. -1.
    9900012    2    1    2    0    0  0.67699202179E+01  0.30968261352E+02  0.29643858673E+02  0.47787269730E+02  0.19999994008E+02 0.  0.
         12    1    1    2    0    0 -0.67699202179E+01 -0.30968261352E+02 -0.29643858673E+02  0.43400730270E+02  0.00000000000E+00 0. -1.
         11    1    3    3    0    0  0.73225648699E+01  0.37847517782E+01  0.60868394592E+01  0.10246653949E+02  0.51100000000E-03 0. -1.
        -11    1    3    3    0    0  0.32127781887E+01  0.17731002774E+02  0.19596648147E+02  0.26622152842E+02  0.51100000000E-03 0.  1.
        -12    1    3    3    0    0 -0.37654228407E+01  0.94525067994E+01  0.39603710674E+01  0.10918462939E+02  0.00000000000E+00 0.  1.
</event>
<event>
 7    1  0.1265344E-009  0.4778727E+02  0.7816164E-02  0.1312668E+00
        -11   -1    0    0    0    0  0.00000000000E+00  0.00000000000E+00  0.45593999997E+02  0.45594000000E+02  0.51100000000E-03 0.  1.
         11   -1    0    0    0    0 -0.00000000000E+00 -0.00000000000E+00 -0.45593999997E+02  0.45594000000E+02  0.51100000000E-03 0. -1.
    9900012    2    1    2    0    0  0.99893147135E+01  0.33290911335E+02  0.25991388203E+02  0.47787269054E+02  0.19999990923E+02 0.  0.
         12    1    1    2    0    0 -0.99893147135E+01 -0.33290911335E+02 -0.25991388203E+02  0.43400730946E+02  0.00000000000E+00 0. -1.
         11    1    3    3    0    0  0.81996377569E+01  0.49548622620E+01  0.54271222458E+01  0.11010829919E+02  0.51100000000E-03 0. -1.
        -11    1    3    3    0    0 -0.77405705859E+00  0.23885916283E+02  0.20732113747E+02  0.31637899767E+02  0.51100000000E-03 0.  1.
         12    1    3    3    0    0  0.25637340151E+01  0.44501327901E+01 -0.16784778943E+00  0.51385393674E+01  0.00000000000E+00 0. -1.
</event>
<event>
 7    1  0.1404962E-009  0.4778727E+02  0.7816164E-02  0.1312668E+00
        -11   -1    0    0    0    0  0.00000000000E+00  0.00000000000E+00  0.45593999997E+02  0.45594000000E+02  0.51100000000E-03 0.  1.
         11   -1    0    0    0    0 -0.00000000000E+00 -0.00000000000E+00 -0.45593999997E+02  0.45594000000E+02  0.51100000000E-03 0. -1.
    9900012    2    1    2    0    0  0.30371624327E+02 -0.97145042193E+01  0.29441740989E+02  0.47787271101E+02  0.20000000257E+02 0.  0.
         12    1    1    2    0    0 -0.30371624327E+02  0.97145042193E+01 -0.29441740989E+02  0.43400728899E+02  0.00000000000E+00 0. -1.
         11    1    3    3    0    0  0.44804945753E+01  0.35213386175E+00  0.58056160083E-01  0.44946858260E+01  0.51100000000E-03 0. -1.
        -11    1    3    3    0    0  0.83696343177E+01 -0.11022672464E+02  0.16425695102E+02  0.21479142132E+02  0.51100000000E-03 0.  1.
        -12    1    3    3    0    0  0.17521495434E+02  0.95603438293E+00  0.12957989727E+02  0.21813443143E+02  0.00000000000E+00 0.  1.
</event>
<event>
 7    1  0.1265344E-009  0.4778727E+02  0.7816164E-02  0.1312668E+00
        -11   -1    0    0    0    0  0.00000000000E+00  0.00000000000E+00  0.45593999997E+02  0.45594000000E+02  0.51100000000E-03 0.  1.
         11   -1    0    0    0    0 -0.00000000000E+00 -0.00000000000E+00 -0.45593999997E+02  0.45594000000E+02  0.51100000000E-03 0. -1.
    9900012    2    1    2    0    0 -0.42285097895E+02  0.81613294704E+01  0.53839132633E+01  0.47787270459E+02  0.19999997330E+02 0.  0.
         12    1    1    2    0    0  0.42285097895E+02 -0.81613294704E+01 -0.53839132633E+01  0.43400729541E+02  0.00000000000E+00 0. -1.
         11    1    3    3    0    0 -0.37651373349E+02  0.45211877260E+01  0.84769895587E+01  0.38857771498E+02  0.51100000000E-03 0. -1.
        -11    1    3    3    0    0 -0.40945679450E+01  0.45909479459E+01 -0.56772544442E+00  0.61777505728E+01  0.51100000000E-03 0.  1.
         12    1    3    3    0    0 -0.53915660053E+00 -0.95080620159E+00 -0.25253508510E+01  0.27517483885E+01  0.00000000000E+00 0. -1.
</event>
<event>
 7    1  0.1265344E-009  0.4778730E+02  0.7816164E-02  0.1312668E+00
        -11   -1    0    0    0    0  0.00000000000E+00  0.00000000000E+00  0.45593999997E+02  0.45594000000E+02  0.51100000000E-03 0. -1.
         11   -1    0    0    0    0 -0.00000000000E+00 -0.00000000000E+00 -0.45593999997E+02  0.45594000000E+02  0.51100000000E-03 0.  1.
    9900012    2    1    2    0    0 -0.30727140169E+02 -0.28901573062E+02 -0.10206027761E+02  0.47787296422E+02  0.20000115705E+02 0.  0.
         12    1    1    2    0    0  0.30727140169E+02  0.28901573062E+02  0.10206027761E+02  0.43400703578E+02  0.00000000000E+00 0. -1.
         11    1    3    3    0    0 -0.80183360848E+01 -0.11558362572E+02 -0.13997999016E+01  0.14136792385E+02  0.51100000000E-03 0. -1.
        -11    1    3    3    0    0  0.11170412818E+01  0.16597780605E+01 -0.61122137291E+00  0.20919455689E+01  0.51100000000E-03 0.  1.
        -12    1    3    3    0    0 -0.23825845366E+02 -0.19002988551E+02 -0.81950064861E+01  0.31558558468E+02  0.00000000000E+00 0.  1.
</event>
<event>
 7    1  0.1265344E-009  0.4778727E+02  0.7816164E-02  0.1312668E+00
        -11   -1    0    0    0    0  0.00000000000E+00  0.00000000000E+00  0.45593999997E+02  0.45594000000E+02  0.51100000000E-03 0.  1.
         11   -1    0    0    0    0 -0.00000000000E+00 -0.00000000000E+00 -0.45593999997E+02  0.45594000000E+02  0.51100000000E-03 0. -1.
    9900012    2    1    2    0    0  0.17280453503E+02  0.12079706502E+02  0.37935339067E+02  0.47787270368E+02  0.19999996918E+02 0.  0.
         12    1    1    2    0    0 -0.17280453503E+02 -0.12079706502E+02 -0.37935339067E+02  0.43400729632E+02  0.00000000000E+00 0. -1.
         11    1    3    3    0    0  0.33103862287E-01  0.10536474481E+02  0.85014452412E+01  0.13538573108E+02  0.51100000000E-03 0. -1.
        -11    1    3    3    0    0  0.70478848637E+01  0.14923707201E+01  0.10354175896E+02  0.12613834079E+02  0.51100000000E-03 0.  1.
         12    1    3    3    0    0  0.10199464777E+02  0.50861300781E-01  0.19079717929E+02  0.21634863181E+02  0.00000000000E+00 0. -1.
</event>
<event>
 7    1  0.1265344E-009  0.4778725E+02  0.7816164E-02  0.1312668E+00
        -11   -1    0    0    0    0  0.00000000000E+00  0.00000000000E+00  0.45593999997E+02  0.45594000000E+02  0.51100000000E-03 0.  1.
         11   -1    0    0    0    0 -0.00000000000E+00 -0.00000000000E+00 -0.45593999997E+02  0.45594000000E+02  0.51100000000E-03 0. -1.
    9900012    2    1    2    0    0  0.38953418805E+02 -0.10708025044E+02  0.15861729738E+02  0.47787249924E+02  0.19999903702E+02 0.  0.
         12    1    1    2    0    0 -0.38953418805E+02  0.10708025044E+02 -0.15861729738E+02  0.43400750076E+02  0.00000000000E+00 0. -1.
         11    1    3    3    0    0  0.10521328875E+02 -0.13644243441E+01  0.20089306404E+00  0.10611332309E+02  0.51100000000E-03 0. -1.
        -11    1    3    3    0    0  0.16292451472E+02 -0.11912445844E+02  0.14208793926E+02  0.24682790889E+02  0.51100000000E-03 0.  1.
         12    1    3    3    0    0  0.12139638458E+02  0.25688451440E+01  0.14520427476E+01  0.12493126726E+02  0.00000000000E+00 0. -1.
</event>
<event>
 7    1  0.1265344E-009  0.4778728E+02  0.7816164E-02  0.1312668E+00
        -11   -1    0    0    0    0  0.00000000000E+00  0.00000000000E+00  0.45593999997E+02  0.45594000000E+02  0.51100000000E-03 0.  1.
         11   -1    0    0    0    0 -0.00000000000E+00 -0.00000000000E+00 -0.45593999997E+02  0.45594000000E+02  0.51100000000E-03 0. -1.
    9900012    2    1    2    0    0 -0.29704099653E+02  0.25176602710E+02  0.19168409494E+02  0.47787276703E+02  0.20000025798E+02 0.  0.
         12    1    1    2    0    0  0.29704099653E+02 -0.25176602710E+02 -0.19168409494E+02  0.43400723297E+02  0.00000000000E+00 0. -1.
         11    1    3    3    0    0 -0.36234251669E+01 -0.60280725949E+00 -0.10977189449E+01  0.38337414722E+01  0.51100000000E-03 0. -1.
        -11    1    3    3    0    0 -0.19105493213E+02  0.11444653798E+02  0.16085999584E+02  0.27472883983E+02  0.51100000000E-03 0.  1.
         12    1    3    3    0    0 -0.69751812730E+01  0.14334756172E+02  0.41801288542E+01  0.16480651247E+02  0.00000000000E+00 0. -1.
</event>
<event>
 7    1  0.1265344E-009  0.4778727E+02  0.7816164E-02  0.1312668E+00
        -11   -1    0    0    0    0  0.00000000000E+00  0.00000000000E+00  0.45593999997E+02  0.45594000000E+02  0.51100000000E-03 0.  1.
         11   -1    0    0    0    0 -0.00000000000E+00 -0.00000000000E+00 -0.45593999997E+02  0.45594000000E+02  0.51100000000E-03 0. -1.
    9900012    2    1    2    0    0  0.27653997594E+01 -0.11574754381E+02  0.41737288946E+02  0.47787266557E+02  0.19999979539E+02 0.  0.
         12    1    1    2    0    0 -0.27653997594E+01  0.11574754381E+02 -0.41737288946E+02  0.43400733443E+02  0.00000000000E+00 0. -1.
         11    1    3    3    0    0  0.20539875589E+00 -0.32563351389E+01 -0.15016562325E+01  0.35917793484E+01  0.51100000000E-03 0. -1.
        -11    1    3    3    0    0  0.20695476018E+01 -0.26050017197E+01  0.13101878052E+02  0.13517702097E+02  0.51100000000E-03 0.  1.
         12    1    3    3    0    0  0.49045340169E+00 -0.57134175227E+01  0.30137067127E+02  0.30677785112E+02  0.00000000000E+00 0. -1.
</event>
<event>
 7    1  0.1265344E-009  0.4778724E+02  0.7816164E-02  0.1312668E+00
        -11   -1    0    0    0    0  0.00000000000E+00  0.00000000000E+00  0.45593999997E+02  0.45594000000E+02  0.51100000000E-03 0.  1.
         11   -1    0    0    0    0 -0.00000000000E+00 -0.00000000000E+00 -0.45593999997E+02  0.45594000000E+02  0.51100000000E-03 0. -1.
    9900012    2    1    2    0    0 -0.22492951246E+02 -0.18017359930E+02  0.32451008293E+02  0.47787239018E+02  0.19999853978E+02 0.  0.
         12    1    1    2    0    0  0.22492951246E+02  0.18017359930E+02 -0.32451008293E+02  0.43400760982E+02  0.00000000000E+00 0. -1.
         11    1    3    3    0    0 -0.99379770002E+01 -0.54903443503E+01  0.74486280058E+01  0.13579003180E+02  0.51100000000E-03 0. -1.
        -11    1    3    3    0    0 -0.10141155338E+02 -0.86876881694E+01  0.26295926539E+02  0.29492282213E+02  0.51100000000E-03 0.  1.
         12    1    3    3    0    0 -0.24138189080E+01 -0.38393274099E+01 -0.12935462523E+01  0.47159536244E+01  0.00000000000E+00 0. -1.
</event>
<event>
 7    1  0.1265344E-009  0.4778727E+02  0.7816164E-02  0.1312668E+00
        -11   -1    0    0    0    0  0.00000000000E+00  0.00000000000E+00  0.45593999997E+02  0.45594000000E+02  0.51100000000E-03 0.  1.
         11   -1    0    0    0    0 -0.00000000000E+00 -0.00000000000E+00 -0.45593999997E+02  0.45594000000E+02  0.51100000000E-03 0. -1.
    9900012    2    1    2    0    0 -0.39996836612E+02 -0.14671205511E+02  0.82844269002E+01  0.47787274900E+02  0.20000017579E+02 0.  0.
         12    1    1    2    0    0  0.39996836612E+02  0.14671205511E+02 -0.82844269002E+01  0.43400725100E+02  0.00000000000E+00 0. -1.
         11    1    3    3    0    0 -0.36984882153E+01 -0.34811317402E+00 -0.15262616790E+01  0.40161514955E+01  0.51100000000E-03 0. -1.
        -11    1    3    3    0    0 -0.17835056909E+02  0.99319528622E+00  0.24768316484E-01  0.17862707117E+02  0.51100000000E-03 0.  1.
         12    1    3    3    0    0 -0.18463291488E+02 -0.15316287623E+02  0.97859202627E+01  0.25908416287E+02  0.00000000000E+00 0. -1.
</event>
<event>
 7    1  0.1265344E-009  0.4778726E+02  0.7816164E-02  0.1312668E+00
        -11   -1    0    0    0    0  0.00000000000E+00  0.00000000000E+00  0.45593999997E+02  0.45594000000E+02  0.51100000000E-03 0.  1.
         11   -1    0    0    0    0 -0.00000000000E+00 -0.00000000000E+00 -0.45593999997E+02  0.45594000000E+02  0.51100000000E-03 0. -1.
    9900012    2    1    2    0    0  0.28036446829E+02 -0.11097118264E+02  0.31215949538E+02  0.47787263945E+02  0.19999967631E+02 0.  0.
         12    1    1    2    0    0 -0.28036446829E+02  0.11097118264E+02 -0.31215949538E+02  0.43400736055E+02  0.00000000000E+00 0. -1.
         11    1    3    3    0    0  0.17074088936E+02  0.28559128269E+01  0.11500739858E+02  0.20783353161E+02  0.51100000000E-03 0. -1.
        -11    1    3    3    0    0  0.68687308383E+01 -0.73348444107E+01  0.75767997399E+01  0.12585201644E+02  0.51100000000E-03 0.  1.
        -12    1    3    3    0    0  0.40936270548E+01 -0.66181866800E+01  0.12138409940E+02  0.14418709140E+02  0.00000000000E+00 0.  1.
</event>
<event>
 7    1  0.1265344E-009  0.4778725E+02  0.7816164E-02  0.1312668E+00
        -11   -1    0    0    0    0  0.00000000000E+00  0.00000000000E+00  0.45593999997E+02  0.45594000000E+02  0.51100000000E-03 0.  1.
         11   -1    0    0    0    0 -0.00000000000E+00 -0.00000000000E+00 -0.45593999997E+02  0.45594000000E+02  0.51100000000E-03 0. -1.
    9900012    2    1    2    0    0  0.37297794065E+00 -0.39342440440E+02  0.18320975397E+02  0.47787252635E+02  0.19999916065E+02 0.  0.
         12    1    1    2    0    0 -0.37297794065E+00  0.39342440440E+02 -0.18320975397E+02  0.43400747365E+02  0.00000000000E+00 0. -1.
         11    1    3    3    0    0 -0.44648821174E-01 -0.22504321240E+02  0.42210747079E+01  0.22896810693E+02  0.51100000000E-03 0. -1.
        -11    1    3    3    0    0  0.38227607672E+01 -0.15538927242E+02  0.13972132787E+02  0.21243640333E+02  0.51100000000E-03 0.  1.
         12    1    3    3    0    0 -0.34051340054E+01 -0.12991919588E+01  0.12776790200E+00  0.36468016093E+01  0.00000000000E+00 0. -1.
</event>
<event>
 7    1  0.1265344E-009  0.4778727E+02  0.7816164E-02  0.1312668E+00
        -11   -1    0    0    0    0  0.00000000000E+00  0.00000000000E+00  0.45593999997E+02  0.45594000000E+02  0.51100000000E-03 0.  1.
         11   -1    0    0    0    0 -0.00000000000E+00 -0.00000000000E+00 -0.45593999997E+02  0.45594000000E+02  0.51100000000E-03 0. -1.
    9900012    2    1    2    0    0  0.13060382306E+02 -0.73384317677E+01  0.40733243290E+02  0.47787271024E+02  0.19999999906E+02 0.  0.
         12    1    1    2    0    0 -0.13060382306E+02  0.73384317677E+01 -0.40733243290E+02  0.43400728976E+02  0.00000000000E+00 0. -1.
         11    1    3    3    0    0  0.79462891455E+01 -0.51864021712E+01  0.11311507852E+02  0.14764568697E+02  0.51100000000E-03 0. -1.
        -11    1    3    3    0    0  0.79623201134E+01 -0.22602989051E+01  0.83430847844E+01  0.11752214970E+02  0.51100000000E-03 0.  1.
         12    1    3    3    0    0 -0.28482269530E+01  0.10826930858E+00  0.21078650653E+02  0.21270487356E+02  0.00000000000E+00 0. -1.
</event>
<event>
 7    1  0.1265344E-009  0.4778727E+02  0.7816164E-02  0.1312668E+00
        -11   -1    0    0    0    0  0.00000000000E+00  0.00000000000E+00  0.45593999997E+02  0.45594000000E+02  0.51100000000E-03 0.  1.
         11   -1    0    0    0    0 -0.00000000000E+00 -0.00000000000E+00 -0.45593999997E+02  0.45594000000E+02  0.51100000000E-03 0. -1.
    9900012    2    1    2    0    0 -0.38078528170E+02 -0.22586769461E+01  0.20701384241E+02  0.47787271451E+02  0.20000001853E+02 0.  0.
         12    1    1    2    0    0  0.38078528170E+02  0.22586769461E+01 -0.20701384241E+02  0.43400728549E+02  0.00000000000E+00 0. -1.
         11    1    3    3    0    0 -0.92839802192E+01 -0.33986465448E+01  0.14207178453E+02  0.17308581886E+02  0.51100000000E-03 0. -1.
        -11    1    3    3    0    0 -0.14701185267E+02  0.28086023375E+01  0.64221251085E+01  0.16286705822E+02  0.51100000000E-03 0.  1.
         12    1    3    3    0    0 -0.14093362683E+02 -0.16686327387E+01  0.72080679217E-01  0.14191983743E+02  0.00000000000E+00 0. -1.
</event>
<event>
 7    1  0.1265344E-009  0.4778727E+02  0.7816164E-02  0.1312668E+00
        -11   -1    0    0    0    0  0.00000000000E+00  0.00000000000E+00  0.45593999997E+02  0.45594000000E+02  0.51100000000E-03 0.  1.
         11   -1    0    0    0    0 -0.00000000000E+00 -0.00000000000E+00 -0.45593999997E+02  0.45594000000E+02  0.51100000000E-03 0. -1.
    9900012    2    1    2    0    0  0.60939277052E+01 -0.52014570798E+01  0.42654801827E+02  0.47787271556E+02  0.20000002331E+02 0.  0.
         12    1    1    2    0    0 -0.60939277052E+01  0.52014570798E+01 -0.42654801827E+02  0.43400728444E+02  0.00000000000E+00 0. -1.
         11    1    3    3    0    0  0.19757083370E+01 -0.56184475744E+01  0.35264436383E+01  0.69214291569E+01  0.51100000000E-03 0. -1.
        -11    1    3    3    0    0  0.16273529523E+01 -0.18189750756E+01  0.10773396363E+01  0.26678847258E+01  0.51100000000E-03 0.  1.
        -12    1    3    3    0    0  0.24908664159E+01  0.22359655702E+01  0.38051018552E+02  0.38197957673E+02  0.00000000000E+00 0.  1.
</event>
<event>
 7    1  0.1265344E-009  0.4778727E+02  0.7816164E-02  0.1312668E+00
        -11   -1    0    0    0    0  0.00000000000E+00  0.00000000000E+00  0.45593999997E+02  0.45594000000E+02  0.51100000000E-03 0.  1.
         11   -1    0    0    0    0 -0.00000000000E+00 -0.00000000000E+00 -0.45593999997E+02  0.45594000000E+02  0.51100000000E-03 0. -1.
    9900012    2    1    2    0    0  0.32667629847E+02 -0.23083377904E+02  0.16840633160E+02  0.47787270738E+02  0.19999998601E+02 0.  0.
         12    1    1    2    0    0 -0.32667629847E+02  0.23083377904E+02 -0.16840633160E+02  0.43400729262E+02  0.00000000000E+00 0. -1.
         11    1    3    3    0    0  0.73116196296E+01 -0.81516187291E+01  0.64526155038E+01  0.12710032125E+02  0.51100000000E-03 0.  1.
        -11    1    3    3    0    0  0.49775421856E+01 -0.11838742331E+02  0.30659333303E+01  0.13203472787E+02  0.51100000000E-03 0. -1.
         12    1    3    3    0    0  0.20378468032E+02 -0.30930168435E+01  0.73220843262E+01  0.21873765826E+02  0.00000000000E+00 0. -1.
</event>
<event>
 7    1  0.1265344E-009  0.4778727E+02  0.7816164E-02  0.1312668E+00
        -11   -1    0    0    0    0  0.00000000000E+00  0.00000000000E+00  0.45593999997E+02  0.45594000000E+02  0.51100000000E-03 0. -1.
         11   -1    0    0    0    0 -0.00000000000E+00 -0.00000000000E+00 -0.45593999997E+02  0.45594000000E+02  0.51100000000E-03 0.  1.
    9900012    2    1    2    0    0  0.10314876773E+01 -0.10962638560E+02 -0.41980706949E+02  0.47787272276E+02  0.20000005614E+02 0.  0.
         12    1    1    2    0    0 -0.10314876773E+01  0.10962638560E+02  0.41980706949E+02  0.43400727724E+02  0.00000000000E+00 0. -1.
         11    1    3    3    0    0  0.69675003630E+01 -0.28466144822E+01 -0.19393106813E+02  0.20802448593E+02  0.51100000000E-03 0. -1.
        -11    1    3    3    0    0  0.30696530841E+01 -0.14498547143E+01 -0.70931285959E+01  0.78636710440E+01  0.51100000000E-03 0.  1.
         12    1    3    3    0    0 -0.90056657698E+01 -0.66661693634E+01 -0.15494471540E+02  0.19121152639E+02  0.00000000000E+00 0. -1.
</event>
<event>
 7    1  0.1265344E-009  0.4778727E+02  0.7816164E-02  0.1312668E+00
        -11   -1    0    0    0    0  0.00000000000E+00  0.00000000000E+00  0.45593999997E+02  0.45594000000E+02  0.51100000000E-03 0.  1.
         11   -1    0    0    0    0 -0.00000000000E+00 -0.00000000000E+00 -0.45593999997E+02  0.45594000000E+02  0.51100000000E-03 0. -1.
    9900012    2    1    2    0    0 -0.69926874807E+01  0.27153687545E+01  0.42747540526E+02  0.47787272740E+02  0.20000007732E+02 0.  0.
         12    1    1    2    0    0  0.69926874807E+01 -0.27153687545E+01 -0.42747540526E+02  0.43400727260E+02  0.00000000000E+00 0. -1.
         11    1    3    3    0    0  0.20527971595E+01  0.21244722091E+00 -0.14767848535E+00  0.20690382297E+01  0.51100000000E-03 0. -1.
        -11    1    3    3    0    0  0.66598158316E-01 -0.21917344783E+01  0.24994096312E+02  0.25090097370E+02  0.51100000000E-03 0.  1.
        -12    1    3    3    0    0 -0.91120827985E+01  0.46946560119E+01  0.17901122699E+02  0.20628137140E+02  0.00000000000E+00 0.  1.
</event>
<event>
 7    1  0.1265344E-009  0.4778727E+02  0.7816164E-02  0.1312668E+00
        -11   -1    0    0    0    0  0.00000000000E+00  0.00000000000E+00  0.45593999997E+02  0.45594000000E+02  0.51100000000E-03 0.  1.
         11   -1    0    0    0    0 -0.00000000000E+00 -0.00000000000E+00 -0.45593999997E+02  0.45594000000E+02  0.51100000000E-03 0. -1.
    9900012    2    1    2    0    0  0.29050929254E+01  0.77294252890E+01  0.42607974893E+02  0.47787272993E+02  0.20000008885E+02 0.  0.
         12    1    1    2    0    0 -0.29050929254E+01 -0.77294252890E+01 -0.42607974893E+02  0.43400727007E+02  0.00000000000E+00 0. -1.
         11    1    3    3    0    0  0.52548466566E+00 -0.89998569434E+00  0.14664819858E+02  0.14701804315E+02  0.51100000000E-03 0. -1.
        -11    1    3    3    0    0 -0.42269547410E+01  0.10098302235E+02  0.17300005126E+02  0.20472738752E+02  0.51100000000E-03 0.  1.
        -12    1    3    3    0    0  0.66065630008E+01 -0.14688912514E+01  0.10643149910E+02  0.12612729926E+02  0.00000000000E+00 0.  1.
</event>
<event>
 7    1  0.1265344E-009  0.4778728E+02  0.7816164E-02  0.1312668E+00
        -11   -1    0    0    0    0  0.00000000000E+00  0.00000000000E+00  0.45593999997E+02  0.45594000000E+02  0.51100000000E-03 0.  1.
         11   -1    0    0    0    0 -0.00000000000E+00 -0.00000000000E+00 -0.45593999997E+02  0.45594000000E+02  0.51100000000E-03 0. -1.
    9900012    2    1    2    0    0  0.83682078418E+00 -0.22714602410E+02  0.36972549229E+02  0.47787276180E+02  0.20000023414E+02 0.  0.
         12    1    1    2    0    0 -0.83682078418E+00  0.22714602410E+02 -0.36972549229E+02  0.43400723820E+02  0.00000000000E+00 0. -1.
         11    1    3    3    0    0  0.21877981644E+00 -0.13090085365E+02  0.11704507840E+02  0.17561141862E+02  0.51100000000E-03 0. -1.
        -11    1    3    3    0    0 -0.25001724148E+01 -0.72463948781E+01  0.25161331076E+02  0.26303111653E+02  0.51100000000E-03 0.  1.
         12    1    3    3    0    0  0.31182133826E+01 -0.23781221668E+01  0.10671031264E+00  0.39230226650E+01  0.00000000000E+00 0. -1.
</event>
<event>
 7    1  0.1289279E-009  0.4778727E+02  0.7816164E-02  0.1312668E+00
        -11   -1    0    0    0    0  0.00000000000E+00  0.00000000000E+00  0.45593999997E+02  0.45594000000E+02  0.51100000000E-03 0. -1.
         11   -1    0    0    0    0 -0.00000000000E+00 -0.00000000000E+00 -0.45593999997E+02  0.45594000000E+02  0.51100000000E-03 0.  1.
    9900012    2    1    2    0    0  0.24710220668E+02  0.78462399416E+01 -0.34806100594E+02  0.47787272757E+02  0.20000007807E+02 0.  0.
         12    1    1    2    0    0 -0.24710220668E+02 -0.78462399416E+01  0.34806100594E+02  0.43400727243E+02  0.00000000000E+00 0. -1.
         11    1    3    3    0    0  0.53149928247E+01 -0.14995625814E+01 -0.31411339099E+01  0.63533108820E+01  0.51100000000E-03 0. -1.
        -11    1    3    3    0    0  0.43202827052E+01  0.98299245829E+01 -0.18612700103E+02  0.21487784096E+02  0.51100000000E-03 0.  1.
        -12    1    3    3    0    0  0.15074945138E+02 -0.48412205992E+00 -0.13052266581E+02  0.19946177779E+02  0.00000000000E+00 0.  1.
</event>
<event>
 7    1  0.1265344E-009  0.4778727E+02  0.7816164E-02  0.1312668E+00
        -11   -1    0    0    0    0  0.00000000000E+00  0.00000000000E+00  0.45593999997E+02  0.45594000000E+02  0.51100000000E-03 0.  1.
         11   -1    0    0    0    0 -0.00000000000E+00 -0.00000000000E+00 -0.45593999997E+02  0.45594000000E+02  0.51100000000E-03 0. -1.
    9900012    2    1    2    0    0 -0.14359582386E+02  0.73061107056E+01  0.40299461397E+02  0.47787269029E+02  0.19999990809E+02 0.  0.
         12    1    1    2    0    0  0.14359582386E+02 -0.73061107056E+01 -0.40299461397E+02  0.43400730971E+02  0.00000000000E+00 0. -1.
         11    1    3    3    0    0  0.26072994011E+01 -0.99352378435E+00  0.14890453175E+01  0.31626501380E+01  0.51100000000E-03 0. -1.
        -11    1    3    3    0    0 -0.89985031634E+01  0.66391616859E+01  0.11150463291E+02  0.15791908021E+02  0.51100000000E-03 0.  1.
        -12    1    3    3    0    0 -0.79683786236E+01  0.16604728041E+01  0.27659952789E+02  0.28832710870E+02  0.00000000000E+00 0.  1.
</event>
<event>
 7    1  0.1265344E-009  0.4778727E+02  0.7816164E-02  0.1312668E+00
        -11   -1    0    0    0    0  0.00000000000E+00  0.00000000000E+00  0.45593999997E+02  0.45594000000E+02  0.51100000000E-03 0. -1.
         11   -1    0    0    0    0 -0.00000000000E+00 -0.00000000000E+00 -0.45593999997E+02  0.45594000000E+02  0.51100000000E-03 0.  1.
    9900012    2    1    2    0    0 -0.18041214429E+02 -0.27849542740E+02 -0.27973929761E+02  0.47787271951E+02  0.20000004135E+02 0.  0.
         12    1    1    2    0    0  0.18041214429E+02  0.27849542740E+02  0.27973929761E+02  0.43400728049E+02  0.00000000000E+00 0. -1.
         11    1    3    3    0    0  0.58326275810E+00 -0.67710603375E+01 -0.77290355932E+01  0.10292008793E+02  0.51100000000E-03 0. -1.
        -11    1    3    3    0    0 -0.25717783688E+01 -0.11772970137E+02 -0.36214237128E+01  0.12582987714E+02  0.51100000000E-03 0.  1.
        -12    1    3    3    0    0 -0.16052698818E+02 -0.93055122650E+01 -0.16623470455E+02  0.24912275444E+02  0.00000000000E+00 0.  1.
</event>
<event>
 7    1  0.1265344E-009  0.4778727E+02  0.7816164E-02  0.1312668E+00
        -11   -1    0    0    0    0  0.00000000000E+00  0.00000000000E+00  0.45593999997E+02  0.45594000000E+02  0.51100000000E-03 0.  1.
         11   -1    0    0    0    0 -0.00000000000E+00 -0.00000000000E+00 -0.45593999997E+02  0.45594000000E+02  0.51100000000E-03 0. -1.
    9900012    2    1    2    0    0 -0.21343969317E+02  0.35434050834E+02  0.13133394577E+02  0.47787273764E+02  0.20000012401E+02 0.  0.
         12    1    1    2    0    0  0.21343969317E+02 -0.35434050834E+02 -0.13133394577E+02  0.43400726236E+02  0.00000000000E+00 0. -1.
         11    1    3    3    0    0 -0.28117094820E+01  0.14993004571E+02  0.79816295313E+01  0.17216338359E+02  0.51100000000E-03 0. -1.
        -11    1    3    3    0    0 -0.10974293746E+01  0.71526455962E+01  0.47304268498E+01  0.86453240945E+01  0.51100000000E-03 0.  1.
        -12    1    3    3    0    0 -0.17434830460E+02  0.13288400667E+02  0.42133819592E+00  0.21925611310E+02  0.00000000000E+00 0.  1.
</event>
<event>
 7    1  0.1265344E-009  0.4778727E+02  0.7816164E-02  0.1312668E+00
        -11   -1    0    0    0    0  0.00000000000E+00  0.00000000000E+00  0.45593999997E+02  0.45594000000E+02  0.51100000000E-03 0.  1.
         11   -1    0    0    0    0 -0.00000000000E+00 -0.00000000000E+00 -0.45593999997E+02  0.45594000000E+02  0.51100000000E-03 0. -1.
    9900012    2    1    2    0    0 -0.21781003782E+02  0.30511577020E+02  0.21869042501E+02  0.47787268694E+02  0.19999989283E+02 0.  0.
         12    1    1    2    0    0  0.21781003782E+02 -0.30511577020E+02 -0.21869042501E+02  0.43400731306E+02  0.00000000000E+00 0. -1.
         11    1    3    3    0    0  0.10454275700E+01  0.31590488733E+01  0.54324292018E+01  0.63705412550E+01  0.51100000000E-03 0. -1.
        -11    1    3    3    0    0 -0.18327981853E+02  0.16372310313E+02  0.16409693095E+02  0.29550727428E+02  0.51100000000E-03 0.  1.
         12    1    3    3    0    0 -0.44984494993E+01  0.10980217834E+02  0.26920204705E-01  0.11866000011E+02  0.00000000000E+00 0. -1.
</event>
<event>
 7    1  0.1265344E-009  0.4778727E+02  0.7816164E-02  0.1312668E+00
        -11   -1    0    0    0    0  0.00000000000E+00  0.00000000000E+00  0.45593999997E+02  0.45594000000E+02  0.51100000000E-03 0. -1.
         11   -1    0    0    0    0 -0.00000000000E+00 -0.00000000000E+00 -0.45593999997E+02  0.45594000000E+02  0.51100000000E-03 0.  1.
    9900012    2    1    2    0    0 -0.19531037227E+02  0.29811973235E+02 -0.24767076827E+02  0.47787271229E+02  0.20000000840E+02 0.  0.
         12    1    1    2    0    0  0.19531037227E+02 -0.29811973235E+02  0.24767076827E+02  0.43400728771E+02  0.00000000000E+00 0. -1.
         11    1    3    3    0    0 -0.20988575835E+01  0.65971753180E+01  0.83452743823E+00  0.69731170676E+01  0.51100000000E-03 0. -1.
        -11    1    3    3    0    0 -0.20456938473E+01  0.43522666319E+00  0.12087201743E+01  0.24156345514E+01  0.51100000000E-03 0.  1.
        -12    1    3    3    0    0 -0.15386485797E+02  0.22779571254E+02 -0.26810324439E+02  0.38398519610E+02  0.00000000000E+00 0.  1.
</event>
<event>
 7    1  0.1265344E-009  0.4778727E+02  0.7816164E-02  0.1312668E+00
        -11   -1    0    0    0    0  0.00000000000E+00  0.00000000000E+00  0.45593999997E+02  0.45594000000E+02  0.51100000000E-03 0.  1.
         11   -1    0    0    0    0 -0.00000000000E+00 -0.00000000000E+00 -0.45593999997E+02  0.45594000000E+02  0.51100000000E-03 0. -1.
    9900012    2    1    2    0    0  0.36552016378E+02 -0.21032003956E+02  0.10258079625E+02  0.47787270867E+02  0.19999999191E+02 0.  0.
         12    1    1    2    0    0 -0.36552016378E+02  0.21032003956E+02 -0.10258079625E+02  0.43400729133E+02  0.00000000000E+00 0. -1.
         11    1    3    3    0    0  0.13787802006E+02 -0.43271518164E+01  0.89442290749E+01  0.16994909856E+02  0.51100000000E-03 0. -1.
        -11    1    3    3    0    0  0.23719606468E+02 -0.14930930869E+02  0.29694465662E+01  0.28184570970E+02  0.51100000000E-03 0.  1.
        -12    1    3    3    0    0 -0.95539209559E+00 -0.17739212704E+01 -0.16555960165E+01  0.26077900414E+01  0.00000000000E+00 0.  1.
</event>
<event>
 7    1  0.1265344E-009  0.4778727E+02  0.7816164E-02  0.1312668E+00
        -11   -1    0    0    0    0  0.00000000000E+00  0.00000000000E+00  0.45593999997E+02  0.45594000000E+02  0.51100000000E-03 0.  1.
         11   -1    0    0    0    0 -0.00000000000E+00 -0.00000000000E+00 -0.45593999997E+02  0.45594000000E+02  0.51100000000E-03 0. -1.
    9900012    2    1    2    0    0 -0.12550200680E+02 -0.25034911941E+02  0.33156735071E+02  0.47787269205E+02  0.19999991613E+02 0.  0.
         12    1    1    2    0    0  0.12550200680E+02  0.25034911941E+02 -0.33156735071E+02  0.43400730795E+02  0.00000000000E+00 0. -1.
         11    1    3    3    0    0 -0.32723074971E+01  0.21657948607E+01  0.30954973820E+00  0.39363034736E+01  0.51100000000E-03 0. -1.
        -11    1    3    3    0    0 -0.27875284527E+01 -0.14336155965E+02  0.15421372313E+02  0.21239454019E+02  0.51100000000E-03 0.  1.
        -12    1    3    3    0    0 -0.64903647303E+01 -0.12864550837E+02  0.17425813019E+02  0.22611511713E+02  0.00000000000E+00 0.  1.
</event>
<event>
 7    1  0.1265344E-009  0.4778727E+02  0.7816164E-02  0.1312668E+00
        -11   -1    0    0    0    0  0.00000000000E+00  0.00000000000E+00  0.45593999997E+02  0.45594000000E+02  0.51100000000E-03 0.  1.
         11   -1    0    0    0    0 -0.00000000000E+00 -0.00000000000E+00 -0.45593999997E+02  0.45594000000E+02  0.51100000000E-03 0. -1.
    9900012    2    1    2    0    0  0.28020953583E+02  0.39405396137E+01  0.32907775548E+02  0.47787269780E+02  0.19999994234E+02 0.  0.
         12    1    1    2    0    0 -0.28020953583E+02 -0.39405396137E+01 -0.32907775548E+02  0.43400730220E+02  0.00000000000E+00 0. -1.
         11    1    3    3    0    0  0.15008635332E+02  0.67353108098E+01  0.20041690120E+02  0.25928611404E+02  0.51100000000E-03 0. -1.
        -11    1    3    3    0    0  0.11299636841E+02  0.79343217571E+00  0.37813162908E+01  0.11941929513E+02  0.51100000000E-03 0.  1.
         12    1    3    3    0    0  0.17126814100E+01 -0.35882033719E+01  0.90847691371E+01  0.99167288621E+01  0.00000000000E+00 0. -1.
</event>
<event>
 7    1  0.1265344E-009  0.4778727E+02  0.7816164E-02  0.1312668E+00
        -11   -1    0    0    0    0  0.00000000000E+00  0.00000000000E+00  0.45593999997E+02  0.45594000000E+02  0.51100000000E-03 0.  1.
         11   -1    0    0    0    0 -0.00000000000E+00 -0.00000000000E+00 -0.45593999997E+02  0.45594000000E+02  0.51100000000E-03 0. -1.
    9900012    2    1    2    0    0  0.53977682393E+01  0.42397206051E+02  0.75474723841E+01  0.47787270487E+02  0.19999997457E+02 0.  0.
         12    1    1    2    0    0 -0.53977682393E+01 -0.42397206051E+02 -0.75474723841E+01  0.43400729513E+02  0.00000000000E+00 0. -1.
         11    1    3    3    0    0  0.33061458671E+01  0.24075227103E+02  0.26897318128E+01  0.24449577053E+02  0.51100000000E-03 0. -1.
        -11    1    3    3    0    0 -0.38407088156E+01  0.76530322251E+01 -0.27022577719E+01  0.89789834487E+01  0.51100000000E-03 0.  1.
         12    1    3    3    0    0  0.59323311878E+01  0.10668946722E+02  0.75599983432E+01  0.14358709985E+02  0.00000000000E+00 0. -1.
</event>
<event>
 7    1  0.1265344E-009  0.4778727E+02  0.7816164E-02  0.1312668E+00
        -11   -1    0    0    0    0  0.00000000000E+00  0.00000000000E+00  0.45593999997E+02  0.45594000000E+02  0.51100000000E-03 0.  1.
         11   -1    0    0    0    0 -0.00000000000E+00 -0.00000000000E+00 -0.45593999997E+02  0.45594000000E+02  0.51100000000E-03 0. -1.
    9900012    2    1    2    0    0  0.37927509280E+02  0.70130703259E+01  0.19898346225E+02  0.47787270765E+02  0.19999998728E+02 0.  0.
         12    1    1    2    0    0 -0.37927509280E+02 -0.70130703259E+01 -0.19898346225E+02  0.43400729235E+02  0.00000000000E+00 0. -1.
         11    1    3    3    0    0 -0.20427008119E+01 -0.61830370134E+00  0.12111161279E+01  0.24539210685E+01  0.51100000000E-03 0. -1.
        -11    1    3    3    0    0  0.17189800513E+02  0.67970829310E+01  0.76330121797E+01  0.19998811295E+02  0.51100000000E-03 0.  1.
        -12    1    3    3    0    0  0.22780409580E+02  0.83429109621E+00  0.11054217918E+02  0.25334538402E+02  0.00000000000E+00 0.  1.
</event>
<event>
 7    1  0.1265344E-009  0.4778727E+02  0.7816164E-02  0.1312668E+00
        -11   -1    0    0    0    0  0.00000000000E+00  0.00000000000E+00  0.45593999997E+02  0.45594000000E+02  0.51100000000E-03 0. -1.
         11   -1    0    0    0    0 -0.00000000000E+00 -0.00000000000E+00 -0.45593999997E+02  0.45594000000E+02  0.51100000000E-03 0.  1.
    9900012    2    1    2    0    0  0.66617255338E+00  0.11215117947E+02 -0.41921362932E+02  0.47787270438E+02  0.19999997234E+02 0.  0.
         12    1    1    2    0    0 -0.66617255338E+00 -0.11215117947E+02  0.41921362932E+02  0.43400729562E+02  0.00000000000E+00 0. -1.
         11    1    3    3    0    0 -0.50080284252E+01  0.31858035166E+01 -0.17629598756E+02  0.18601947353E+02  0.51100000000E-03 0. -1.
        -11    1    3    3    0    0  0.62808388765E+01  0.67488114809E+01 -0.25629158548E+02  0.27236908076E+02  0.51100000000E-03 0.  1.
         12    1    3    3    0    0 -0.60663789793E+00  0.12805029495E+01  0.13373943717E+01  0.19484150093E+01  0.00000000000E+00 0. -1.
</event>
<event>
 7    1  0.1265344E-009  0.4778727E+02  0.7816164E-02  0.1312668E+00
        -11   -1    0    0    0    0  0.00000000000E+00  0.00000000000E+00  0.45593999997E+02  0.45594000000E+02  0.51100000000E-03 0.  1.
         11   -1    0    0    0    0 -0.00000000000E+00 -0.00000000000E+00 -0.45593999997E+02  0.45594000000E+02  0.51100000000E-03 0. -1.
    9900012    2    1    2    0    0  0.37538806246E+01  0.51945887620E+01  0.42924915786E+02  0.47787265359E+02  0.19999974079E+02 0.  0.
         12    1    1    2    0    0 -0.37538806246E+01 -0.51945887620E+01 -0.42924915786E+02  0.43400734641E+02  0.00000000000E+00 0. -1.
         11    1    3    3    0    0 -0.20638939740E+01  0.10815635778E+01  0.10546488850E+01  0.25576791512E+01  0.51100000000E-03 0. -1.
        -11    1    3    3    0    0 -0.48459302884E+01 -0.11920702887E+01  0.15756310729E+02  0.16527716115E+02  0.51100000000E-03 0.  1.
        -12    1    3    3    0    0  0.10663704887E+02  0.53050954729E+01  0.26113956172E+02  0.28701870093E+02  0.00000000000E+00 0.  1.
</event>
<event>
 7    1  0.1265344E-009  0.4778727E+02  0.7816164E-02  0.1312668E+00
        -11   -1    0    0    0    0  0.00000000000E+00  0.00000000000E+00  0.45593999997E+02  0.45594000000E+02  0.51100000000E-03 0.  1.
         11   -1    0    0    0    0 -0.00000000000E+00 -0.00000000000E+00 -0.45593999997E+02  0.45594000000E+02  0.51100000000E-03 0. -1.
    9900012    2    1    2    0    0 -0.37752873816E+02 -0.15462290566E+02  0.14807473696E+02  0.47787272032E+02  0.20000004503E+02 0.  0.
         12    1    1    2    0    0  0.37752873816E+02  0.15462290566E+02 -0.14807473696E+02  0.43400727968E+02  0.00000000000E+00 0. -1.
         11    1    3    3    0    0 -0.96673561235E+01 -0.10209461576E+02  0.11404411909E+02  0.18103908179E+02  0.51100000000E-03 0. -1.
        -11    1    3    3    0    0 -0.11614681409E+02 -0.30383671328E+01 -0.20775489186E+01  0.12183952923E+02  0.51100000000E-03 0.  1.
        -12    1    3    3    0    0 -0.16470836283E+02 -0.22144618568E+01  0.54806107056E+01  0.17499410930E+02  0.00000000000E+00 0.  1.
</event>
<event>
 7    1  0.1265344E-009  0.4778727E+02  0.7816164E-02  0.1312668E+00
        -11   -1    0    0    0    0  0.00000000000E+00  0.00000000000E+00  0.45593999997E+02  0.45594000000E+02  0.51100000000E-03 0.  1.
         11   -1    0    0    0    0 -0.00000000000E+00 -0.00000000000E+00 -0.45593999997E+02  0.45594000000E+02  0.51100000000E-03 0. -1.
    9900012    2    1    2    0    0  0.14571949734E+02  0.20003887933E+02  0.35652856052E+02  0.47787269636E+02  0.19999993577E+02 0.  0.
         12    1    1    2    0    0 -0.14571949734E+02 -0.20003887933E+02 -0.35652856052E+02  0.43400730364E+02  0.00000000000E+00 0. -1.
         11    1    3    3    0    0  0.72824245979E+01  0.50620486565E+01  0.95405225784E+01  0.13026112849E+02  0.51100000000E-03 0. -1.
        -11    1    3    3    0    0  0.11088966322E+02  0.81190070980E+01  0.21987343196E+02  0.25929263612E+02  0.51100000000E-03 0.  1.
         12    1    3    3    0    0 -0.37994411862E+01  0.68228321787E+01  0.41249902776E+01  0.88318931751E+01  0.00000000000E+00 0. -1.
</event>
<event>
 7    1  0.1265344E-009  0.4778727E+02  0.7816164E-02  0.1312668E+00
        -11   -1    0    0    0    0  0.00000000000E+00  0.00000000000E+00  0.45593999997E+02  0.45594000000E+02  0.51100000000E-03 0. -1.
         11   -1    0    0    0    0 -0.00000000000E+00 -0.00000000000E+00 -0.45593999997E+02  0.45594000000E+02  0.51100000000E-03 0.  1.
    9900012    2    1    2    0    0  0.77406706987E+01  0.12426239375E+02 -0.40856990331E+02  0.47787273430E+02  0.20000010876E+02 0.  0.
         12    1    1    2    0    0 -0.77406706987E+01 -0.12426239375E+02  0.40856990331E+02  0.43400726570E+02  0.00000000000E+00 0. -1.
         11    1    3    3    0    0 -0.14067417101E+01 -0.28976021445E+01 -0.22297368847E+01  0.39174924713E+01  0.51100000000E-03 0.  1.
        -11    1    3    3    0    0  0.47318836629E+01  0.71439431377E+01 -0.75112744219E+01  0.11394994088E+02  0.51100000000E-03 0. -1.
        -12    1    3    3    0    0  0.44155287459E+01  0.81798983817E+01 -0.31115979025E+02  0.32474786871E+02  0.00000000000E+00 0.  1.
</event>
<event>
 7    1  0.1416752E-009  0.4778726E+02  0.7816164E-02  0.1312668E+00
        -11   -1    0    0    0    0  0.00000000000E+00  0.00000000000E+00  0.45593999997E+02  0.45594000000E+02  0.51100000000E-03 0. -1.
         11   -1    0    0    0    0 -0.00000000000E+00 -0.00000000000E+00 -0.45593999997E+02  0.45594000000E+02  0.51100000000E-03 0.  1.
    9900012    2    1    2    0    0  0.36793375134E+02 -0.22985046298E+02  0.12486365107E+01  0.47787263829E+02  0.19999967100E+02 0.  0.
         12    1    1    2    0    0 -0.36793375134E+02  0.22985046298E+02 -0.12486365107E+01  0.43400736171E+02  0.00000000000E+00 0. -1.
         11    1    3    3    0    0 -0.52061464821E-01 -0.43704855349E+01  0.65203652564E+00  0.44191635066E+01  0.51100000000E-03 0. -1.
        -11    1    3    3    0    0  0.13975703123E+02 -0.62902387171E+00 -0.21085771227E+01  0.14147863675E+02  0.51100000000E-03 0.  1.
        -12    1    3    3    0    0  0.22869733476E+02 -0.17985536891E+02  0.27051771078E+01  0.29220236647E+02  0.00000000000E+00 0.  1.
</event>
<event>
 7    1  0.1265344E-009  0.4778727E+02  0.7816164E-02  0.1312668E+00
        -11   -1    0    0    0    0  0.00000000000E+00  0.00000000000E+00  0.45593999997E+02  0.45594000000E+02  0.51100000000E-03 0.  1.
         11   -1    0    0    0    0 -0.00000000000E+00 -0.00000000000E+00 -0.45593999997E+02  0.45594000000E+02  0.51100000000E-03 0. -1.
    9900012    2    1    2    0    0 -0.30467057299E+02 -0.16806095877E+02  0.25941023393E+02  0.47787272658E+02  0.20000007359E+02 0.  0.
         12    1    1    2    0    0  0.30467057299E+02  0.16806095877E+02 -0.25941023393E+02  0.43400727342E+02  0.00000000000E+00 0. -1.
         11    1    3    3    0    0 -0.36178616066E+01 -0.17996756436E+01  0.68776937847E+01  0.79768682503E+01  0.51100000000E-03 0. -1.
        -11    1    3    3    0    0 -0.18571205421E+02 -0.13371947789E+02  0.50222811179E+01  0.23429083771E+02  0.51100000000E-03 0.  1.
        -12    1    3    3    0    0 -0.82779902712E+01 -0.16344724449E+01  0.14041048490E+02  0.16381320637E+02  0.00000000000E+00 0.  1.
</event>
<event>
 7    1  0.1265344E-009  0.4778727E+02  0.7816164E-02  0.1312668E+00
        -11   -1    0    0    0    0  0.00000000000E+00  0.00000000000E+00  0.45593999997E+02  0.45594000000E+02  0.51100000000E-03 0.  1.
         11   -1    0    0    0    0 -0.00000000000E+00 -0.00000000000E+00 -0.45593999997E+02  0.45594000000E+02  0.51100000000E-03 0. -1.
    9900012    2    1    2    0    0 -0.70433923952E+01 -0.38600368429E+02  0.18547929770E+02  0.47787268232E+02  0.19999987176E+02 0.  0.
         12    1    1    2    0    0  0.70433923952E+01  0.38600368429E+02 -0.18547929770E+02  0.43400731768E+02  0.00000000000E+00 0. -1.
         11    1    3    3    0    0  0.17797515495E+01 -0.21255974797E+00  0.23522394043E+01  0.29573176530E+01  0.51100000000E-03 0. -1.
        -11    1    3    3    0    0 -0.44033838238E+01 -0.32845768721E+02  0.17719428162E+02  0.37579415198E+02  0.51100000000E-03 0.  1.
        -12    1    3    3    0    0 -0.44197601209E+01 -0.55420399601E+01 -0.15237377960E+01  0.72505353813E+01  0.00000000000E+00 0.  1.
</event>
<event>
 7    1  0.1265344E-009  0.4778727E+02  0.7816164E-02  0.1312668E+00
        -11   -1    0    0    0    0  0.00000000000E+00  0.00000000000E+00  0.45593999997E+02  0.45594000000E+02  0.51100000000E-03 0. -1.
         11   -1    0    0    0    0 -0.00000000000E+00 -0.00000000000E+00 -0.45593999997E+02  0.45594000000E+02  0.51100000000E-03 0.  1.
    9900012    2    1    2    0    0 -0.34769886776E+02 -0.23993297271E+02 -0.99498654525E+01  0.47787272323E+02  0.20000005831E+02 0.  0.
         12    1    1    2    0    0  0.34769886776E+02  0.23993297271E+02  0.99498654525E+01  0.43400727677E+02  0.00000000000E+00 0. -1.
         11    1    3    3    0    0 -0.26648624336E+02 -0.10976557697E+02 -0.36207639641E+01  0.29047270609E+02  0.51100000000E-03 0. -1.
        -11    1    3    3    0    0  0.81055527419E+00 -0.90938064949E+00 -0.31293106873E+01  0.33580587631E+01  0.51100000000E-03 0.  1.
        -12    1    3    3    0    0 -0.89318177144E+01 -0.12107358924E+02 -0.31997908011E+01  0.15381942952E+02  0.00000000000E+00 0.  1.
</event>
<event>
 7    1  0.1265344E-009  0.4778727E+02  0.7816164E-02  0.1312668E+00
        -11   -1    0    0    0    0  0.00000000000E+00  0.00000000000E+00  0.45593999997E+02  0.45594000000E+02  0.51100000000E-03 0.  1.
         11   -1    0    0    0    0 -0.00000000000E+00 -0.00000000000E+00 -0.45593999997E+02  0.45594000000E+02  0.51100000000E-03 0. -1.
    9900012    2    1    2    0    0  0.19991778237E+01 -0.29548211041E+02  0.31725851989E+02  0.47787272217E+02  0.20000005346E+02 0.  0.
         12    1    1    2    0    0 -0.19991778237E+01  0.29548211041E+02 -0.31725851989E+02  0.43400727783E+02  0.00000000000E+00 0. -1.
         11    1    3    3    0    0  0.45024499088E+01 -0.13761844754E+02  0.15473607240E+02  0.21191813219E+02  0.51100000000E-03 0. -1.
        -11    1    3    3    0    0 -0.86097470664E-01 -0.17678547756E+02  0.15303799968E+02  0.23382573795E+02  0.51100000000E-03 0.  1.
         12    1    3    3    0    0 -0.24171746144E+01  0.18921814692E+01  0.94844478045E+00  0.32128852034E+01  0.00000000000E+00 0. -1.
</event>
<event>
 7    1  0.1265344E-009  0.4778727E+02  0.7816164E-02  0.1312668E+00
        -11   -1    0    0    0    0  0.00000000000E+00  0.00000000000E+00  0.45593999997E+02  0.45594000000E+02  0.51100000000E-03 0.  1.
         11   -1    0    0    0    0 -0.00000000000E+00 -0.00000000000E+00 -0.45593999997E+02  0.45594000000E+02  0.51100000000E-03 0. -1.
    9900012    2    1    2    0    0 -0.36282284350E+02 -0.22750690504E+02  0.70445122217E+01  0.47787271567E+02  0.20000002383E+02 0.  0.
         12    1    1    2    0    0  0.36282284350E+02  0.22750690504E+02 -0.70445122217E+01  0.43400728433E+02  0.00000000000E+00 0. -1.
         11    1    3    3    0    0 -0.21980853194E+02 -0.14102299443E+02  0.55273513604E+00  0.26121605485E+02  0.51100000000E-03 0. -1.
        -11    1    3    3    0    0 -0.10674140698E+02 -0.46595111461E+01  0.99011408851E+01  0.15286625358E+02  0.51100000000E-03 0.  1.
         12    1    3    3    0    0 -0.36272904590E+01 -0.39888799141E+01 -0.34093637994E+01  0.63790407241E+01  0.00000000000E+00 0. -1.
</event>
<event>
 7    1  0.1265344E-009  0.4778727E+02  0.7816164E-02  0.1312668E+00
        -11   -1    0    0    0    0  0.00000000000E+00  0.00000000000E+00  0.45593999997E+02  0.45594000000E+02  0.51100000000E-03 0.  1.
         11   -1    0    0    0    0 -0.00000000000E+00 -0.00000000000E+00 -0.45593999997E+02  0.45594000000E+02  0.51100000000E-03 0. -1.
    9900012    2    1    2    0    0  0.35124344214E+02 -0.37675801465E+01  0.25213277341E+02  0.47787267622E+02  0.19999984398E+02 0.  0.
         12    1    1    2    0    0 -0.35124344214E+02  0.37675801465E+01 -0.25213277341E+02  0.43400732378E+02  0.00000000000E+00 0. -1.
         11    1    3    3    0    0  0.18611649762E+02  0.48087209573E+01  0.68695487944E+01  0.20413427077E+02  0.51100000000E-03 0. -1.
        -11    1    3    3    0    0  0.60100732930E+01 -0.54954714399E+00  0.10188722946E+02  0.11842003993E+02  0.51100000000E-03 0.  1.
        -12    1    3    3    0    0  0.10502621159E+02 -0.80267539599E+01  0.81550056009E+01  0.15531836553E+02  0.00000000000E+00 0.  1.
</event>
<event>
 7    1  0.1265344E-009  0.4778725E+02  0.7816164E-02  0.1312668E+00
        -11   -1    0    0    0    0  0.00000000000E+00  0.00000000000E+00  0.45593999997E+02  0.45594000000E+02  0.51100000000E-03 0. -1.
         11   -1    0    0    0    0 -0.00000000000E+00 -0.00000000000E+00 -0.45593999997E+02  0.45594000000E+02  0.51100000000E-03 0.  1.
    9900012    2    1    2    0    0  0.11144964716E+02  0.40594893109E+02 -0.10557893753E+02  0.47787254551E+02  0.19999924800E+02 0.  0.
         12    1    1    2    0    0 -0.11144964716E+02 -0.40594893109E+02  0.10557893753E+02  0.43400745449E+02  0.00000000000E+00 0. -1.
         11    1    3    3    0    0  0.36304026048E+01  0.12374393628E+02 -0.22151726514E+00  0.12897849080E+02  0.51100000000E-03 0. -1.
        -11    1    3    3    0    0  0.52762722561E+01  0.33404731332E+01 -0.74830391052E+01  0.97464703450E+01  0.51100000000E-03 0.  1.
         12    1    3    3    0    0  0.22382898550E+01  0.24880026348E+02 -0.28533373831E+01  0.25142935126E+02  0.00000000000E+00 0. -1.
</event>
<event>
 7    1  0.1265344E-009  0.4778727E+02  0.7816164E-02  0.1312668E+00
        -11   -1    0    0    0    0  0.00000000000E+00  0.00000000000E+00  0.45593999997E+02  0.45594000000E+02  0.51100000000E-03 0. -1.
         11   -1    0    0    0    0 -0.00000000000E+00 -0.00000000000E+00 -0.45593999997E+02  0.45594000000E+02  0.51100000000E-03 0.  1.
    9900012    2    1    2    0    0  0.86459661041E+01 -0.38359878338E+02 -0.18368192742E+02  0.47787268433E+02  0.19999988091E+02 0.  0.
         12    1    1    2    0    0 -0.86459661041E+01  0.38359878338E+02  0.18368192742E+02  0.43400731567E+02  0.00000000000E+00 0. -1.
         11    1    3    3    0    0  0.42126543164E+01 -0.27468042269E+02 -0.28097850100E+01  0.27930891403E+02  0.51100000000E-03 0. -1.
        -11    1    3    3    0    0  0.15129537312E+01 -0.77841840532E+01 -0.86241057251E+01  0.11715705279E+02  0.51100000000E-03 0.  1.
         12    1    3    3    0    0  0.29203580565E+01 -0.31076520156E+01 -0.69343020071E+01  0.81406717507E+01  0.00000000000E+00 0. -1.
</event>
<event>
 7    1  0.1265344E-009  0.4778727E+02  0.7816164E-02  0.1312668E+00
        -11   -1    0    0    0    0  0.00000000000E+00  0.00000000000E+00  0.45593999997E+02  0.45594000000E+02  0.51100000000E-03 0.  1.
         11   -1    0    0    0    0 -0.00000000000E+00 -0.00000000000E+00 -0.45593999997E+02  0.45594000000E+02  0.51100000000E-03 0. -1.
    9900012    2    1    2    0    0 -0.16475137473E+02 -0.24785889416E+02  0.31588807706E+02  0.47787271421E+02  0.20000001718E+02 0.  0.
         12    1    1    2    0    0  0.16475137473E+02  0.24785889416E+02 -0.31588807706E+02  0.43400728579E+02  0.00000000000E+00 0. -1.
         11    1    3    3    0    0 -0.31276240130E+01  0.22195431797E+01  0.46430723091E+01  0.60221694282E+01  0.51100000000E-03 0. -1.
        -11    1    3    3    0    0 -0.21041144894E+01 -0.13000545047E+02  0.16038683645E+02  0.20752851434E+02  0.51100000000E-03 0.  1.
        -12    1    3    3    0    0 -0.11243398970E+02 -0.14004887548E+02  0.10907051752E+02  0.21012250559E+02  0.00000000000E+00 0.  1.
</event>
<event>
 7    1  0.1265344E-009  0.4778728E+02  0.7816164E-02  0.1312668E+00
        -11   -1    0    0    0    0  0.00000000000E+00  0.00000000000E+00  0.45593999997E+02  0.45594000000E+02  0.51100000000E-03 0.  1.
         11   -1    0    0    0    0 -0.00000000000E+00 -0.00000000000E+00 -0.45593999997E+02  0.45594000000E+02  0.51100000000E-03 0. -1.
    9900012    2    1    2    0    0 -0.22422358577E+02 -0.37363869499E+01  0.36971611022E+02  0.47787276812E+02  0.20000026299E+02 0.  0.
         12    1    1    2    0    0  0.22422358577E+02  0.37363869499E+01 -0.36971611022E+02  0.43400723188E+02  0.00000000000E+00 0. -1.
         11    1    3    3    0    0 -0.16407607561E+02 -0.34893884235E+01  0.18158000550E+02  0.24720404562E+02  0.51100000000E-03 0. -1.
        -11    1    3    3    0    0 -0.30457073724E+00 -0.53827637766E+01  0.55317978336E+01  0.77244868271E+01  0.51100000000E-03 0.  1.
         12    1    3    3    0    0 -0.57101802789E+01  0.51357652502E+01  0.13281812638E+02  0.15342385424E+02  0.00000000000E+00 0. -1.
</event>
<event>
 7    1  0.1265344E-009  0.4778728E+02  0.7816164E-02  0.1312668E+00
        -11   -1    0    0    0    0  0.00000000000E+00  0.00000000000E+00  0.45593999997E+02  0.45594000000E+02  0.51100000000E-03 0. -1.
         11   -1    0    0    0    0 -0.00000000000E+00 -0.00000000000E+00 -0.45593999997E+02  0.45594000000E+02  0.51100000000E-03 0.  1.
    9900012    2    1    2    0    0  0.38772130848E+01  0.25727252334E+02 -0.34737564832E+02  0.47787277605E+02  0.20000029912E+02 0.  0.
         12    1    1    2    0    0 -0.38772130848E+01 -0.25727252334E+02  0.34737564832E+02  0.43400722395E+02  0.00000000000E+00 0. -1.
         11    1    3    3    0    0 -0.66984788900E+00  0.12069068894E+02 -0.12221082146E+02  0.17189123575E+02  0.51100000000E-03 0.  1.
        -11    1    3    3    0    0  0.42614633792E+01  0.13864750678E+02 -0.89854325072E+01  0.17062513856E+02  0.51100000000E-03 0. -1.
         12    1    3    3    0    0  0.28559759462E+00 -0.20656723748E+00 -0.13531050178E+02  0.13535640174E+02  0.00000000000E+00 0. -1.
</event>
<event>
 7    1  0.1265344E-009  0.4778727E+02  0.7816164E-02  0.1312668E+00
        -11   -1    0    0    0    0  0.00000000000E+00  0.00000000000E+00  0.45593999997E+02  0.45594000000E+02  0.51100000000E-03 0.  1.
         11   -1    0    0    0    0 -0.00000000000E+00 -0.00000000000E+00 -0.45593999997E+02  0.45594000000E+02  0.51100000000E-03 0. -1.
    9900012    2    1    2    0    0  0.38098988029E+02 -0.16574035493E+02  0.12545583289E+02  0.47787271879E+02  0.20000003804E+02 0.  0.
         12    1    1    2    0    0 -0.38098988029E+02  0.16574035493E+02 -0.12545583289E+02  0.43400728121E+02  0.00000000000E+00 0. -1.
         11    1    3    3    0    0  0.86733187827E+01  0.68967398154E+00 -0.39800899800E+01  0.95678223968E+01  0.51100000000E-03 0. -1.
        -11    1    3    3    0    0  0.98783174133E+01 -0.83459949917E+01  0.52739132479E+01  0.13966064175E+02  0.51100000000E-03 0.  1.
         12    1    3    3    0    0  0.19547351833E+02 -0.89177144831E+01  0.11251760021E+02  0.24253385307E+02  0.00000000000E+00 0. -1.
</event>
<event>
 7    1  0.1265344E-009  0.4778727E+02  0.7816164E-02  0.1312668E+00
        -11   -1    0    0    0    0  0.00000000000E+00  0.00000000000E+00  0.45593999997E+02  0.45594000000E+02  0.51100000000E-03 0. -1.
         11   -1    0    0    0    0 -0.00000000000E+00 -0.00000000000E+00 -0.45593999997E+02  0.45594000000E+02  0.51100000000E-03 0.  1.
    9900012    2    1    2    0    0 -0.20041919108E+02 -0.24640821635E+02 -0.29576592966E+02  0.47787268856E+02  0.19999990023E+02 0.  0.
         12    1    1    2    0    0  0.20041919108E+02  0.24640821635E+02  0.29576592966E+02  0.43400731144E+02  0.00000000000E+00 0. -1.
         11    1    3    3    0    0 -0.43493080028E+01 -0.18595239165E+01  0.40452652270E+00  0.47474152197E+01  0.51100000000E-03 0. -1.
        -11    1    3    3    0    0  0.12386132263E+01 -0.61442757631E+01 -0.10943854433E+02  0.12611670686E+02  0.51100000000E-03 0.  1.
         12    1    3    3    0    0 -0.16931224331E+02 -0.16637021955E+02 -0.19037265055E+02  0.30428182950E+02  0.00000000000E+00 0. -1.
</event>
<event>
 7    1  0.1265344E-009  0.4778727E+02  0.7816164E-02  0.1312668E+00
        -11   -1    0    0    0    0  0.00000000000E+00  0.00000000000E+00  0.45593999997E+02  0.45594000000E+02  0.51100000000E-03 0. -1.
         11   -1    0    0    0    0 -0.00000000000E+00 -0.00000000000E+00 -0.45593999997E+02  0.45594000000E+02  0.51100000000E-03 0.  1.
    9900012    2    1    2    0    0  0.40715834435E+02 -0.12937487444E+02 -0.76462829920E+01  0.47787269606E+02  0.19999993442E+02 0.  0.
         12    1    1    2    0    0 -0.40715834435E+02  0.12937487444E+02  0.76462829920E+01  0.43400730394E+02  0.00000000000E+00 0. -1.
         11    1    3    3    0    0  0.88311622707E+01 -0.42055485255E+01 -0.24080606138E+01  0.10073471181E+02  0.51100000000E-03 0. -1.
        -11    1    3    3    0    0  0.33494169961E+02 -0.61204622876E+01 -0.59498332315E+01  0.34564721837E+02  0.51100000000E-03 0.  1.
         12    1    3    3    0    0 -0.16094977958E+01 -0.26114766309E+01  0.71161085326E+00  0.31490765876E+01  0.00000000000E+00 0. -1.
</event>
<event>
 7    1  0.1265344E-009  0.4778727E+02  0.7816164E-02  0.1312668E+00
        -11   -1    0    0    0    0  0.00000000000E+00  0.00000000000E+00  0.45593999997E+02  0.45594000000E+02  0.51100000000E-03 0.  1.
         11   -1    0    0    0    0 -0.00000000000E+00 -0.00000000000E+00 -0.45593999997E+02  0.45594000000E+02  0.51100000000E-03 0. -1.
    9900012    2    1    2    0    0 -0.17317001808E+02  0.19130750701E+02  0.34896406697E+02  0.47787269887E+02  0.19999994722E+02 0.  0.
         12    1    1    2    0    0  0.17317001808E+02 -0.19130750701E+02 -0.34896406697E+02  0.43400730113E+02  0.00000000000E+00 0. -1.
         11    1    3    3    0    0 -0.44410617737E+01  0.40273075214E+01  0.17572834212E+02  0.18567356787E+02  0.51100000000E-03 0. -1.
        -11    1    3    3    0    0 -0.14116511829E+02  0.81711546650E+01  0.13694160799E+02  0.21297270131E+02  0.51100000000E-03 0.  1.
         12    1    3    3    0    0  0.12405717947E+01  0.69322885145E+01  0.36294116860E+01  0.79226429689E+01  0.00000000000E+00 0. -1.
</event>
<event>
 7    1  0.1265344E-009  0.4778727E+02  0.7816164E-02  0.1312668E+00
        -11   -1    0    0    0    0  0.00000000000E+00  0.00000000000E+00  0.45593999997E+02  0.45594000000E+02  0.51100000000E-03 0.  1.
         11   -1    0    0    0    0 -0.00000000000E+00 -0.00000000000E+00 -0.45593999997E+02  0.45594000000E+02  0.51100000000E-03 0. -1.
    9900012    2    1    2    0    0  0.23553042900E+01  0.41798666289E+02  0.11443218006E+02  0.47787271893E+02  0.20000003869E+02 0.  0.
         12    1    1    2    0    0 -0.23553042900E+01 -0.41798666289E+02 -0.11443218006E+02  0.43400728107E+02  0.00000000000E+00 0. -1.
         11    1    3    3    0    0  0.19119051408E+01  0.88874136694E+01  0.87846077601E+01  0.12641631096E+02  0.51100000000E-03 0. -1.
        -11    1    3    3    0    0 -0.54817324456E+01  0.10392955153E+02  0.49266055316E+00  0.11760341070E+02  0.51100000000E-03 0.  1.
        -12    1    3    3    0    0  0.59251315948E+01  0.22518297467E+02  0.21659496932E+01  0.23385299727E+02  0.00000000000E+00 0.  1.
</event>
<event>
 7    1  0.1265344E-009  0.4778727E+02  0.7816164E-02  0.1312668E+00
        -11   -1    0    0    0    0  0.00000000000E+00  0.00000000000E+00  0.45593999997E+02  0.45594000000E+02  0.51100000000E-03 0.  1.
         11   -1    0    0    0    0 -0.00000000000E+00 -0.00000000000E+00 -0.45593999997E+02  0.45594000000E+02  0.51100000000E-03 0. -1.
    9900012    2    1    2    0    0  0.33030001461E+02 -0.91797077918E+01  0.26615323443E+02  0.47787268743E+02  0.19999989507E+02 0.  0.
         12    1    1    2    0    0 -0.33030001461E+02  0.91797077918E+01 -0.26615323443E+02  0.43400731257E+02  0.00000000000E+00 0. -1.
         11    1    3    3    0    0  0.15625459105E+02 -0.40882207342E+01  0.11529626729E+02  0.19844415178E+02  0.51100000000E-03 0. -1.
        -11    1    3    3    0    0  0.16705672114E+02  0.15046763825E+01  0.95373329074E+01  0.19295187251E+02  0.51100000000E-03 0.  1.
         12    1    3    3    0    0  0.69887024227E+00 -0.65961634401E+01  0.55483638069E+01  0.86476663140E+01  0.00000000000E+00 0. -1.
</event>
<event>
 7    1  0.1265344E-009  0.4778727E+02  0.7816164E-02  0.1312668E+00
        -11   -1    0    0    0    0  0.00000000000E+00  0.00000000000E+00  0.45593999997E+02  0.45594000000E+02  0.51100000000E-03 0.  1.
         11   -1    0    0    0    0 -0.00000000000E+00 -0.00000000000E+00 -0.45593999997E+02  0.45594000000E+02  0.51100000000E-03 0. -1.
    9900012    2    1    2    0    0 -0.20295156693E+02  0.18112838468E+02  0.33817969783E+02  0.47787269789E+02  0.19999994278E+02 0.  0.
         12    1    1    2    0    0  0.20295156693E+02 -0.18112838468E+02 -0.33817969783E+02  0.43400730211E+02  0.00000000000E+00 0. -1.
         11    1    3    3    0    0 -0.34781791869E+01 -0.33139421633E+01  0.73741811893E+00  0.48604247614E+01  0.51100000000E-03 0. -1.
        -11    1    3    3    0    0 -0.55650160344E+01  0.63615021478E+01  0.85975893616E+01  0.12056394823E+02  0.51100000000E-03 0.  1.
         12    1    3    3    0    0 -0.11251961471E+02  0.15065278483E+02  0.24482962303E+02  0.30870450205E+02  0.00000000000E+00 0. -1.
</event>
<event>
 7    1  0.1265344E-009  0.4778727E+02  0.7816164E-02  0.1312668E+00
        -11   -1    0    0    0    0  0.00000000000E+00  0.00000000000E+00  0.45593999997E+02  0.45594000000E+02  0.51100000000E-03 0.  1.
         11   -1    0    0    0    0 -0.00000000000E+00 -0.00000000000E+00 -0.45593999997E+02  0.45594000000E+02  0.51100000000E-03 0. -1.
    9900012    2    1    2    0    0 -0.19116268691E+02 -0.12627047715E+02  0.36861211697E+02  0.47787274310E+02  0.20000014889E+02 0.  0.
         12    1    1    2    0    0  0.19116268691E+02  0.12627047715E+02 -0.36861211697E+02  0.43400725690E+02  0.00000000000E+00 0. -1.
         11    1    3    3    0    0 -0.23556202552E+01 -0.45531551473E+01  0.13028635297E+02  0.14000910919E+02  0.51100000000E-03 0. -1.
        -11    1    3    3    0    0 -0.28780403430E+01 -0.41030567776E+01  0.17165418691E+02  0.17882108104E+02  0.51100000000E-03 0.  1.
         12    1    3    3    0    0 -0.13882608093E+02 -0.39708357900E+01  0.66671577083E+01  0.15904255287E+02  0.00000000000E+00 0. -1.
</event>
<event>
 7    1  0.1265344E-009  0.4778727E+02  0.7816164E-02  0.1312668E+00
        -11   -1    0    0    0    0  0.00000000000E+00  0.00000000000E+00  0.45593999997E+02  0.45594000000E+02  0.51100000000E-03 0.  1.
         11   -1    0    0    0    0 -0.00000000000E+00 -0.00000000000E+00 -0.45593999997E+02  0.45594000000E+02  0.51100000000E-03 0. -1.
    9900012    2    1    2    0    0 -0.92416468661E+01 -0.53494097262E+01  0.42066603117E+02  0.47787270524E+02  0.19999997628E+02 0.  0.
         12    1    1    2    0    0  0.92416468661E+01  0.53494097262E+01 -0.42066603117E+02  0.43400729476E+02  0.00000000000E+00 0. -1.
         11    1    3    3    0    0 -0.83785446792E+01  0.18757147950E+01  0.16993039237E+02  0.19038952170E+02  0.51100000000E-03 0. -1.
        -11    1    3    3    0    0  0.37359185779E+01  0.99243237977E+00  0.35227908305E+01  0.52299201854E+01  0.51100000000E-03 0.  1.
        -12    1    3    3    0    0 -0.45990207648E+01 -0.82175569009E+01  0.21550773049E+02  0.23518398169E+02  0.00000000000E+00 0.  1.
</event>
<event>
 7    1  0.1265344E-009  0.4778729E+02  0.7816164E-02  0.1312668E+00
        -11   -1    0    0    0    0  0.00000000000E+00  0.00000000000E+00  0.45593999997E+02  0.45594000000E+02  0.51100000000E-03 0.  1.
         11   -1    0    0    0    0 -0.00000000000E+00 -0.00000000000E+00 -0.45593999997E+02  0.45594000000E+02  0.51100000000E-03 0. -1.
    9900012    2    1    2    0    0 -0.30886489824E+02 -0.18922874792E+02  0.23907551684E+02  0.47787291808E+02  0.20000094669E+02 0.  0.
         12    1    1    2    0    0  0.30886489824E+02  0.18922874792E+02 -0.23907551684E+02  0.43400708192E+02  0.00000000000E+00 0. -1.
         11    1    3    3    0    0 -0.79246920699E+01 -0.45567075761E+01  0.62795588144E+01  0.11090409708E+02  0.51100000000E-03 0. -1.
        -11    1    3    3    0    0 -0.15749612145E+02 -0.11361972314E+02  0.20624872403E+02  0.28328961497E+02  0.51100000000E-03 0.  1.
         12    1    3    3    0    0 -0.72121856094E+01 -0.30041949014E+01 -0.29968795337E+01  0.83679206025E+01  0.00000000000E+00 0. -1.
</event>
<event>
 7    1  0.1265344E-009  0.4778727E+02  0.7816164E-02  0.1312668E+00
        -11   -1    0    0    0    0  0.00000000000E+00  0.00000000000E+00  0.45593999997E+02  0.45594000000E+02  0.51100000000E-03 0.  1.
         11   -1    0    0    0    0 -0.00000000000E+00 -0.00000000000E+00 -0.45593999997E+02  0.45594000000E+02  0.51100000000E-03 0. -1.
    9900012    2    1    2    0    0 -0.92676123063E+01  0.33132455207E+02  0.26457039497E+02  0.47787272301E+02  0.20000005728E+02 0.  0.
         12    1    1    2    0    0  0.92676123063E+01 -0.33132455207E+02 -0.26457039497E+02  0.43400727699E+02  0.00000000000E+00 0. -1.
         11    1    3    3    0    0  0.12732946343E+01  0.96805681111E+01  0.12926624124E+02  0.16199762026E+02  0.51100000000E-03 0.  1.
        -11    1    3    3    0    0 -0.91199572067E+01  0.76058581580E+01  0.94137598892E+01  0.15153929302E+02  0.51100000000E-03 0. -1.
         12    1    3    3    0    0 -0.14209497339E+01  0.15846028938E+02  0.41166554834E+01  0.16433580973E+02  0.00000000000E+00 0. -1.
</event>
<event>
 7    1  0.1265344E-009  0.4778727E+02  0.7816164E-02  0.1312668E+00
        -11   -1    0    0    0    0  0.00000000000E+00  0.00000000000E+00  0.45593999997E+02  0.45594000000E+02  0.51100000000E-03 0.  1.
         11   -1    0    0    0    0 -0.00000000000E+00 -0.00000000000E+00 -0.45593999997E+02  0.45594000000E+02  0.51100000000E-03 0. -1.
    9900012    2    1    2    0    0 -0.31197601444E+01 -0.18885608399E+01  0.43247240380E+02  0.47787269985E+02  0.19999995168E+02 0.  0.
         12    1    1    2    0    0  0.31197601444E+01  0.18885608399E+01 -0.43247240380E+02  0.43400730015E+02  0.00000000000E+00 0. -1.
         11    1    3    3    0    0 -0.12673110632E+01  0.30818326040E+01  0.10544525975E+02  0.11058516981E+02  0.51100000000E-03 0. -1.
        -11    1    3    3    0    0  0.43442048107E+01 -0.83476595976E+01  0.15475507916E+02  0.18112064535E+02  0.51100000000E-03 0.  1.
         12    1    3    3    0    0 -0.61966538918E+01  0.33772661537E+01  0.17227206488E+02  0.18616688468E+02  0.00000000000E+00 0. -1.
</event>
<event>
 7    1  0.1265344E-009  0.4778727E+02  0.7816164E-02  0.1312668E+00
        -11   -1    0    0    0    0  0.00000000000E+00  0.00000000000E+00  0.45593999997E+02  0.45594000000E+02  0.51100000000E-03 0.  1.
         11   -1    0    0    0    0 -0.00000000000E+00 -0.00000000000E+00 -0.45593999997E+02  0.45594000000E+02  0.51100000000E-03 0. -1.
    9900012    2    1    2    0    0  0.13113762755E+02 -0.40658702348E+02  0.76499918230E+01  0.47787271606E+02  0.20000002562E+02 0.  0.
         12    1    1    2    0    0 -0.13113762755E+02  0.40658702348E+02 -0.76499918230E+01  0.43400728394E+02  0.00000000000E+00 0. -1.
         11    1    3    3    0    0  0.95260007151E+01 -0.24528093844E+02  0.12012090673E+02  0.28925117110E+02  0.51100000000E-03 0.  1.
        -11    1    3    3    0    0  0.95965489357E-01  0.79790341030E+00 -0.94891029041E+00  0.12434991868E+01  0.51100000000E-03 0. -1.
         12    1    3    3    0    0  0.34917965503E+01 -0.16928511914E+02 -0.34131885591E+01  0.17618655310E+02  0.00000000000E+00 0. -1.
</event>
<event>
 7    1  0.1265344E-009  0.4778727E+02  0.7816164E-02  0.1312668E+00
        -11   -1    0    0    0    0  0.00000000000E+00  0.00000000000E+00  0.45593999997E+02  0.45594000000E+02  0.51100000000E-03 0. -1.
         11   -1    0    0    0    0 -0.00000000000E+00 -0.00000000000E+00 -0.45593999997E+02  0.45594000000E+02  0.51100000000E-03 0.  1.
    9900012    2    1    2    0    0 -0.94124277494E+01  0.37996881842E+02  0.18742110233E+02  0.47787268188E+02  0.19999986976E+02 0.  0.
         12    1    1    2    0    0  0.94124277494E+01 -0.37996881842E+02 -0.18742110233E+02  0.43400731812E+02  0.00000000000E+00 0. -1.
         11    1    3    3    0    0  0.35524708095E+01  0.73185297547E+00  0.88555546159E+00  0.37336130446E+01  0.51100000000E-03 0. -1.
        -11    1    3    3    0    0  0.50214388789E-01  0.51791746956E+00  0.18325010438E+01  0.19049462792E+01  0.51100000000E-03 0.  1.
        -12    1    3    3    0    0 -0.13015112948E+02  0.36747111397E+02  0.16024053728E+02  0.42148708864E+02  0.00000000000E+00 0.  1.
</event>
<event>
 7    1  0.1265344E-009  0.4778727E+02  0.7816164E-02  0.1312668E+00
        -11   -1    0    0    0    0  0.00000000000E+00  0.00000000000E+00  0.45593999997E+02  0.45594000000E+02  0.51100000000E-03 0.  1.
         11   -1    0    0    0    0 -0.00000000000E+00 -0.00000000000E+00 -0.45593999997E+02  0.45594000000E+02  0.51100000000E-03 0. -1.
    9900012    2    1    2    0    0 -0.98962892214E+01  0.42243418694E+02 -0.10865335394E+01  0.47787268227E+02  0.19999987152E+02 0.  0.
         12    1    1    2    0    0  0.98962892214E+01 -0.42243418694E+02  0.10865335394E+01  0.43400731773E+02  0.00000000000E+00 0. -1.
         11    1    3    3    0    0 -0.96340974948E+00  0.16945820848E+02  0.67663045992E+01  0.18272161359E+02  0.51100000000E-03 0. -1.
        -11    1    3    3    0    0 -0.24272568303E+01  0.19741817712E+02 -0.57610505993E+01  0.20707985092E+02  0.51100000000E-03 0.  1.
        -12    1    3    3    0    0 -0.65056226416E+01  0.55557801343E+01 -0.20917875393E+01  0.88071217753E+01  0.00000000000E+00 0.  1.
</event>
<event>
 7    1  0.1265344E-009  0.4778727E+02  0.7816164E-02  0.1312668E+00
        -11   -1    0    0    0    0  0.00000000000E+00  0.00000000000E+00  0.45593999997E+02  0.45594000000E+02  0.51100000000E-03 0.  1.
         11   -1    0    0    0    0 -0.00000000000E+00 -0.00000000000E+00 -0.45593999997E+02  0.45594000000E+02  0.51100000000E-03 0. -1.
    9900012    2    1    2    0    0  0.25365945721E+02  0.18575310371E+01  0.35167339503E+02  0.47787269688E+02  0.19999993815E+02 0.  0.
         12    1    1    2    0    0 -0.25365945721E+02 -0.18575310371E+01 -0.35167339503E+02  0.43400730312E+02  0.00000000000E+00 0. -1.
         11    1    3    3    0    0  0.58988679277E+01 -0.10715180341E+01  0.16098243762E+02  0.17178423857E+02  0.51100000000E-03 0. -1.
        -11    1    3    3    0    0  0.33420958936E+01  0.16744383313E+01  0.12678978010E+02  0.13218541233E+02  0.51100000000E-03 0.  1.
         12    1    3    3    0    0  0.16124981900E+02  0.12546107399E+01  0.63901177309E+01  0.17390304598E+02  0.00000000000E+00 0. -1.
</event>
<event>
 7    1  0.1265344E-009  0.4778729E+02  0.7816164E-02  0.1312668E+00
        -11   -1    0    0    0    0  0.00000000000E+00  0.00000000000E+00  0.45593999997E+02  0.45594000000E+02  0.51100000000E-03 0.  1.
         11   -1    0    0    0    0 -0.00000000000E+00 -0.00000000000E+00 -0.45593999997E+02  0.45594000000E+02  0.51100000000E-03 0. -1.
    9900012    2    1    2    0    0  0.37635673263E+02  0.95056267914E+01  0.19411862089E+02  0.47787294563E+02  0.20000107229E+02 0.  0.
         12    1    1    2    0    0 -0.37635673263E+02 -0.95056267914E+01 -0.19411862089E+02  0.43400705437E+02  0.00000000000E+00 0. -1.
         11    1    3    3    0    0  0.95929628184E+01  0.29530924595E+01  0.11822326395E+02  0.15508484528E+02  0.51100000000E-03 0. -1.
        -11    1    3    3    0    0  0.23514066331E+02  0.93088166973E+01  0.89135648524E+01  0.26814492767E+02  0.51100000000E-03 0.  1.
         12    1    3    3    0    0  0.45286441141E+01 -0.27562823654E+01 -0.13240291582E+01  0.54643172677E+01  0.00000000000E+00 0. -1.
</event>
<event>
 7    1  0.1265344E-009  0.4778727E+02  0.7816164E-02  0.1312668E+00
        -11   -1    0    0    0    0  0.00000000000E+00  0.00000000000E+00  0.45593999997E+02  0.45594000000E+02  0.51100000000E-03 0.  1.
         11   -1    0    0    0    0 -0.00000000000E+00 -0.00000000000E+00 -0.45593999997E+02  0.45594000000E+02  0.51100000000E-03 0. -1.
    9900012    2    1    2    0    0  0.20583995210E+02 -0.41775997690E+01  0.37979865605E+02  0.47787269707E+02  0.19999993901E+02 0.  0.
         12    1    1    2    0    0 -0.20583995210E+02  0.41775997690E+01 -0.37979865605E+02  0.43400730293E+02  0.00000000000E+00 0. -1.
         11    1    3    3    0    0  0.12977900995E+02 -0.74528246387E+01  0.20120069637E+02  0.25075639808E+02  0.51100000000E-03 0. -1.
        -11    1    3    3    0    0  0.75863489745E+01  0.27466560481E+01  0.19438631412E+02  0.21046548449E+02  0.51100000000E-03 0.  1.
         12    1    3    3    0    0  0.19745240825E-01  0.52856882161E+00 -0.15788354441E+01  0.16650814494E+01  0.00000000000E+00 0. -1.
</event>
<event>
 7    1  0.1265344E-009  0.4778726E+02  0.7816164E-02  0.1312668E+00
        -11   -1    0    0    0    0  0.00000000000E+00  0.00000000000E+00  0.45593999997E+02  0.45594000000E+02  0.51100000000E-03 0. -1.
         11   -1    0    0    0    0 -0.00000000000E+00 -0.00000000000E+00 -0.45593999997E+02  0.45594000000E+02  0.51100000000E-03 0.  1.
    9900012    2    1    2    0    0  0.21138362366E+02  0.36972439074E+02  0.83565744188E+01  0.47787263248E+02  0.19999964451E+02 0.  0.
         12    1    1    2    0    0 -0.21138362366E+02 -0.36972439074E+02 -0.83565744188E+01  0.43400736752E+02  0.00000000000E+00 0. -1.
         11    1    3    3    0    0 -0.12264986952E+01 -0.10140307538E+01 -0.18150343493E+01  0.24138987901E+01  0.51100000000E-03 0. -1.
        -11    1    3    3    0    0  0.28007154952E+01  0.28119076203E+01  0.84957085848E+00  0.40586454212E+01  0.51100000000E-03 0.  1.
         12    1    3    3    0    0  0.19564145566E+02  0.35174562208E+02  0.93220379095E+01  0.41314719036E+02  0.00000000000E+00 0. -1.
</event>
<event>
 7    1  0.1265344E-009  0.4778727E+02  0.7816164E-02  0.1312668E+00
        -11   -1    0    0    0    0  0.00000000000E+00  0.00000000000E+00  0.45593999997E+02  0.45594000000E+02  0.51100000000E-03 0.  1.
         11   -1    0    0    0    0 -0.00000000000E+00 -0.00000000000E+00 -0.45593999997E+02  0.45594000000E+02  0.51100000000E-03 0. -1.
    9900012    2    1    2    0    0  0.19543179733E+02  0.37719545859E+02  0.88838687959E+01  0.47787272602E+02  0.20000007101E+02 0.  0.
         12    1    1    2    0    0 -0.19543179733E+02 -0.37719545859E+02 -0.88838687959E+01  0.43400727398E+02  0.00000000000E+00 0. -1.
         11    1    3    3    0    0  0.55742355180E+00 -0.94832326364E+00 -0.62115955147E+00  0.12632804431E+01  0.51100000000E-03 0. -1.
        -11    1    3    3    0    0  0.70740854062E+01  0.23226741538E+02  0.11602370667E+02  0.26909834860E+02  0.51100000000E-03 0.  1.
        -12    1    3    3    0    0  0.11911670776E+02  0.15441127585E+02 -0.20973423199E+01  0.19614157299E+02  0.00000000000E+00 0.  1.
</event>
<event>
 7    1  0.1265344E-009  0.4778727E+02  0.7816164E-02  0.1312668E+00
        -11   -1    0    0    0    0  0.00000000000E+00  0.00000000000E+00  0.45593999997E+02  0.45594000000E+02  0.51100000000E-03 0.  1.
         11   -1    0    0    0    0 -0.00000000000E+00 -0.00000000000E+00 -0.45593999997E+02  0.45594000000E+02  0.51100000000E-03 0. -1.
    9900012    2    1    2    0    0 -0.18056929720E+02 -0.73855234193E+01  0.38768857495E+02  0.47787274447E+02  0.20000015512E+02 0.  0.
         12    1    1    2    0    0  0.18056929720E+02  0.73855234193E+01 -0.38768857495E+02  0.43400725553E+02  0.00000000000E+00 0. -1.
         11    1    3    3    0    0 -0.16421440425E+02 -0.82973830686E+01  0.18461384145E+02  0.26064016886E+02  0.51100000000E-03 0. -1.
        -11    1    3    3    0    0 -0.35440776514E+01  0.28469259958E+01  0.88673931225E+01  0.99647446066E+01  0.51100000000E-03 0.  1.
         12    1    3    3    0    0  0.19085883564E+01 -0.19350663465E+01  0.11440080227E+02  0.11758512954E+02  0.00000000000E+00 0. -1.
</event>
<event>
 7    1  0.1265344E-009  0.4778727E+02  0.7816164E-02  0.1312668E+00
        -11   -1    0    0    0    0  0.00000000000E+00  0.00000000000E+00  0.45593999997E+02  0.45594000000E+02  0.51100000000E-03 0.  1.
         11   -1    0    0    0    0 -0.00000000000E+00 -0.00000000000E+00 -0.45593999997E+02  0.45594000000E+02  0.51100000000E-03 0. -1.
    9900012    2    1    2    0    0 -0.20544739823E+02  0.35913981735E+02 -0.13104308815E+02  0.47787270421E+02  0.19999997159E+02 0.  0.
         12    1    1    2    0    0  0.20544739823E+02 -0.35913981735E+02  0.13104308815E+02  0.43400729579E+02  0.00000000000E+00 0. -1.
         11    1    3    3    0    0 -0.83170381529E+01  0.12133369908E+02 -0.11488365213E+02  0.18664788359E+02  0.51100000000E-03 0. -1.
        -11    1    3    3    0    0  0.14090275928E+01  0.83660149695E+01 -0.86717003821E+00  0.85280448735E+01  0.51100000000E-03 0.  1.
         12    1    3    3    0    0 -0.13636729263E+02  0.15414596858E+02 -0.74877356359E+00  0.20594437189E+02  0.00000000000E+00 0. -1.
</event>
<event>
 7    1  0.1265344E-009  0.4778731E+02  0.7816164E-02  0.1312668E+00
        -11   -1    0    0    0    0  0.00000000000E+00  0.00000000000E+00  0.45593999997E+02  0.45594000000E+02  0.51100000000E-03 0.  1.
         11   -1    0    0    0    0 -0.00000000000E+00 -0.00000000000E+00 -0.45593999997E+02  0.45594000000E+02  0.51100000000E-03 0. -1.
    9900012    2    1    2    0    0 -0.10464204867E+02  0.21114628303E+02  0.36445755254E+02  0.47787306596E+02  0.20000162093E+02 0.  0.
         12    1    1    2    0    0  0.10464204867E+02 -0.21114628303E+02 -0.36445755254E+02  0.43400693404E+02  0.00000000000E+00 0. -1.
         11    1    3    3    0    0  0.48819685984E+01  0.59882372522E+01  0.10175160909E+02  0.12776012781E+02  0.51100000000E-03 0. -1.
        -11    1    3    3    0    0 -0.62322283560E+01  0.59525236118E+01  0.45829078332E+01  0.97609554911E+01  0.51100000000E-03 0.  1.
         12    1    3    3    0    0 -0.91139451092E+01  0.91738674394E+01  0.21687686512E+02  0.25250338324E+02  0.00000000000E+00 0. -1.
</event>
<event>
 7    1  0.1265344E-009  0.4778727E+02  0.7816164E-02  0.1312668E+00
        -11   -1    0    0    0    0  0.00000000000E+00  0.00000000000E+00  0.45593999997E+02  0.45594000000E+02  0.51100000000E-03 0. -1.
         11   -1    0    0    0    0 -0.00000000000E+00 -0.00000000000E+00 -0.45593999997E+02  0.45594000000E+02  0.51100000000E-03 0.  1.
    9900012    2    1    2    0    0  0.25319292915E+02  0.12829515633E+02 -0.32832309712E+02  0.47787266986E+02  0.19999981498E+02 0.  0.
         12    1    1    2    0    0 -0.25319292915E+02 -0.12829515633E+02  0.32832309712E+02  0.43400733014E+02  0.00000000000E+00 0. -1.
         11    1    3    3    0    0  0.73986155855E+01 -0.79834353325E+00 -0.13835654154E+02  0.15709939246E+02  0.51100000000E-03 0. -1.
        -11    1    3    3    0    0  0.10422934125E+01  0.78655123138E+01 -0.70218034897E+01  0.10595205709E+02  0.51100000000E-03 0.  1.
        -12    1    3    3    0    0  0.16878383917E+02  0.57623468529E+01 -0.11974852068E+02  0.21482122031E+02  0.00000000000E+00 0.  1.
</event>
<event>
 7    1  0.1265344E-009  0.4778724E+02  0.7816164E-02  0.1312668E+00
        -11   -1    0    0    0    0  0.00000000000E+00  0.00000000000E+00  0.45593999997E+02  0.45594000000E+02  0.51100000000E-03 0.  1.
         11   -1    0    0    0    0 -0.00000000000E+00 -0.00000000000E+00 -0.45593999997E+02  0.45594000000E+02  0.51100000000E-03 0. -1.
    9900012    2    1    2    0    0  0.20968394082E+02  0.64071971707E+01  0.37455311722E+02  0.47787238461E+02  0.19999851438E+02 0.  0.
         12    1    1    2    0    0 -0.20968394082E+02 -0.64071971707E+01 -0.37455311722E+02  0.43400761539E+02  0.00000000000E+00 0. -1.
         11    1    3    3    0    0 -0.13215240483E+00  0.56128722616E+00 -0.15974169029E+01  0.16983075785E+01  0.51100000000E-03 0. -1.
        -11    1    3    3    0    0  0.77393966494E+01 -0.27955037074E+01  0.17088898802E+02  0.18966907075E+02  0.51100000000E-03 0.  1.
        -12    1    3    3    0    0  0.13361149837E+02  0.86414136519E+01  0.21963829823E+02  0.27122023807E+02  0.00000000000E+00 0.  1.
</event>
<event>
 7    1  0.1265344E-009  0.4778728E+02  0.7816164E-02  0.1312668E+00
        -11   -1    0    0    0    0  0.00000000000E+00  0.00000000000E+00  0.45593999997E+02  0.45594000000E+02  0.51100000000E-03 0. -1.
         11   -1    0    0    0    0 -0.00000000000E+00 -0.00000000000E+00 -0.45593999997E+02  0.45594000000E+02  0.51100000000E-03 0.  1.
    9900012    2    1    2    0    0  0.38503016999E+02  0.20019650659E+02  0.59507770267E+00  0.47787275951E+02  0.20000022372E+02 0.  0.
         12    1    1    2    0    0 -0.38503016999E+02 -0.20019650659E+02 -0.59507770267E+00  0.43400724049E+02  0.00000000000E+00 0. -1.
         11    1    3    3    0    0  0.14397892571E+01 -0.58614182163E+00 -0.17954746830E+01  0.23749284070E+01  0.51100000000E-03 0. -1.
        -11    1    3    3    0    0  0.37912765445E+02  0.19251877494E+02  0.45083566845E+01  0.42759067471E+02  0.51100000000E-03 0.  1.
        -12    1    3    3    0    0 -0.84953770330E+00  0.13539149864E+01 -0.21178042988E+01  0.26532800733E+01  0.00000000000E+00 0.  1.
</event>
<event>
 7    1  0.1265344E-009  0.4778727E+02  0.7816164E-02  0.1312668E+00
        -11   -1    0    0    0    0  0.00000000000E+00  0.00000000000E+00  0.45593999997E+02  0.45594000000E+02  0.51100000000E-03 0.  1.
         11   -1    0    0    0    0 -0.00000000000E+00 -0.00000000000E+00 -0.45593999997E+02  0.45594000000E+02  0.51100000000E-03 0. -1.
    9900012    2    1    2    0    0 -0.31810665114E+02 -0.29479379620E+02 -0.16342619029E+01  0.47787273626E+02  0.20000011773E+02 0.  0.
         12    1    1    2    0    0  0.31810665114E+02  0.29479379620E+02  0.16342619029E+01  0.43400726374E+02  0.00000000000E+00 0. -1.
         11    1    3    3    0    0 -0.13208384198E+02 -0.63711483225E+01  0.39809985143E+01  0.15195436601E+02  0.51100000000E-03 0. -1.
        -11    1    3    3    0    0  0.14549772230E+01 -0.61128622038E+00 -0.14911513718E+01  0.21712121585E+01  0.51100000000E-03 0.  1.
        -12    1    3    3    0    0 -0.20057258139E+02 -0.22496945078E+02 -0.41241090454E+01  0.30420624867E+02  0.00000000000E+00 0.  1.
</event>
<event>
 7    1  0.1265344E-009  0.4778728E+02  0.7816164E-02  0.1312668E+00
        -11   -1    0    0    0    0  0.00000000000E+00  0.00000000000E+00  0.45593999997E+02  0.45594000000E+02  0.51100000000E-03 0.  1.
         11   -1    0    0    0    0 -0.00000000000E+00 -0.00000000000E+00 -0.45593999997E+02  0.45594000000E+02  0.51100000000E-03 0. -1.
    9900012    2    1    2    0    0  0.28116435953E+02  0.25220209247E+02  0.21378256510E+02  0.47787276774E+02  0.20000026122E+02 0.  0.
         12    1    1    2    0    0 -0.28116435953E+02 -0.25220209247E+02 -0.21378256510E+02  0.43400723226E+02  0.00000000000E+00 0. -1.
         11    1    3    3    0    0  0.16861337619E+02  0.86727324127E+01  0.48003530146E+01  0.19559253133E+02  0.51100000000E-03 0. -1.
        -11    1    3    3    0    0  0.18258727327E+01  0.86990305046E+01  0.18841981270E+01  0.90860962904E+01  0.51100000000E-03 0.  1.
        -12    1    3    3    0    0  0.94292256016E+01  0.78484463295E+01  0.14693705368E+02  0.19141927350E+02  0.00000000000E+00 0.  1.
</event>
<event>
 7    1  0.1265344E-009  0.4778727E+02  0.7816164E-02  0.1312668E+00
        -11   -1    0    0    0    0  0.00000000000E+00  0.00000000000E+00  0.45593999997E+02  0.45594000000E+02  0.51100000000E-03 0.  1.
         11   -1    0    0    0    0 -0.00000000000E+00 -0.00000000000E+00 -0.45593999997E+02  0.45594000000E+02  0.51100000000E-03 0. -1.
    9900012    2    1    2    0    0  0.43205377695E+02 -0.38263056226E+01 -0.15092857436E+01  0.47787271666E+02  0.20000002833E+02 0.  0.
         12    1    1    2    0    0 -0.43205377695E+02  0.38263056226E+01  0.15092857436E+01  0.43400728334E+02  0.00000000000E+00 0. -1.
         11    1    3    3    0    0 -0.93932316240E+00  0.22321723905E+00  0.16409542396E+00  0.97932706922E+00  0.51100000000E-03 0. -1.
        -11    1    3    3    0    0  0.33012809299E+02 -0.47592200465E+01  0.51241905245E+01  0.33745415719E+02  0.51100000000E-03 0.  1.
         12    1    3    3    0    0  0.11131891558E+02  0.70969718486E+00 -0.67975716920E+01  0.13062528877E+02  0.00000000000E+00 0. -1.
</event>
<event>
 7    1  0.1265344E-009  0.4778727E+02  0.7816164E-02  0.1312668E+00
        -11   -1    0    0    0    0  0.00000000000E+00  0.00000000000E+00  0.45593999997E+02  0.45594000000E+02  0.51100000000E-03 0.  1.
         11   -1    0    0    0    0 -0.00000000000E+00 -0.00000000000E+00 -0.45593999997E+02  0.45594000000E+02  0.51100000000E-03 0. -1.
    9900012    2    1    2    0    0 -0.15657924410E+00 -0.27877636454E+02  0.33263133310E+02  0.47787272254E+02  0.20000005514E+02 0.  0.
         12    1    1    2    0    0  0.15657924410E+00  0.27877636454E+02 -0.33263133310E+02  0.43400727746E+02  0.00000000000E+00 0. -1.
         11    1    3    3    0    0 -0.55058194450E+01 -0.18534612487E+02  0.93415748995E+01  0.21473493653E+02  0.51100000000E-03 0. -1.
        -11    1    3    3    0    0  0.99109222348E+00 -0.23508114351E+01  0.78366199453E+01  0.82414313457E+01  0.51100000000E-03 0.  1.
         12    1    3    3    0    0  0.43581479774E+01 -0.69922125323E+01  0.16084938465E+02  0.18072347255E+02  0.00000000000E+00 0. -1.
</event>
<event>
 7    1  0.1265344E-009  0.4778727E+02  0.7816164E-02  0.1312668E+00
        -11   -1    0    0    0    0  0.00000000000E+00  0.00000000000E+00  0.45593999997E+02  0.45594000000E+02  0.51100000000E-03 0. -1.
         11   -1    0    0    0    0 -0.00000000000E+00 -0.00000000000E+00 -0.45593999997E+02  0.45594000000E+02  0.51100000000E-03 0.  1.
    9900012    2    1    2    0    0 -0.17389980113E+02 -0.36657699799E+02 -0.15408600196E+02  0.47787270480E+02  0.19999997427E+02 0.  0.
         12    1    1    2    0    0  0.17389980113E+02  0.36657699799E+02  0.15408600196E+02  0.43400729520E+02  0.00000000000E+00 0. -1.
         11    1    3    3    0    0 -0.62741760384E+01 -0.51057065036E+01  0.62797217094E+00  0.81134378145E+01  0.51100000000E-03 0.  1.
        -11    1    3    3    0    0  0.18487241439E+01 -0.27386153094E+00  0.58110297002E+00  0.19571566165E+01  0.51100000000E-03 0. -1.
        -12    1    3    3    0    0 -0.12964528218E+02 -0.31278131764E+02 -0.16617675337E+02  0.37716676049E+02  0.00000000000E+00 0.  1.
</event>
<event>
 7    1  0.1265344E-009  0.4778726E+02  0.7816164E-02  0.1312668E+00
        -11   -1    0    0    0    0  0.00000000000E+00  0.00000000000E+00  0.45593999997E+02  0.45594000000E+02  0.51100000000E-03 0. -1.
         11   -1    0    0    0    0 -0.00000000000E+00 -0.00000000000E+00 -0.45593999997E+02  0.45594000000E+02  0.51100000000E-03 0.  1.
    9900012    2    1    2    0    0 -0.10147813111E+02  0.42191756274E+02  0.70821580908E+00  0.47787262932E+02  0.19999963013E+02 0.  0.
         12    1    1    2    0    0  0.10147813111E+02 -0.42191756274E+02 -0.70821580908E+00  0.43400737068E+02  0.00000000000E+00 0. -1.
         11    1    3    3    0    0 -0.16578683865E+01  0.15133452395E+02 -0.51532784959E+01  0.16072529001E+02  0.51100000000E-03 0. -1.
        -11    1    3    3    0    0 -0.11424542087E+02  0.24278370881E+02  0.35710307017E+01  0.27068648194E+02  0.51100000000E-03 0.  1.
         12    1    3    3    0    0  0.29345973630E+01  0.27799329982E+01  0.22904636033E+01  0.46460857369E+01  0.00000000000E+00 0. -1.
</event>
<event>
 7    1  0.1265344E-009  0.4778727E+02  0.7816164E-02  0.1312668E+00
        -11   -1    0    0    0    0  0.00000000000E+00  0.00000000000E+00  0.45593999997E+02  0.45594000000E+02  0.51100000000E-03 0.  1.
         11   -1    0    0    0    0 -0.00000000000E+00 -0.00000000000E+00 -0.45593999997E+02  0.45594000000E+02  0.51100000000E-03 0. -1.
    9900012    2    1    2    0    0  0.11468993668E+02  0.22319196665E+02  0.35410999260E+02  0.47787271617E+02  0.20000002612E+02 0.  0.
         12    1    1    2    0    0 -0.11468993668E+02 -0.22319196665E+02 -0.35410999260E+02  0.43400728383E+02  0.00000000000E+00 0. -1.
         11    1    3    3    0    0  0.72056289812E+01  0.72784614370E+01  0.20828312036E+01  0.10451568111E+02  0.51100000000E-03 0. -1.
        -11    1    3    3    0    0 -0.15496256833E+01  0.43030207962E+01  0.79138779780E+01  0.91403934621E+01  0.51100000000E-03 0.  1.
         12    1    3    3    0    0  0.58129903704E+01  0.10737714431E+02  0.25414290079E+02  0.28195310044E+02  0.00000000000E+00 0. -1.
</event>
<event>
 7    1  0.1265344E-009  0.4778726E+02  0.7816164E-02  0.1312668E+00
        -11   -1    0    0    0    0  0.00000000000E+00  0.00000000000E+00  0.45593999997E+02  0.45594000000E+02  0.51100000000E-03 0.  1.
         11   -1    0    0    0    0 -0.00000000000E+00 -0.00000000000E+00 -0.45593999997E+02  0.45594000000E+02  0.51100000000E-03 0. -1.
    9900012    2    1    2    0    0 -0.16913438434E+02 -0.25295576383E+02  0.30946619325E+02  0.47787264616E+02  0.19999970690E+02 0.  0.
         12    1    1    2    0    0  0.16913438434E+02  0.25295576383E+02 -0.30946619325E+02  0.43400735384E+02  0.00000000000E+00 0. -1.
         11    1    3    3    0    0 -0.83762232959E+01 -0.58880007033E+01  0.72143208528E+01  0.12525018747E+02  0.51100000000E-03 0. -1.
        -11    1    3    3    0    0 -0.96124943588E+01 -0.16895832750E+02  0.11197871292E+02  0.22433491343E+02  0.51100000000E-03 0.  1.
         12    1    3    3    0    0  0.10752792209E+01 -0.25117429305E+01  0.12534427180E+02  0.12828754526E+02  0.00000000000E+00 0. -1.
</event>
<event>
 7    1  0.1265344E-009  0.4778727E+02  0.7816164E-02  0.1312668E+00
        -11   -1    0    0    0    0  0.00000000000E+00  0.00000000000E+00  0.45593999997E+02  0.45594000000E+02  0.51100000000E-03 0.  1.
         11   -1    0    0    0    0 -0.00000000000E+00 -0.00000000000E+00 -0.45593999997E+02  0.45594000000E+02  0.51100000000E-03 0. -1.
    9900012    2    1    2    0    0  0.52765475359E+01  0.40603353251E+02  0.14392680027E+02  0.47787268584E+02  0.19999988782E+02 0.  0.
         12    1    1    2    0    0 -0.52765475359E+01 -0.40603353251E+02 -0.14392680027E+02  0.43400731416E+02  0.00000000000E+00 0. -1.
         11    1    3    3    0    0 -0.27214979946E+01  0.84638350426E+00  0.20810612074E+01  0.35289846105E+01  0.51100000000E-03 0. -1.
        -11    1    3    3    0    0  0.32273580166E+01  0.18895376311E+02 -0.75584853701E+00  0.19183909741E+02  0.51100000000E-03 0.  1.
         12    1    3    3    0    0  0.47706875140E+01  0.20861593436E+02  0.13067467356E+02  0.25074374232E+02  0.00000000000E+00 0. -1.
</event>
<event>
 7    1  0.1527507E-009  0.4778729E+02  0.7816164E-02  0.1312668E+00
        -11   -1    0    0    0    0  0.00000000000E+00  0.00000000000E+00  0.45593999997E+02  0.45594000000E+02  0.51100000000E-03 0.  1.
         11   -1    0    0    0    0 -0.00000000000E+00 -0.00000000000E+00 -0.45593999997E+02  0.45594000000E+02  0.51100000000E-03 0. -1.
    9900012    2    1    2    0    0 -0.32553465739E+02 -0.26916668549E+01  0.28577058549E+02  0.47787291741E+02  0.20000094365E+02 0.  0.
         12    1    1    2    0    0  0.32553465739E+02  0.26916668549E+01 -0.28577058549E+02  0.43400708259E+02  0.00000000000E+00 0. -1.
         11    1    3    3    0    0 -0.83980860255E+01  0.22868048274E+01  0.44340423639E-02  0.87038695493E+01  0.51100000000E-03 0. -1.
        -11    1    3    3    0    0 -0.34599351954E+01 -0.18888191511E+01  0.11243796107E+02  0.11914769847E+02  0.51100000000E-03 0.  1.
        -12    1    3    3    0    0 -0.20695444518E+02 -0.30896525312E+01  0.17328828399E+02  0.27168652345E+02  0.00000000000E+00 0.  1.
</event>
<event>
 7    1  0.1265344E-009  0.4778727E+02  0.7816164E-02  0.1312668E+00
        -11   -1    0    0    0    0  0.00000000000E+00  0.00000000000E+00  0.45593999997E+02  0.45594000000E+02  0.51100000000E-03 0.  1.
         11   -1    0    0    0    0 -0.00000000000E+00 -0.00000000000E+00 -0.45593999997E+02  0.45594000000E+02  0.51100000000E-03 0. -1.
    9900012    2    1    2    0    0  0.34097641648E+02  0.11691620489E+02  0.24171890027E+02  0.47787269326E+02  0.19999992164E+02 0.  0.
         12    1    1    2    0    0 -0.34097641648E+02 -0.11691620489E+02 -0.24171890027E+02  0.43400730674E+02  0.00000000000E+00 0. -1.
         11    1    3    3    0    0  0.39699065248E+01  0.74756186405E+01  0.17935443763E+01  0.86522733178E+01  0.51100000000E-03 0. -1.
        -11    1    3    3    0    0  0.11551481715E+02 -0.29050162732E+00  0.30497880706E+01  0.11950829617E+02  0.51100000000E-03 0.  1.
        -12    1    3    3    0    0  0.18576253408E+02  0.45065034758E+01  0.19328557580E+02  0.27184166391E+02  0.00000000000E+00 0.  1.
</event>
<event>
 7    1  0.1265344E-009  0.4778727E+02  0.7816164E-02  0.1312668E+00
        -11   -1    0    0    0    0  0.00000000000E+00  0.00000000000E+00  0.45593999997E+02  0.45594000000E+02  0.51100000000E-03 0.  1.
         11   -1    0    0    0    0 -0.00000000000E+00 -0.00000000000E+00 -0.45593999997E+02  0.45594000000E+02  0.51100000000E-03 0. -1.
    9900012    2    1    2    0    0 -0.23240533095E+02 -0.27799177938E+02  0.23889462716E+02  0.47787273031E+02  0.20000009059E+02 0.  0.
         12    1    1    2    0    0  0.23240533095E+02  0.27799177938E+02 -0.23889462716E+02  0.43400726969E+02  0.00000000000E+00 0. -1.
         11    1    3    3    0    0 -0.91748680297E+01 -0.82852624450E+01  0.22057806506E+01  0.12557437863E+02  0.51100000000E-03 0. -1.
        -11    1    3    3    0    0 -0.11322519783E+02 -0.45649136696E+01  0.68805365531E+01  0.14013553246E+02  0.51100000000E-03 0.  1.
         12    1    3    3    0    0 -0.27431452818E+01 -0.14949001824E+02  0.14803145512E+02  0.21216281922E+02  0.00000000000E+00 0. -1.
</event>
<event>
 7    1  0.1265344E-009  0.4778727E+02  0.7816164E-02  0.1312668E+00
        -11   -1    0    0    0    0  0.00000000000E+00  0.00000000000E+00  0.45593999997E+02  0.45594000000E+02  0.51100000000E-03 0.  1.
         11   -1    0    0    0    0 -0.00000000000E+00 -0.00000000000E+00 -0.45593999997E+02  0.45594000000E+02  0.51100000000E-03 0. -1.
    9900012    2    1    2    0    0 -0.40503404938E+02 -0.13593159153E+02 -0.76369906009E+01  0.47787269444E+02  0.19999992704E+02 0.  0.
         12    1    1    2    0    0  0.40503404938E+02  0.13593159153E+02  0.76369906009E+01  0.43400730556E+02  0.00000000000E+00 0. -1.
         11    1    3    3    0    0 -0.27467224115E+01 -0.47339146284E+01  0.24272586484E+01  0.59871542925E+01  0.51100000000E-03 0. -1.
        -11    1    3    3    0    0 -0.19981434936E+02 -0.10282289018E+01 -0.18599581643E+00  0.20008737879E+02  0.51100000000E-03 0.  1.
        -12    1    3    3    0    0 -0.17775247590E+02 -0.78310156230E+01 -0.98782534329E+01  0.21791377273E+02  0.00000000000E+00 0.  1.
</event>
<event>
 7    1  0.1265344E-009  0.4778727E+02  0.7816164E-02  0.1312668E+00
        -11   -1    0    0    0    0  0.00000000000E+00  0.00000000000E+00  0.45593999997E+02  0.45594000000E+02  0.51100000000E-03 0.  1.
         11   -1    0    0    0    0 -0.00000000000E+00 -0.00000000000E+00 -0.45593999997E+02  0.45594000000E+02  0.51100000000E-03 0. -1.
    9900012    2    1    2    0    0 -0.19341524539E+02 -0.24844781117E+02  0.29870813863E+02  0.47787271422E+02  0.20000001723E+02 0.  0.
         12    1    1    2    0    0  0.19341524539E+02  0.24844781117E+02 -0.29870813863E+02  0.43400728578E+02  0.00000000000E+00 0. -1.
         11    1    3    3    0    0  0.12486883296E+01 -0.56701158998E+00  0.69650391276E+01  0.70987671463E+01  0.51100000000E-03 0. -1.
        -11    1    3    3    0    0 -0.85465456397E+01 -0.15942128869E+02  0.17226845764E+02  0.24979173935E+02  0.51100000000E-03 0.  1.
        -12    1    3    3    0    0 -0.12043667228E+02 -0.83356406581E+01  0.56789289713E+01  0.15709330341E+02  0.00000000000E+00 0.  1.
</event>
<event>
 7    1  0.1265344E-009  0.4778727E+02  0.7816164E-02  0.1312668E+00
        -11   -1    0    0    0    0  0.00000000000E+00  0.00000000000E+00  0.45593999997E+02  0.45594000000E+02  0.51100000000E-03 0.  1.
         11   -1    0    0    0    0 -0.00000000000E+00 -0.00000000000E+00 -0.45593999997E+02  0.45594000000E+02  0.51100000000E-03 0. -1.
    9900012    2    1    2    0    0  0.24359941486E+01 -0.32677519747E+02  0.28458196276E+02  0.47787270748E+02  0.19999998649E+02 0.  0.
         12    1    1    2    0    0 -0.24359941486E+01  0.32677519747E+02 -0.28458196276E+02  0.43400729252E+02  0.00000000000E+00 0. -1.
         11    1    3    3    0    0  0.11641631836E+01 -0.27197236048E+01  0.42848656957E+00  0.29892764017E+01  0.51100000000E-03 0. -1.
        -11    1    3    3    0    0  0.28672492295E+01 -0.85006045124E+01  0.19842995501E+02  0.21776727623E+02  0.51100000000E-03 0.  1.
        -12    1    3    3    0    0 -0.15954182645E+01 -0.21457191630E+02  0.81867142048E+01  0.23021266724E+02  0.00000000000E+00 0.  1.
</event>
<event>
 7    1  0.1265344E-009  0.4778727E+02  0.7816164E-02  0.1312668E+00
        -11   -1    0    0    0    0  0.00000000000E+00  0.00000000000E+00  0.45593999997E+02  0.45594000000E+02  0.51100000000E-03 0. -1.
         11   -1    0    0    0    0 -0.00000000000E+00 -0.00000000000E+00 -0.45593999997E+02  0.45594000000E+02  0.51100000000E-03 0.  1.
    9900012    2    1    2    0    0 -0.39008421817E+02 -0.17546440679E+02 -0.73544879787E+01  0.47787273663E+02  0.20000011937E+02 0.  0.
         12    1    1    2    0    0  0.39008421817E+02  0.17546440679E+02  0.73544879787E+01  0.43400726337E+02  0.00000000000E+00 0. -1.
         11    1    3    3    0    0 -0.17992058762E+02 -0.76700216529E+01 -0.11772241530E+02  0.22828251828E+02  0.51100000000E-03 0. -1.
        -11    1    3    3    0    0 -0.13956701451E+02 -0.27044627806E+01  0.70966259136E+00  0.14234017549E+02  0.51100000000E-03 0.  1.
         12    1    3    3    0    0 -0.70596616042E+01 -0.71719562458E+01  0.37080909595E+01  0.10725004285E+02  0.00000000000E+00 0. -1.
</event>
<event>
 7    1  0.1265344E-009  0.4778727E+02  0.7816164E-02  0.1312668E+00
        -11   -1    0    0    0    0  0.00000000000E+00  0.00000000000E+00  0.45593999997E+02  0.45594000000E+02  0.51100000000E-03 0.  1.
         11   -1    0    0    0    0 -0.00000000000E+00 -0.00000000000E+00 -0.45593999997E+02  0.45594000000E+02  0.51100000000E-03 0. -1.
    9900012    2    1    2    0    0 -0.18732013978E+02 -0.37052380411E+02 -0.12643421925E+02  0.47787270055E+02  0.19999995488E+02 0.  0.
         12    1    1    2    0    0  0.18732013978E+02  0.37052380411E+02  0.12643421925E+02  0.43400729945E+02  0.00000000000E+00 0. -1.
         11    1    3    3    0    0 -0.17504385605E+01 -0.89560478903E+00  0.17286105454E+01  0.26180599250E+01  0.51100000000E-03 0. -1.
        -11    1    3    3    0    0 -0.11827066448E+02 -0.23318275810E+02 -0.13673214333E+01  0.26181884112E+02  0.51100000000E-03 0.  1.
         12    1    3    3    0    0 -0.51545089692E+01 -0.12838499812E+02 -0.13004711037E+02  0.18987326017E+02  0.00000000000E+00 0. -1.
</event>
<event>
 7    1  0.1265344E-009  0.4778727E+02  0.7816164E-02  0.1312668E+00
        -11   -1    0    0    0    0  0.00000000000E+00  0.00000000000E+00  0.45593999997E+02  0.45594000000E+02  0.51100000000E-03 0.  1.
         11   -1    0    0    0    0 -0.00000000000E+00 -0.00000000000E+00 -0.45593999997E+02  0.45594000000E+02  0.51100000000E-03 0. -1.
    9900012    2    1    2    0    0  0.52897089448E+01  0.88861072222E+01  0.42150675894E+02  0.47787269585E+02  0.19999993345E+02 0.  0.
         12    1    1    2    0    0 -0.52897089448E+01 -0.88861072222E+01 -0.42150675894E+02  0.43400730415E+02  0.00000000000E+00 0. -1.
         11    1    3    3    0    0  0.25681791769E+01  0.53469684882E+01  0.62130993364E+01  0.85900069804E+01  0.51100000000E-03 0. -1.
        -11    1    3    3    0    0 -0.60349812951E+01  0.68210753384E-01  0.17143793517E+02  0.18175128840E+02  0.51100000000E-03 0.  1.
        -12    1    3    3    0    0  0.87565110630E+01  0.34709279806E+01  0.18793783040E+02  0.21022133764E+02  0.00000000000E+00 0.  1.
</event>
<event>
 7    1  0.1265344E-009  0.4778728E+02  0.7816164E-02  0.1312668E+00
        -11   -1    0    0    0    0  0.00000000000E+00  0.00000000000E+00  0.45593999997E+02  0.45594000000E+02  0.51100000000E-03 0. -1.
         11   -1    0    0    0    0 -0.00000000000E+00 -0.00000000000E+00 -0.45593999997E+02  0.45594000000E+02  0.51100000000E-03 0.  1.
    9900012    2    1    2    0    0  0.22826700544E+02 -0.30572657384E+02  0.20685176481E+02  0.47787283839E+02  0.20000058335E+02 0.  0.
         12    1    1    2    0    0 -0.22826700544E+02  0.30572657384E+02 -0.20685176481E+02  0.43400716161E+02  0.00000000000E+00 0. -1.
         11    1    3    3    0    0  0.10449647548E+02 -0.86350692096E+01  0.81391774686E+01  0.15811570582E+02  0.51100000000E-03 0. -1.
        -11    1    3    3    0    0  0.28671776899E+01 -0.18773550994E+02  0.10656384094E+02  0.21776718005E+02  0.51100000000E-03 0.  1.
         12    1    3    3    0    0  0.95098753066E+01 -0.31640371800E+01  0.18896149181E+01  0.10198995253E+02  0.00000000000E+00 0. -1.
</event>
<event>
 7    1  0.1265344E-009  0.4778727E+02  0.7816164E-02  0.1312668E+00
        -11   -1    0    0    0    0  0.00000000000E+00  0.00000000000E+00  0.45593999997E+02  0.45594000000E+02  0.51100000000E-03 0.  1.
         11   -1    0    0    0    0 -0.00000000000E+00 -0.00000000000E+00 -0.45593999997E+02  0.45594000000E+02  0.51100000000E-03 0. -1.
    9900012    2    1    2    0    0 -0.39533278068E+01  0.33258912445E+02  0.27601439210E+02  0.47787268391E+02  0.19999987900E+02 0.  0.
         12    1    1    2    0    0  0.39533278068E+01 -0.33258912445E+02 -0.27601439210E+02  0.43400731609E+02  0.00000000000E+00 0. -1.
         11    1    3    3    0    0  0.62879575383E+00  0.66576750580E+00 -0.14785520505E+01  0.17391799501E+01  0.51100000000E-03 0. -1.
        -11    1    3    3    0    0 -0.33793741131E+00  0.30404993332E+02  0.22094420667E+02  0.37586450299E+02  0.51100000000E-03 0.  1.
         12    1    3    3    0    0 -0.42441861493E+01  0.21881516077E+01  0.69855705926E+01  0.84616381412E+01  0.00000000000E+00 0. -1.
</event>
<event>
 7    1  0.1265344E-009  0.4778728E+02  0.7816164E-02  0.1312668E+00
        -11   -1    0    0    0    0  0.00000000000E+00  0.00000000000E+00  0.45593999997E+02  0.45594000000E+02  0.51100000000E-03 0.  1.
         11   -1    0    0    0    0 -0.00000000000E+00 -0.00000000000E+00 -0.45593999997E+02  0.45594000000E+02  0.51100000000E-03 0. -1.
    9900012    2    1    2    0    0  0.13854031814E+02  0.35219404455E+02  0.21243389670E+02  0.47787282813E+02  0.20000053660E+02 0.  0.
         12    1    1    2    0    0 -0.13854031814E+02 -0.35219404455E+02 -0.21243389670E+02  0.43400717187E+02  0.00000000000E+00 0. -1.
         11    1    3    3    0    0  0.17420631759E+01  0.22027726403E+00 -0.11751121783E+01  0.21128641875E+01  0.51100000000E-03 0. -1.
        -11    1    3    3    0    0  0.10102600516E+02  0.10264306869E+02  0.45826181045E+01  0.15113534386E+02  0.51100000000E-03 0.  1.
        -12    1    3    3    0    0  0.20093681217E+01  0.24734820322E+02  0.17835883744E+02  0.30560884240E+02  0.00000000000E+00 0.  1.
</event>
<event>
 7    1  0.1265344E-009  0.4778733E+02  0.7816164E-02  0.1312667E+00
        -11   -1    0    0    0    0  0.00000000000E+00  0.00000000000E+00  0.45593999997E+02  0.45594000000E+02  0.51100000000E-03 0.  1.
         11   -1    0    0    0    0 -0.00000000000E+00 -0.00000000000E+00 -0.45593999997E+02  0.45594000000E+02  0.51100000000E-03 0. -1.
    9900012    2    1    2    0    0  0.28901848988E+00  0.12113536940E+02  0.41674889649E+02  0.47787334842E+02  0.20000290877E+02 0.  0.
         12    1    1    2    0    0 -0.28901848988E+00 -0.12113536940E+02 -0.41674889649E+02  0.43400665158E+02  0.00000000000E+00 0. -1.
         11    1    3    3    0    0  0.44878269889E+00  0.10467010649E+02  0.28162492716E+02  0.30048056744E+02  0.51100000000E-03 0. -1.
        -11    1    3    3    0    0  0.17560150377E+01 -0.29639020726E+01  0.12056019201E+02  0.12538576616E+02  0.51100000000E-03 0.  1.
        -12    1    3    3    0    0 -0.19157792467E+01  0.46104283631E+01  0.14563777323E+01  0.52007014828E+01  0.00000000000E+00 0.  1.
</event>
<event>
 7    1  0.1265344E-009  0.4778727E+02  0.7816164E-02  0.1312668E+00
        -11   -1    0    0    0    0  0.00000000000E+00  0.00000000000E+00  0.45593999997E+02  0.45594000000E+02  0.51100000000E-03 0.  1.
         11   -1    0    0    0    0 -0.00000000000E+00 -0.00000000000E+00 -0.45593999997E+02  0.45594000000E+02  0.51100000000E-03 0. -1.
    9900012    2    1    2    0    0  0.29693799815E+02 -0.23846942433E+02  0.20814048766E+02  0.47787273774E+02  0.20000012447E+02 0.  0.
         12    1    1    2    0    0 -0.29693799815E+02  0.23846942433E+02 -0.20814048766E+02  0.43400726226E+02  0.00000000000E+00 0. -1.
         11    1    3    3    0    0  0.26358399720E+01 -0.95668239712E+01  0.48698468285E+01  0.11053831085E+02  0.51100000000E-03 0. -1.
        -11    1    3    3    0    0  0.61464332609E+01 -0.99569300728E+01  0.48106044328E+01  0.12651522184E+02  0.51100000000E-03 0.  1.
         12    1    3    3    0    0  0.20911526582E+02 -0.43231883894E+01  0.11133597505E+02  0.24081920506E+02  0.00000000000E+00 0. -1.
</event>
<event>
 7    1  0.1265344E-009  0.4778727E+02  0.7816164E-02  0.1312668E+00
        -11   -1    0    0    0    0  0.00000000000E+00  0.00000000000E+00  0.45593999997E+02  0.45594000000E+02  0.51100000000E-03 0.  1.
         11   -1    0    0    0    0 -0.00000000000E+00 -0.00000000000E+00 -0.45593999997E+02  0.45594000000E+02  0.51100000000E-03 0. -1.
    9900012    2    1    2    0    0  0.11401668835E+02 -0.19741750577E+02  0.36930865003E+02  0.47787267772E+02  0.19999985077E+02 0.  0.
         12    1    1    2    0    0 -0.11401668835E+02  0.19741750577E+02 -0.36930865003E+02  0.43400732228E+02  0.00000000000E+00 0. -1.
         11    1    3    3    0    0  0.16282796380E+01  0.17936481205E+01  0.80317317891E+00  0.25521668394E+01  0.51100000000E-03 0. -1.
        -11    1    3    3    0    0  0.46711277408E+01 -0.15361521780E+02  0.12686057680E+02  0.20462938340E+02  0.51100000000E-03 0.  1.
        -12    1    3    3    0    0  0.51022614559E+01 -0.61738769177E+01  0.23441634144E+02  0.24772162592E+02  0.00000000000E+00 0.  1.
</event>
<event>
 7    1  0.1265344E-009  0.4778727E+02  0.7816164E-02  0.1312668E+00
        -11   -1    0    0    0    0  0.00000000000E+00  0.00000000000E+00  0.45593999997E+02  0.45594000000E+02  0.51100000000E-03 0. -1.
         11   -1    0    0    0    0 -0.00000000000E+00 -0.00000000000E+00 -0.45593999997E+02  0.45594000000E+02  0.51100000000E-03 0.  1.
    9900012    2    1    2    0    0  0.18526356881E+02 -0.28350768198E+02 -0.27140954181E+02  0.47787270162E+02  0.19999995975E+02 0.  0.
         12    1    1    2    0    0 -0.18526356881E+02  0.28350768198E+02  0.27140954181E+02  0.43400729838E+02  0.00000000000E+00 0. -1.
         11    1    3    3    0    0  0.11551748026E+01 -0.57847025263E+01 -0.12578292167E+02  0.13892827151E+02  0.51100000000E-03 0. -1.
        -11    1    3    3    0    0  0.68023195531E+01 -0.45145247715E+01  0.40328393936E+00  0.81740518356E+01  0.51100000000E-03 0.  1.
         12    1    3    3    0    0  0.10568862525E+02 -0.18051540900E+02 -0.14965945953E+02  0.25720391175E+02  0.00000000000E+00 0. -1.
</event>
<event>
 7    1  0.1265344E-009  0.4778727E+02  0.7816164E-02  0.1312668E+00
        -11   -1    0    0    0    0  0.00000000000E+00  0.00000000000E+00  0.45593999997E+02  0.45594000000E+02  0.51100000000E-03 0.  1.
         11   -1    0    0    0    0 -0.00000000000E+00 -0.00000000000E+00 -0.45593999997E+02  0.45594000000E+02  0.51100000000E-03 0. -1.
    9900012    2    1    2    0    0  0.97552637299E+01 -0.30862452096E+02  0.28913096865E+02  0.47787270857E+02  0.19999999144E+02 0.  0.
         12    1    1    2    0    0 -0.97552637299E+01  0.30862452096E+02 -0.28913096865E+02  0.43400729143E+02  0.00000000000E+00 0. -1.
         11    1    3    3    0    0  0.96125415508E+01 -0.16479915797E+02  0.10799686947E+02  0.21923088700E+02  0.51100000000E-03 0. -1.
        -11    1    3    3    0    0  0.32201283039E+01 -0.11216967139E+02  0.63199511622E+01  0.13271449093E+02  0.51100000000E-03 0.  1.
         12    1    3    3    0    0 -0.30774061248E+01 -0.31655691607E+01  0.11793458756E+02  0.12592733063E+02  0.00000000000E+00 0. -1.
</event>
<event>
 7    1  0.1265344E-009  0.4778727E+02  0.7816164E-02  0.1312668E+00
        -11   -1    0    0    0    0  0.00000000000E+00  0.00000000000E+00  0.45593999997E+02  0.45594000000E+02  0.51100000000E-03 0.  1.
         11   -1    0    0    0    0 -0.00000000000E+00 -0.00000000000E+00 -0.45593999997E+02  0.45594000000E+02  0.51100000000E-03 0. -1.
    9900012    2    1    2    0    0  0.42419512196E+02 -0.34545317342E+01  0.85014330873E+01  0.47787272253E+02  0.20000005510E+02 0.  0.
         12    1    1    2    0    0 -0.42419512196E+02  0.34545317342E+01 -0.85014330873E+01  0.43400727747E+02  0.00000000000E+00 0. -1.
         11    1    3    3    0    0  0.12587309130E+01  0.40546266224E+01 -0.16216420106E+01  0.45446808062E+01  0.51100000000E-03 0. -1.
        -11    1    3    3    0    0  0.17787589392E+02 -0.11833988162E+01  0.42791536094E+01  0.18333300985E+02  0.51100000000E-03 0.  1.
        -12    1    3    3    0    0  0.23373191891E+02 -0.63257595403E+01  0.58439214885E+01  0.24909290462E+02  0.00000000000E+00 0.  1.
</event>
<event>
 7    1  0.1265344E-009  0.4778727E+02  0.7816164E-02  0.1312668E+00
        -11   -1    0    0    0    0  0.00000000000E+00  0.00000000000E+00  0.45593999997E+02  0.45594000000E+02  0.51100000000E-03 0. -1.
         11   -1    0    0    0    0 -0.00000000000E+00 -0.00000000000E+00 -0.45593999997E+02  0.45594000000E+02  0.51100000000E-03 0.  1.
    9900012    2    1    2    0    0 -0.32803168578E+02  0.27991156436E+02 -0.49061824112E+01  0.47787270361E+02  0.19999996883E+02 0.  0.
         12    1    1    2    0    0  0.32803168578E+02 -0.27991156436E+02  0.49061824112E+01  0.43400729639E+02  0.00000000000E+00 0. -1.
         11    1    3    3    0    0 -0.22166951045E+02  0.11504302884E+02  0.42916170535E+00  0.24978128103E+02  0.51100000000E-03 0. -1.
        -11    1    3    3    0    0 -0.99801401272E+01  0.14939319308E+02 -0.81312949734E+00  0.17984650071E+02  0.51100000000E-03 0.  1.
        -12    1    3    3    0    0 -0.65607740549E+00  0.15475342434E+01 -0.45222146192E+01  0.48244921866E+01  0.00000000000E+00 0.  1.
</event>
<event>
 7    1  0.1265344E-009  0.4778727E+02  0.7816164E-02  0.1312668E+00
        -11   -1    0    0    0    0  0.00000000000E+00  0.00000000000E+00  0.45593999997E+02  0.45594000000E+02  0.51100000000E-03 0.  1.
         11   -1    0    0    0    0 -0.00000000000E+00 -0.00000000000E+00 -0.45593999997E+02  0.45594000000E+02  0.51100000000E-03 0. -1.
    9900012    2    1    2    0    0  0.23548534215E+02  0.29855052435E+02  0.20922854004E+02  0.47787269139E+02  0.19999991312E+02 0.  0.
         12    1    1    2    0    0 -0.23548534215E+02 -0.29855052435E+02 -0.20922854004E+02  0.43400730861E+02  0.00000000000E+00 0. -1.
         11    1    3    3    0    0  0.53156890710E+01  0.69133235656E+01 -0.17338441542E+00  0.87224225671E+01  0.51100000000E-03 0.  1.
        -11    1    3    3    0    0  0.18440688199E+02  0.23848146579E+02  0.22333044613E+02  0.37517435392E+02  0.51100000000E-03 0. -1.
         12    1    3    3    0    0 -0.20784305503E+00 -0.90641770886E+00 -0.12368061933E+01  0.15474111794E+01  0.00000000000E+00 0. -1.
</event>
<event>
 7    1  0.1265344E-009  0.4778727E+02  0.7816164E-02  0.1312668E+00
        -11   -1    0    0    0    0  0.00000000000E+00  0.00000000000E+00  0.45593999997E+02  0.45594000000E+02  0.51100000000E-03 0. -1.
         11   -1    0    0    0    0 -0.00000000000E+00 -0.00000000000E+00 -0.45593999997E+02  0.45594000000E+02  0.51100000000E-03 0.  1.
    9900012    2    1    2    0    0  0.71377972977E+00 -0.43032906187E+02 -0.55931160604E+01  0.47787269088E+02  0.19999991081E+02 0.  0.
         12    1    1    2    0    0 -0.71377972977E+00  0.43032906187E+02  0.55931160604E+01  0.43400730912E+02  0.00000000000E+00 0. -1.
         11    1    3    3    0    0  0.68498961473E+01 -0.86893219925E+01  0.13642423941E+01  0.11148387843E+02  0.51100000000E-03 0. -1.
        -11    1    3    3    0    0  0.60089484965E+00  0.10116613614E+00 -0.79970152693E+00  0.10054014127E+01  0.51100000000E-03 0.  1.
        -12    1    3    3    0    0 -0.67370112672E+01 -0.34444750331E+02 -0.61576569276E+01  0.35633479833E+02  0.00000000000E+00 0.  1.
</event>
<event>
 7    1  0.1265344E-009  0.4778726E+02  0.7816164E-02  0.1312668E+00
        -11   -1    0    0    0    0  0.00000000000E+00  0.00000000000E+00  0.45593999997E+02  0.45594000000E+02  0.51100000000E-03 0.  1.
         11   -1    0    0    0    0 -0.00000000000E+00 -0.00000000000E+00 -0.45593999997E+02  0.45594000000E+02  0.51100000000E-03 0. -1.
    9900012    2    1    2    0    0  0.24503231732E+02  0.15456302052E+02  0.32315915603E+02  0.47787262221E+02  0.19999959772E+02 0.  0.
         12    1    1    2    0    0 -0.24503231732E+02 -0.15456302052E+02 -0.32315915603E+02  0.43400737779E+02  0.00000000000E+00 0. -1.
         11    1    3    3    0    0  0.28840065911E+01  0.81396018432E+01  0.33789519904E+01  0.92729676479E+01  0.51100000000E-03 0.  1.
        -11    1    3    3    0    0  0.21193976427E+02  0.44470896887E+01  0.21430708488E+02  0.30466974087E+02  0.51100000000E-03 0. -1.
         12    1    3    3    0    0  0.42524871413E+00  0.28696105206E+01  0.75062551249E+01  0.80473204862E+01  0.00000000000E+00 0. -1.
</event>
<event>
 7    1  0.1265344E-009  0.4778727E+02  0.7816164E-02  0.1312668E+00
        -11   -1    0    0    0    0  0.00000000000E+00  0.00000000000E+00  0.45593999997E+02  0.45594000000E+02  0.51100000000E-03 0. -1.
         11   -1    0    0    0    0 -0.00000000000E+00 -0.00000000000E+00 -0.45593999997E+02  0.45594000000E+02  0.51100000000E-03 0.  1.
    9900012    2    1    2    0    0  0.10199300201E+02 -0.40195455215E+02 -0.12803240387E+02  0.47787270640E+02  0.19999998158E+02 0.  0.
         12    1    1    2    0    0 -0.10199300201E+02  0.40195455215E+02  0.12803240387E+02  0.43400729360E+02  0.00000000000E+00 0. -1.
         11    1    3    3    0    0  0.14350057460E+01 -0.25649523420E+02 -0.56534676906E+01  0.26304353068E+02  0.51100000000E-03 0. -1.
        -11    1    3    3    0    0  0.50579932412E+01 -0.63018561934E+01  0.23046607230E+01  0.84028654887E+01  0.51100000000E-03 0.  1.
         12    1    3    3    0    0  0.37063012141E+01 -0.82440756017E+01 -0.94544334195E+01  0.13080052083E+02  0.00000000000E+00 0. -1.
</event>
<event>
 7    1  0.1265344E-009  0.4778728E+02  0.7816164E-02  0.1312668E+00
        -11   -1    0    0    0    0  0.00000000000E+00  0.00000000000E+00  0.45593999997E+02  0.45594000000E+02  0.51100000000E-03 0.  1.
         11   -1    0    0    0    0 -0.00000000000E+00 -0.00000000000E+00 -0.45593999997E+02  0.45594000000E+02  0.51100000000E-03 0. -1.
    9900012    2    1    2    0    0 -0.42728925301E+02  0.41998270944E+00  0.75950718398E+01  0.47787279279E+02  0.20000037546E+02 0.  0.
         12    1    1    2    0    0  0.42728925301E+02 -0.41998270944E+00 -0.75950718398E+01  0.43400720721E+02  0.00000000000E+00 0. -1.
         11    1    3    3    0    0  0.40498998637E+00  0.79222730043E+00  0.12104424297E+00  0.89793816852E+00  0.51100000000E-03 0. -1.
        -11    1    3    3    0    0 -0.46488395057E+01  0.31829236232E+01  0.59734842439E+01  0.82112864896E+01  0.51100000000E-03 0.  1.
        -12    1    3    3    0    0 -0.38485075781E+02 -0.35551682141E+01  0.15005433529E+01  0.38678054621E+02  0.00000000000E+00 0.  1.
</event>
<event>
 7    1  0.1265344E-009  0.4778727E+02  0.7816164E-02  0.1312668E+00
        -11   -1    0    0    0    0  0.00000000000E+00  0.00000000000E+00  0.45593999997E+02  0.45594000000E+02  0.51100000000E-03 0.  1.
         11   -1    0    0    0    0 -0.00000000000E+00 -0.00000000000E+00 -0.45593999997E+02  0.45594000000E+02  0.51100000000E-03 0. -1.
    9900012    2    1    2    0    0  0.35266220940E+01 -0.38773849463E+02  0.19177456796E+02  0.47787270574E+02  0.19999997855E+02 0.  0.
         12    1    1    2    0    0 -0.35266220940E+01  0.38773849463E+02 -0.19177456796E+02  0.43400729426E+02  0.00000000000E+00 0. -1.
         11    1    3    3    0    0  0.31571338589E+01  0.25513444794E+00 -0.25873427423E-01  0.31675317654E+01  0.51100000000E-03 0.  1.
        -11    1    3    3    0    0 -0.20481227647E+01 -0.12127235916E+01  0.10241707184E+01  0.25912219686E+01  0.51100000000E-03 0. -1.
        -12    1    3    3    0    0  0.24176109999E+01 -0.37816260319E+02  0.18179159505E+02  0.42028516840E+02  0.00000000000E+00 0.  1.
</event>
<event>
 7    1  0.1265344E-009  0.4778728E+02  0.7816164E-02  0.1312668E+00
        -11   -1    0    0    0    0  0.00000000000E+00  0.00000000000E+00  0.45593999997E+02  0.45594000000E+02  0.51100000000E-03 0.  1.
         11   -1    0    0    0    0 -0.00000000000E+00 -0.00000000000E+00 -0.45593999997E+02  0.45594000000E+02  0.51100000000E-03 0. -1.
    9900012    2    1    2    0    0 -0.42312098658E+02  0.40142396060E+01  0.87860694406E+01  0.47787276174E+02  0.20000023386E+02 0.  0.
         12    1    1    2    0    0  0.42312098658E+02 -0.40142396060E+01 -0.87860694406E+01  0.43400723826E+02  0.00000000000E+00 0. -1.
         11    1    3    3    0    0 -0.47624510801E+01 -0.29686719865E+01  0.47810338187E+01  0.73723970519E+01  0.51100000000E-03 0. -1.
        -11    1    3    3    0    0 -0.27490366152E+02  0.49531527988E+01  0.85200691796E+01  0.29203519187E+02  0.51100000000E-03 0.  1.
        -12    1    3    3    0    0 -0.10059281425E+02  0.20297587937E+01 -0.45150335577E+01  0.11211359935E+02  0.00000000000E+00 0.  1.
</event>
<event>
 7    1  0.1265344E-009  0.4778727E+02  0.7816164E-02  0.1312668E+00
        -11   -1    0    0    0    0  0.00000000000E+00  0.00000000000E+00  0.45593999997E+02  0.45594000000E+02  0.51100000000E-03 0.  1.
         11   -1    0    0    0    0 -0.00000000000E+00 -0.00000000000E+00 -0.45593999997E+02  0.45594000000E+02  0.51100000000E-03 0. -1.
    9900012    2    1    2    0    0 -0.37000000642E+02  0.19531140620E+02  0.11539405747E+02  0.47787269748E+02  0.19999994087E+02 0.  0.
         12    1    1    2    0    0  0.37000000642E+02 -0.19531140620E+02 -0.11539405747E+02  0.43400730252E+02  0.00000000000E+00 0. -1.
         11    1    3    3    0    0 -0.12075919670E+02  0.72939933006E+01  0.55398461361E+01  0.15156519047E+02  0.51100000000E-03 0. -1.
        -11    1    3    3    0    0 -0.20435684569E+02  0.11459339792E+02  0.10985752659E+02  0.25877025215E+02  0.51100000000E-03 0.  1.
         12    1    3    3    0    0 -0.44883964039E+01  0.77780752790E+00 -0.49861930477E+01  0.67537254858E+01  0.00000000000E+00 0. -1.
</event>
<event>
 7    1  0.1265344E-009  0.4778727E+02  0.7816164E-02  0.1312668E+00
        -11   -1    0    0    0    0  0.00000000000E+00  0.00000000000E+00  0.45593999997E+02  0.45594000000E+02  0.51100000000E-03 0.  1.
         11   -1    0    0    0    0 -0.00000000000E+00 -0.00000000000E+00 -0.45593999997E+02  0.45594000000E+02  0.51100000000E-03 0. -1.
    9900012    2    1    2    0    0 -0.25369406525E+02 -0.26264419271E+02  0.23456278366E+02  0.47787268417E+02  0.19999988022E+02 0.  0.
         12    1    1    2    0    0  0.25369406525E+02  0.26264419271E+02 -0.23456278366E+02  0.43400731583E+02  0.00000000000E+00 0. -1.
         11    1    3    3    0    0 -0.21292107283E+01 -0.49337800477E+01  0.13115495103E+02  0.14173635241E+02  0.51100000000E-03 0. -1.
        -11    1    3    3    0    0 -0.11350287566E+02 -0.91888541265E+01  0.73847256576E+01  0.16364542196E+02  0.51100000000E-03 0.  1.
         12    1    3    3    0    0 -0.11889908231E+02 -0.12141785097E+02  0.29560576061E+01  0.17249090980E+02  0.00000000000E+00 0. -1.
</event>
<event>
 7    1  0.1265344E-009  0.4778727E+02  0.7816164E-02  0.1312668E+00
        -11   -1    0    0    0    0  0.00000000000E+00  0.00000000000E+00  0.45593999997E+02  0.45594000000E+02  0.51100000000E-03 0.  1.
         11   -1    0    0    0    0 -0.00000000000E+00 -0.00000000000E+00 -0.45593999997E+02  0.45594000000E+02  0.51100000000E-03 0. -1.
    9900012    2    1    2    0    0  0.22532984677E+02  0.98837206887E+01  0.35751920815E+02  0.47787272183E+02  0.20000005190E+02 0.  0.
         12    1    1    2    0    0 -0.22532984677E+02 -0.98837206887E+01 -0.35751920815E+02  0.43400727817E+02  0.00000000000E+00 0. -1.
         11    1    3    3    0    0 -0.66619767707E+00 -0.49368744058E+00  0.13692114950E+02  0.13717199375E+02  0.51100000000E-03 0. -1.
        -11    1    3    3    0    0  0.11267342741E+02  0.45076992333E+01  0.13970783066E+02  0.18505543617E+02  0.51100000000E-03 0.  1.
         12    1    3    3    0    0  0.11931839614E+02  0.58697088960E+01  0.80890227989E+01  0.15564529191E+02  0.00000000000E+00 0. -1.
</event>
<event>
 7    1  0.1265344E-009  0.4778726E+02  0.7816164E-02  0.1312668E+00
        -11   -1    0    0    0    0  0.00000000000E+00  0.00000000000E+00  0.45593999997E+02  0.45594000000E+02  0.51100000000E-03 0.  1.
         11   -1    0    0    0    0 -0.00000000000E+00 -0.00000000000E+00 -0.45593999997E+02  0.45594000000E+02  0.51100000000E-03 0. -1.
    9900012    2    1    2    0    0  0.38766091891E+02 -0.10162555180E+02  0.16659427417E+02  0.47787263483E+02  0.19999965526E+02 0.  0.
         12    1    1    2    0    0 -0.38766091891E+02  0.10162555180E+02 -0.16659427417E+02  0.43400736517E+02  0.00000000000E+00 0. -1.
         11    1    3    3    0    0  0.13016256671E+02 -0.11350966491E+02  0.56008955621E+01  0.18155919403E+02  0.51100000000E-03 0.  1.
        -11    1    3    3    0    0  0.11668374331E+02  0.26551321185E+00 -0.50767392567E-01  0.11671505232E+02  0.51100000000E-03 0. -1.
        -12    1    3    3    0    0  0.14081460889E+02  0.92289809901E+00  0.11109299248E+02  0.17959838848E+02  0.00000000000E+00 0.  1.
</event>
<event>
 7    1  0.1265344E-009  0.4778727E+02  0.7816164E-02  0.1312668E+00
        -11   -1    0    0    0    0  0.00000000000E+00  0.00000000000E+00  0.45593999997E+02  0.45594000000E+02  0.51100000000E-03 0.  1.
         11   -1    0    0    0    0 -0.00000000000E+00 -0.00000000000E+00 -0.45593999997E+02  0.45594000000E+02  0.51100000000E-03 0. -1.
    9900012    2    1    2    0    0 -0.38162689527E+01  0.18498008317E+02  0.39075349397E+02  0.47787272461E+02  0.20000006457E+02 0.  0.
         12    1    1    2    0    0  0.38162689527E+01 -0.18498008317E+02 -0.39075349397E+02  0.43400727539E+02  0.00000000000E+00 0. -1.
         11    1    3    3    0    0  0.71061488665E+00  0.12752763838E+02  0.21080423280E+02  0.24647965534E+02  0.51100000000E-03 0. -1.
        -11    1    3    3    0    0  0.86613072270E+00  0.55619270378E+01  0.16653298441E+02  0.17578895416E+02  0.51100000000E-03 0.  1.
         12    1    3    3    0    0 -0.53930145620E+01  0.18331744122E+00  0.13416276761E+01  0.55604115110E+01  0.00000000000E+00 0. -1.
</event>
<event>
 7    1  0.1265344E-009  0.4778727E+02  0.7816164E-02  0.1312668E+00
        -11   -1    0    0    0    0  0.00000000000E+00  0.00000000000E+00  0.45593999997E+02  0.45594000000E+02  0.51100000000E-03 0.  1.
         11   -1    0    0    0    0 -0.00000000000E+00 -0.00000000000E+00 -0.45593999997E+02  0.45594000000E+02  0.51100000000E-03 0. -1.
    9900012    2    1    2    0    0  0.41008975549E+01  0.40636925186E+02  0.14678102322E+02  0.47787265708E+02  0.19999975669E+02 0.  0.
         12    1    1    2    0    0 -0.41008975549E+01 -0.40636925186E+02 -0.14678102322E+02  0.43400734292E+02  0.00000000000E+00 0. -1.
         11    1    3    3    0    0 -0.14277659613E+01  0.13005399988E+02  0.94193007883E+01  0.16121481696E+02  0.51100000000E-03 0. -1.
        -11    1    3    3    0    0 -0.99619964137E+00  0.12089744098E+02 -0.35600217996E+01  0.12642313141E+02  0.51100000000E-03 0.  1.
         12    1    3    3    0    0  0.65248631576E+01  0.15541781100E+02  0.88188233334E+01  0.19023470871E+02  0.00000000000E+00 0. -1.
</event>
<event>
 7    1  0.1265344E-009  0.4778726E+02  0.7816164E-02  0.1312668E+00
        -11   -1    0    0    0    0  0.00000000000E+00  0.00000000000E+00  0.45593999997E+02  0.45594000000E+02  0.51100000000E-03 0.  1.
         11   -1    0    0    0    0 -0.00000000000E+00 -0.00000000000E+00 -0.45593999997E+02  0.45594000000E+02  0.51100000000E-03 0. -1.
    9900012    2    1    2    0    0 -0.28871978798E+02  0.13490211561E+02  0.29462638003E+02  0.47787262613E+02  0.19999961558E+02 0.  0.
         12    1    1    2    0    0  0.28871978798E+02 -0.13490211561E+02 -0.29462638003E+02  0.43400737387E+02  0.00000000000E+00 0. -1.
         11    1    3    3    0    0 -0.22092551618E+02  0.30366916091E+01  0.11976112385E+02  0.25312637181E+02  0.51100000000E-03 0. -1.
        -11    1    3    3    0    0 -0.66948288110E+01  0.80213778412E+01  0.94853105505E+01  0.14111497149E+02  0.51100000000E-03 0.  1.
         12    1    3    3    0    0 -0.84598368458E-01  0.24321421104E+01  0.80012150674E+01  0.83631282833E+01  0.00000000000E+00 0. -1.
</event>
<event>
 7    1  0.1265344E-009  0.4778729E+02  0.7816164E-02  0.1312668E+00
        -11   -1    0    0    0    0  0.00000000000E+00  0.00000000000E+00  0.45593999997E+02  0.45594000000E+02  0.51100000000E-03 0. -1.
         11   -1    0    0    0    0 -0.00000000000E+00 -0.00000000000E+00 -0.45593999997E+02  0.45594000000E+02  0.51100000000E-03 0.  1.
    9900012    2    1    2    0    0  0.19160934401E+02  0.31906617736E+02 -0.22325941006E+02  0.47787293736E+02  0.20000103459E+02 0.  0.
         12    1    1    2    0    0 -0.19160934401E+02 -0.31906617736E+02  0.22325941006E+02  0.43400706264E+02  0.00000000000E+00 0. -1.
         11    1    3    3    0    0  0.20628194056E+01  0.31427955238E+01 -0.11504755724E+02  0.12103379368E+02  0.51100000000E-03 0. -1.
        -11    1    3    3    0    0  0.77688649918E+01  0.75692540089E+01 -0.34333823158E+01  0.11377037571E+02  0.51100000000E-03 0.  1.
         12    1    3    3    0    0  0.93292500036E+01  0.21194568203E+02 -0.73878029661E+01  0.24306876796E+02  0.00000000000E+00 0. -1.
</event>
<event>
 7    1  0.1265344E-009  0.4778727E+02  0.7816164E-02  0.1312668E+00
        -11   -1    0    0    0    0  0.00000000000E+00  0.00000000000E+00  0.45593999997E+02  0.45594000000E+02  0.51100000000E-03 0.  1.
         11   -1    0    0    0    0 -0.00000000000E+00 -0.00000000000E+00 -0.45593999997E+02  0.45594000000E+02  0.51100000000E-03 0. -1.
    9900012    2    1    2    0    0  0.29572554283E+01 -0.43011850896E+02  0.49858501638E+01  0.47787269833E+02  0.19999994477E+02 0.  0.
         12    1    1    2    0    0 -0.29572554283E+01  0.43011850896E+02 -0.49858501638E+01  0.43400730167E+02  0.00000000000E+00 0. -1.
         11    1    3    3    0    0 -0.47568908769E+01 -0.26553488923E+01  0.15960414014E+01  0.56768157422E+01  0.51100000000E-03 0. -1.
        -11    1    3    3    0    0  0.37343942682E+01 -0.13889092223E+02 -0.27679283825E+01  0.14646296840E+02  0.51100000000E-03 0.  1.
        -12    1    3    3    0    0  0.39797520370E+01 -0.26467409780E+02  0.61577371449E+01  0.27464157251E+02  0.00000000000E+00 0.  1.
</event>
<event>
 7    1  0.1265344E-009  0.4778728E+02  0.7816164E-02  0.1312668E+00
        -11   -1    0    0    0    0  0.00000000000E+00  0.00000000000E+00  0.45593999997E+02  0.45594000000E+02  0.51100000000E-03 0.  1.
         11   -1    0    0    0    0 -0.00000000000E+00 -0.00000000000E+00 -0.45593999997E+02  0.45594000000E+02  0.51100000000E-03 0. -1.
    9900012    2    1    2    0    0  0.18545203409E+02 -0.29252517109E+02  0.26153167098E+02  0.47787280237E+02  0.20000041912E+02 0.  0.
         12    1    1    2    0    0 -0.18545203409E+02  0.29252517109E+02 -0.26153167098E+02  0.43400719763E+02  0.00000000000E+00 0. -1.
         11    1    3    3    0    0  0.34483486648E+01 -0.73071041622E+01  0.86139693591E+00  0.81256928747E+01  0.51100000000E-03 0. -1.
        -11    1    3    3    0    0  0.13109949886E+02 -0.80892748385E+01  0.18586714818E+02  0.24140694303E+02  0.51100000000E-03 0.  1.
        -12    1    3    3    0    0  0.19869048588E+01 -0.13856138109E+02  0.67050553433E+01  0.15520893059E+02  0.00000000000E+00 0.  1.
</event>
<event>
 7    1  0.1265344E-009  0.4778727E+02  0.7816164E-02  0.1312668E+00
        -11   -1    0    0    0    0  0.00000000000E+00  0.00000000000E+00  0.45593999997E+02  0.45594000000E+02  0.51100000000E-03 0. -1.
         11   -1    0    0    0    0 -0.00000000000E+00 -0.00000000000E+00 -0.45593999997E+02  0.45594000000E+02  0.51100000000E-03 0.  1.
    9900012    2    1    2    0    0 -0.35088130306E+02  0.18944928012E+02 -0.17132894594E+02  0.47787271170E+02  0.20000000574E+02 0.  0.
         12    1    1    2    0    0  0.35088130306E+02 -0.18944928012E+02  0.17132894594E+02  0.43400728830E+02  0.00000000000E+00 0. -1.
         11    1    3    3    0    0 -0.72315560693E+00 -0.18335520903E+01 -0.19688662533E+01  0.27859113202E+01  0.51100000000E-03 0. -1.
        -11    1    3    3    0    0 -0.27883464079E+02  0.11460568453E+02 -0.14946891673E+02  0.33648800414E+02  0.51100000000E-03 0.  1.
        -12    1    3    3    0    0 -0.64815106197E+01  0.93179116495E+01 -0.21713666753E+00  0.11352559436E+02  0.00000000000E+00 0.  1.
</event>
<event>
 7    1  0.1265344E-009  0.4778728E+02  0.7816164E-02  0.1312668E+00
        -11   -1    0    0    0    0  0.00000000000E+00  0.00000000000E+00  0.45593999997E+02  0.45594000000E+02  0.51100000000E-03 0.  1.
         11   -1    0    0    0    0 -0.00000000000E+00 -0.00000000000E+00 -0.45593999997E+02  0.45594000000E+02  0.51100000000E-03 0. -1.
    9900012    2    1    2    0    0 -0.24187491203E+02 -0.16728304129E+02  0.31917890565E+02  0.47787278487E+02  0.20000033935E+02 0.  0.
         12    1    1    2    0    0  0.24187491203E+02  0.16728304129E+02 -0.31917890565E+02  0.43400721513E+02  0.00000000000E+00 0. -1.
         11    1    3    3    0    0  0.24224758822E+00 -0.35745790759E+01  0.78320677518E+01  0.86126409999E+01  0.51100000000E-03 0. -1.
        -11    1    3    3    0    0 -0.69624905107E+01  0.12740086961E+01  0.10794747697E+02  0.12908367456E+02  0.51100000000E-03 0.  1.
         12    1    3    3    0    0 -0.17467248280E+02 -0.14427733750E+02  0.13291075115E+02  0.26266270031E+02  0.00000000000E+00 0. -1.
</event>
<event>
 7    1  0.1265344E-009  0.4778729E+02  0.7816164E-02  0.1312668E+00
        -11   -1    0    0    0    0  0.00000000000E+00  0.00000000000E+00  0.45593999997E+02  0.45594000000E+02  0.51100000000E-03 0.  1.
         11   -1    0    0    0    0 -0.00000000000E+00 -0.00000000000E+00 -0.45593999997E+02  0.45594000000E+02  0.51100000000E-03 0. -1.
    9900012    2    1    2    0    0  0.10036636023E+02 -0.42109372807E+02 -0.31125362564E+01  0.47787294674E+02  0.20000107735E+02 0.  0.
         12    1    1    2    0    0 -0.10036636023E+02  0.42109372807E+02  0.31125362564E+01  0.43400705326E+02  0.00000000000E+00 0. -1.
         11    1    3    3    0    0  0.42933632572E+01 -0.40261180317E+01 -0.50380932985E+01  0.77475788998E+01  0.51100000000E-03 0. -1.
        -11    1    3    3    0    0  0.13977601925E+01 -0.13233780474E+02 -0.44290446885E+01  0.14025088816E+02  0.51100000000E-03 0.  1.
         12    1    3    3    0    0  0.43455125730E+01 -0.24849474301E+02  0.63546017306E+01  0.26014626957E+02  0.00000000000E+00 0. -1.
</event>
<event>
 7    1  0.1265344E-009  0.4778727E+02  0.7816164E-02  0.1312668E+00
        -11   -1    0    0    0    0  0.00000000000E+00  0.00000000000E+00  0.45593999997E+02  0.45594000000E+02  0.51100000000E-03 0. -1.
         11   -1    0    0    0    0 -0.00000000000E+00 -0.00000000000E+00 -0.45593999997E+02  0.45594000000E+02  0.51100000000E-03 0.  1.
    9900012    2    1    2    0    0  0.29739703125E+02 -0.25946572207E+02  0.18054052146E+02  0.47787270166E+02  0.19999995994E+02 0.  0.
         12    1    1    2    0    0 -0.29739703125E+02  0.25946572207E+02 -0.18054052146E+02  0.43400729834E+02  0.00000000000E+00 0. -1.
         11    1    3    3    0    0  0.14869131613E+02 -0.79054667871E+01  0.27818180629E+01  0.17068274431E+02  0.51100000000E-03 0. -1.
        -11    1    3    3    0    0  0.15491037567E+02 -0.18886131543E+02  0.11868188673E+02  0.27157174231E+02  0.51100000000E-03 0.  1.
         12    1    3    3    0    0 -0.62046605479E+00  0.84502612325E+00  0.34040454101E+01  0.35618215043E+01  0.00000000000E+00 0. -1.
</event>
<event>
 7    1  0.1265344E-009  0.4778727E+02  0.7816164E-02  0.1312668E+00
        -11   -1    0    0    0    0  0.00000000000E+00  0.00000000000E+00  0.45593999997E+02  0.45594000000E+02  0.51100000000E-03 0.  1.
         11   -1    0    0    0    0 -0.00000000000E+00 -0.00000000000E+00 -0.45593999997E+02  0.45594000000E+02  0.51100000000E-03 0. -1.
    9900012    2    1    2    0    0  0.15525574380E+02 -0.33032223243E+02  0.23483011424E+02  0.47787273535E+02  0.20000011354E+02 0.  0.
         12    1    1    2    0    0 -0.15525574380E+02  0.33032223243E+02 -0.23483011424E+02  0.43400726465E+02  0.00000000000E+00 0. -1.
         11    1    3    3    0    0  0.84207908527E+01 -0.64045900553E+01  0.12824290517E+02  0.16625008869E+02  0.51100000000E-03 0. -1.
        -11    1    3    3    0    0  0.90090934115E+01 -0.15130395065E+02  0.58572168574E+01  0.18558006588E+02  0.51100000000E-03 0.  1.
        -12    1    3    3    0    0 -0.19043098839E+01 -0.11497238122E+02  0.48015040493E+01  0.12604258078E+02  0.00000000000E+00 0.  1.
</event>
<event>
 7    1  0.1265344E-009  0.4778731E+02  0.7816164E-02  0.1312668E+00
        -11   -1    0    0    0    0  0.00000000000E+00  0.00000000000E+00  0.45593999997E+02  0.45594000000E+02  0.51100000000E-03 0.  1.
         11   -1    0    0    0    0 -0.00000000000E+00 -0.00000000000E+00 -0.45593999997E+02  0.45594000000E+02  0.51100000000E-03 0. -1.
    9900012    2    1    2    0    0  0.74063854763E+01  0.94843109192E+01  0.41699075583E+02  0.47787313324E+02  0.20000192770E+02 0.  0.
         12    1    1    2    0    0 -0.74063854763E+01 -0.94843109192E+01 -0.41699075583E+02  0.43400686676E+02  0.00000000000E+00 0. -1.
         11    1    3    3    0    0 -0.32775344109E+01  0.64362083344E+01  0.48541318485E+01  0.87022758978E+01  0.51100000000E-03 0. -1.
        -11    1    3    3    0    0  0.66793389760E+01  0.38924854169E+01  0.15161021962E+02  0.17018272506E+02  0.51100000000E-03 0.  1.
        -12    1    3    3    0    0  0.40045809112E+01 -0.84438283206E+00  0.21683921772E+02  0.22066764921E+02  0.00000000000E+00 0.  1.
</event>
<event>
 7    1  0.1265344E-009  0.4778727E+02  0.7816164E-02  0.1312668E+00
        -11   -1    0    0    0    0  0.00000000000E+00  0.00000000000E+00  0.45593999997E+02  0.45594000000E+02  0.51100000000E-03 0.  1.
         11   -1    0    0    0    0 -0.00000000000E+00 -0.00000000000E+00 -0.45593999997E+02  0.45594000000E+02  0.51100000000E-03 0. -1.
    9900012    2    1    2    0    0 -0.28283421602E+02  0.84320852454E+01  0.31820921971E+02  0.47787273345E+02  0.20000010490E+02 0.  0.
         12    1    1    2    0    0  0.28283421602E+02 -0.84320852454E+01 -0.31820921971E+02  0.43400726655E+02  0.00000000000E+00 0. -1.
         11    1    3    3    0    0 -0.15460195980E+02  0.47075065521E+01  0.16351417365E+02  0.22990152844E+02  0.51100000000E-03 0.  1.
        -11    1    3    3    0    0 -0.10529474915E+02  0.71633850112E+01  0.52528635292E+01  0.13775939254E+02  0.51100000000E-03 0. -1.
        -12    1    3    3    0    0 -0.22937507063E+01 -0.34388063179E+01  0.10216641076E+02  0.11021181247E+02  0.00000000000E+00 0.  1.
</event>
<event>
 7    1  0.1265344E-009  0.4778727E+02  0.7816164E-02  0.1312668E+00
        -11   -1    0    0    0    0  0.00000000000E+00  0.00000000000E+00  0.45593999997E+02  0.45594000000E+02  0.51100000000E-03 0.  1.
         11   -1    0    0    0    0 -0.00000000000E+00 -0.00000000000E+00 -0.45593999997E+02  0.45594000000E+02  0.51100000000E-03 0. -1.
    9900012    2    1    2    0    0 -0.54877121025E+01 -0.42085801991E+02  0.90715656273E+01  0.47787274013E+02  0.20000013533E+02 0.  0.
         12    1    1    2    0    0  0.54877121025E+01  0.42085801991E+02 -0.90715656273E+01  0.43400725987E+02  0.00000000000E+00 0. -1.
         11    1    3    3    0    0  0.26636153600E+01 -0.25887709946E+01  0.49492250612E+00  0.37472030365E+01  0.51100000000E-03 0. -1.
        -11    1    3    3    0    0 -0.61691651927E+01 -0.27794366548E+02  0.13097446680E+02  0.31338929796E+02  0.51100000000E-03 0.  1.
        -12    1    3    3    0    0 -0.19821622698E+01 -0.11702664448E+02 -0.45208035592E+01  0.12701141180E+02  0.00000000000E+00 0.  1.
</event>
<event>
 7    1  0.1265344E-009  0.4778727E+02  0.7816164E-02  0.1312668E+00
        -11   -1    0    0    0    0  0.00000000000E+00  0.00000000000E+00  0.45593999997E+02  0.45594000000E+02  0.51100000000E-03 0. -1.
         11   -1    0    0    0    0 -0.00000000000E+00 -0.00000000000E+00 -0.45593999997E+02  0.45594000000E+02  0.51100000000E-03 0.  1.
    9900012    2    1    2    0    0 -0.16036238800E+02 -0.39879637093E+02  0.60064209871E+01  0.47787268410E+02  0.19999987987E+02 0.  0.
         12    1    1    2    0    0  0.16036238800E+02  0.39879637093E+02 -0.60064209871E+01  0.43400731590E+02  0.00000000000E+00 0. -1.
         11    1    3    3    0    0  0.65263684843E+00  0.13246315909E+01 -0.10398485831E+01  0.18060645183E+01  0.51100000000E-03 0. -1.
        -11    1    3    3    0    0 -0.30857229463E+01 -0.17161096713E+01  0.15481659858E+01  0.38553257561E+01  0.51100000000E-03 0.  1.
        -12    1    3    3    0    0 -0.13603152702E+02 -0.39488159012E+02  0.54981035845E+01  0.42125878135E+02  0.00000000000E+00 0.  1.
</event>
<event>
 7    1  0.1265344E-009  0.4778727E+02  0.7816164E-02  0.1312668E+00
        -11   -1    0    0    0    0  0.00000000000E+00  0.00000000000E+00  0.45593999997E+02  0.45594000000E+02  0.51100000000E-03 0.  1.
         11   -1    0    0    0    0 -0.00000000000E+00 -0.00000000000E+00 -0.45593999997E+02  0.45594000000E+02  0.51100000000E-03 0. -1.
    9900012    2    1    2    0    0 -0.19760968800E+01 -0.12753193308E+02  0.41437597426E+02  0.47787269835E+02  0.19999994486E+02 0.  0.
         12    1    1    2    0    0  0.19760968800E+01  0.12753193308E+02 -0.41437597426E+02  0.43400730165E+02  0.00000000000E+00 0. -1.
         11    1    3    3    0    0 -0.15309706575E+01 -0.12758859073E+01  0.71132455766E+01  0.73871522860E+01  0.51100000000E-03 0. -1.
        -11    1    3    3    0    0 -0.57470871469E+01 -0.10754441614E+02  0.32555746329E+02  0.34764401971E+02  0.51100000000E-03 0.  1.
         12    1    3    3    0    0  0.53019609243E+01 -0.72286578739E+00  0.17686055198E+01  0.56357155779E+01  0.00000000000E+00 0. -1.
</event>
<event>
 7    1  0.1265344E-009  0.4778727E+02  0.7816164E-02  0.1312668E+00
        -11   -1    0    0    0    0  0.00000000000E+00  0.00000000000E+00  0.45593999997E+02  0.45594000000E+02  0.51100000000E-03 0. -1.
         11   -1    0    0    0    0 -0.00000000000E+00 -0.00000000000E+00 -0.45593999997E+02  0.45594000000E+02  0.51100000000E-03 0.  1.
    9900012    2    1    2    0    0  0.31086009711E+02 -0.19691930941E+02 -0.23011112202E+02  0.47787269260E+02  0.19999991864E+02 0.  0.
         12    1    1    2    0    0 -0.31086009711E+02  0.19691930941E+02  0.23011112202E+02  0.43400730740E+02  0.00000000000E+00 0. -1.
         11    1    3    3    0    0  0.10857117158E+02 -0.89761126704E+01 -0.38154508153E+01  0.14594699615E+02  0.51100000000E-03 0. -1.
        -11    1    3    3    0    0  0.17478871625E+02 -0.20361207197E+01 -0.15186423647E+02  0.23244014376E+02  0.51100000000E-03 0.  1.
        -12    1    3    3    0    0  0.27500209284E+01 -0.86796975514E+01 -0.40092377405E+01  0.99485552695E+01  0.00000000000E+00 0.  1.
</event>
<event>
 7    1  0.1265344E-009  0.4778727E+02  0.7816164E-02  0.1312668E+00
        -11   -1    0    0    0    0  0.00000000000E+00  0.00000000000E+00  0.45593999997E+02  0.45594000000E+02  0.51100000000E-03 0.  1.
         11   -1    0    0    0    0 -0.00000000000E+00 -0.00000000000E+00 -0.45593999997E+02  0.45594000000E+02  0.51100000000E-03 0. -1.
    9900012    2    1    2    0    0  0.11909913672E+01 -0.38214174202E+00  0.43382699681E+02  0.47787272767E+02  0.20000007856E+02 0.  0.
         12    1    1    2    0    0 -0.11909913672E+01  0.38214174202E+00 -0.43382699681E+02  0.43400727233E+02  0.00000000000E+00 0. -1.
         11    1    3    3    0    0  0.61347243026E+01 -0.36294454141E+01  0.23686922041E+02  0.24736167696E+02  0.51100000000E-03 0. -1.
        -11    1    3    3    0    0 -0.75564578378E+00 -0.15622604659E+01  0.15077557438E+02  0.15177101069E+02  0.51100000000E-03 0.  1.
        -12    1    3    3    0    0 -0.41880871517E+01  0.48095641379E+01  0.46182202023E+01  0.78740040020E+01  0.00000000000E+00 0.  1.
</event>
<event>
 7    1  0.1265344E-009  0.4778727E+02  0.7816164E-02  0.1312668E+00
        -11   -1    0    0    0    0  0.00000000000E+00  0.00000000000E+00  0.45593999997E+02  0.45594000000E+02  0.51100000000E-03 0.  1.
         11   -1    0    0    0    0 -0.00000000000E+00 -0.00000000000E+00 -0.45593999997E+02  0.45594000000E+02  0.51100000000E-03 0. -1.
    9900012    2    1    2    0    0 -0.13368534686E+02  0.10321577316E+02  0.39979627483E+02  0.47787270840E+02  0.19999999067E+02 0.  0.
         12    1    1    2    0    0  0.13368534686E+02 -0.10321577316E+02 -0.39979627483E+02  0.43400729160E+02  0.00000000000E+00 0. -1.
         11    1    3    3    0    0 -0.80119831819E+01  0.22372158634E+01  0.69347158553E+01  0.10829925835E+02  0.51100000000E-03 0. -1.
        -11    1    3    3    0    0 -0.41226282161E+01  0.11661414718E+02  0.21449605004E+02  0.24760254678E+02  0.51100000000E-03 0.  1.
        -12    1    3    3    0    0 -0.12339232881E+01 -0.35770532657E+01  0.11595306624E+02  0.12197090327E+02  0.00000000000E+00 0.  1.
</event>
<event>
 7    1  0.1265344E-009  0.4778727E+02  0.7816164E-02  0.1312668E+00
        -11   -1    0    0    0    0  0.00000000000E+00  0.00000000000E+00  0.45593999997E+02  0.45594000000E+02  0.51100000000E-03 0.  1.
         11   -1    0    0    0    0 -0.00000000000E+00 -0.00000000000E+00 -0.45593999997E+02  0.45594000000E+02  0.51100000000E-03 0. -1.
    9900012    2    1    2    0    0 -0.64417377411E+01 -0.40586096708E+02  0.13960508157E+02  0.47787273979E+02  0.20000013380E+02 0.  0.
         12    1    1    2    0    0  0.64417377411E+01  0.40586096708E+02 -0.13960508157E+02  0.43400726021E+02  0.00000000000E+00 0. -1.
         11    1    3    3    0    0 -0.70469139748E+01 -0.22883703788E+02 -0.93944453339E+00  0.23962584416E+02  0.51100000000E-03 0. -1.
        -11    1    3    3    0    0  0.18906022855E+01 -0.13848356706E+02  0.88700925247E+01  0.16553848559E+02  0.51100000000E-03 0.  1.
        -12    1    3    3    0    0 -0.12854260518E+01 -0.38540362145E+01  0.60298601662E+01  0.72708410037E+01  0.00000000000E+00 0.  1.
</event>
<event>
 7    1  0.1265344E-009  0.4778728E+02  0.7816164E-02  0.1312668E+00
        -11   -1    0    0    0    0  0.00000000000E+00  0.00000000000E+00  0.45593999997E+02  0.45594000000E+02  0.51100000000E-03 0. -1.
         11   -1    0    0    0    0 -0.00000000000E+00 -0.00000000000E+00 -0.45593999997E+02  0.45594000000E+02  0.51100000000E-03 0.  1.
    9900012    2    1    2    0    0 -0.26252058322E+02  0.20387055312E+02 -0.27907350889E+02  0.47787276226E+02  0.20000023626E+02 0.  0.
         12    1    1    2    0    0  0.26252058322E+02 -0.20387055312E+02  0.27907350889E+02  0.43400723774E+02  0.00000000000E+00 0. -1.
         11    1    3    3    0    0 -0.10301844169E+02  0.66423514291E+00 -0.23381005315E+01  0.10584701978E+02  0.51100000000E-03 0. -1.
        -11    1    3    3    0    0 -0.15265991964E+01 -0.83012304714E+00 -0.73485835156E+00  0.18866972300E+01  0.51100000000E-03 0.  1.
        -12    1    3    3    0    0 -0.14423614956E+02  0.20552943216E+02 -0.24834392006E+02  0.35315877018E+02  0.00000000000E+00 0.  1.
</event>
<event>
 7    1  0.1265344E-009  0.4778726E+02  0.7816164E-02  0.1312668E+00
        -11   -1    0    0    0    0  0.00000000000E+00  0.00000000000E+00  0.45593999997E+02  0.45594000000E+02  0.51100000000E-03 0. -1.
         11   -1    0    0    0    0 -0.00000000000E+00 -0.00000000000E+00 -0.45593999997E+02  0.45594000000E+02  0.51100000000E-03 0.  1.
    9900012    2    1    2    0    0  0.16398110638E+02  0.38935628233E+02  0.99369486169E+01  0.47787261225E+02  0.19999955230E+02 0.  0.
         12    1    1    2    0    0 -0.16398110638E+02 -0.38935628233E+02 -0.99369486169E+01  0.43400738775E+02  0.00000000000E+00 0. -1.
         11    1    3    3    0    0 -0.81551362845E+00  0.10856784317E+02  0.20214567617E+01  0.11073441917E+02  0.51100000000E-03 0. -1.
        -11    1    3    3    0    0  0.17200557553E+02  0.28741389002E+02  0.51728500262E+01  0.33892255746E+02  0.51100000000E-03 0.  1.
         12    1    3    3    0    0  0.13066713792E-01 -0.66254508697E+00  0.27426418290E+01  0.28215635619E+01  0.00000000000E+00 0. -1.
</event>
<event>
 7    1  0.1265344E-009  0.4778725E+02  0.7816164E-02  0.1312668E+00
        -11   -1    0    0    0    0  0.00000000000E+00  0.00000000000E+00  0.45593999997E+02  0.45594000000E+02  0.51100000000E-03 0.  1.
         11   -1    0    0    0    0 -0.00000000000E+00 -0.00000000000E+00 -0.45593999997E+02  0.45594000000E+02  0.51100000000E-03 0. -1.
    9900012    2    1    2    0    0 -0.16424415607E+02  0.33103587021E+01  0.40036294264E+02  0.47787253910E+02  0.19999921878E+02 0.  0.
         12    1    1    2    0    0  0.16424415607E+02 -0.33103587021E+01 -0.40036294264E+02  0.43400746090E+02  0.00000000000E+00 0. -1.
         11    1    3    3    0    0 -0.38878369350E+01 -0.16636595238E+01  0.96883282803E+00  0.43383955968E+01  0.51100000000E-03 0. -1.
        -11    1    3    3    0    0 -0.80290499913E+01  0.96086448917E+01  0.26851266647E+02  0.29627389714E+02  0.51100000000E-03 0.  1.
         12    1    3    3    0    0 -0.45075286807E+01 -0.46346266658E+01  0.12216194789E+02  0.13821468600E+02  0.00000000000E+00 0. -1.
</event>
<event>
 7    1  0.1265344E-009  0.4778727E+02  0.7816164E-02  0.1312668E+00
        -11   -1    0    0    0    0  0.00000000000E+00  0.00000000000E+00  0.45593999997E+02  0.45594000000E+02  0.51100000000E-03 0.  1.
         11   -1    0    0    0    0 -0.00000000000E+00 -0.00000000000E+00 -0.45593999997E+02  0.45594000000E+02  0.51100000000E-03 0. -1.
    9900012    2    1    2    0    0  0.73993991429E+00  0.34987279880E+02  0.25670329362E+02  0.47787273347E+02  0.20000010497E+02 0.  0.
         12    1    1    2    0    0 -0.73993991429E+00 -0.34987279880E+02 -0.25670329362E+02  0.43400726653E+02  0.00000000000E+00 0. -1.
         11    1    3    3    0    0 -0.37211484518E+01  0.57427990389E+01  0.30911531095E+01  0.75087891440E+01  0.51100000000E-03 0. -1.
        -11    1    3    3    0    0 -0.20528815139E+01  0.17159694559E+02  0.50335284702E+01  0.18000162471E+02  0.51100000000E-03 0.  1.
         12    1    3    3    0    0  0.65139698801E+01  0.12084786282E+02  0.17545647782E+02  0.22278321732E+02  0.00000000000E+00 0. -1.
</event>
<event>
 7    1  0.1265344E-009  0.4778727E+02  0.7816164E-02  0.1312668E+00
        -11   -1    0    0    0    0  0.00000000000E+00  0.00000000000E+00  0.45593999997E+02  0.45594000000E+02  0.51100000000E-03 0.  1.
         11   -1    0    0    0    0 -0.00000000000E+00 -0.00000000000E+00 -0.45593999997E+02  0.45594000000E+02  0.51100000000E-03 0. -1.
    9900012    2    1    2    0    0 -0.41018602798E+02 -0.14178780469E+02 -0.24400500120E+00  0.47787272708E+02  0.20000007583E+02 0.  0.
         12    1    1    2    0    0  0.41018602798E+02  0.14178780469E+02  0.24400500120E+00  0.43400727292E+02  0.00000000000E+00 0. -1.
         11    1    3    3    0    0 -0.82669283570E+01 -0.74551152576E+01  0.57673375111E+01  0.12537265659E+02  0.51100000000E-03 0. -1.
        -11    1    3    3    0    0 -0.19108690420E+02 -0.34990600968E+01  0.12415444942E+01  0.19466044902E+02  0.51100000000E-03 0.  1.
        -12    1    3    3    0    0 -0.13642984020E+02 -0.32246051147E+01 -0.72528870065E+01  0.15783962147E+02  0.00000000000E+00 0.  1.
</event>
<event>
 7    1  0.1265344E-009  0.4778727E+02  0.7816164E-02  0.1312668E+00
        -11   -1    0    0    0    0  0.00000000000E+00  0.00000000000E+00  0.45593999997E+02  0.45594000000E+02  0.51100000000E-03 0.  1.
         11   -1    0    0    0    0 -0.00000000000E+00 -0.00000000000E+00 -0.45593999997E+02  0.45594000000E+02  0.51100000000E-03 0. -1.
    9900012    2    1    2    0    0 -0.46430388305E+01  0.37040885189E+02  0.22136803063E+02  0.47787273796E+02  0.20000012546E+02 0.  0.
         12    1    1    2    0    0  0.46430388305E+01 -0.37040885189E+02 -0.22136803063E+02  0.43400726204E+02  0.00000000000E+00 0. -1.
         11    1    3    3    0    0  0.74543317675E+00  0.67619317798E+00 -0.25314409135E+01  0.27241698175E+01  0.51100000000E-03 0. -1.
        -11    1    3    3    0    0 -0.40605704293E+01  0.18567362881E+02  0.79264912693E+01  0.20592825466E+02  0.51100000000E-03 0.  1.
        -12    1    3    3    0    0 -0.13279015780E+01  0.17797329130E+02  0.16741752707E+02  0.24470278512E+02  0.00000000000E+00 0.  1.
</event>
<event>
 7    1  0.1265344E-009  0.4778727E+02  0.7816164E-02  0.1312668E+00
        -11   -1    0    0    0    0  0.00000000000E+00  0.00000000000E+00  0.45593999997E+02  0.45594000000E+02  0.51100000000E-03 0.  1.
         11   -1    0    0    0    0 -0.00000000000E+00 -0.00000000000E+00 -0.45593999997E+02  0.45594000000E+02  0.51100000000E-03 0. -1.
    9900012    2    1    2    0    0 -0.22291633278E+02  0.36766262163E+02  0.59117211647E+01  0.47787269652E+02  0.19999993649E+02 0.  0.
         12    1    1    2    0    0  0.22291633278E+02 -0.36766262163E+02 -0.59117211647E+01  0.43400730348E+02  0.00000000000E+00 0. -1.
         11    1    3    3    0    0 -0.21427600801E+02  0.35142178559E+02  0.35314184264E+01  0.41310842479E+02  0.51100000000E-03 0.  1.
        -11    1    3    3    0    0 -0.63412608803E+00  0.11581565481E+00 -0.18607763015E+01  0.19692683583E+01  0.51100000000E-03 0. -1.
        -12    1    3    3    0    0 -0.22990638977E+00  0.15082679488E+01  0.42410790399E+01  0.45071588141E+01  0.00000000000E+00 0.  1.
</event>
<event>
 7    1  0.1265344E-009  0.4778728E+02  0.7816164E-02  0.1312668E+00
        -11   -1    0    0    0    0  0.00000000000E+00  0.00000000000E+00  0.45593999997E+02  0.45594000000E+02  0.51100000000E-03 0.  1.
         11   -1    0    0    0    0 -0.00000000000E+00 -0.00000000000E+00 -0.45593999997E+02  0.45594000000E+02  0.51100000000E-03 0. -1.
    9900012    2    1    2    0    0  0.34046363489E+02 -0.16895541472E+02  0.20952532215E+02  0.47787276565E+02  0.20000025171E+02 0.  0.
         12    1    1    2    0    0 -0.34046363489E+02  0.16895541472E+02 -0.20952532215E+02  0.43400723435E+02  0.00000000000E+00 0. -1.
         11    1    3    3    0    0  0.19706644925E+01  0.16007502316E+01  0.10267843599E+01  0.27386504393E+01  0.51100000000E-03 0. -1.
        -11    1    3    3    0    0  0.13856496600E+02 -0.35958918131E+01  0.15500718200E+02  0.21099886278E+02  0.51100000000E-03 0.  1.
        -12    1    3    3    0    0  0.18219202396E+02 -0.14900399890E+02  0.44250296545E+01  0.23948739848E+02  0.00000000000E+00 0.  1.
</event>
<event>
 7    1  0.1265344E-009  0.4778727E+02  0.7816164E-02  0.1312668E+00
        -11   -1    0    0    0    0  0.00000000000E+00  0.00000000000E+00  0.45593999997E+02  0.45594000000E+02  0.51100000000E-03 0. -1.
         11   -1    0    0    0    0 -0.00000000000E+00 -0.00000000000E+00 -0.45593999997E+02  0.45594000000E+02  0.51100000000E-03 0.  1.
    9900012    2    1    2    0    0  0.39334029291E+02  0.17626390701E+02  0.50761789380E+01  0.47787273024E+02  0.20000009027E+02 0.  0.
         12    1    1    2    0    0 -0.39334029291E+02 -0.17626390701E+02 -0.50761789380E+01  0.43400726976E+02  0.00000000000E+00 0. -1.
         11    1    3    3    0    0  0.99240355053E+01  0.91574455289E+01  0.72902280538E+01  0.15345771882E+02  0.51100000000E-03 0. -1.
        -11    1    3    3    0    0  0.25355347763E+02  0.93153845320E+01  0.12507799357E+01  0.27041347967E+02  0.51100000000E-03 0.  1.
        -12    1    3    3    0    0  0.40546460225E+01 -0.84643936003E+00 -0.34648290515E+01  0.54001531751E+01  0.00000000000E+00 0.  1.
</event>
<event>
 7    1  0.1265344E-009  0.4778727E+02  0.7816164E-02  0.1312668E+00
        -11   -1    0    0    0    0  0.00000000000E+00  0.00000000000E+00  0.45593999997E+02  0.45594000000E+02  0.51100000000E-03 0. -1.
         11   -1    0    0    0    0 -0.00000000000E+00 -0.00000000000E+00 -0.45593999997E+02  0.45594000000E+02  0.51100000000E-03 0.  1.
    9900012    2    1    2    0    0  0.17657027067E+02  0.33648789433E+02 -0.20966917953E+02  0.47787270932E+02  0.19999999488E+02 0.  0.
         12    1    1    2    0    0 -0.17657027067E+02 -0.33648789433E+02  0.20966917953E+02  0.43400729068E+02  0.00000000000E+00 0. -1.
         11    1    3    3    0    0  0.51374423839E+01  0.17452276641E+02 -0.15978411175E+02  0.24213320676E+02  0.51100000000E-03 0. -1.
        -11    1    3    3    0    0  0.12853892695E+02  0.16072931493E+02 -0.68407490463E+01  0.21687727681E+02  0.51100000000E-03 0.  1.
        -12    1    3    3    0    0 -0.33430801241E+00  0.12358129961E+00  0.18522422681E+01  0.18862225756E+01  0.00000000000E+00 0.  1.
</event>
<event>
 7    1  0.1265344E-009  0.4778727E+02  0.7816164E-02  0.1312668E+00
        -11   -1    0    0    0    0  0.00000000000E+00  0.00000000000E+00  0.45593999997E+02  0.45594000000E+02  0.51100000000E-03 0.  1.
         11   -1    0    0    0    0 -0.00000000000E+00 -0.00000000000E+00 -0.45593999997E+02  0.45594000000E+02  0.51100000000E-03 0. -1.
    9900012    2    1    2    0    0  0.23701304229E+02  0.74449929011E+01  0.35587128891E+02  0.47787268621E+02  0.19999988952E+02 0.  0.
         12    1    1    2    0    0 -0.23701304229E+02 -0.74449929011E+01 -0.35587128891E+02  0.43400731379E+02  0.00000000000E+00 0. -1.
         11    1    3    3    0    0  0.83353097227E+01  0.70593874084E+01  0.11454483082E+02  0.15827745313E+02  0.51100000000E-03 0.  1.
        -11    1    3    3    0    0  0.95083077201E+01  0.69597459007E+01  0.16688840721E+02  0.20429473404E+02  0.51100000000E-03 0. -1.
         12    1    3    3    0    0  0.58576867865E+01 -0.65741404080E+01  0.74438050885E+01  0.11530049904E+02  0.00000000000E+00 0. -1.
</event>
<event>
 7    1  0.1265344E-009  0.4778727E+02  0.7816164E-02  0.1312668E+00
        -11   -1    0    0    0    0  0.00000000000E+00  0.00000000000E+00  0.45593999997E+02  0.45594000000E+02  0.51100000000E-03 0. -1.
         11   -1    0    0    0    0 -0.00000000000E+00 -0.00000000000E+00 -0.45593999997E+02  0.45594000000E+02  0.51100000000E-03 0.  1.
    9900012    2    1    2    0    0  0.38951452204E+02  0.19019823386E+02 -0.21574261525E+01  0.47787265006E+02  0.19999972468E+02 0.  0.
         12    1    1    2    0    0 -0.38951452204E+02 -0.19019823386E+02  0.21574261525E+01  0.43400734994E+02  0.00000000000E+00 0. -1.
         11    1    3    3    0    0  0.83227141492E+01  0.59582645616E+01 -0.33690748809E+01  0.10775859743E+02  0.51100000000E-03 0.  1.
        -11    1    3    3    0    0  0.23797428736E+02  0.37447513610E+01  0.54615374671E+01  0.24701602559E+02  0.51100000000E-03 0. -1.
         12    1    3    3    0    0  0.68313093187E+01  0.93168074632E+01 -0.42498887388E+01  0.12309802704E+02  0.00000000000E+00 0. -1.
</event>
<event>
 7    1  0.1265344E-009  0.4778727E+02  0.7816164E-02  0.1312668E+00
        -11   -1    0    0    0    0  0.00000000000E+00  0.00000000000E+00  0.45593999997E+02  0.45594000000E+02  0.51100000000E-03 0.  1.
         11   -1    0    0    0    0 -0.00000000000E+00 -0.00000000000E+00 -0.45593999997E+02  0.45594000000E+02  0.51100000000E-03 0. -1.
    9900012    2    1    2    0    0  0.33938044858E+01  0.96072794787E+01  0.42187741094E+02  0.47787271591E+02  0.20000002491E+02 0.  0.
         12    1    1    2    0    0 -0.33938044858E+01 -0.96072794787E+01 -0.42187741094E+02  0.43400728409E+02  0.00000000000E+00 0. -1.
         11    1    3    3    0    0 -0.19387517860E-01  0.41162016474E+01  0.20684632828E+00  0.41214411972E+01  0.51100000000E-03 0. -1.
        -11    1    3    3    0    0  0.44780346787E+01  0.65506717708E+01  0.18411681548E+02  0.20048793304E+02  0.51100000000E-03 0.  1.
         12    1    3    3    0    0 -0.10648426751E+01 -0.10595939395E+01  0.23569213217E+02  0.23617037090E+02  0.00000000000E+00 0. -1.
</event>
<event>
 7    1  0.1265344E-009  0.4778728E+02  0.7816164E-02  0.1312668E+00
        -11   -1    0    0    0    0  0.00000000000E+00  0.00000000000E+00  0.45593999997E+02  0.45594000000E+02  0.51100000000E-03 0.  1.
         11   -1    0    0    0    0 -0.00000000000E+00 -0.00000000000E+00 -0.45593999997E+02  0.45594000000E+02  0.51100000000E-03 0. -1.
    9900012    2    1    2    0    0 -0.18747033066E+02 -0.51943759292E+01  0.38796779783E+02  0.47787275218E+02  0.20000019029E+02 0.  0.
         12    1    1    2    0    0  0.18747033066E+02  0.51943759292E+01 -0.38796779783E+02  0.43400724782E+02  0.00000000000E+00 0. -1.
         11    1    3    3    0    0 -0.13270179986E+01  0.81430208144E+00 -0.10214259597E+01  0.18620891226E+01  0.51100000000E-03 0. -1.
        -11    1    3    3    0    0 -0.12895203911E+02 -0.98834258565E+01  0.23637756710E+02  0.28682955446E+02  0.51100000000E-03 0.  1.
         12    1    3    3    0    0 -0.45248111558E+01  0.38747478459E+01  0.16180449033E+02  0.17242230650E+02  0.00000000000E+00 0. -1.
</event>
<event>
 7    1  0.1265344E-009  0.4778727E+02  0.7816164E-02  0.1312668E+00
        -11   -1    0    0    0    0  0.00000000000E+00  0.00000000000E+00  0.45593999997E+02  0.45594000000E+02  0.51100000000E-03 0. -1.
         11   -1    0    0    0    0 -0.00000000000E+00 -0.00000000000E+00 -0.45593999997E+02  0.45594000000E+02  0.51100000000E-03 0.  1.
    9900012    2    1    2    0    0 -0.28387750522E+02 -0.35680809898E+01 -0.32634768446E+02  0.47787266214E+02  0.19999977976E+02 0.  0.
         12    1    1    2    0    0  0.28387750522E+02  0.35680809898E+01  0.32634768446E+02  0.43400733786E+02  0.00000000000E+00 0. -1.
         11    1    3    3    0    0 -0.10917222757E+02 -0.61359702442E+01 -0.17547099021E+02  0.21557749601E+02  0.51100000000E-03 0. -1.
        -11    1    3    3    0    0 -0.12590049478E+02 -0.16866665379E+01 -0.38726749075E+01  0.13279751544E+02  0.51100000000E-03 0.  1.
        -12    1    3    3    0    0 -0.48804782866E+01  0.42545557922E+01 -0.11214994518E+02  0.12949765068E+02  0.00000000000E+00 0.  1.
</event>
<event>
 7    1  0.1265344E-009  0.4778727E+02  0.7816164E-02  0.1312668E+00
        -11   -1    0    0    0    0  0.00000000000E+00  0.00000000000E+00  0.45593999997E+02  0.45594000000E+02  0.51100000000E-03 0. -1.
         11   -1    0    0    0    0 -0.00000000000E+00 -0.00000000000E+00 -0.45593999997E+02  0.45594000000E+02  0.51100000000E-03 0.  1.
    9900012    2    1    2    0    0  0.42787819717E+02 -0.59153285196E+01 -0.42231231325E+01  0.47787269630E+02  0.19999993553E+02 0.  0.
         12    1    1    2    0    0 -0.42787819717E+02  0.59153285196E+01  0.42231231325E+01  0.43400730370E+02  0.00000000000E+00 0. -1.
         11    1    3    3    0    0  0.17765677841E+02 -0.62625088672E+01 -0.31548012025E+01  0.19099505159E+02  0.51100000000E-03 0.  1.
        -11    1    3    3    0    0  0.13961055485E+02 -0.17616457609E+01  0.61025044246E+01  0.15338025510E+02  0.51100000000E-03 0. -1.
         12    1    3    3    0    0  0.11061086391E+02  0.21088261085E+01 -0.71708263546E+01  0.13349738961E+02  0.00000000000E+00 0. -1.
</event>
<event>
 7    1  0.1265344E-009  0.4778727E+02  0.7816164E-02  0.1312668E+00
        -11   -1    0    0    0    0  0.00000000000E+00  0.00000000000E+00  0.45593999997E+02  0.45594000000E+02  0.51100000000E-03 0.  1.
         11   -1    0    0    0    0 -0.00000000000E+00 -0.00000000000E+00 -0.45593999997E+02  0.45594000000E+02  0.51100000000E-03 0. -1.
    9900012    2    1    2    0    0  0.10673208618E+02 -0.39680339348E+02  0.13970560814E+02  0.47787270946E+02  0.19999999550E+02 0.  0.
         12    1    1    2    0    0 -0.10673208618E+02  0.39680339348E+02 -0.13970560814E+02  0.43400729054E+02  0.00000000000E+00 0. -1.
         11    1    3    3    0    0  0.11095354816E+01 -0.82207525071E+00  0.11063192323E+01  0.17694121079E+01  0.51100000000E-03 0. -1.
        -11    1    3    3    0    0  0.80631813381E+01 -0.22626128642E+02 -0.18054277814E+01  0.24087676524E+02  0.51100000000E-03 0.  1.
        -12    1    3    3    0    0  0.15004917980E+01 -0.16232135456E+02  0.14669669363E+02  0.21930182313E+02  0.00000000000E+00 0.  1.
</event>
<event>
 7    1  0.1265344E-009  0.4778727E+02  0.7816164E-02  0.1312668E+00
        -11   -1    0    0    0    0  0.00000000000E+00  0.00000000000E+00  0.45593999997E+02  0.45594000000E+02  0.51100000000E-03 0.  1.
         11   -1    0    0    0    0 -0.00000000000E+00 -0.00000000000E+00 -0.45593999997E+02  0.45594000000E+02  0.51100000000E-03 0. -1.
    9900012    2    1    2    0    0 -0.10411907138E+02 -0.25953535172E+02  0.33190801942E+02  0.47787272682E+02  0.20000007466E+02 0.  0.
         12    1    1    2    0    0  0.10411907138E+02  0.25953535172E+02 -0.33190801942E+02  0.43400727318E+02  0.00000000000E+00 0. -1.
         11    1    3    3    0    0 -0.13678454039E+02 -0.17212196204E+02  0.25599101366E+02  0.33744240902E+02  0.51100000000E-03 0. -1.
        -11    1    3    3    0    0 -0.14528382824E+01 -0.61671212925E+01  0.50209019387E+01  0.80841561496E+01  0.51100000000E-03 0.  1.
         12    1    3    3    0    0  0.47193851827E+01 -0.25742176749E+01  0.25707986381E+01  0.59588756304E+01  0.00000000000E+00 0. -1.
</event>
<event>
 7    1  0.1265344E-009  0.4778726E+02  0.7816164E-02  0.1312668E+00
        -11   -1    0    0    0    0  0.00000000000E+00  0.00000000000E+00  0.45593999997E+02  0.45594000000E+02  0.51100000000E-03 0.  1.
         11   -1    0    0    0    0 -0.00000000000E+00 -0.00000000000E+00 -0.45593999997E+02  0.45594000000E+02  0.51100000000E-03 0. -1.
    9900012    2    1    2    0    0 -0.27254008766E+02  0.41595741895E+01  0.33519260471E+02  0.47787264133E+02  0.19999968488E+02 0.  0.
         12    1    1    2    0    0  0.27254008766E+02 -0.41595741895E+01 -0.33519260471E+02  0.43400735867E+02  0.00000000000E+00 0. -1.
         11    1    3    3    0    0  0.34438527044E-01  0.15414087521E+01  0.69100148479E+01  0.70799316673E+01  0.51100000000E-03 0. -1.
        -11    1    3    3    0    0 -0.19015961133E+02  0.52648382023E+01  0.10367968242E+02  0.22289460846E+02  0.51100000000E-03 0.  1.
        -12    1    3    3    0    0 -0.82724861604E+01 -0.26466727649E+01  0.16241277382E+02  0.18417871619E+02  0.00000000000E+00 0.  1.
</event>
<event>
 7    1  0.1265344E-009  0.4778727E+02  0.7816164E-02  0.1312668E+00
        -11   -1    0    0    0    0  0.00000000000E+00  0.00000000000E+00  0.45593999997E+02  0.45594000000E+02  0.51100000000E-03 0. -1.
         11   -1    0    0    0    0 -0.00000000000E+00 -0.00000000000E+00 -0.45593999997E+02  0.45594000000E+02  0.51100000000E-03 0.  1.
    9900012    2    1    2    0    0 -0.23039120485E+02  0.35017738184E+02 -0.11250803326E+02  0.47787266876E+02  0.19999980993E+02 0.  0.
         12    1    1    2    0    0  0.23039120485E+02 -0.35017738184E+02  0.11250803326E+02  0.43400733124E+02  0.00000000000E+00 0. -1.
         11    1    3    3    0    0  0.10505150522E+01  0.41000043431E+01 -0.24195791091E+01  0.48752416161E+01  0.51100000000E-03 0. -1.
        -11    1    3    3    0    0  0.15274773294E+01  0.21861636575E+00 -0.17031822236E+01  0.22982188876E+01  0.51100000000E-03 0.  1.
        -12    1    3    3    0    0 -0.25617112867E+02  0.30699117475E+02 -0.71280419928E+01  0.40613806372E+02  0.00000000000E+00 0.  1.
</event>
<event>
 7    1  0.1265344E-009  0.4778727E+02  0.7816164E-02  0.1312668E+00
        -11   -1    0    0    0    0  0.00000000000E+00  0.00000000000E+00  0.45593999997E+02  0.45594000000E+02  0.51100000000E-03 0.  1.
         11   -1    0    0    0    0 -0.00000000000E+00 -0.00000000000E+00 -0.45593999997E+02  0.45594000000E+02  0.51100000000E-03 0. -1.
    9900012    2    1    2    0    0 -0.20937242679E+02 -0.32367215078E+02  0.19940374383E+02  0.47787271049E+02  0.20000000022E+02 0.  0.
         12    1    1    2    0    0  0.20937242679E+02  0.32367215078E+02 -0.19940374383E+02  0.43400728951E+02  0.00000000000E+00 0. -1.
         11    1    3    3    0    0 -0.67048263999E+01 -0.15484466649E+02  0.13249581954E+02  0.21454016563E+02  0.51100000000E-03 0. -1.
        -11    1    3    3    0    0 -0.12909622924E+02 -0.18012253398E+02  0.31437097390E+01  0.22382639427E+02  0.51100000000E-03 0.  1.
         12    1    3    3    0    0 -0.13227933552E+01  0.11295049696E+01  0.35470826907E+01  0.39506150599E+01  0.00000000000E+00 0. -1.
</event>
<event>
 7    1  0.1265344E-009  0.4778727E+02  0.7816164E-02  0.1312668E+00
        -11   -1    0    0    0    0  0.00000000000E+00  0.00000000000E+00  0.45593999997E+02  0.45594000000E+02  0.51100000000E-03 0.  1.
         11   -1    0    0    0    0 -0.00000000000E+00 -0.00000000000E+00 -0.45593999997E+02  0.45594000000E+02  0.51100000000E-03 0. -1.
    9900012    2    1    2    0    0  0.61821615422E+01  0.20212082555E+02  0.37906142609E+02  0.47787273623E+02  0.20000011758E+02 0.  0.
         12    1    1    2    0    0 -0.61821615422E+01 -0.20212082555E+02 -0.37906142609E+02  0.43400726377E+02  0.00000000000E+00 0. -1.
         11    1    3    3    0    0  0.74001939021E+01  0.14231811344E+00  0.59685781883E+01  0.95082622012E+01  0.51100000000E-03 0. -1.
        -11    1    3    3    0    0 -0.19580164918E+01  0.78689047771E+01  0.79457950160E+01  0.11352935729E+02  0.51100000000E-03 0.  1.
        -12    1    3    3    0    0  0.73998413180E+00  0.12200859665E+02  0.23991769404E+02  0.26926075693E+02  0.00000000000E+00 0.  1.
</event>
<event>
 7    1  0.1265344E-009  0.4778727E+02  0.7816164E-02  0.1312668E+00
        -11   -1    0    0    0    0  0.00000000000E+00  0.00000000000E+00  0.45593999997E+02  0.45594000000E+02  0.51100000000E-03 0.  1.
         11   -1    0    0    0    0 -0.00000000000E+00 -0.00000000000E+00 -0.45593999997E+02  0.45594000000E+02  0.51100000000E-03 0. -1.
    9900012    2    1    2    0    0  0.42375780234E+02  0.20541467112E+01 -0.91486058831E+01  0.47787271219E+02  0.20000000795E+02 0.  0.
         12    1    1    2    0    0 -0.42375780234E+02 -0.20541467112E+01  0.91486058831E+01  0.43400728781E+02  0.00000000000E+00 0. -1.
         11    1    3    3    0    0  0.36653885645E+01 -0.12899648863E+01 -0.78209542833E+01  0.87330641186E+01  0.51100000000E-03 0. -1.
        -11    1    3    3    0    0  0.20925954168E+02  0.12362828827E+01  0.10468527715E+01  0.20988564844E+02  0.51100000000E-03 0.  1.
        -12    1    3    3    0    0  0.17784437501E+02  0.21078287147E+01 -0.23745043713E+01  0.18065642257E+02  0.00000000000E+00 0.  1.
</event>
<event>
 7    1  0.1265344E-009  0.4778727E+02  0.7816164E-02  0.1312668E+00
        -11   -1    0    0    0    0  0.00000000000E+00  0.00000000000E+00  0.45593999997E+02  0.45594000000E+02  0.51100000000E-03 0. -1.
         11   -1    0    0    0    0 -0.00000000000E+00 -0.00000000000E+00 -0.45593999997E+02  0.45594000000E+02  0.51100000000E-03 0.  1.
    9900012    2    1    2    0    0 -0.15079426845E+02 -0.40020938258E+02  0.73863904618E+01  0.47787269856E+02  0.19999994580E+02 0.  0.
         12    1    1    2    0    0  0.15079426845E+02  0.40020938258E+02 -0.73863904618E+01  0.43400730144E+02  0.00000000000E+00 0. -1.
         11    1    3    3    0    0 -0.50963563029E+01 -0.53976012534E+01  0.62018588933E+01  0.96731587835E+01  0.51100000000E-03 0. -1.
        -11    1    3    3    0    0 -0.69154903616E+01 -0.29605985597E+02  0.53996472877E+01  0.30878707570E+02  0.51100000000E-03 0.  1.
         12    1    3    3    0    0 -0.30675801802E+01 -0.50173514074E+01 -0.42151157192E+01  0.72354035018E+01  0.00000000000E+00 0. -1.
</event>
<event>
 7    1  0.1265344E-009  0.4778727E+02  0.7816164E-02  0.1312668E+00
        -11   -1    0    0    0    0  0.00000000000E+00  0.00000000000E+00  0.45593999997E+02  0.45594000000E+02  0.51100000000E-03 0. -1.
         11   -1    0    0    0    0 -0.00000000000E+00 -0.00000000000E+00 -0.45593999997E+02  0.45594000000E+02  0.51100000000E-03 0.  1.
    9900012    2    1    2    0    0  0.25577229996E+02 -0.53606845061E+01 -0.34650997951E+02  0.47787270840E+02  0.19999999067E+02 0.  0.
         12    1    1    2    0    0 -0.25577229996E+02  0.53606845061E+01  0.34650997951E+02  0.43400729160E+02  0.00000000000E+00 0. -1.
         11    1    3    3    0    0  0.54814794680E+00 -0.31438493646E+01 -0.50528677213E+01  0.59762636713E+01  0.51100000000E-03 0. -1.
        -11    1    3    3    0    0  0.26935197443E+02 -0.17886515678E+01 -0.24908012004E+02  0.36730276312E+02  0.51100000000E-03 0.  1.
        -12    1    3    3    0    0 -0.19061153935E+01 -0.42818357374E+00 -0.46901182259E+01  0.50807308568E+01  0.00000000000E+00 0.  1.
</event>
<event>
 7    1  0.1265344E-009  0.4778727E+02  0.7816164E-02  0.1312668E+00
        -11   -1    0    0    0    0  0.00000000000E+00  0.00000000000E+00  0.45593999997E+02  0.45594000000E+02  0.51100000000E-03 0.  1.
         11   -1    0    0    0    0 -0.00000000000E+00 -0.00000000000E+00 -0.45593999997E+02  0.45594000000E+02  0.51100000000E-03 0. -1.
    9900012    2    1    2    0    0  0.45489346595E+01  0.23837500193E+02  0.35981998841E+02  0.47787268870E+02  0.19999990086E+02 0.  0.
         12    1    1    2    0    0 -0.45489346595E+01 -0.23837500193E+02 -0.35981998841E+02  0.43400731130E+02  0.00000000000E+00 0. -1.
         11    1    3    3    0    0  0.50542361149E+01  0.13082293207E+02  0.10539432128E+02  0.17543412670E+02  0.51100000000E-03 0. -1.
        -11    1    3    3    0    0  0.57530625627E+01  0.56913125525E+01  0.15159955865E+02  0.17184674262E+02  0.51100000000E-03 0.  1.
         12    1    3    3    0    0 -0.62583640180E+01  0.50638944332E+01  0.10282610849E+02  0.13059181938E+02  0.00000000000E+00 0. -1.
</event>
<event>
 7    1  0.1265344E-009  0.4778727E+02  0.7816164E-02  0.1312668E+00
        -11   -1    0    0    0    0  0.00000000000E+00  0.00000000000E+00  0.45593999997E+02  0.45594000000E+02  0.51100000000E-03 0. -1.
         11   -1    0    0    0    0 -0.00000000000E+00 -0.00000000000E+00 -0.45593999997E+02  0.45594000000E+02  0.51100000000E-03 0.  1.
    9900012    2    1    2    0    0  0.20696255223E+02  0.33956078655E+02 -0.17386007579E+02  0.47787268238E+02  0.19999987206E+02 0.  0.
         12    1    1    2    0    0 -0.20696255223E+02 -0.33956078655E+02  0.17386007579E+02  0.43400731762E+02  0.00000000000E+00 0. -1.
         11    1    3    3    0    0 -0.19876234303E+01  0.48752705240E+00 -0.15315810790E+01  0.25561827771E+01  0.51100000000E-03 0. -1.
        -11    1    3    3    0    0  0.12250706241E+02  0.10322552387E+02 -0.15618642098E+01  0.16095785513E+02  0.51100000000E-03 0.  1.
         12    1    3    3    0    0  0.10433172412E+02  0.23145999216E+02 -0.14292562290E+02  0.29135299949E+02  0.00000000000E+00 0. -1.
</event>
<event>
 7    1  0.1265344E-009  0.4778728E+02  0.7816164E-02  0.1312668E+00
        -11   -1    0    0    0    0  0.00000000000E+00  0.00000000000E+00  0.45593999997E+02  0.45594000000E+02  0.51100000000E-03 0.  1.
         11   -1    0    0    0    0 -0.00000000000E+00 -0.00000000000E+00 -0.45593999997E+02  0.45594000000E+02  0.51100000000E-03 0. -1.
    9900012    2    1    2    0    0  0.38208091504E+02 -0.10706921594E+02  0.17581989178E+02  0.47787276851E+02  0.20000026476E+02 0.  0.
         12    1    1    2    0    0 -0.38208091504E+02  0.10706921594E+02 -0.17581989178E+02  0.43400723149E+02  0.00000000000E+00 0. -1.
         11    1    3    3    0    0  0.43260452269E+01 -0.10597277804E+01 -0.17826105138E+01  0.47974358546E+01  0.51100000000E-03 0. -1.
        -11    1    3    3    0    0  0.26530417207E+02 -0.69638390906E+00  0.15725886752E+02  0.30848849283E+02  0.51100000000E-03 0.  1.
        -12    1    3    3    0    0  0.73516290702E+01 -0.89508099044E+01  0.36387129396E+01  0.12140991713E+02  0.00000000000E+00 0.  1.
</event>
<event>
 7    1  0.1265344E-009  0.4778727E+02  0.7816164E-02  0.1312668E+00
        -11   -1    0    0    0    0  0.00000000000E+00  0.00000000000E+00  0.45593999997E+02  0.45594000000E+02  0.51100000000E-03 0.  1.
         11   -1    0    0    0    0 -0.00000000000E+00 -0.00000000000E+00 -0.45593999997E+02  0.45594000000E+02  0.51100000000E-03 0. -1.
    9900012    2    1    2    0    0 -0.17542937161E+02  0.24375199882E+01  0.39622307315E+02  0.47787269766E+02  0.19999994171E+02 0.  0.
         12    1    1    2    0    0  0.17542937161E+02 -0.24375199882E+01 -0.39622307315E+02  0.43400730234E+02  0.00000000000E+00 0. -1.
         11    1    3    3    0    0  0.83426653929E+00 -0.22834763022E+01  0.13942677870E+01  0.28025430602E+01  0.51100000000E-03 0. -1.
        -11    1    3    3    0    0 -0.75950538186E+01 -0.38532737682E+01  0.76544419512E+01  0.11450897043E+02  0.51100000000E-03 0.  1.
        -12    1    3    3    0    0 -0.10782149881E+02  0.85742700586E+01  0.30573597576E+02  0.33533829663E+02  0.00000000000E+00 0.  1.
</event>
<event>
 7    1  0.1265344E-009  0.4778727E+02  0.7816164E-02  0.1312668E+00
        -11   -1    0    0    0    0  0.00000000000E+00  0.00000000000E+00  0.45593999997E+02  0.45594000000E+02  0.51100000000E-03 0.  1.
         11   -1    0    0    0    0 -0.00000000000E+00 -0.00000000000E+00 -0.45593999997E+02  0.45594000000E+02  0.51100000000E-03 0. -1.
    9900012    2    1    2    0    0 -0.38081049521E+02  0.16183664495E+02 -0.13097546257E+02  0.47787273657E+02  0.20000011914E+02 0.  0.
         12    1    1    2    0    0  0.38081049521E+02 -0.16183664495E+02  0.13097546257E+02  0.43400726343E+02  0.00000000000E+00 0. -1.
         11    1    3    3    0    0 -0.11106390811E+02  0.84634664680E+01 -0.48766424182E+01  0.14790666754E+02  0.51100000000E-03 0. -1.
        -11    1    3    3    0    0 -0.22746188035E+02  0.21629437895E+01 -0.88124634362E+00  0.22865782107E+02  0.51100000000E-03 0.  1.
         12    1    3    3    0    0 -0.42284706745E+01  0.55572542375E+01 -0.73396574949E+01  0.10130824796E+02  0.00000000000E+00 0. -1.
</event>
<event>
 7    1  0.1265344E-009  0.4778727E+02  0.7816164E-02  0.1312668E+00
        -11   -1    0    0    0    0  0.00000000000E+00  0.00000000000E+00  0.45593999997E+02  0.45594000000E+02  0.51100000000E-03 0.  1.
         11   -1    0    0    0    0 -0.00000000000E+00 -0.00000000000E+00 -0.45593999997E+02  0.45594000000E+02  0.51100000000E-03 0. -1.
    9900012    2    1    2    0    0  0.37266424737E+02 -0.53993798817E+01  0.21579709989E+02  0.47787267299E+02  0.19999982924E+02 0.  0.
         12    1    1    2    0    0 -0.37266424737E+02  0.53993798817E+01 -0.21579709989E+02  0.43400732701E+02  0.00000000000E+00 0. -1.
         11    1    3    3    0    0  0.39942766348E+01  0.24614100319E+01  0.21180799975E+01  0.51477226341E+01  0.51100000000E-03 0. -1.
        -11    1    3    3    0    0  0.10342693423E+02  0.26710401596E+01  0.12543981571E+02  0.16475959356E+02  0.51100000000E-03 0.  1.
         12    1    3    3    0    0  0.22929454678E+02 -0.10531830073E+02  0.69176484203E+01  0.26163585309E+02  0.00000000000E+00 0. -1.
</event>
<event>
 7    1  0.1265344E-009  0.4778727E+02  0.7816164E-02  0.1312668E+00
        -11   -1    0    0    0    0  0.00000000000E+00  0.00000000000E+00  0.45593999997E+02  0.45594000000E+02  0.51100000000E-03 0.  1.
         11   -1    0    0    0    0 -0.00000000000E+00 -0.00000000000E+00 -0.45593999997E+02  0.45594000000E+02  0.51100000000E-03 0. -1.
    9900012    2    1    2    0    0  0.27748377278E+02  0.30199144834E+02  0.14200792739E+02  0.47787270690E+02  0.19999998384E+02 0.  0.
         12    1    1    2    0    0 -0.27748377278E+02 -0.30199144834E+02 -0.14200792739E+02  0.43400729310E+02  0.00000000000E+00 0. -1.
         11    1    3    3    0    0  0.21517570240E+02  0.10073958859E+02  0.75706526929E+01  0.24936023311E+02  0.51100000000E-03 0. -1.
        -11    1    3    3    0    0 -0.43289241123E+00  0.37128116565E+01  0.29442318794E+01  0.47582420974E+01  0.51100000000E-03 0.  1.
         12    1    3    3    0    0  0.66636994490E+01  0.16412374318E+02  0.36859081666E+01  0.18093005281E+02  0.00000000000E+00 0. -1.
</event>
<event>
 7    1  0.1265344E-009  0.4778727E+02  0.7816164E-02  0.1312668E+00
        -11   -1    0    0    0    0  0.00000000000E+00  0.00000000000E+00  0.45593999997E+02  0.45594000000E+02  0.51100000000E-03 0. -1.
         11   -1    0    0    0    0 -0.00000000000E+00 -0.00000000000E+00 -0.45593999997E+02  0.45594000000E+02  0.51100000000E-03 0.  1.
    9900012    2    1    2    0    0 -0.42312846240E+02 -0.13924759635E+01 -0.95554834732E+01  0.47787271773E+02  0.20000003323E+02 0.  0.
         12    1    1    2    0    0  0.42312846240E+02  0.13924759635E+01  0.95554834732E+01  0.43400728227E+02  0.00000000000E+00 0. -1.
         11    1    3    3    0    0 -0.37809150455E+01  0.53529347133E+01 -0.24380660737E+01  0.69923812157E+01  0.51100000000E-03 0.  1.
        -11    1    3    3    0    0 -0.14663642970E+02 -0.28413671264E+01  0.17424384802E+01  0.15037682149E+02  0.51100000000E-03 0. -1.
        -12    1    3    3    0    0 -0.23868288224E+02 -0.39040435504E+01 -0.88598558797E+01  0.25757208408E+02  0.00000000000E+00 0.  1.
</event>
<event>
 7    1  0.1265344E-009  0.4778728E+02  0.7816164E-02  0.1312668E+00
        -11   -1    0    0    0    0  0.00000000000E+00  0.00000000000E+00  0.45593999997E+02  0.45594000000E+02  0.51100000000E-03 0. -1.
         11   -1    0    0    0    0 -0.00000000000E+00 -0.00000000000E+00 -0.45593999997E+02  0.45594000000E+02  0.51100000000E-03 0.  1.
    9900012    2    1    2    0    0 -0.23076305882E+02 -0.36205411680E+02  0.63462350934E+01  0.47787280791E+02  0.20000044436E+02 0.  0.
         12    1    1    2    0    0  0.23076305882E+02  0.36205411680E+02 -0.63462350934E+01  0.43400719209E+02  0.00000000000E+00 0. -1.
         11    1    3    3    0    0 -0.99905027811E+01 -0.25688630369E+02  0.29338713698E+01  0.27718648552E+02  0.51100000000E-03 0.  1.
        -11    1    3    3    0    0 -0.97018694133E+01 -0.94516786681E+01  0.68065830396E+01  0.15158828210E+02  0.51100000000E-03 0. -1.
        -12    1    3    3    0    0 -0.33839336872E+01 -0.10651026425E+01 -0.33942193159E+01  0.49098040290E+01  0.00000000000E+00 0.  1.
</event>
<event>
 7    1  0.1265344E-009  0.4778726E+02  0.7816164E-02  0.1312668E+00
        -11   -1    0    0    0    0  0.00000000000E+00  0.00000000000E+00  0.45593999997E+02  0.45594000000E+02  0.51100000000E-03 0. -1.
         11   -1    0    0    0    0 -0.00000000000E+00 -0.00000000000E+00 -0.45593999997E+02  0.45594000000E+02  0.51100000000E-03 0.  1.
    9900012    2    1    2    0    0 -0.28656590585E+02  0.55613723574E+01 -0.32116903855E+02  0.47787256231E+02  0.19999932460E+02 0.  0.
         12    1    1    2    0    0  0.28656590585E+02 -0.55613723574E+01  0.32116903855E+02  0.43400743769E+02  0.00000000000E+00 0. -1.
         11    1    3    3    0    0 -0.11520086163E+01 -0.12197643954E+01  0.77652639291E+00  0.18487678417E+01  0.51100000000E-03 0. -1.
        -11    1    3    3    0    0 -0.21841735767E+02  0.11074004145E+02 -0.28534429774E+02  0.37601976968E+02  0.51100000000E-03 0.  1.
         12    1    3    3    0    0 -0.56628462013E+01 -0.42928673917E+01 -0.43590004744E+01  0.83365114213E+01  0.00000000000E+00 0. -1.
</event>
<event>
 7    1  0.1265344E-009  0.4778727E+02  0.7816164E-02  0.1312668E+00
        -11   -1    0    0    0    0  0.00000000000E+00  0.00000000000E+00  0.45593999997E+02  0.45594000000E+02  0.51100000000E-03 0.  1.
         11   -1    0    0    0    0 -0.00000000000E+00 -0.00000000000E+00 -0.45593999997E+02  0.45594000000E+02  0.51100000000E-03 0. -1.
    9900012    2    1    2    0    0  0.99508712969E+01 -0.24255207562E+01  0.42174877433E+02  0.47787271008E+02  0.19999999834E+02 0.  0.
         12    1    1    2    0    0 -0.99508712969E+01  0.24255207562E+01 -0.42174877433E+02  0.43400728992E+02  0.00000000000E+00 0. -1.
         11    1    3    3    0    0  0.11053227104E+01 -0.36812440454E+01  0.76469275933E+01  0.85585511562E+01  0.51100000000E-03 0. -1.
        -11    1    3    3    0    0  0.55110992458E+01 -0.71407299863E+01  0.22049711635E+02  0.23823350375E+02  0.51100000000E-03 0.  1.
         12    1    3    3    0    0  0.33344493407E+01  0.83964532755E+01  0.12478238205E+02  0.15405369477E+02  0.00000000000E+00 0. -1.
</event>
<event>
 7    1  0.1265344E-009  0.4778727E+02  0.7816164E-02  0.1312668E+00
        -11   -1    0    0    0    0  0.00000000000E+00  0.00000000000E+00  0.45593999997E+02  0.45594000000E+02  0.51100000000E-03 0.  1.
         11   -1    0    0    0    0 -0.00000000000E+00 -0.00000000000E+00 -0.45593999997E+02  0.45594000000E+02  0.51100000000E-03 0. -1.
    9900012    2    1    2    0    0  0.18777645316E+02 -0.14120990075E+02  0.36491384476E+02  0.47787268839E+02  0.19999989945E+02 0.  0.
         12    1    1    2    0    0 -0.18777645316E+02  0.14120990075E+02 -0.36491384476E+02  0.43400731161E+02  0.00000000000E+00 0. -1.
         11    1    3    3    0    0  0.14078909455E+02 -0.56829959203E+01  0.16204215902E+02  0.22205601710E+02  0.51100000000E-03 0. -1.
        -11    1    3    3    0    0  0.30225236539E+01 -0.16698483530E+01  0.17872104280E+02  0.18202641414E+02  0.51100000000E-03 0.  1.
         12    1    3    3    0    0  0.16762122075E+01 -0.67681458019E+01  0.24150642938E+01  0.73790257151E+01  0.00000000000E+00 0. -1.
</event>
<event>
 7    1  0.1265344E-009  0.4778727E+02  0.7816164E-02  0.1312668E+00
        -11   -1    0    0    0    0  0.00000000000E+00  0.00000000000E+00  0.45593999997E+02  0.45594000000E+02  0.51100000000E-03 0.  1.
         11   -1    0    0    0    0 -0.00000000000E+00 -0.00000000000E+00 -0.45593999997E+02  0.45594000000E+02  0.51100000000E-03 0. -1.
    9900012    2    1    2    0    0  0.20199783046E+02 -0.32882316850E+02  0.19858129751E+02  0.47787270585E+02  0.19999997907E+02 0.  0.
         12    1    1    2    0    0 -0.20199783046E+02  0.32882316850E+02 -0.19858129751E+02  0.43400729415E+02  0.00000000000E+00 0. -1.
         11    1    3    3    0    0  0.12045742845E+02 -0.18104910820E+02  0.33715185691E+01  0.22005791379E+02  0.51100000000E-03 0. -1.
        -11    1    3    3    0    0  0.46164553145E+01 -0.95128927488E+01  0.31819031380E+01  0.11042250493E+02  0.51100000000E-03 0.  1.
        -12    1    3    3    0    0  0.35375848866E+01 -0.52645132811E+01  0.13304708044E+02  0.14739228713E+02  0.00000000000E+00 0.  1.
</event>
<event>
 7    1  0.1265344E-009  0.4778727E+02  0.7816164E-02  0.1312668E+00
        -11   -1    0    0    0    0  0.00000000000E+00  0.00000000000E+00  0.45593999997E+02  0.45594000000E+02  0.51100000000E-03 0.  1.
         11   -1    0    0    0    0 -0.00000000000E+00 -0.00000000000E+00 -0.45593999997E+02  0.45594000000E+02  0.51100000000E-03 0. -1.
    9900012    2    1    2    0    0 -0.28979955157E+02  0.15872812393E+02  0.28139637709E+02  0.47787272074E+02  0.20000004692E+02 0.  0.
         12    1    1    2    0    0  0.28979955157E+02 -0.15872812393E+02 -0.28139637709E+02  0.43400727926E+02  0.00000000000E+00 0. -1.
         11    1    3    3    0    0 -0.49316151154E+01  0.14952459104E+01 -0.14606413266E+01  0.53563104209E+01  0.51100000000E-03 0. -1.
        -11    1    3    3    0    0 -0.14848952699E+02  0.26498858097E+01  0.18366652166E+02  0.23766514324E+02  0.51100000000E-03 0.  1.
        -12    1    3    3    0    0 -0.91993873428E+01  0.11727680673E+02  0.11233626869E+02  0.18664447329E+02  0.00000000000E+00 0.  1.
</event>
<event>
 7    1  0.1265344E-009  0.4778727E+02  0.7816164E-02  0.1312668E+00
        -11   -1    0    0    0    0  0.00000000000E+00  0.00000000000E+00  0.45593999997E+02  0.45594000000E+02  0.51100000000E-03 0. -1.
         11   -1    0    0    0    0 -0.00000000000E+00 -0.00000000000E+00 -0.45593999997E+02  0.45594000000E+02  0.51100000000E-03 0.  1.
    9900012    2    1    2    0    0  0.36137121984E+01 -0.24910200597E+02 -0.35356000217E+02  0.47787265433E+02  0.19999974416E+02 0.  0.
         12    1    1    2    0    0 -0.36137121984E+01  0.24910200597E+02  0.35356000217E+02  0.43400734567E+02  0.00000000000E+00 0. -1.
         11    1    3    3    0    0  0.38611637924E+01 -0.68831502835E+01 -0.51297438855E+01  0.94127900353E+01  0.51100000000E-03 0. -1.
        -11    1    3    3    0    0 -0.64989917916E+01 -0.46927829148E+01 -0.16012967555E+02  0.17907379372E+02  0.51100000000E-03 0.  1.
        -12    1    3    3    0    0  0.62515401976E+01 -0.13334267398E+02 -0.14213288776E+02  0.20467096026E+02  0.00000000000E+00 0.  1.
</event>
<event>
 7    1  0.1265344E-009  0.4778727E+02  0.7816164E-02  0.1312668E+00
        -11   -1    0    0    0    0  0.00000000000E+00  0.00000000000E+00  0.45593999997E+02  0.45594000000E+02  0.51100000000E-03 0. -1.
         11   -1    0    0    0    0 -0.00000000000E+00 -0.00000000000E+00 -0.45593999997E+02  0.45594000000E+02  0.51100000000E-03 0.  1.
    9900012    2    1    2    0    0  0.40389019914E+02 -0.12854278767E+02 -0.93336970120E+01  0.47787270604E+02  0.19999997990E+02 0.  0.
         12    1    1    2    0    0 -0.40389019914E+02  0.12854278767E+02  0.93336970120E+01  0.43400729396E+02  0.00000000000E+00 0. -1.
         11    1    3    3    0    0  0.16956462716E+02 -0.11416001509E+02 -0.76500151455E+01  0.21825889450E+02  0.51100000000E-03 0. -1.
        -11    1    3    3    0    0  0.22333047337E+02 -0.18779951307E+01 -0.45419955606E+01  0.22867478938E+02  0.51100000000E-03 0.  1.
        -12    1    3    3    0    0  0.10995098608E+01  0.43971787288E+00  0.28583136941E+01  0.30939022149E+01  0.00000000000E+00 0.  1.
</event>
<event>
 7    1  0.1265344E-009  0.4778727E+02  0.7816164E-02  0.1312668E+00
        -11   -1    0    0    0    0  0.00000000000E+00  0.00000000000E+00  0.45593999997E+02  0.45594000000E+02  0.51100000000E-03 0.  1.
         11   -1    0    0    0    0 -0.00000000000E+00 -0.00000000000E+00 -0.45593999997E+02  0.45594000000E+02  0.51100000000E-03 0. -1.
    9900012    2    1    2    0    0 -0.20187284222E+02  0.13142361646E+02  0.36102285260E+02  0.47787272876E+02  0.20000008350E+02 0.  0.
         12    1    1    2    0    0  0.20187284222E+02 -0.13142361646E+02 -0.36102285260E+02  0.43400727124E+02  0.00000000000E+00 0. -1.
         11    1    3    3    0    0  0.13158423755E+01  0.67896656544E+00  0.12172178375E+01  0.19167827940E+01  0.51100000000E-03 0. -1.
        -11    1    3    3    0    0 -0.22933378958E+02  0.11736009626E+02  0.35736352661E+02  0.44054065580E+02  0.51100000000E-03 0.  1.
        -12    1    3    3    0    0  0.14302523602E+01  0.72738545487E+00 -0.85128523822E+00  0.18164245018E+01  0.00000000000E+00 0.  1.
</event>
<event>
 7    1  0.1265344E-009  0.4778726E+02  0.7816164E-02  0.1312668E+00
        -11   -1    0    0    0    0  0.00000000000E+00  0.00000000000E+00  0.45593999997E+02  0.45594000000E+02  0.51100000000E-03 0.  1.
         11   -1    0    0    0    0 -0.00000000000E+00 -0.00000000000E+00 -0.45593999997E+02  0.45594000000E+02  0.51100000000E-03 0. -1.
    9900012    2    1    2    0    0  0.36209379259E+02  0.90720198065E+01  0.22140532171E+02  0.47787264355E+02  0.19999969500E+02 0.  0.
         12    1    1    2    0    0 -0.36209379259E+02 -0.90720198065E+01 -0.22140532171E+02  0.43400735645E+02  0.00000000000E+00 0. -1.
         11    1    3    3    0    0  0.10973337916E+01 -0.11625602476E+01 -0.18654876973E+01  0.24567727590E+01  0.51100000000E-03 0. -1.
        -11    1    3    3    0    0  0.81486199251E+01 -0.26170121370E+01  0.46882145686E+01  0.97584893970E+01  0.51100000000E-03 0.  1.
        -12    1    3    3    0    0  0.26963425542E+02  0.12851592191E+02  0.19317805300E+02  0.35572002199E+02  0.00000000000E+00 0.  1.
</event>
<event>
 7    1  0.1265344E-009  0.4778724E+02  0.7816164E-02  0.1312668E+00
        -11   -1    0    0    0    0  0.00000000000E+00  0.00000000000E+00  0.45593999997E+02  0.45594000000E+02  0.51100000000E-03 0.  1.
         11   -1    0    0    0    0 -0.00000000000E+00 -0.00000000000E+00 -0.45593999997E+02  0.45594000000E+02  0.51100000000E-03 0. -1.
    9900012    2    1    2    0    0 -0.11369434668E+02  0.15368461615E+02  0.38963728233E+02  0.47787242232E+02  0.19999868630E+02 0.  0.
         12    1    1    2    0    0  0.11369434668E+02 -0.15368461615E+02 -0.38963728233E+02  0.43400757768E+02  0.00000000000E+00 0. -1.
         11    1    3    3    0    0 -0.18225026312E+00  0.18268371931E+01 -0.63642699489E+00  0.19430874580E+01  0.51100000000E-03 0. -1.
        -11    1    3    3    0    0 -0.13977012788E+02  0.74396935381E+01  0.32021272214E+02  0.35722091217E+02  0.51100000000E-03 0.  1.
        -12    1    3    3    0    0  0.27898283829E+01  0.61019308841E+01  0.75788830133E+01  0.10122063557E+02  0.00000000000E+00 0.  1.
</event>
<event>
 7    1  0.1265344E-009  0.4778727E+02  0.7816164E-02  0.1312668E+00
        -11   -1    0    0    0    0  0.00000000000E+00  0.00000000000E+00  0.45593999997E+02  0.45594000000E+02  0.51100000000E-03 0.  1.
         11   -1    0    0    0    0 -0.00000000000E+00 -0.00000000000E+00 -0.45593999997E+02  0.45594000000E+02  0.51100000000E-03 0. -1.
    9900012    2    1    2    0    0  0.40384161761E+02  0.14668963067E+02  0.61289731720E+01  0.47787270620E+02  0.19999998066E+02 0.  0.
         12    1    1    2    0    0 -0.40384161761E+02 -0.14668963067E+02 -0.61289731720E+01  0.43400729380E+02  0.00000000000E+00 0. -1.
         11    1    3    3    0    0  0.31838720467E+02  0.10414631820E+02  0.61423198342E+01  0.34057257231E+02  0.51100000000E-03 0. -1.
        -11    1    3    3    0    0  0.31381011357E+01 -0.20208090410E+01  0.31289730296E+01  0.48705051482E+01  0.51100000000E-03 0.  1.
         12    1    3    3    0    0  0.54073401577E+01  0.62751402883E+01 -0.31423196918E+01  0.88595082405E+01  0.00000000000E+00 0. -1.
</event>
<event>
 7    1  0.1265344E-009  0.4778727E+02  0.7816164E-02  0.1312668E+00
        -11   -1    0    0    0    0  0.00000000000E+00  0.00000000000E+00  0.45593999997E+02  0.45594000000E+02  0.51100000000E-03 0.  1.
         11   -1    0    0    0    0 -0.00000000000E+00 -0.00000000000E+00 -0.45593999997E+02  0.45594000000E+02  0.51100000000E-03 0. -1.
    9900012    2    1    2    0    0 -0.32677096266E+02 -0.28118847481E+02 -0.50161027124E+01  0.47787268549E+02  0.19999988623E+02 0.  0.
         12    1    1    2    0    0  0.32677096266E+02  0.28118847481E+02  0.50161027124E+01  0.43400731451E+02  0.00000000000E+00 0. -1.
         11    1    3    3    0    0 -0.32191707473E+01  0.24426933329E+01 -0.93661039174E+00  0.41481381734E+01  0.51100000000E-03 0. -1.
        -11    1    3    3    0    0 -0.17096814418E+02 -0.14177705934E+02 -0.60531806233E+01  0.23020629981E+02  0.51100000000E-03 0.  1.
        -12    1    3    3    0    0 -0.12361111101E+02 -0.16383834879E+02  0.19736883026E+01  0.20618500395E+02  0.00000000000E+00 0.  1.
</event>
<event>
 7    1  0.1265344E-009  0.4778732E+02  0.7816164E-02  0.1312668E+00
        -11   -1    0    0    0    0  0.00000000000E+00  0.00000000000E+00  0.45593999997E+02  0.45594000000E+02  0.51100000000E-03 0.  1.
         11   -1    0    0    0    0 -0.00000000000E+00 -0.00000000000E+00 -0.45593999997E+02  0.45594000000E+02  0.51100000000E-03 0. -1.
    9900012    2    1    2    0    0 -0.26602927748E+02 -0.25337722900E+02  0.23106348900E+02  0.47787316526E+02  0.20000207369E+02 0.  0.
         12    1    1    2    0    0  0.26602927748E+02  0.25337722900E+02 -0.23106348900E+02  0.43400683474E+02  0.00000000000E+00 0. -1.
         11    1    3    3    0    0 -0.14065659273E+01 -0.60427487600E+01 -0.86139777549E-01  0.62048900559E+01  0.51100000000E-03 0.  1.
        -11    1    3    3    0    0 -0.20321428833E+02 -0.19972338935E+02  0.15461697132E+02  0.32417878876E+02  0.51100000000E-03 0. -1.
         12    1    3    3    0    0 -0.48749329875E+01  0.67736479487E+00  0.77307915450E+01  0.91645475944E+01  0.00000000000E+00 0. -1.
</event>
<event>
 7    1  0.1265344E-009  0.4778727E+02  0.7816164E-02  0.1312668E+00
        -11   -1    0    0    0    0  0.00000000000E+00  0.00000000000E+00  0.45593999997E+02  0.45594000000E+02  0.51100000000E-03 0. -1.
         11   -1    0    0    0    0 -0.00000000000E+00 -0.00000000000E+00 -0.45593999997E+02  0.45594000000E+02  0.51100000000E-03 0.  1.
    9900012    2    1    2    0    0 -0.26972786121E+02 -0.33436291678E+02 -0.61730768345E+01  0.47787266482E+02  0.19999979196E+02 0.  0.
         12    1    1    2    0    0  0.26972786121E+02  0.33436291678E+02  0.61730768345E+01  0.43400733518E+02  0.00000000000E+00 0. -1.
         11    1    3    3    0    0 -0.36779652175E+01 -0.30632436186E+01  0.78623383239E+00  0.48506755723E+01  0.51100000000E-03 0. -1.
        -11    1    3    3    0    0 -0.83835672680E+01 -0.96871685768E+01 -0.11284505479E+02  0.17072360684E+02  0.51100000000E-03 0.  1.
        -12    1    3    3    0    0 -0.14911253636E+02 -0.20685879483E+02  0.43251948117E+01  0.25864230225E+02  0.00000000000E+00 0.  1.
</event>
<event>
 7    1  0.1265344E-009  0.4778727E+02  0.7816164E-02  0.1312668E+00
        -11   -1    0    0    0    0  0.00000000000E+00  0.00000000000E+00  0.45593999997E+02  0.45594000000E+02  0.51100000000E-03 0.  1.
         11   -1    0    0    0    0 -0.00000000000E+00 -0.00000000000E+00 -0.45593999997E+02  0.45594000000E+02  0.51100000000E-03 0. -1.
    9900012    2    1    2    0    0  0.39195449322E+02  0.13278620817E+02 -0.13077386000E+02  0.47787273705E+02  0.20000012130E+02 0.  0.
         12    1    1    2    0    0 -0.39195449322E+02 -0.13278620817E+02  0.13077386000E+02  0.43400726295E+02  0.00000000000E+00 0. -1.
         11    1    3    3    0    0  0.11253250756E+02  0.56596346220E+00 -0.65971644333E+01  0.13056743317E+02  0.51100000000E-03 0. -1.
        -11    1    3    3    0    0  0.77265831984E+01  0.16041128262E+01  0.46068997111E+01  0.91376578558E+01  0.51100000000E-03 0.  1.
        -12    1    3    3    0    0  0.20215615367E+02  0.11108544529E+02 -0.11087121278E+02  0.25592872532E+02  0.00000000000E+00 0.  1.
</event>
<event>
 7    1  0.1265344E-009  0.4778727E+02  0.7816164E-02  0.1312668E+00
        -11   -1    0    0    0    0  0.00000000000E+00  0.00000000000E+00  0.45593999997E+02  0.45594000000E+02  0.51100000000E-03 0.  1.
         11   -1    0    0    0    0 -0.00000000000E+00 -0.00000000000E+00 -0.45593999997E+02  0.45594000000E+02  0.51100000000E-03 0. -1.
    9900012    2    1    2    0    0 -0.29454782759E+02 -0.94279634529E+01  0.30449174851E+02  0.47787274530E+02  0.20000015891E+02 0.  0.
         12    1    1    2    0    0  0.29454782759E+02  0.94279634529E+01 -0.30449174851E+02  0.43400725470E+02  0.00000000000E+00 0. -1.
         11    1    3    3    0    0  0.18797946723E+01 -0.55543019383E+00  0.63298911666E+00  0.20598073194E+01  0.51100000000E-03 0. -1.
        -11    1    3    3    0    0 -0.14970224276E+02 -0.10389453079E+02  0.15048513956E+02  0.23632734135E+02  0.51100000000E-03 0.  1.
         12    1    3    3    0    0 -0.16364353155E+02  0.15169198195E+01  0.14767671778E+02  0.22094733076E+02  0.00000000000E+00 0. -1.
</event>
<event>
 7    1  0.1265344E-009  0.4778727E+02  0.7816164E-02  0.1312668E+00
        -11   -1    0    0    0    0  0.00000000000E+00  0.00000000000E+00  0.45593999997E+02  0.45594000000E+02  0.51100000000E-03 0.  1.
         11   -1    0    0    0    0 -0.00000000000E+00 -0.00000000000E+00 -0.45593999997E+02  0.45594000000E+02  0.51100000000E-03 0. -1.
    9900012    2    1    2    0    0  0.14035788980E+02 -0.20567474232E+02  0.35547137374E+02  0.47787270235E+02  0.19999996312E+02 0.  0.
         12    1    1    2    0    0 -0.14035788980E+02  0.20567474232E+02 -0.35547137374E+02  0.43400729765E+02  0.00000000000E+00 0. -1.
         11    1    3    3    0    0  0.42395851732E+01 -0.24322714020E+01  0.17991612176E+02  0.18643715712E+02  0.51100000000E-03 0. -1.
        -11    1    3    3    0    0  0.83357009130E+01 -0.49079916466E+01  0.51896871202E+01  0.10977483518E+02  0.51100000000E-03 0.  1.
        -12    1    3    3    0    0  0.14605028940E+01 -0.13227211184E+02  0.12365838078E+02  0.18166071006E+02  0.00000000000E+00 0.  1.
</event>
<event>
 7    1  0.1265344E-009  0.4778727E+02  0.7816164E-02  0.1312668E+00
        -11   -1    0    0    0    0  0.00000000000E+00  0.00000000000E+00  0.45593999997E+02  0.45594000000E+02  0.51100000000E-03 0.  1.
         11   -1    0    0    0    0 -0.00000000000E+00 -0.00000000000E+00 -0.45593999997E+02  0.45594000000E+02  0.51100000000E-03 0. -1.
    9900012    2    1    2    0    0 -0.19850332993E+02  0.13095871692E+02  0.36305454628E+02  0.47787267160E+02  0.19999982290E+02 0.  0.
         12    1    1    2    0    0  0.19850332993E+02 -0.13095871692E+02 -0.36305454628E+02  0.43400732840E+02  0.00000000000E+00 0. -1.
         11    1    3    3    0    0 -0.73749391447E+01  0.12727700081E+01  0.13614855945E+00  0.74851992341E+01  0.51100000000E-03 0. -1.
        -11    1    3    3    0    0 -0.17721319036E+01  0.27100054404E+01  0.11075450901E+02  0.11539072488E+02  0.51100000000E-03 0.  1.
        -12    1    3    3    0    0 -0.10703261945E+02  0.91130962435E+01  0.25093855167E+02  0.28762995438E+02  0.00000000000E+00 0.  1.
</event>
<event>
 7    1  0.1265344E-009  0.4778728E+02  0.7816164E-02  0.1312668E+00
        -11   -1    0    0    0    0  0.00000000000E+00  0.00000000000E+00  0.45593999997E+02  0.45594000000E+02  0.51100000000E-03 0.  1.
         11   -1    0    0    0    0 -0.00000000000E+00 -0.00000000000E+00 -0.45593999997E+02  0.45594000000E+02  0.51100000000E-03 0. -1.
    9900012    2    1    2    0    0 -0.20216880948E+02  0.25743829143E+02  0.28498349067E+02  0.47787275193E+02  0.20000018916E+02 0.  0.
         12    1    1    2    0    0  0.20216880948E+02 -0.25743829143E+02 -0.28498349067E+02  0.43400724807E+02  0.00000000000E+00 0. -1.
         11    1    3    3    0    0  0.25784754801E+01  0.44448848432E+01  0.64326505169E+01  0.82331360978E+01  0.51100000000E-03 0. -1.
        -11    1    3    3    0    0 -0.77595316910E+01  0.85609139443E+01  0.25756531737E+01  0.11837802548E+02  0.51100000000E-03 0.  1.
         12    1    3    3    0    0 -0.15035824737E+02  0.12738030356E+02  0.19490045376E+02  0.27716336548E+02  0.00000000000E+00 0. -1.
</event>
<event>
 7    1  0.1265344E-009  0.4778727E+02  0.7816164E-02  0.1312668E+00
        -11   -1    0    0    0    0  0.00000000000E+00  0.00000000000E+00  0.45593999997E+02  0.45594000000E+02  0.51100000000E-03 0.  1.
         11   -1    0    0    0    0 -0.00000000000E+00 -0.00000000000E+00 -0.45593999997E+02  0.45594000000E+02  0.51100000000E-03 0. -1.
    9900012    2    1    2    0    0  0.54457216493E+01  0.15499979403E+02  0.40171109863E+02  0.47787270589E+02  0.19999997924E+02 0.  0.
         12    1    1    2    0    0 -0.54457216493E+01 -0.15499979403E+02 -0.40171109863E+02  0.43400729411E+02  0.00000000000E+00 0. -1.
         11    1    3    3    0    0  0.14935389889E+01 -0.21024824225E+01  0.84181370170E-01  0.25803445143E+01  0.51100000000E-03 0. -1.
        -11    1    3    3    0    0  0.61420536864E+01  0.57130403000E+01  0.21001294612E+02  0.22614553469E+02  0.51100000000E-03 0.  1.
        -12    1    3    3    0    0 -0.21898710260E+01  0.11889421526E+02  0.19085633881E+02  0.22592372606E+02  0.00000000000E+00 0.  1.
</event>
<event>
 7    1  0.1265344E-009  0.4778727E+02  0.7816164E-02  0.1312668E+00
        -11   -1    0    0    0    0  0.00000000000E+00  0.00000000000E+00  0.45593999997E+02  0.45594000000E+02  0.51100000000E-03 0.  1.
         11   -1    0    0    0    0 -0.00000000000E+00 -0.00000000000E+00 -0.45593999997E+02  0.45594000000E+02  0.51100000000E-03 0. -1.
    9900012    2    1    2    0    0  0.19843640439E+01  0.13518557622E+02  0.41193859642E+02  0.47787272206E+02  0.20000005295E+02 0.  0.
         12    1    1    2    0    0 -0.19843640439E+01 -0.13518557622E+02 -0.41193859642E+02  0.43400727794E+02  0.00000000000E+00 0. -1.
         11    1    3    3    0    0 -0.49055056030E+01  0.85548461069E+00  0.79949317352E+01  0.94188519922E+01  0.51100000000E-03 0. -1.
        -11    1    3    3    0    0  0.48981393390E+01 -0.13360251553E+01  0.80662119314E+01  0.95310286634E+01  0.51100000000E-03 0.  1.
         12    1    3    3    0    0  0.19917303078E+01  0.13999098167E+02  0.25132715976E+02  0.28837391550E+02  0.00000000000E+00 0. -1.
</event>
<event>
 7    1  0.1265344E-009  0.4778727E+02  0.7816164E-02  0.1312668E+00
        -11   -1    0    0    0    0  0.00000000000E+00  0.00000000000E+00  0.45593999997E+02  0.45594000000E+02  0.51100000000E-03 0.  1.
         11   -1    0    0    0    0 -0.00000000000E+00 -0.00000000000E+00 -0.45593999997E+02  0.45594000000E+02  0.51100000000E-03 0. -1.
    9900012    2    1    2    0    0 -0.17305494373E+02 -0.39452143558E+02 -0.52603857426E+01  0.47787269303E+02  0.19999992061E+02 0.  0.
         12    1    1    2    0    0  0.17305494373E+02  0.39452143558E+02  0.52603857426E+01  0.43400730697E+02  0.00000000000E+00 0. -1.
         11    1    3    3    0    0  0.23225280201E+01 -0.75157320836E+01  0.13688450968E+00  0.78675982858E+01  0.51100000000E-03 0. -1.
        -11    1    3    3    0    0 -0.11430749426E+02 -0.15622145034E+02  0.33984289534E+01  0.19653568824E+02  0.51100000000E-03 0.  1.
         12    1    3    3    0    0 -0.81972729668E+01 -0.16314266441E+02 -0.87956992057E+01  0.20266102193E+02  0.00000000000E+00 0. -1.
</event>
<event>
 7    1  0.1265344E-009  0.4778727E+02  0.7816164E-02  0.1312668E+00
        -11   -1    0    0    0    0  0.00000000000E+00  0.00000000000E+00  0.45593999997E+02  0.45594000000E+02  0.51100000000E-03 0. -1.
         11   -1    0    0    0    0 -0.00000000000E+00 -0.00000000000E+00 -0.45593999997E+02  0.45594000000E+02  0.51100000000E-03 0.  1.
    9900012    2    1    2    0    0  0.15287740733E+02 -0.19712034771E+01 -0.40571202572E+02  0.47787272610E+02  0.20000007139E+02 0.  0.
         12    1    1    2    0    0 -0.15287740733E+02  0.19712034771E+01  0.40571202572E+02  0.43400727390E+02  0.00000000000E+00 0. -1.
         11    1    3    3    0    0  0.35310579237E+01  0.13471920134E+01 -0.20214989055E+02  0.20565239584E+02  0.51100000000E-03 0. -1.
        -11    1    3    3    0    0  0.62206439685E+01  0.42449260089E+01 -0.44156263138E+01  0.87300380415E+01  0.51100000000E-03 0.  1.
        -12    1    3    3    0    0  0.55360388407E+01 -0.75633214993E+01 -0.15940587203E+02  0.18491994985E+02  0.00000000000E+00 0.  1.
</event>
<event>
 7    1  0.1265344E-009  0.4778729E+02  0.7816164E-02  0.1312668E+00
        -11   -1    0    0    0    0  0.00000000000E+00  0.00000000000E+00  0.45593999997E+02  0.45594000000E+02  0.51100000000E-03 0.  1.
         11   -1    0    0    0    0 -0.00000000000E+00 -0.00000000000E+00 -0.45593999997E+02  0.45594000000E+02  0.51100000000E-03 0. -1.
    9900012    2    1    2    0    0  0.27708519525E+02 -0.71594809206E+01 -0.32628229667E+02  0.47787290415E+02  0.20000088318E+02 0.  0.
         12    1    1    2    0    0 -0.27708519525E+02  0.71594809206E+01  0.32628229667E+02  0.43400709585E+02  0.00000000000E+00 0. -1.
         11    1    3    3    0    0  0.24731996534E+01 -0.66877584056E+01 -0.68384869672E+01  0.98796626095E+01  0.51100000000E-03 0.  1.
        -11    1    3    3    0    0  0.16698433375E+02 -0.39955734153E+01 -0.10746606469E+02  0.20255661800E+02  0.51100000000E-03 0. -1.
         12    1    3    3    0    0  0.85368864962E+01  0.35238509003E+01 -0.15043136230E+02  0.17651966005E+02  0.00000000000E+00 0. -1.
</event>
<event>
 7    1  0.1265344E-009  0.4778727E+02  0.7816164E-02  0.1312668E+00
        -11   -1    0    0    0    0  0.00000000000E+00  0.00000000000E+00  0.45593999997E+02  0.45594000000E+02  0.51100000000E-03 0.  1.
         11   -1    0    0    0    0 -0.00000000000E+00 -0.00000000000E+00 -0.45593999997E+02  0.45594000000E+02  0.51100000000E-03 0. -1.
    9900012    2    1    2    0    0  0.26173528966E+02 -0.34184102727E+02  0.54787934403E+01  0.47787266419E+02  0.19999978912E+02 0.  0.
         12    1    1    2    0    0 -0.26173528966E+02  0.34184102727E+02 -0.54787934403E+01  0.43400733581E+02  0.00000000000E+00 0. -1.
         11    1    3    3    0    0  0.33969610920E+01 -0.11813989862E+02  0.43019173096E+01  0.13023678203E+02  0.51100000000E-03 0. -1.
        -11    1    3    3    0    0  0.90004499642E+01 -0.17583775540E+02  0.32960554627E+01  0.20026513518E+02  0.51100000000E-03 0.  1.
         12    1    3    3    0    0  0.13776117909E+02 -0.47863373247E+01 -0.21191793320E+01  0.14737074699E+02  0.00000000000E+00 0. -1.
</event>
<event>
 7    1  0.1351144E-009  0.4778726E+02  0.7816164E-02  0.1312668E+00
        -11   -1    0    0    0    0  0.00000000000E+00  0.00000000000E+00  0.45593999997E+02  0.45594000000E+02  0.51100000000E-03 0. -1.
         11   -1    0    0    0    0 -0.00000000000E+00 -0.00000000000E+00 -0.45593999997E+02  0.45594000000E+02  0.51100000000E-03 0.  1.
    9900012    2    1    2    0    0 -0.27281289260E+02 -0.18218239596E+01 -0.33705137025E+02  0.47787262125E+02  0.19999959333E+02 0.  0.
         12    1    1    2    0    0  0.27281289260E+02  0.18218239596E+01  0.33705137025E+02  0.43400737875E+02  0.00000000000E+00 0. -1.
         11    1    3    3    0    0 -0.51076592941E+01  0.33921998107E+01 -0.43159142379E+01  0.74981543722E+01  0.51100000000E-03 0. -1.
        -11    1    3    3    0    0 -0.12887757361E+02 -0.60424076307E+01 -0.27220498193E+02  0.30717429937E+02  0.51100000000E-03 0.  1.
        -12    1    3    3    0    0 -0.92858726050E+01  0.82838386049E+00 -0.21687245937E+01  0.95716778163E+01  0.00000000000E+00 0.  1.
</event>
<event>
 7    1  0.1265344E-009  0.4778727E+02  0.7816164E-02  0.1312668E+00
        -11   -1    0    0    0    0  0.00000000000E+00  0.00000000000E+00  0.45593999997E+02  0.45594000000E+02  0.51100000000E-03 0.  1.
         11   -1    0    0    0    0 -0.00000000000E+00 -0.00000000000E+00 -0.45593999997E+02  0.45594000000E+02  0.51100000000E-03 0. -1.
    9900012    2    1    2    0    0 -0.16325376079E+02 -0.15903252746E+02  0.36934965160E+02  0.47787274161E+02  0.20000014209E+02 0.  0.
         12    1    1    2    0    0  0.16325376079E+02  0.15903252746E+02 -0.36934965160E+02  0.43400725839E+02  0.00000000000E+00 0. -1.
         11    1    3    3    0    0  0.94623653110E+00  0.34324195336E+01  0.24172361631E+01  0.43034751488E+01  0.51100000000E-03 0. -1.
        -11    1    3    3    0    0 -0.61746249876E+01 -0.54007463679E+01  0.14720710605E+02  0.16852103016E+02  0.51100000000E-03 0.  1.
         12    1    3    3    0    0 -0.11096987622E+02 -0.13934925912E+02  0.19797018391E+02  0.26631695996E+02  0.00000000000E+00 0. -1.
</event>
<event>
 7    1  0.1265344E-009  0.4778727E+02  0.7816164E-02  0.1312668E+00
        -11   -1    0    0    0    0  0.00000000000E+00  0.00000000000E+00  0.45593999997E+02  0.45594000000E+02  0.51100000000E-03 0.  1.
         11   -1    0    0    0    0 -0.00000000000E+00 -0.00000000000E+00 -0.45593999997E+02  0.45594000000E+02  0.51100000000E-03 0. -1.
    9900012    2    1    2    0    0 -0.20579563452E+02  0.12889937689E+01  0.38189573592E+02  0.47787268809E+02  0.19999989806E+02 0.  0.
         12    1    1    2    0    0  0.20579563452E+02 -0.12889937689E+01 -0.38189573592E+02  0.43400731191E+02  0.00000000000E+00 0. -1.
         11    1    3    3    0    0 -0.71977391959E+01  0.51639230101E+01  0.23055632089E+02  0.24698901224E+02  0.51100000000E-03 0. -1.
        -11    1    3    3    0    0 -0.38989198438E+01 -0.58617202297E+01  0.96822243885E+01  0.11971082214E+02  0.51100000000E-03 0.  1.
        -12    1    3    3    0    0 -0.94829044124E+01  0.19867909885E+01  0.54517171145E+01  0.11117285371E+02  0.00000000000E+00 0.  1.
</event>
<event>
 7    1  0.1265344E-009  0.4778727E+02  0.7816164E-02  0.1312668E+00
        -11   -1    0    0    0    0  0.00000000000E+00  0.00000000000E+00  0.45593999997E+02  0.45594000000E+02  0.51100000000E-03 0.  1.
         11   -1    0    0    0    0 -0.00000000000E+00 -0.00000000000E+00 -0.45593999997E+02  0.45594000000E+02  0.51100000000E-03 0. -1.
    9900012    2    1    2    0    0  0.36469616476E+02  0.17209936421E+02  0.16043957597E+02  0.47787269443E+02  0.19999992700E+02 0.  0.
         12    1    1    2    0    0 -0.36469616476E+02 -0.17209936421E+02 -0.16043957597E+02  0.43400730557E+02  0.00000000000E+00 0. -1.
         11    1    3    3    0    0 -0.13865770364E+01  0.41345815145E+00  0.66488401010E+00  0.15923613060E+01  0.51100000000E-03 0. -1.
        -11    1    3    3    0    0  0.32377868042E+02  0.13939569930E+02  0.17883719610E+02  0.39528032788E+02  0.51100000000E-03 0.  1.
         12    1    3    3    0    0  0.54783254702E+01  0.28569083394E+01 -0.25046460231E+01  0.66668753490E+01  0.00000000000E+00 0. -1.
</event>
<event>
 7    1  0.1265344E-009  0.4778727E+02  0.7816164E-02  0.1312668E+00
        -11   -1    0    0    0    0  0.00000000000E+00  0.00000000000E+00  0.45593999997E+02  0.45594000000E+02  0.51100000000E-03 0. -1.
         11   -1    0    0    0    0 -0.00000000000E+00 -0.00000000000E+00 -0.45593999997E+02  0.45594000000E+02  0.51100000000E-03 0.  1.
    9900012    2    1    2    0    0 -0.31422915116E+01 -0.12333771349E+02 -0.41492500274E+02  0.47787268547E+02  0.19999988613E+02 0.  0.
         12    1    1    2    0    0  0.31422915116E+01  0.12333771349E+02  0.41492500274E+02  0.43400731453E+02  0.00000000000E+00 0. -1.
         11    1    3    3    0    0 -0.94650380575E+00 -0.34948867395E+01 -0.24256453302E+02  0.24525203971E+02  0.51100000000E-03 0.  1.
        -11    1    3    3    0    0 -0.35962932411E+01 -0.64452299866E+01 -0.18243000060E+01  0.76027880038E+01  0.51100000000E-03 0. -1.
         12    1    3    3    0    0  0.14005055353E+01 -0.23936546229E+01 -0.15411746966E+02  0.15659276572E+02  0.00000000000E+00 0. -1.
</event>
<event>
 7    1  0.1265344E-009  0.4778727E+02  0.7816164E-02  0.1312668E+00
        -11   -1    0    0    0    0  0.00000000000E+00  0.00000000000E+00  0.45593999997E+02  0.45594000000E+02  0.51100000000E-03 0.  1.
         11   -1    0    0    0    0 -0.00000000000E+00 -0.00000000000E+00 -0.45593999997E+02  0.45594000000E+02  0.51100000000E-03 0. -1.
    9900012    2    1    2    0    0 -0.30380618879E+02  0.25363971478E+02  0.17813198171E+02  0.47787273259E+02  0.20000010096E+02 0.  0.
         12    1    1    2    0    0  0.30380618879E+02 -0.25363971478E+02 -0.17813198171E+02  0.43400726741E+02  0.00000000000E+00 0. -1.
         11    1    3    3    0    0 -0.69885963750E+01  0.13677179313E+02 -0.21366546529E+00  0.15360708527E+02  0.51100000000E-03 0. -1.
        -11    1    3    3    0    0 -0.34022118783E+01  0.53272038096E+00  0.50517596048E+01  0.61138459283E+01  0.51100000000E-03 0.  1.
         12    1    3    3    0    0 -0.19989810626E+02  0.11154071784E+02  0.12975104031E+02  0.26312718803E+02  0.00000000000E+00 0. -1.
</event>
<event>
 7    1  0.1265344E-009  0.4778727E+02  0.7816164E-02  0.1312668E+00
        -11   -1    0    0    0    0  0.00000000000E+00  0.00000000000E+00  0.45593999997E+02  0.45594000000E+02  0.51100000000E-03 0. -1.
         11   -1    0    0    0    0 -0.00000000000E+00 -0.00000000000E+00 -0.45593999997E+02  0.45594000000E+02  0.51100000000E-03 0.  1.
    9900012    2    1    2    0    0 -0.40904361953E+02  0.77895029877E+01 -0.12238487488E+02  0.47787265449E+02  0.19999974486E+02 0.  0.
         12    1    1    2    0    0  0.40904361953E+02 -0.77895029877E+01  0.12238487488E+02  0.43400734551E+02  0.00000000000E+00 0. -1.
         11    1    3    3    0    0 -0.59593725477E+01  0.15619847097E+01 -0.55517375813E+01  0.82931120714E+01  0.51100000000E-03 0. -1.
        -11    1    3    3    0    0 -0.13994523506E+02  0.58762589008E+01  0.43803478983E+01  0.15797612314E+02  0.51100000000E-03 0.  1.
        -12    1    3    3    0    0 -0.20950465899E+02  0.35125937719E+00 -0.11067097805E+02  0.23696541064E+02  0.00000000000E+00 0.  1.
</event>
<event>
 7    1  0.1265344E-009  0.4778727E+02  0.7816164E-02  0.1312668E+00
        -11   -1    0    0    0    0  0.00000000000E+00  0.00000000000E+00  0.45593999997E+02  0.45594000000E+02  0.51100000000E-03 0.  1.
         11   -1    0    0    0    0 -0.00000000000E+00 -0.00000000000E+00 -0.45593999997E+02  0.45594000000E+02  0.51100000000E-03 0. -1.
    9900012    2    1    2    0    0  0.13826698399E+02 -0.15986615849E+02  0.37906115279E+02  0.47787273618E+02  0.20000011734E+02 0.  0.
         12    1    1    2    0    0 -0.13826698399E+02  0.15986615849E+02 -0.37906115279E+02  0.43400726382E+02  0.00000000000E+00 0. -1.
         11    1    3    3    0    0  0.24048452427E+01 -0.73042403832E+01  0.99370154238E+01  0.12565010307E+02  0.51100000000E-03 0.  1.
        -11    1    3    3    0    0  0.42609089480E+01 -0.90306969853E+01  0.50139256027E+01  0.11173552851E+02  0.51100000000E-03 0. -1.
        -12    1    3    3    0    0  0.71609442087E+01  0.34832151918E+00  0.22955174253E+02  0.24048710460E+02  0.00000000000E+00 0.  1.
</event>
<event>
 7    1  0.1265344E-009  0.4778726E+02  0.7816164E-02  0.1312668E+00
        -11   -1    0    0    0    0  0.00000000000E+00  0.00000000000E+00  0.45593999997E+02  0.45594000000E+02  0.51100000000E-03 0. -1.
         11   -1    0    0    0    0 -0.00000000000E+00 -0.00000000000E+00 -0.45593999997E+02  0.45594000000E+02  0.51100000000E-03 0.  1.
    9900012    2    1    2    0    0 -0.35626917132E+02 -0.24771168442E+02  0.85779405967E+00  0.47787264741E+02  0.19999971261E+02 0.  0.
         12    1    1    2    0    0  0.35626917132E+02  0.24771168442E+02 -0.85779405967E+00  0.43400735259E+02  0.00000000000E+00 0. -1.
         11    1    3    3    0    0 -0.13515555526E+02 -0.15821471479E+02 -0.16257581148E+01  0.20871806118E+02  0.51100000000E-03 0.  1.
        -11    1    3    3    0    0  0.69283580768E-01  0.13074710705E+01 -0.16756929869E+01  0.21265530941E+01  0.51100000000E-03 0. -1.
         12    1    3    3    0    0 -0.22180645188E+02 -0.10257168034E+02  0.41592451613E+01  0.24788905529E+02  0.00000000000E+00 0. -1.
</event>
<event>
 7    1  0.1386893E-009  0.4778727E+02  0.7816164E-02  0.1312668E+00
        -11   -1    0    0    0    0  0.00000000000E+00  0.00000000000E+00  0.45593999997E+02  0.45594000000E+02  0.51100000000E-03 0. -1.
         11   -1    0    0    0    0 -0.00000000000E+00 -0.00000000000E+00 -0.45593999997E+02  0.45594000000E+02  0.51100000000E-03 0.  1.
    9900012    2    1    2    0    0  0.33539808177E+02 -0.55845489318E+01 -0.26972531901E+02  0.47787269632E+02  0.19999993560E+02 0.  0.
         12    1    1    2    0    0 -0.33539808177E+02  0.55845489318E+01  0.26972531901E+02  0.43400730368E+02  0.00000000000E+00 0. -1.
         11    1    3    3    0    0  0.28967058889E+01  0.18973657643E+01  0.33542886997E+00  0.34789962113E+01  0.51100000000E-03 0. -1.
        -11    1    3    3    0    0  0.30338773606E+02 -0.95906745541E+01 -0.22268556980E+02  0.38836977902E+02  0.51100000000E-03 0.  1.
        -12    1    3    3    0    0  0.30432868187E+00  0.21087598579E+01 -0.50394037906E+01  0.54712955184E+01  0.00000000000E+00 0.  1.
</event>
<event>
 7    1  0.1265344E-009  0.4778727E+02  0.7816164E-02  0.1312668E+00
        -11   -1    0    0    0    0  0.00000000000E+00  0.00000000000E+00  0.45593999997E+02  0.45594000000E+02  0.51100000000E-03 0.  1.
         11   -1    0    0    0    0 -0.00000000000E+00 -0.00000000000E+00 -0.45593999997E+02  0.45594000000E+02  0.51100000000E-03 0. -1.
    9900012    2    1    2    0    0  0.14168324194E+02  0.40375060470E+02  0.72620074990E+01  0.47787266465E+02  0.19999979122E+02 0.  0.
         12    1    1    2    0    0 -0.14168324194E+02 -0.40375060470E+02 -0.72620074990E+01  0.43400733535E+02  0.00000000000E+00 0. -1.
         11    1    3    3    0    0 -0.53087267459E+00  0.42774004126E+01  0.38876291875E+01  0.58044501072E+01  0.51100000000E-03 0. -1.
        -11    1    3    3    0    0  0.17293118552E+02  0.31813317533E+02  0.51013426317E+00  0.36213248390E+02  0.51100000000E-03 0.  1.
        -12    1    3    3    0    0 -0.25939216840E+01  0.42843425248E+01  0.28642440483E+01  0.57695679683E+01  0.00000000000E+00 0.  1.
</event>
<event>
 7    1  0.1265344E-009  0.4778727E+02  0.7816164E-02  0.1312668E+00
        -11   -1    0    0    0    0  0.00000000000E+00  0.00000000000E+00  0.45593999997E+02  0.45594000000E+02  0.51100000000E-03 0. -1.
         11   -1    0    0    0    0 -0.00000000000E+00 -0.00000000000E+00 -0.45593999997E+02  0.45594000000E+02  0.51100000000E-03 0.  1.
    9900012    2    1    2    0    0 -0.16045180778E+02  0.39650621360E+02 -0.73487134723E+01  0.47787272009E+02  0.20000004399E+02 0.  0.
         12    1    1    2    0    0  0.16045180778E+02 -0.39650621360E+02  0.73487134723E+01  0.43400727991E+02  0.00000000000E+00 0. -1.
         11    1    3    3    0    0  0.48531117790E+00  0.31630369393E+01  0.24473796441E+01  0.40286470436E+01  0.51100000000E-03 0. -1.
        -11    1    3    3    0    0 -0.67278764839E+01  0.22851642706E+02  0.91642734911E+00  0.23839080009E+02  0.51100000000E-03 0.  1.
        -12    1    3    3    0    0 -0.98026154723E+01  0.13635941715E+02 -0.10712520465E+02  0.19919544956E+02  0.00000000000E+00 0.  1.
</event>
<event>
 7    1  0.1265344E-009  0.4778727E+02  0.7816164E-02  0.1312668E+00
        -11   -1    0    0    0    0  0.00000000000E+00  0.00000000000E+00  0.45593999997E+02  0.45594000000E+02  0.51100000000E-03 0.  1.
         11   -1    0    0    0    0 -0.00000000000E+00 -0.00000000000E+00 -0.45593999997E+02  0.45594000000E+02  0.51100000000E-03 0. -1.
    9900012    2    1    2    0    0  0.24831762178E+02 -0.11139574503E+02  0.33807053713E+02  0.47787269433E+02  0.19999992655E+02 0.  0.
         12    1    1    2    0    0 -0.24831762178E+02  0.11139574503E+02 -0.33807053713E+02  0.43400730567E+02  0.00000000000E+00 0. -1.
         11    1    3    3    0    0  0.66084058131E+01 -0.43232988678E+01  0.89497483948E+01  0.11935658217E+02  0.51100000000E-03 0. -1.
        -11    1    3    3    0    0  0.13233589125E+02 -0.19352512848E+01  0.41560071659E+01  0.14005194553E+02  0.51100000000E-03 0.  1.
         12    1    3    3    0    0  0.49897672405E+01 -0.48810243503E+01  0.20701298152E+02  0.21846416663E+02  0.00000000000E+00 0. -1.
</event>
<event>
 7    1  0.1265344E-009  0.4778727E+02  0.7816164E-02  0.1312668E+00
        -11   -1    0    0    0    0  0.00000000000E+00  0.00000000000E+00  0.45593999997E+02  0.45594000000E+02  0.51100000000E-03 0.  1.
         11   -1    0    0    0    0 -0.00000000000E+00 -0.00000000000E+00 -0.45593999997E+02  0.45594000000E+02  0.51100000000E-03 0. -1.
    9900012    2    1    2    0    0  0.28925061209E+01 -0.94322077836E+01  0.42264526434E+02  0.47787270397E+02  0.19999997049E+02 0.  0.
         12    1    1    2    0    0 -0.28925061209E+01  0.94322077836E+01 -0.42264526434E+02  0.43400729603E+02  0.00000000000E+00 0. -1.
         11    1    3    3    0    0  0.32030418719E+01  0.52242117375E+01  0.10857531879E+02  0.12467472249E+02  0.51100000000E-03 0. -1.
        -11    1    3    3    0    0 -0.21039877510E+01 -0.44514243112E+01  0.53114289384E+01  0.72424595603E+01  0.51100000000E-03 0.  1.
         12    1    3    3    0    0  0.17934520001E+01 -0.10204995210E+02  0.26095565617E+02  0.28077338588E+02  0.00000000000E+00 0. -1.
</event>
<event>
 7    1  0.1265344E-009  0.4778727E+02  0.7816164E-02  0.1312668E+00
        -11   -1    0    0    0    0  0.00000000000E+00  0.00000000000E+00  0.45593999997E+02  0.45594000000E+02  0.51100000000E-03 0. -1.
         11   -1    0    0    0    0 -0.00000000000E+00 -0.00000000000E+00 -0.45593999997E+02  0.45594000000E+02  0.51100000000E-03 0.  1.
    9900012    2    1    2    0    0 -0.32732260040E+02 -0.15772258109E+02 -0.23737272408E+02  0.47787273341E+02  0.20000010470E+02 0.  0.
         12    1    1    2    0    0  0.32732260040E+02  0.15772258109E+02  0.23737272408E+02  0.43400726659E+02  0.00000000000E+00 0. -1.
         11    1    3    3    0    0 -0.17033426414E+01  0.36835214528E+01 -0.33347465011E+01  0.52526413294E+01  0.51100000000E-03 0. -1.
        -11    1    3    3    0    0 -0.88548632851E+01 -0.19438931907E+01 -0.48159105523E+01  0.10265491671E+02  0.51100000000E-03 0.  1.
         12    1    3    3    0    0 -0.22174054114E+02 -0.17511886371E+02 -0.15586615354E+02  0.32269140341E+02  0.00000000000E+00 0. -1.
</event>
<event>
 7    1  0.1265344E-009  0.4778727E+02  0.7816164E-02  0.1312668E+00
        -11   -1    0    0    0    0  0.00000000000E+00  0.00000000000E+00  0.45593999997E+02  0.45594000000E+02  0.51100000000E-03 0.  1.
         11   -1    0    0    0    0 -0.00000000000E+00 -0.00000000000E+00 -0.45593999997E+02  0.45594000000E+02  0.51100000000E-03 0. -1.
    9900012    2    1    2    0    0  0.42760162530E+02 -0.25894755107E+01  0.69631995924E+01  0.47787273835E+02  0.20000012725E+02 0.  0.
         12    1    1    2    0    0 -0.42760162530E+02  0.25894755107E+01 -0.69631995924E+01  0.43400726165E+02  0.00000000000E+00 0. -1.
         11    1    3    3    0    0  0.16484905289E+02 -0.79756629131E+01 -0.15955850533E+01  0.18382306526E+02  0.51100000000E-03 0. -1.
        -11    1    3    3    0    0  0.13389302158E+01  0.13530233053E+01  0.29796942067E+01  0.35358144768E+01  0.51100000000E-03 0.  1.
        -12    1    3    3    0    0  0.24936327025E+02  0.40331640971E+01  0.55790904390E+01  0.25869152833E+02  0.00000000000E+00 0.  1.
</event>
<event>
 7    1  0.1265344E-009  0.4778727E+02  0.7816164E-02  0.1312668E+00
        -11   -1    0    0    0    0  0.00000000000E+00  0.00000000000E+00  0.45593999997E+02  0.45594000000E+02  0.51100000000E-03 0.  1.
         11   -1    0    0    0    0 -0.00000000000E+00 -0.00000000000E+00 -0.45593999997E+02  0.45594000000E+02  0.51100000000E-03 0. -1.
    9900012    2    1    2    0    0  0.39072879564E+02 -0.15862234222E+02  0.10262708289E+02  0.47787267594E+02  0.19999984268E+02 0.  0.
         12    1    1    2    0    0 -0.39072879564E+02  0.15862234222E+02 -0.10262708289E+02  0.43400732406E+02  0.00000000000E+00 0. -1.
         11    1    3    3    0    0  0.16070665777E+02 -0.80992911851E+01 -0.42519357177E+01  0.18491721765E+02  0.51100000000E-03 0. -1.
        -11    1    3    3    0    0  0.32319159005E+01  0.12668517341E+01  0.34983151859E+01  0.49283266029E+01  0.51100000000E-03 0.  1.
         12    1    3    3    0    0  0.19770297887E+02 -0.90297947714E+01  0.11016328821E+02  0.24367219227E+02  0.00000000000E+00 0. -1.
</event>
<event>
 7    1  0.1265344E-009  0.4778727E+02  0.7816164E-02  0.1312668E+00
        -11   -1    0    0    0    0  0.00000000000E+00  0.00000000000E+00  0.45593999997E+02  0.45594000000E+02  0.51100000000E-03 0. -1.
         11   -1    0    0    0    0 -0.00000000000E+00 -0.00000000000E+00 -0.45593999997E+02  0.45594000000E+02  0.51100000000E-03 0.  1.
    9900012    2    1    2    0    0 -0.33310704396E+01  0.42267492252E+02 -0.92728773575E+01  0.47787272057E+02  0.20000004614E+02 0.  0.
         12    1    1    2    0    0  0.33310704396E+01 -0.42267492252E+02  0.92728773575E+01  0.43400727943E+02  0.00000000000E+00 0. -1.
         11    1    3    3    0    0  0.51192086278E+00  0.35767359757E+01  0.69296273425E+00  0.36790353113E+01  0.51100000000E-03 0. -1.
        -11    1    3    3    0    0 -0.52717788129E+01  0.96921588498E+01  0.41968099523E+01  0.11804355512E+02  0.51100000000E-03 0.  1.
         12    1    3    3    0    0  0.14287875105E+01  0.28998597426E+02 -0.14162650044E+02  0.32303881233E+02  0.00000000000E+00 0. -1.
</event>
<event>
 7    1  0.1265344E-009  0.4778727E+02  0.7816164E-02  0.1312668E+00
        -11   -1    0    0    0    0  0.00000000000E+00  0.00000000000E+00  0.45593999997E+02  0.45594000000E+02  0.51100000000E-03 0.  1.
         11   -1    0    0    0    0 -0.00000000000E+00 -0.00000000000E+00 -0.45593999997E+02  0.45594000000E+02  0.51100000000E-03 0. -1.
    9900012    2    1    2    0    0  0.41908184762E+02  0.45186693162E+01  0.10339686679E+02  0.47787269095E+02  0.19999991113E+02 0.  0.
         12    1    1    2    0    0 -0.41908184762E+02 -0.45186693162E+01 -0.10339686679E+02  0.43400730905E+02  0.00000000000E+00 0. -1.
         11    1    3    3    0    0  0.45680349505E+01  0.26153185680E+01  0.81261837895E+01  0.96820296303E+01  0.51100000000E-03 0. -1.
        -11    1    3    3    0    0  0.23715919687E+02  0.41465447264E+01  0.30721489502E+01  0.24270903963E+02  0.51100000000E-03 0.  1.
        -12    1    3    3    0    0  0.13624230125E+02 -0.22431939783E+01 -0.85864606070E+00  0.13834335502E+02  0.00000000000E+00 0.  1.
</event>
<event>
 7    1  0.1265344E-009  0.4778727E+02  0.7816164E-02  0.1312668E+00
        -11   -1    0    0    0    0  0.00000000000E+00  0.00000000000E+00  0.45593999997E+02  0.45594000000E+02  0.51100000000E-03 0.  1.
         11   -1    0    0    0    0 -0.00000000000E+00 -0.00000000000E+00 -0.45593999997E+02  0.45594000000E+02  0.51100000000E-03 0. -1.
    9900012    2    1    2    0    0  0.14474840099E+02 -0.29358005391E+02  0.28499295517E+02  0.47787270497E+02  0.19999997503E+02 0.  0.
         12    1    1    2    0    0 -0.14474840099E+02  0.29358005391E+02 -0.28499295517E+02  0.43400729503E+02  0.00000000000E+00 0. -1.
         11    1    3    3    0    0  0.13568578143E+01 -0.20378237225E+01 -0.10400297864E+01  0.26599719679E+01  0.51100000000E-03 0. -1.
        -11    1    3    3    0    0  0.14101240359E+02 -0.28779389231E+02  0.29156289081E+02  0.43326520947E+02  0.51100000000E-03 0.  1.
        -12    1    3    3    0    0 -0.98325807430E+00  0.14592075624E+01  0.38303622285E+00  0.18007775817E+01  0.00000000000E+00 0.  1.
</event>
<event>
 7    1  0.1265344E-009  0.4778727E+02  0.7816164E-02  0.1312668E+00
        -11   -1    0    0    0    0  0.00000000000E+00  0.00000000000E+00  0.45593999997E+02  0.45594000000E+02  0.51100000000E-03 0.  1.
         11   -1    0    0    0    0 -0.00000000000E+00 -0.00000000000E+00 -0.45593999997E+02  0.45594000000E+02  0.51100000000E-03 0. -1.
    9900012    2    1    2    0    0 -0.12330739065E+01 -0.10963299314E+02  0.41975095318E+02  0.47787273853E+02  0.20000012806E+02 0.  0.
         12    1    1    2    0    0  0.12330739065E+01  0.10963299314E+02 -0.41975095318E+02  0.43400726147E+02  0.00000000000E+00 0. -1.
         11    1    3    3    0    0  0.22280579938E+01  0.38720496265E+01  0.66050586229E+01  0.79739457239E+01  0.51100000000E-03 0. -1.
        -11    1    3    3    0    0  0.18382496916E+00 -0.14874708470E+01  0.15659352216E+02  0.15730914571E+02  0.51100000000E-03 0.  1.
        -12    1    3    3    0    0 -0.36449568696E+01 -0.13347878093E+02  0.19710684479E+02  0.24082413558E+02  0.00000000000E+00 0.  1.
</event>
<event>
 7    1  0.1265344E-009  0.4778727E+02  0.7816164E-02  0.1312668E+00
        -11   -1    0    0    0    0  0.00000000000E+00  0.00000000000E+00  0.45593999997E+02  0.45594000000E+02  0.51100000000E-03 0.  1.
         11   -1    0    0    0    0 -0.00000000000E+00 -0.00000000000E+00 -0.45593999997E+02  0.45594000000E+02  0.51100000000E-03 0. -1.
    9900012    2    1    2    0    0  0.40901249128E+02  0.14187744351E+02 -0.30690588977E+01  0.47787269678E+02  0.19999993768E+02 0.  0.
         12    1    1    2    0    0 -0.40901249128E+02 -0.14187744351E+02  0.30690588977E+01  0.43400730322E+02  0.00000000000E+00 0. -1.
         11    1    3    3    0    0  0.20949033027E+02  0.45713593608E+01 -0.25105902414E+01  0.21588477825E+02  0.51100000000E-03 0.  1.
        -11    1    3    3    0    0  0.19052297667E+02  0.74965993894E+01  0.42108065683E+01  0.20902630002E+02  0.51100000000E-03 0. -1.
         12    1    3    3    0    0  0.89991843450E+00  0.21197856004E+01 -0.47692752247E+01  0.52961618507E+01  0.00000000000E+00 0. -1.
</event>
<event>
 7    1  0.1265344E-009  0.4778727E+02  0.7816164E-02  0.1312668E+00
        -11   -1    0    0    0    0  0.00000000000E+00  0.00000000000E+00  0.45593999997E+02  0.45594000000E+02  0.51100000000E-03 0. -1.
         11   -1    0    0    0    0 -0.00000000000E+00 -0.00000000000E+00 -0.45593999997E+02  0.45594000000E+02  0.51100000000E-03 0.  1.
    9900012    2    1    2    0    0  0.17599458557E+02 -0.31661852514E+02 -0.23904169770E+02  0.47787272144E+02  0.20000005011E+02 0.  0.
         12    1    1    2    0    0 -0.17599458557E+02  0.31661852514E+02  0.23904169770E+02  0.43400727856E+02  0.00000000000E+00 0. -1.
         11    1    3    3    0    0  0.81792264192E+01 -0.14925863354E+02 -0.29817970439E+00  0.17022633553E+02  0.51100000000E-03 0. -1.
        -11    1    3    3    0    0  0.63160738563E+01 -0.70070679276E+01 -0.99308717846E+01  0.13697226163E+02  0.51100000000E-03 0.  1.
         12    1    3    3    0    0  0.31041582812E+01 -0.97289212318E+01 -0.13675118281E+02  0.17067412427E+02  0.00000000000E+00 0. -1.
</event>
<event>
 7    1  0.1265344E-009  0.4778727E+02  0.7816164E-02  0.1312668E+00
        -11   -1    0    0    0    0  0.00000000000E+00  0.00000000000E+00  0.45593999997E+02  0.45594000000E+02  0.51100000000E-03 0.  1.
         11   -1    0    0    0    0 -0.00000000000E+00 -0.00000000000E+00 -0.45593999997E+02  0.45594000000E+02  0.51100000000E-03 0. -1.
    9900012    2    1    2    0    0  0.73015140313E+01 -0.22573025058E+02  0.36342397147E+02  0.47787269616E+02  0.19999993489E+02 0.  0.
         12    1    1    2    0    0 -0.73015140313E+01  0.22573025058E+02 -0.36342397147E+02  0.43400730384E+02  0.00000000000E+00 0. -1.
         11    1    3    3    0    0  0.45220849007E+01 -0.65048794940E+01  0.16324724464E+02  0.18145504627E+02  0.51100000000E-03 0. -1.
        -11    1    3    3    0    0 -0.21502690679E+01 -0.15176141459E+02  0.96101617036E+01  0.18091272340E+02  0.51100000000E-03 0.  1.
        -12    1    3    3    0    0  0.49296981985E+01 -0.89200410481E+00  0.10407510980E+02  0.11550492649E+02  0.00000000000E+00 0.  1.
</event>
<event>
 7    1  0.1265344E-009  0.4778727E+02  0.7816164E-02  0.1312668E+00
        -11   -1    0    0    0    0  0.00000000000E+00  0.00000000000E+00  0.45593999997E+02  0.45594000000E+02  0.51100000000E-03 0.  1.
         11   -1    0    0    0    0 -0.00000000000E+00 -0.00000000000E+00 -0.45593999997E+02  0.45594000000E+02  0.51100000000E-03 0. -1.
    9900012    2    1    2    0    0  0.34416802921E+02  0.12084559896E+02  0.23517441457E+02  0.47787274616E+02  0.20000016283E+02 0.  0.
         12    1    1    2    0    0 -0.34416802921E+02 -0.12084559896E+02 -0.23517441457E+02  0.43400725384E+02  0.00000000000E+00 0. -1.
         11    1    3    3    0    0  0.61927955333E+01  0.15571488409E+01  0.97127049183E+01  0.11623771596E+02  0.51100000000E-03 0. -1.
        -11    1    3    3    0    0  0.25086287154E+01  0.30331449310E+01 -0.26340230513E+01  0.47361655271E+01  0.51100000000E-03 0.  1.
        -12    1    3    3    0    0  0.25715378672E+02  0.74942661237E+01  0.16438759590E+02  0.31427337492E+02  0.00000000000E+00 0.  1.
</event>
<event>
 7    1  0.1265344E-009  0.4778727E+02  0.7816164E-02  0.1312668E+00
        -11   -1    0    0    0    0  0.00000000000E+00  0.00000000000E+00  0.45593999997E+02  0.45594000000E+02  0.51100000000E-03 0. -1.
         11   -1    0    0    0    0 -0.00000000000E+00 -0.00000000000E+00 -0.45593999997E+02  0.45594000000E+02  0.51100000000E-03 0.  1.
    9900012    2    1    2    0    0 -0.12431819785E+02  0.39717420742E+02 -0.12312567530E+02  0.47787274513E+02  0.20000015816E+02 0.  0.
         12    1    1    2    0    0  0.12431819785E+02 -0.39717420742E+02  0.12312567530E+02  0.43400725487E+02  0.00000000000E+00 0. -1.
         11    1    3    3    0    0 -0.17665273511E+01  0.11796803737E+01  0.16743679036E+01  0.27047685306E+01  0.51100000000E-03 0. -1.
        -11    1    3    3    0    0 -0.14481587626E+01  0.48372690233E+01  0.33697631895E+01  0.60705551328E+01  0.51100000000E-03 0.  1.
        -12    1    3    3    0    0 -0.92171336710E+01  0.33700471345E+02 -0.17356698624E+02  0.39011950850E+02  0.00000000000E+00 0.  1.
</event>
<event>
 7    1  0.1265344E-009  0.4778727E+02  0.7816164E-02  0.1312668E+00
        -11   -1    0    0    0    0  0.00000000000E+00  0.00000000000E+00  0.45593999997E+02  0.45594000000E+02  0.51100000000E-03 0.  1.
         11   -1    0    0    0    0 -0.00000000000E+00 -0.00000000000E+00 -0.45593999997E+02  0.45594000000E+02  0.51100000000E-03 0. -1.
    9900012    2    1    2    0    0 -0.20565462700E+02  0.30953720162E+02 -0.22417677021E+02  0.47787270847E+02  0.19999999102E+02 0.  0.
         12    1    1    2    0    0  0.20565462700E+02 -0.30953720162E+02  0.22417677021E+02  0.43400729153E+02  0.00000000000E+00 0. -1.
         11    1    3    3    0    0 -0.26936533851E+01  0.56821074184E+01 -0.90354984179E+01  0.11008285298E+02  0.51100000000E-03 0. -1.
        -11    1    3    3    0    0 -0.34502377831E+01  0.13321762197E+02 -0.18571388506E-02  0.13761304171E+02  0.51100000000E-03 0.  1.
        -12    1    3    3    0    0 -0.14421571532E+02  0.11949850547E+02 -0.13380321464E+02  0.23017681379E+02  0.00000000000E+00 0.  1.
</event>
<event>
 7    1  0.1265344E-009  0.4778726E+02  0.7816164E-02  0.1312668E+00
        -11   -1    0    0    0    0  0.00000000000E+00  0.00000000000E+00  0.45593999997E+02  0.45594000000E+02  0.51100000000E-03 0. -1.
         11   -1    0    0    0    0 -0.00000000000E+00 -0.00000000000E+00 -0.45593999997E+02  0.45594000000E+02  0.51100000000E-03 0.  1.
    9900012    2    1    2    0    0  0.38265453797E+02 -0.11258188783E+02  0.17106492006E+02  0.47787264549E+02  0.19999970383E+02 0.  0.
         12    1    1    2    0    0 -0.38265453797E+02  0.11258188783E+02 -0.17106492006E+02  0.43400735451E+02  0.00000000000E+00 0. -1.
         11    1    3    3    0    0  0.10432904329E+02  0.64340856998E-02 -0.79753105602E+00  0.10463345077E+02  0.51100000000E-03 0. -1.
        -11    1    3    3    0    0  0.13663311904E+02 -0.38607656794E+01  0.12734042347E+01  0.14255285421E+02  0.51100000000E-03 0.  1.
        -12    1    3    3    0    0  0.14169237563E+02 -0.74038571893E+01  0.16630618827E+02  0.23068634051E+02  0.00000000000E+00 0.  1.
</event>
<event>
 7    1  0.1265344E-009  0.4778727E+02  0.7816164E-02  0.1312668E+00
        -11   -1    0    0    0    0  0.00000000000E+00  0.00000000000E+00  0.45593999997E+02  0.45594000000E+02  0.51100000000E-03 0. -1.
         11   -1    0    0    0    0 -0.00000000000E+00 -0.00000000000E+00 -0.45593999997E+02  0.45594000000E+02  0.51100000000E-03 0.  1.
    9900012    2    1    2    0    0  0.24766680169E+02 -0.32321415907E+02 -0.15018691581E+02  0.47787268789E+02  0.19999989717E+02 0.  0.
         12    1    1    2    0    0 -0.24766680169E+02  0.32321415907E+02  0.15018691581E+02  0.43400731211E+02  0.00000000000E+00 0. -1.
         11    1    3    3    0    0  0.13693044688E+02 -0.23366483581E+02 -0.70786940338E+01  0.27992855111E+02  0.51100000000E-03 0.  1.
        -11    1    3    3    0    0  0.46685040610E+01 -0.27806835875E+01  0.25814381220E+01  0.60158918225E+01  0.51100000000E-03 0. -1.
         12    1    3    3    0    0  0.64051314201E+01 -0.61742487385E+01 -0.10521435669E+02  0.13778521856E+02  0.00000000000E+00 0. -1.
</event>
<event>
 7    1  0.1265344E-009  0.4778727E+02  0.7816164E-02  0.1312668E+00
        -11   -1    0    0    0    0  0.00000000000E+00  0.00000000000E+00  0.45593999997E+02  0.45594000000E+02  0.51100000000E-03 0.  1.
         11   -1    0    0    0    0 -0.00000000000E+00 -0.00000000000E+00 -0.45593999997E+02  0.45594000000E+02  0.51100000000E-03 0. -1.
    9900012    2    1    2    0    0 -0.43102322769E+02  0.26668081409E+01  0.43245010872E+01  0.47787269553E+02  0.19999993198E+02 0.  0.
         12    1    1    2    0    0  0.43102322769E+02 -0.26668081409E+01 -0.43245010872E+01  0.43400730447E+02  0.00000000000E+00 0. -1.
         11    1    3    3    0    0 -0.67813070421E+01 -0.49011945337E+01 -0.31340578324E+01  0.89347720628E+01  0.51100000000E-03 0. -1.
        -11    1    3    3    0    0 -0.10589704212E+01 -0.33881541883E+00 -0.12575449121E+01  0.16785808614E+01  0.51100000000E-03 0.  1.
        -12    1    3    3    0    0 -0.35262045305E+02  0.79068180934E+01  0.87161038317E+01  0.37173916628E+02  0.00000000000E+00 0.  1.
</event>
<event>
 7    1  0.1265344E-009  0.4778727E+02  0.7816164E-02  0.1312668E+00
        -11   -1    0    0    0    0  0.00000000000E+00  0.00000000000E+00  0.45593999997E+02  0.45594000000E+02  0.51100000000E-03 0.  1.
         11   -1    0    0    0    0 -0.00000000000E+00 -0.00000000000E+00 -0.45593999997E+02  0.45594000000E+02  0.51100000000E-03 0. -1.
    9900012    2    1    2    0    0 -0.82201805659E+00 -0.88089592736E+01  0.42489411026E+02  0.47787268134E+02  0.19999986731E+02 0.  0.
         12    1    1    2    0    0  0.82201805659E+00  0.88089592736E+01 -0.42489411026E+02  0.43400731866E+02  0.00000000000E+00 0. -1.
         11    1    3    3    0    0 -0.10617525676E+01 -0.75186215039E+01  0.11386581122E+02  0.13686168848E+02  0.51100000000E-03 0. -1.
        -11    1    3    3    0    0 -0.46531365229E+01 -0.54235385491E+00  0.27702823904E+02  0.28096125707E+02  0.51100000000E-03 0.  1.
         12    1    3    3    0    0  0.48928710339E+01 -0.74798391476E+00  0.34000059996E+01  0.60049735793E+01  0.00000000000E+00 0. -1.
</event>
<event>
 7    1  0.1265344E-009  0.4778728E+02  0.7816164E-02  0.1312668E+00
        -11   -1    0    0    0    0  0.00000000000E+00  0.00000000000E+00  0.45593999997E+02  0.45594000000E+02  0.51100000000E-03 0.  1.
         11   -1    0    0    0    0 -0.00000000000E+00 -0.00000000000E+00 -0.45593999997E+02  0.45594000000E+02  0.51100000000E-03 0. -1.
    9900012    2    1    2    0    0 -0.22452441562E+02 -0.92470853269E+01  0.35972237983E+02  0.47787278524E+02  0.20000034104E+02 0.  0.
         12    1    1    2    0    0  0.22452441562E+02  0.92470853269E+01 -0.35972237983E+02  0.43400721476E+02  0.00000000000E+00 0. -1.
         11    1    3    3    0    0 -0.14986460013E+01  0.25336739277E+01 -0.43889798804E+00  0.29762518567E+01  0.51100000000E-03 0. -1.
        -11    1    3    3    0    0 -0.42157830946E+01 -0.76669901011E+01  0.10174702123E+02  0.13419393722E+02  0.51100000000E-03 0.  1.
        -12    1    3    3    0    0 -0.16738012466E+02 -0.41137691535E+01  0.26236433848E+02  0.31391632946E+02  0.00000000000E+00 0.  1.
</event>
<event>
 7    1  0.1265344E-009  0.4778728E+02  0.7816164E-02  0.1312668E+00
        -11   -1    0    0    0    0  0.00000000000E+00  0.00000000000E+00  0.45593999997E+02  0.45594000000E+02  0.51100000000E-03 0.  1.
         11   -1    0    0    0    0 -0.00000000000E+00 -0.00000000000E+00 -0.45593999997E+02  0.45594000000E+02  0.51100000000E-03 0. -1.
    9900012    2    1    2    0    0  0.40412790041E+02 -0.74216308136E+01  0.13976695379E+02  0.47787283225E+02  0.20000055538E+02 0.  0.
         12    1    1    2    0    0 -0.40412790041E+02  0.74216308136E+01 -0.13976695379E+02  0.43400716775E+02  0.00000000000E+00 0. -1.
         11    1    3    3    0    0  0.86612406151E+00  0.21271919463E+01  0.48666325657E+01  0.53813780073E+01  0.51100000000E-03 0. -1.
        -11    1    3    3    0    0  0.18716403123E+02 -0.21819802207E+01  0.99922721017E+00  0.18869638015E+02  0.51100000000E-03 0.  1.
        -12    1    3    3    0    0  0.20830262857E+02 -0.73668425391E+01  0.81108356035E+01  0.23536267203E+02  0.00000000000E+00 0.  1.
</event>
<event>
 7    1  0.1265344E-009  0.4778727E+02  0.7816164E-02  0.1312668E+00
        -11   -1    0    0    0    0  0.00000000000E+00  0.00000000000E+00  0.45593999997E+02  0.45594000000E+02  0.51100000000E-03 0.  1.
         11   -1    0    0    0    0 -0.00000000000E+00 -0.00000000000E+00 -0.45593999997E+02  0.45594000000E+02  0.51100000000E-03 0. -1.
    9900012    2    1    2    0    0  0.42874250622E+02  0.31568325522E+01 -0.59545392452E+01  0.47787268488E+02  0.19999988346E+02 0.  0.
         12    1    1    2    0    0 -0.42874250622E+02 -0.31568325522E+01  0.59545392452E+01  0.43400731512E+02  0.00000000000E+00 0. -1.
         11    1    3    3    0    0 -0.72256497979E+00 -0.14907960340E+01  0.54714064927E+00  0.17446879710E+01  0.51100000000E-03 0. -1.
        -11    1    3    3    0    0  0.31323977684E+02  0.46753464459E+01  0.94892470320E+00  0.31685184246E+02  0.51100000000E-03 0.  1.
         12    1    3    3    0    0  0.12272837917E+02 -0.27717859745E-01 -0.74506045976E+01  0.14357396271E+02  0.00000000000E+00 0. -1.
</event>
<event>
 7    1  0.1265344E-009  0.4778727E+02  0.7816164E-02  0.1312668E+00
        -11   -1    0    0    0    0  0.00000000000E+00  0.00000000000E+00  0.45593999997E+02  0.45594000000E+02  0.51100000000E-03 0. -1.
         11   -1    0    0    0    0 -0.00000000000E+00 -0.00000000000E+00 -0.45593999997E+02  0.45594000000E+02  0.51100000000E-03 0.  1.
    9900012    2    1    2    0    0 -0.32984964689E+02 -0.22974176306E+02 -0.16364675633E+02  0.47787270962E+02  0.19999999624E+02 0.  0.
         12    1    1    2    0    0  0.32984964689E+02  0.22974176306E+02  0.16364675633E+02  0.43400729038E+02  0.00000000000E+00 0. -1.
         11    1    3    3    0    0 -0.52172090898E+01 -0.57038400887E+01 -0.95525255169E+01  0.12288360609E+02  0.51100000000E-03 0. -1.
        -11    1    3    3    0    0 -0.23631126825E+02 -0.16053967981E+02 -0.98561546864E+01  0.30220917068E+02  0.51100000000E-03 0.  1.
        -12    1    3    3    0    0 -0.41366287737E+01 -0.12163682360E+01  0.30440045698E+01  0.52779932851E+01  0.00000000000E+00 0.  1.
</event>
<event>
 7    1  0.1265344E-009  0.4778727E+02  0.7816164E-02  0.1312668E+00
        -11   -1    0    0    0    0  0.00000000000E+00  0.00000000000E+00  0.45593999997E+02  0.45594000000E+02  0.51100000000E-03 0.  1.
         11   -1    0    0    0    0 -0.00000000000E+00 -0.00000000000E+00 -0.45593999997E+02  0.45594000000E+02  0.51100000000E-03 0. -1.
    9900012    2    1    2    0    0  0.13731416895E+01  0.27100121897E+02  0.33872124963E+02  0.47787274494E+02  0.20000015728E+02 0.  0.
         12    1    1    2    0    0 -0.13731416895E+01 -0.27100121897E+02 -0.33872124963E+02  0.43400725506E+02  0.00000000000E+00 0. -1.
         11    1    3    3    0    0 -0.14669644972E+01  0.59331222759E+01  0.29893936789E+01  0.68037048440E+01  0.51100000000E-03 0. -1.
        -11    1    3    3    0    0  0.94431664745E+01  0.87824415330E+01  0.14179848014E+02  0.19166970608E+02  0.51100000000E-03 0.  1.
         12    1    3    3    0    0 -0.66030602878E+01  0.12384558088E+02  0.16702883270E+02  0.21816599042E+02  0.00000000000E+00 0. -1.
</event>
<event>
 7    1  0.1265344E-009  0.4778727E+02  0.7816164E-02  0.1312668E+00
        -11   -1    0    0    0    0  0.00000000000E+00  0.00000000000E+00  0.45593999997E+02  0.45594000000E+02  0.51100000000E-03 0.  1.
         11   -1    0    0    0    0 -0.00000000000E+00 -0.00000000000E+00 -0.45593999997E+02  0.45594000000E+02  0.51100000000E-03 0. -1.
    9900012    2    1    2    0    0  0.23676936835E+02  0.27114976040E+02  0.24244669956E+02  0.47787270918E+02  0.19999999425E+02 0.  0.
         12    1    1    2    0    0 -0.23676936835E+02 -0.27114976040E+02 -0.24244669956E+02  0.43400729082E+02  0.00000000000E+00 0. -1.
         11    1    3    3    0    0 -0.10335715392E+01 -0.64062764460E+00  0.11252957995E+00  0.12212031253E+01  0.51100000000E-03 0. -1.
        -11    1    3    3    0    0  0.72451007224E+01  0.27294348324E+01  0.13519719647E+00  0.77433569932E+01  0.51100000000E-03 0.  1.
        -12    1    3    3    0    0  0.17465407652E+02  0.25026168852E+02  0.23996943180E+02  0.38822710800E+02  0.00000000000E+00 0.  1.
</event>
<event>
 7    1  0.1265344E-009  0.4778727E+02  0.7816164E-02  0.1312668E+00
        -11   -1    0    0    0    0  0.00000000000E+00  0.00000000000E+00  0.45593999997E+02  0.45594000000E+02  0.51100000000E-03 0.  1.
         11   -1    0    0    0    0 -0.00000000000E+00 -0.00000000000E+00 -0.45593999997E+02  0.45594000000E+02  0.51100000000E-03 0. -1.
    9900012    2    1    2    0    0  0.24637719125E+02  0.29328094762E+02  0.20407565950E+02  0.47787273116E+02  0.20000009444E+02 0.  0.
         12    1    1    2    0    0 -0.24637719125E+02 -0.29328094762E+02 -0.20407565950E+02  0.43400726884E+02  0.00000000000E+00 0. -1.
         11    1    3    3    0    0  0.19161069584E+01  0.11282328450E+02  0.11941371430E+01  0.11506014293E+02  0.51100000000E-03 0. -1.
        -11    1    3    3    0    0  0.98052604559E+01  0.13518648052E+02  0.13397652011E+02  0.21410139127E+02  0.51100000000E-03 0.  1.
         12    1    3    3    0    0  0.12916351711E+02  0.45271182593E+01  0.58157767959E+01  0.14871119696E+02  0.00000000000E+00 0. -1.
</event>
<event>
 7    1  0.1265344E-009  0.4778727E+02  0.7816164E-02  0.1312668E+00
        -11   -1    0    0    0    0  0.00000000000E+00  0.00000000000E+00  0.45593999997E+02  0.45594000000E+02  0.51100000000E-03 0.  1.
         11   -1    0    0    0    0 -0.00000000000E+00 -0.00000000000E+00 -0.45593999997E+02  0.45594000000E+02  0.51100000000E-03 0. -1.
    9900012    2    1    2    0    0  0.26482566542E+02 -0.31386305887E+02  0.14042670536E+02  0.47787272775E+02  0.20000007889E+02 0.  0.
         12    1    1    2    0    0 -0.26482566542E+02  0.31386305887E+02 -0.14042670536E+02  0.43400727225E+02  0.00000000000E+00 0. -1.
         11    1    3    3    0    0  0.11276776811E+01 -0.69804594774E+01 -0.13537543950E+00  0.70722555270E+01  0.51100000000E-03 0. -1.
        -11    1    3    3    0    0  0.14269969265E+02 -0.37995193927E+01  0.53490457093E+01  0.15706070823E+02  0.51100000000E-03 0.  1.
         12    1    3    3    0    0  0.11084919596E+02 -0.20606327017E+02  0.88290002660E+01  0.25008946425E+02  0.00000000000E+00 0. -1.
</event>
<event>
 7    1  0.1265344E-009  0.4778727E+02  0.7816164E-02  0.1312668E+00
        -11   -1    0    0    0    0  0.00000000000E+00  0.00000000000E+00  0.45593999997E+02  0.45594000000E+02  0.51100000000E-03 0. -1.
         11   -1    0    0    0    0 -0.00000000000E+00 -0.00000000000E+00 -0.45593999997E+02  0.45594000000E+02  0.51100000000E-03 0.  1.
    9900012    2    1    2    0    0 -0.40178609128E+02  0.52749834382E+00 -0.16401959366E+02  0.47787272391E+02  0.20000006139E+02 0.  0.
         12    1    1    2    0    0  0.40178609128E+02 -0.52749834382E+00  0.16401959366E+02  0.43400727609E+02  0.00000000000E+00 0. -1.
         11    1    3    3    0    0 -0.11249018095E+02 -0.29876751675E+00 -0.10061112786E+02  0.15094888569E+02  0.51100000000E-03 0. -1.
        -11    1    3    3    0    0 -0.30124413173E+02 -0.40148412020E+00 -0.50501715327E+01  0.30547433464E+02  0.51100000000E-03 0.  1.
         12    1    3    3    0    0  0.11948221400E+01  0.12277499808E+01 -0.12906750466E+01  0.21449503578E+01  0.00000000000E+00 0. -1.
</event>
<event>
 7    1  0.1265344E-009  0.4778727E+02  0.7816164E-02  0.1312668E+00
        -11   -1    0    0    0    0  0.00000000000E+00  0.00000000000E+00  0.45593999997E+02  0.45594000000E+02  0.51100000000E-03 0.  1.
         11   -1    0    0    0    0 -0.00000000000E+00 -0.00000000000E+00 -0.45593999997E+02  0.45594000000E+02  0.51100000000E-03 0. -1.
    9900012    2    1    2    0    0 -0.11208456034E+02  0.40464915724E+02  0.10981094482E+02  0.47787270430E+02  0.19999997196E+02 0.  0.
         12    1    1    2    0    0  0.11208456034E+02 -0.40464915724E+02 -0.10981094482E+02  0.43400729570E+02  0.00000000000E+00 0. -1.
         11    1    3    3    0    0  0.22588089429E+01  0.37452573978E+01 -0.56648372602E+00  0.44102239047E+01  0.51100000000E-03 0.  1.
        -11    1    3    3    0    0 -0.10437179025E+02  0.36881967141E+02  0.89001457700E+01  0.39350054653E+02  0.51100000000E-03 0. -1.
         12    1    3    3    0    0 -0.30300859520E+01 -0.16230881432E+00  0.26474324376E+01  0.40269918723E+01  0.00000000000E+00 0. -1.
</event>
<event>
 7    1  0.1265344E-009  0.4778729E+02  0.7816164E-02  0.1312668E+00
        -11   -1    0    0    0    0  0.00000000000E+00  0.00000000000E+00  0.45593999997E+02  0.45594000000E+02  0.51100000000E-03 0. -1.
         11   -1    0    0    0    0 -0.00000000000E+00 -0.00000000000E+00 -0.45593999997E+02  0.45594000000E+02  0.51100000000E-03 0.  1.
    9900012    2    1    2    0    0  0.23937995524E+02  0.18043275217E+02 -0.31385253806E+02  0.47787290712E+02  0.20000089673E+02 0.  0.
         12    1    1    2    0    0 -0.23937995524E+02 -0.18043275217E+02  0.31385253806E+02  0.43400709288E+02  0.00000000000E+00 0. -1.
         11    1    3    3    0    0  0.54193723683E+01 -0.23681031679E+01 -0.60526327352E+01  0.84623798525E+01  0.51100000000E-03 0. -1.
        -11    1    3    3    0    0  0.12596436044E+02  0.13574580429E+02 -0.23791878292E+02  0.30149509246E+02  0.51100000000E-03 0.  1.
         12    1    3    3    0    0  0.59221871110E+01  0.68367979556E+01 -0.15407427787E+01  0.91754016138E+01  0.00000000000E+00 0. -1.
</event>
<event>
 7    1  0.1265344E-009  0.4778726E+02  0.7816164E-02  0.1312668E+00
        -11   -1    0    0    0    0  0.00000000000E+00  0.00000000000E+00  0.45593999997E+02  0.45594000000E+02  0.51100000000E-03 0.  1.
         11   -1    0    0    0    0 -0.00000000000E+00 -0.00000000000E+00 -0.45593999997E+02  0.45594000000E+02  0.51100000000E-03 0. -1.
    9900012    2    1    2    0    0  0.13351639653E+02  0.42940113101E+01  0.41072126160E+02  0.47787258510E+02  0.19999942851E+02 0.  0.
         12    1    1    2    0    0 -0.13351639653E+02 -0.42940113101E+01 -0.41072126160E+02  0.43400741490E+02  0.00000000000E+00 0. -1.
         11    1    3    3    0    0  0.12386130356E+02  0.37181243781E+01  0.24873855392E+02  0.28034788325E+02  0.51100000000E-03 0. -1.
        -11    1    3    3    0    0 -0.21867243631E-01 -0.21295630696E+01  0.16694712208E+02  0.16830000981E+02  0.51100000000E-03 0.  1.
         12    1    3    3    0    0  0.98737654064E+00  0.27054500016E+01 -0.49644144043E+00  0.29224692039E+01  0.00000000000E+00 0. -1.
</event>
<event>
 7    1  0.1265344E-009  0.4778727E+02  0.7816164E-02  0.1312668E+00
        -11   -1    0    0    0    0  0.00000000000E+00  0.00000000000E+00  0.45593999997E+02  0.45594000000E+02  0.51100000000E-03 0.  1.
         11   -1    0    0    0    0 -0.00000000000E+00 -0.00000000000E+00 -0.45593999997E+02  0.45594000000E+02  0.51100000000E-03 0. -1.
    9900012    2    1    2    0    0  0.36742101565E+02 -0.21060730257E+02  0.94914066888E+01  0.47787272042E+02  0.20000004548E+02 0.  0.
         12    1    1    2    0    0 -0.36742101565E+02  0.21060730257E+02 -0.94914066888E+01  0.43400727958E+02  0.00000000000E+00 0. -1.
         11    1    3    3    0    0  0.85022666809E+00 -0.43701706991E+01  0.13208505160E+01  0.46439125393E+01  0.51100000000E-03 0.  1.
        -11    1    3    3    0    0  0.34553042032E+02 -0.15165492264E+02  0.33140596852E+01  0.37879913690E+02  0.51100000000E-03 0. -1.
         12    1    3    3    0    0  0.13388328644E+01 -0.15250672939E+01  0.48564964876E+01  0.52634458128E+01  0.00000000000E+00 0. -1.
</event>
<event>
 7    1  0.1265344E-009  0.4778727E+02  0.7816164E-02  0.1312668E+00
        -11   -1    0    0    0    0  0.00000000000E+00  0.00000000000E+00  0.45593999997E+02  0.45594000000E+02  0.51100000000E-03 0.  1.
         11   -1    0    0    0    0 -0.00000000000E+00 -0.00000000000E+00 -0.45593999997E+02  0.45594000000E+02  0.51100000000E-03 0. -1.
    9900012    2    1    2    0    0  0.14151517969E+02 -0.27098530955E+02  0.30806289022E+02  0.47787270927E+02  0.19999999464E+02 0.  0.
         12    1    1    2    0    0 -0.14151517969E+02  0.27098530955E+02 -0.30806289022E+02  0.43400729073E+02  0.00000000000E+00 0. -1.
         11    1    3    3    0    0  0.43913249524E+00  0.13374898510E+01  0.21800325209E+01  0.25950449906E+01  0.51100000000E-03 0. -1.
        -11    1    3    3    0    0  0.10851741339E+02 -0.22557761157E+02  0.29395569111E+02  0.38609744393E+02  0.51100000000E-03 0.  1.
        -12    1    3    3    0    0  0.28606441351E+01 -0.58782596494E+01 -0.76931260950E+00  0.65824815430E+01  0.00000000000E+00 0.  1.
</event>
<event>
 7    1  0.1265344E-009  0.4778727E+02  0.7816164E-02  0.1312668E+00
        -11   -1    0    0    0    0  0.00000000000E+00  0.00000000000E+00  0.45593999997E+02  0.45594000000E+02  0.51100000000E-03 0. -1.
         11   -1    0    0    0    0 -0.00000000000E+00 -0.00000000000E+00 -0.45593999997E+02  0.45594000000E+02  0.51100000000E-03 0.  1.
    9900012    2    1    2    0    0  0.13689741127E+02  0.13322518918E+02 -0.38970818244E+02  0.47787271930E+02  0.20000004037E+02 0.  0.
         12    1    1    2    0    0 -0.13689741127E+02 -0.13322518918E+02  0.38970818244E+02  0.43400728070E+02  0.00000000000E+00 0. -1.
         11    1    3    3    0    0  0.64634870940E+01  0.85867367375E+01 -0.25155610627E+02  0.27355318669E+02  0.51100000000E-03 0.  1.
        -11    1    3    3    0    0 -0.25630978123E+01 -0.18892540119E+01 -0.22840915483E+01  0.39186509897E+01  0.51100000000E-03 0. -1.
         12    1    3    3    0    0  0.97893518458E+01  0.66250361921E+01 -0.11531116068E+02  0.16513302271E+02  0.00000000000E+00 0. -1.
</event>
<event>
 7    1  0.1265344E-009  0.4778727E+02  0.7816164E-02  0.1312668E+00
        -11   -1    0    0    0    0  0.00000000000E+00  0.00000000000E+00  0.45593999997E+02  0.45594000000E+02  0.51100000000E-03 0. -1.
         11   -1    0    0    0    0 -0.00000000000E+00 -0.00000000000E+00 -0.45593999997E+02  0.45594000000E+02  0.51100000000E-03 0.  1.
    9900012    2    1    2    0    0  0.18250029105E+02  0.37882067453E+02 -0.10747492487E+02  0.47787271992E+02  0.20000004322E+02 0.  0.
         12    1    1    2    0    0 -0.18250029105E+02 -0.37882067453E+02  0.10747492487E+02  0.43400728008E+02  0.00000000000E+00 0. -1.
         11    1    3    3    0    0  0.75168403111E+01  0.31096165170E+02 -0.10028500042E+02  0.33526783173E+02  0.51100000000E-03 0. -1.
        -11    1    3    3    0    0  0.42299426995E+01  0.54219932879E+01  0.18742702068E+01  0.71276444583E+01  0.51100000000E-03 0.  1.
         12    1    3    3    0    0  0.65032460940E+01  0.13639089952E+01 -0.25932626515E+01  0.71328443615E+01  0.00000000000E+00 0. -1.
</event>
<event>
 7    1  0.1265344E-009  0.4778728E+02  0.7816164E-02  0.1312668E+00
        -11   -1    0    0    0    0  0.00000000000E+00  0.00000000000E+00  0.45593999997E+02  0.45594000000E+02  0.51100000000E-03 0.  1.
         11   -1    0    0    0    0 -0.00000000000E+00 -0.00000000000E+00 -0.45593999997E+02  0.45594000000E+02  0.51100000000E-03 0. -1.
    9900012    2    1    2    0    0  0.16968332947E+02  0.72885087910E+01  0.39275640642E+02  0.47787278448E+02  0.20000033757E+02 0.  0.
         12    1    1    2    0    0 -0.16968332947E+02 -0.72885087910E+01 -0.39275640642E+02  0.43400721552E+02  0.00000000000E+00 0. -1.
         11    1    3    3    0    0  0.12332826179E+01 -0.70203792630E-01  0.30911660396E+00  0.12733687306E+01  0.51100000000E-03 0. -1.
        -11    1    3    3    0    0  0.16798157116E+02  0.74944076826E+01  0.18739740787E+02  0.26258753094E+02  0.51100000000E-03 0.  1.
        -12    1    3    3    0    0 -0.10631067865E+01 -0.13569509898E+00  0.20226783250E+02  0.20255156624E+02  0.00000000000E+00 0.  1.
</event>
<event>
 7    1  0.1265344E-009  0.4778727E+02  0.7816164E-02  0.1312668E+00
        -11   -1    0    0    0    0  0.00000000000E+00  0.00000000000E+00  0.45593999997E+02  0.45594000000E+02  0.51100000000E-03 0. -1.
         11   -1    0    0    0    0 -0.00000000000E+00 -0.00000000000E+00 -0.45593999997E+02  0.45594000000E+02  0.51100000000E-03 0.  1.
    9900012    2    1    2    0    0  0.12446638338E+02  0.33940802382E+02 -0.24015127365E+02  0.47787271727E+02  0.20000003113E+02 0.  0.
         12    1    1    2    0    0 -0.12446638338E+02 -0.33940802382E+02  0.24015127365E+02  0.43400728273E+02  0.00000000000E+00 0. -1.
         11    1    3    3    0    0  0.62444170009E+01  0.18283239173E+01 -0.13768488368E+01  0.66506559833E+01  0.51100000000E-03 0. -1.
        -11    1    3    3    0    0  0.59816905772E+01  0.21947661891E+02 -0.98241105426E+01  0.24778894908E+02  0.51100000000E-03 0.  1.
        -12    1    3    3    0    0  0.22053076004E+00  0.10164816574E+02 -0.12814167985E+02  0.16357720836E+02  0.00000000000E+00 0.  1.
</event>
<event>
 7    1  0.1265344E-009  0.4778727E+02  0.7816164E-02  0.1312668E+00
        -11   -1    0    0    0    0  0.00000000000E+00  0.00000000000E+00  0.45593999997E+02  0.45594000000E+02  0.51100000000E-03 0.  1.
         11   -1    0    0    0    0 -0.00000000000E+00 -0.00000000000E+00 -0.45593999997E+02  0.45594000000E+02  0.51100000000E-03 0. -1.
    9900012    2    1    2    0    0  0.21910724283E+02 -0.18540514766E+02  0.32554456785E+02  0.47787272092E+02  0.20000004776E+02 0.  0.
         12    1    1    2    0    0 -0.21910724283E+02  0.18540514766E+02 -0.32554456785E+02  0.43400727908E+02  0.00000000000E+00 0. -1.
         11    1    3    3    0    0  0.64767448737E+01 -0.10586560244E+02  0.92921093966E+01  0.15503766615E+02  0.51100000000E-03 0. -1.
        -11    1    3    3    0    0  0.12104397201E+02 -0.63252866750E+01  0.24767111981E+02  0.28283131355E+02  0.51100000000E-03 0.  1.
        -12    1    3    3    0    0  0.33295822078E+01 -0.16286678479E+01 -0.15047645924E+01  0.40003741219E+01  0.00000000000E+00 0.  1.
</event>
<event>
 7    1  0.1265344E-009  0.4778727E+02  0.7816164E-02  0.1312668E+00
        -11   -1    0    0    0    0  0.00000000000E+00  0.00000000000E+00  0.45593999997E+02  0.45594000000E+02  0.51100000000E-03 0. -1.
         11   -1    0    0    0    0 -0.00000000000E+00 -0.00000000000E+00 -0.45593999997E+02  0.45594000000E+02  0.51100000000E-03 0.  1.
    9900012    2    1    2    0    0 -0.11980718063E+02 -0.25038660268E+02 -0.33363921302E+02  0.47787270076E+02  0.19999995584E+02 0.  0.
         12    1    1    2    0    0  0.11980718063E+02  0.25038660268E+02  0.33363921302E+02  0.43400729924E+02  0.00000000000E+00 0. -1.
         11    1    3    3    0    0 -0.11503513196E+02 -0.12309083336E+02 -0.25970885554E+02  0.30956925641E+02  0.51100000000E-03 0. -1.
        -11    1    3    3    0    0  0.16166944192E+01 -0.57083236795E+01 -0.74240764251E+01  0.95034504841E+01  0.51100000000E-03 0.  1.
         12    1    3    3    0    0 -0.20938992865E+01 -0.70212532517E+01  0.31040677084E-01  0.73268939510E+01  0.00000000000E+00 0. -1.
</event>
<event>
 7    1  0.1265344E-009  0.4778727E+02  0.7816164E-02  0.1312668E+00
        -11   -1    0    0    0    0  0.00000000000E+00  0.00000000000E+00  0.45593999997E+02  0.45594000000E+02  0.51100000000E-03 0. -1.
         11   -1    0    0    0    0 -0.00000000000E+00 -0.00000000000E+00 -0.45593999997E+02  0.45594000000E+02  0.51100000000E-03 0.  1.
    9900012    2    1    2    0    0 -0.30504618647E+01 -0.81214696214E+01 -0.42524813315E+02  0.47787270353E+02  0.19999996849E+02 0.  0.
         12    1    1    2    0    0  0.30504618647E+01  0.81214696214E+01  0.42524813315E+02  0.43400729647E+02  0.00000000000E+00 0. -1.
         11    1    3    3    0    0 -0.28648016927E+01  0.57760247952E+01 -0.77166820498E+01  0.10055681642E+02  0.51100000000E-03 0.  1.
        -11    1    3    3    0    0  0.57546339298E+00 -0.49505211359E+01 -0.76743322980E+01  0.91506390004E+01  0.51100000000E-03 0. -1.
        -12    1    3    3    0    0 -0.76112356499E+00 -0.89469732806E+01 -0.27133798967E+02  0.28580949711E+02  0.00000000000E+00 0.  1.
</event>
<event>
 7    1  0.1265888E-009  0.4778727E+02  0.7816164E-02  0.1312668E+00
        -11   -1    0    0    0    0  0.00000000000E+00  0.00000000000E+00  0.45593999997E+02  0.45594000000E+02  0.51100000000E-03 0.  1.
         11   -1    0    0    0    0 -0.00000000000E+00 -0.00000000000E+00 -0.45593999997E+02  0.45594000000E+02  0.51100000000E-03 0. -1.
    9900012    2    1    2    0    0 -0.42828511334E+01 -0.32235488225E+02  0.28742892621E+02  0.47787269694E+02  0.19999993841E+02 0.  0.
         12    1    1    2    0    0  0.42828511334E+01  0.32235488225E+02 -0.28742892621E+02  0.43400730306E+02  0.00000000000E+00 0. -1.
         11    1    3    3    0    0 -0.36837055849E+01 -0.33136203843E+00 -0.71035857264E+00  0.37661780627E+01  0.51100000000E-03 0. -1.
        -11    1    3    3    0    0 -0.61290582465E-01 -0.82528374190E+01  0.12246940843E+02  0.14768230844E+02  0.51100000000E-03 0.  1.
        -12    1    3    3    0    0 -0.53785496600E+00 -0.23651288768E+02  0.17206310350E+02  0.29252860787E+02  0.00000000000E+00 0.  1.
</event>
<event>
 7    1  0.1265344E-009  0.4778727E+02  0.7816164E-02  0.1312668E+00
        -11   -1    0    0    0    0  0.00000000000E+00  0.00000000000E+00  0.45593999997E+02  0.45594000000E+02  0.51100000000E-03 0.  1.
         11   -1    0    0    0    0 -0.00000000000E+00 -0.00000000000E+00 -0.45593999997E+02  0.45594000000E+02  0.51100000000E-03 0. -1.
    9900012    2    1    2    0    0  0.24256933766E+01  0.39213198601E+02 -0.18440838595E+02  0.47787268889E+02  0.19999990174E+02 0.  0.
         12    1    1    2    0    0 -0.24256933766E+01 -0.39213198601E+02  0.18440838595E+02  0.43400731111E+02  0.00000000000E+00 0. -1.
         11    1    3    3    0    0 -0.32428941191E+01  0.32394598285E+02 -0.14517377029E+02  0.35646607081E+02  0.51100000000E-03 0. -1.
        -11    1    3    3    0    0  0.47719814570E+01  0.84055425537E+01 -0.32469927315E+01  0.10196465795E+02  0.51100000000E-03 0.  1.
         12    1    3    3    0    0  0.89660603873E+00 -0.15869422380E+01 -0.67646883444E+00  0.19441960136E+01  0.00000000000E+00 0. -1.
</event>
<event>
 7    1  0.1265344E-009  0.4778727E+02  0.7816164E-02  0.1312668E+00
        -11   -1    0    0    0    0  0.00000000000E+00  0.00000000000E+00  0.45593999997E+02  0.45594000000E+02  0.51100000000E-03 0.  1.
         11   -1    0    0    0    0 -0.00000000000E+00 -0.00000000000E+00 -0.45593999997E+02  0.45594000000E+02  0.51100000000E-03 0. -1.
    9900012    2    1    2    0    0  0.24968250186E+02  0.26663797454E+02  0.23436120722E+02  0.47787269977E+02  0.19999995133E+02 0.  0.
         12    1    1    2    0    0 -0.24968250186E+02 -0.26663797454E+02 -0.23436120722E+02  0.43400730023E+02  0.00000000000E+00 0. -1.
         11    1    3    3    0    0  0.24175461482E+01 -0.82402710829E+00 -0.15901265652E+01  0.30086629602E+01  0.51100000000E-03 0. -1.
        -11    1    3    3    0    0  0.14494193118E+02  0.11464612954E+02  0.17072996205E+02  0.25159614147E+02  0.51100000000E-03 0.  1.
        -12    1    3    3    0    0  0.80565109195E+01  0.16023211609E+02  0.79532510820E+01  0.19618992870E+02  0.00000000000E+00 0.  1.
</event>
<event>
 7    1  0.1265344E-009  0.4778727E+02  0.7816164E-02  0.1312668E+00
        -11   -1    0    0    0    0  0.00000000000E+00  0.00000000000E+00  0.45593999997E+02  0.45594000000E+02  0.51100000000E-03 0.  1.
         11   -1    0    0    0    0 -0.00000000000E+00 -0.00000000000E+00 -0.45593999997E+02  0.45594000000E+02  0.51100000000E-03 0. -1.
    9900012    2    1    2    0    0  0.37096553255E+02  0.22324682257E+02 -0.30129302303E+01  0.47787269017E+02  0.19999990756E+02 0.  0.
         12    1    1    2    0    0 -0.37096553255E+02 -0.22324682257E+02  0.30129302303E+01  0.43400730983E+02  0.00000000000E+00 0. -1.
         11    1    3    3    0    0  0.66421132469E+01  0.22778680807E+01  0.44747550184E+01  0.83264508714E+01  0.51100000000E-03 0. -1.
        -11    1    3    3    0    0  0.10958399323E+02  0.13166725682E+02  0.89006704817E+00  0.17153466138E+02  0.51100000000E-03 0.  1.
         12    1    3    3    0    0  0.19496040685E+02  0.68800884939E+01 -0.83777522969E+01  0.22307352008E+02  0.00000000000E+00 0. -1.
</event>
<event>
 7    1  0.1265344E-009  0.4778728E+02  0.7816164E-02  0.1312668E+00
        -11   -1    0    0    0    0  0.00000000000E+00  0.00000000000E+00  0.45593999997E+02  0.45594000000E+02  0.51100000000E-03 0.  1.
         11   -1    0    0    0    0 -0.00000000000E+00 -0.00000000000E+00 -0.45593999997E+02  0.45594000000E+02  0.51100000000E-03 0. -1.
    9900012    2    1    2    0    0  0.28163468097E+02 -0.67404050378E-01  0.33021771632E+02  0.47787275579E+02  0.20000020676E+02 0.  0.
         12    1    1    2    0    0 -0.28163468097E+02  0.67404050378E-01 -0.33021771632E+02  0.43400724421E+02  0.00000000000E+00 0. -1.
         11    1    3    3    0    0  0.32587178796E+01  0.18185005331E+01  0.19736378893E+01  0.42215439340E+01  0.51100000000E-03 0. -1.
        -11    1    3    3    0    0  0.23287097061E+02 -0.17070431909E+01  0.15712581062E+02  0.28144059584E+02  0.51100000000E-03 0.  1.
         12    1    3    3    0    0  0.16176531559E+01 -0.17886139258E+00  0.15335552681E+02  0.15421672061E+02  0.00000000000E+00 0. -1.
</event>
<event>
 7    1  0.1265344E-009  0.4778727E+02  0.7816164E-02  0.1312668E+00
        -11   -1    0    0    0    0  0.00000000000E+00  0.00000000000E+00  0.45593999997E+02  0.45594000000E+02  0.51100000000E-03 0.  1.
         11   -1    0    0    0    0 -0.00000000000E+00 -0.00000000000E+00 -0.45593999997E+02  0.45594000000E+02  0.51100000000E-03 0. -1.
    9900012    2    1    2    0    0  0.71979159669E+00 -0.16606372920E+02  0.40091562185E+02  0.47787273278E+02  0.20000010185E+02 0.  0.
         12    1    1    2    0    0 -0.71979159669E+00  0.16606372920E+02 -0.40091562185E+02  0.43400726722E+02  0.00000000000E+00 0. -1.
         11    1    3    3    0    0  0.75089827068E+01 -0.24007893011E+01  0.16722829888E+02  0.18487878469E+02  0.51100000000E-03 0. -1.
        -11    1    3    3    0    0 -0.64261919021E+00  0.10144780251E+01  0.22652779381E+01  0.25639051240E+01  0.51100000000E-03 0.  1.
        -12    1    3    3    0    0 -0.61465719199E+01 -0.15220061644E+02  0.21103454359E+02  0.26735489685E+02  0.00000000000E+00 0.  1.
</event>
<event>
 7    1  0.1265344E-009  0.4778728E+02  0.7816164E-02  0.1312668E+00
        -11   -1    0    0    0    0  0.00000000000E+00  0.00000000000E+00  0.45593999997E+02  0.45594000000E+02  0.51100000000E-03 0. -1.
         11   -1    0    0    0    0 -0.00000000000E+00 -0.00000000000E+00 -0.45593999997E+02  0.45594000000E+02  0.51100000000E-03 0.  1.
    9900012    2    1    2    0    0 -0.91902421649E+01  0.42406824814E+02 -0.90751220117E+00  0.47787275118E+02  0.20000018573E+02 0.  0.
         12    1    1    2    0    0  0.91902421649E+01 -0.42406824814E+02  0.90751220117E+00  0.43400724882E+02  0.00000000000E+00 0. -1.
         11    1    3    3    0    0 -0.33595192404E+01  0.19737998912E+01 -0.27093801777E+01  0.47458399410E+01  0.51100000000E-03 0. -1.
        -11    1    3    3    0    0 -0.26021011780E+01  0.29157164297E+02 -0.46733930300E+01  0.29643747453E+02  0.51100000000E-03 0.  1.
        -12    1    3    3    0    0 -0.32286217464E+01  0.11275860627E+02  0.64752610066E+01  0.13397687724E+02  0.00000000000E+00 0.  1.
</event>
<event>
 7    1  0.1265344E-009  0.4778727E+02  0.7816164E-02  0.1312668E+00
        -11   -1    0    0    0    0  0.00000000000E+00  0.00000000000E+00  0.45593999997E+02  0.45594000000E+02  0.51100000000E-03 0.  1.
         11   -1    0    0    0    0 -0.00000000000E+00 -0.00000000000E+00 -0.45593999997E+02  0.45594000000E+02  0.51100000000E-03 0. -1.
    9900012    2    1    2    0    0  0.15236163832E+01 -0.42022831336E+02  0.10741670253E+02  0.47787271432E+02  0.20000001768E+02 0.  0.
         12    1    1    2    0    0 -0.15236163832E+01  0.42022831336E+02 -0.10741670253E+02  0.43400728568E+02  0.00000000000E+00 0. -1.
         11    1    3    3    0    0  0.34744507258E+01 -0.14296290838E+02  0.71764366871E+01  0.16369391661E+02  0.51100000000E-03 0. -1.
        -11    1    3    3    0    0 -0.57178787332E+01 -0.35309901617E+01  0.48279785412E+00  0.67375902784E+01  0.51100000000E-03 0.  1.
         12    1    3    3    0    0  0.37670443906E+01 -0.24195550336E+02  0.30824357121E+01  0.24680289493E+02  0.00000000000E+00 0. -1.
</event>
<event>
 7    1  0.1265344E-009  0.4778727E+02  0.7816164E-02  0.1312668E+00
        -11   -1    0    0    0    0  0.00000000000E+00  0.00000000000E+00  0.45593999997E+02  0.45594000000E+02  0.51100000000E-03 0.  1.
         11   -1    0    0    0    0 -0.00000000000E+00 -0.00000000000E+00 -0.45593999997E+02  0.45594000000E+02  0.51100000000E-03 0. -1.
    9900012    2    1    2    0    0  0.10785572407E+02  0.38675378494E+02  0.16477555473E+02  0.47787270650E+02  0.19999998202E+02 0.  0.
         12    1    1    2    0    0 -0.10785572407E+02 -0.38675378494E+02 -0.16477555473E+02  0.43400729350E+02  0.00000000000E+00 0. -1.
         11    1    3    3    0    0  0.10823592411E+01 -0.19517262734E+01  0.28259417471E+01  0.36009282126E+01  0.51100000000E-03 0. -1.
        -11    1    3    3    0    0  0.26011860369E+01  0.65545025523E+01  0.38175750848E+01  0.80188248700E+01  0.51100000000E-03 0.  1.
        -12    1    3    3    0    0  0.71020271285E+01  0.34072602215E+02  0.98340386407E+01  0.36167517567E+02  0.00000000000E+00 0.  1.
</event>
<event>
 7    1  0.1265344E-009  0.4778728E+02  0.7816164E-02  0.1312668E+00
        -11   -1    0    0    0    0  0.00000000000E+00  0.00000000000E+00  0.45593999997E+02  0.45594000000E+02  0.51100000000E-03 0. -1.
         11   -1    0    0    0    0 -0.00000000000E+00 -0.00000000000E+00 -0.45593999997E+02  0.45594000000E+02  0.51100000000E-03 0.  1.
    9900012    2    1    2    0    0 -0.27762663779E+02  0.21145448644E+02 -0.25801689591E+02  0.47787277838E+02  0.20000030974E+02 0.  0.
         12    1    1    2    0    0  0.27762663779E+02 -0.21145448644E+02  0.25801689591E+02  0.43400722162E+02  0.00000000000E+00 0. -1.
         11    1    3    3    0    0 -0.83766891742E+00  0.48685692087E+01 -0.29298298674E+01  0.57435667201E+01  0.51100000000E-03 0. -1.
        -11    1    3    3    0    0 -0.28637807931E+02  0.16119561755E+02 -0.19381140558E+02  0.38152233537E+02  0.51100000000E-03 0.  1.
        -12    1    3    3    0    0  0.17128130698E+01  0.15731767966E+00 -0.34907191660E+01  0.38914775806E+01  0.00000000000E+00 0.  1.
</event>
<event>
 7    1  0.1265344E-009  0.4778727E+02  0.7816164E-02  0.1312668E+00
        -11   -1    0    0    0    0  0.00000000000E+00  0.00000000000E+00  0.45593999997E+02  0.45594000000E+02  0.51100000000E-03 0. -1.
         11   -1    0    0    0    0 -0.00000000000E+00 -0.00000000000E+00 -0.45593999997E+02  0.45594000000E+02  0.51100000000E-03 0.  1.
    9900012    2    1    2    0    0 -0.17751555329E+02 -0.39276184178E+02 -0.50878978543E+01  0.47787273453E+02  0.20000010983E+02 0.  0.
         12    1    1    2    0    0  0.17751555329E+02  0.39276184178E+02  0.50878978543E+01  0.43400726547E+02  0.00000000000E+00 0. -1.
         11    1    3    3    0    0  0.79403813378E+00 -0.38622952175E+01  0.23524185228E+01  0.45914805970E+01  0.51100000000E-03 0. -1.
        -11    1    3    3    0    0 -0.19622949535E+02 -0.26590931700E+02 -0.27920131972E+01  0.33165239861E+02  0.51100000000E-03 0.  1.
        -12    1    3    3    0    0  0.10773560713E+01 -0.88229572607E+01 -0.46483031799E+01  0.10030552995E+02  0.00000000000E+00 0.  1.
</event>
<event>
 7    1  0.1265344E-009  0.4778727E+02  0.7816164E-02  0.1312668E+00
        -11   -1    0    0    0    0  0.00000000000E+00  0.00000000000E+00  0.45593999997E+02  0.45594000000E+02  0.51100000000E-03 0.  1.
         11   -1    0    0    0    0 -0.00000000000E+00 -0.00000000000E+00 -0.45593999997E+02  0.45594000000E+02  0.51100000000E-03 0. -1.
    9900012    2    1    2    0    0  0.21957295683E+02 -0.20111428284E+01  0.37382561863E+02  0.47787268894E+02  0.19999990193E+02 0.  0.
         12    1    1    2    0    0 -0.21957295683E+02  0.20111428284E+01 -0.37382561863E+02  0.43400731106E+02  0.00000000000E+00 0. -1.
         11    1    3    3    0    0  0.63565119261E+01 -0.31277130331E+01  0.19751523489E+02  0.20983577223E+02  0.51100000000E-03 0.  1.
        -11    1    3    3    0    0  0.17152086045E+02 -0.26045835772E+00  0.17802544354E+02  0.24722307335E+02  0.51100000000E-03 0. -1.
         12    1    3    3    0    0 -0.15513022881E+01  0.13770285624E+01 -0.17150598001E+00  0.20813843355E+01  0.00000000000E+00 0. -1.
</event>
<event>
 7    1  0.1265344E-009  0.4778727E+02  0.7816164E-02  0.1312668E+00
        -11   -1    0    0    0    0  0.00000000000E+00  0.00000000000E+00  0.45593999997E+02  0.45594000000E+02  0.51100000000E-03 0. -1.
         11   -1    0    0    0    0 -0.00000000000E+00 -0.00000000000E+00 -0.45593999997E+02  0.45594000000E+02  0.51100000000E-03 0.  1.
    9900012    2    1    2    0    0 -0.32911188151E+02  0.28090102043E+02  0.33797776543E+01  0.47787273794E+02  0.20000012534E+02 0.  0.
         12    1    1    2    0    0  0.32911188151E+02 -0.28090102043E+02 -0.33797776543E+01  0.43400726206E+02  0.00000000000E+00 0. -1.
         11    1    3    3    0    0 -0.19658065924E+02  0.21701232433E+02  0.65563590843E+01  0.30006147531E+02  0.51100000000E-03 0. -1.
        -11    1    3    3    0    0 -0.75091794080E+01 -0.18543723295E+00  0.18110777102E+01  0.77267176138E+01  0.51100000000E-03 0.  1.
        -12    1    3    3    0    0 -0.57439428189E+01  0.65743068428E+01 -0.49876591402E+01  0.10054408648E+02  0.00000000000E+00 0.  1.
</event>
<event>
 7    1  0.1265344E-009  0.4778727E+02  0.7816164E-02  0.1312668E+00
        -11   -1    0    0    0    0  0.00000000000E+00  0.00000000000E+00  0.45593999997E+02  0.45594000000E+02  0.51100000000E-03 0.  1.
         11   -1    0    0    0    0 -0.00000000000E+00 -0.00000000000E+00 -0.45593999997E+02  0.45594000000E+02  0.51100000000E-03 0. -1.
    9900012    2    1    2    0    0  0.26458364478E+02 -0.13250100445E+02  0.31749222374E+02  0.47787270352E+02  0.19999996841E+02 0.  0.
         12    1    1    2    0    0 -0.26458364478E+02  0.13250100445E+02 -0.31749222374E+02  0.43400729648E+02  0.00000000000E+00 0. -1.
         11    1    3    3    0    0 -0.22180739258E+01 -0.56918779489E+00  0.47606380020E+01  0.52827550703E+01  0.51100000000E-03 0. -1.
        -11    1    3    3    0    0  0.14189760109E+02 -0.11393120744E+02  0.16599547286E+02  0.24631229417E+02  0.51100000000E-03 0.  1.
        -12    1    3    3    0    0  0.14486678295E+02 -0.12877919067E+01  0.10389037086E+02  0.17873285864E+02  0.00000000000E+00 0.  1.
</event>
<event>
 7    1  0.1265344E-009  0.4778730E+02  0.7816164E-02  0.1312668E+00
        -11   -1    0    0    0    0  0.00000000000E+00  0.00000000000E+00  0.45593999997E+02  0.45594000000E+02  0.51100000000E-03 0.  1.
         11   -1    0    0    0    0 -0.00000000000E+00 -0.00000000000E+00 -0.45593999997E+02  0.45594000000E+02  0.51100000000E-03 0. -1.
    9900012    2    1    2    0    0  0.11338548540E+02  0.21864095601E+02  0.35735405570E+02  0.47787302187E+02  0.20000141992E+02 0.  0.
         12    1    1    2    0    0 -0.11338548540E+02 -0.21864095601E+02 -0.35735405570E+02  0.43400697813E+02  0.00000000000E+00 0. -1.
         11    1    3    3    0    0 -0.39767807805E+00  0.60443777772E+01  0.53541062741E+01  0.80844978089E+01  0.51100000000E-03 0. -1.
        -11    1    3    3    0    0  0.15511132185E+02  0.11021726549E+02  0.25858242944E+02  0.32104865771E+02  0.51100000000E-03 0.  1.
        -12    1    3    3    0    0 -0.37749055678E+01  0.47979912744E+01  0.45230563519E+01  0.75979386071E+01  0.00000000000E+00 0.  1.
</event>
<event>
 7    1  0.1592890E-009  0.4778727E+02  0.7816164E-02  0.1312668E+00
        -11   -1    0    0    0    0  0.00000000000E+00  0.00000000000E+00  0.45593999997E+02  0.45594000000E+02  0.51100000000E-03 0.  1.
         11   -1    0    0    0    0 -0.00000000000E+00 -0.00000000000E+00 -0.45593999997E+02  0.45594000000E+02  0.51100000000E-03 0. -1.
    9900012    2    1    2    0    0 -0.21588182543E+02 -0.32742557476E+02  0.18587590164E+02  0.47787271853E+02  0.20000003686E+02 0.  0.
         12    1    1    2    0    0  0.21588182543E+02  0.32742557476E+02 -0.18587590164E+02  0.43400728147E+02  0.00000000000E+00 0. -1.
         11    1    3    3    0    0 -0.16489090071E+01  0.16120313888E+01  0.66124187249E-01  0.23069284300E+01  0.51100000000E-03 0. -1.
        -11    1    3    3    0    0 -0.13656756047E+02 -0.17046126750E+02  0.15589790274E+02  0.26835032773E+02  0.51100000000E-03 0.  1.
         12    1    3    3    0    0 -0.62825174890E+01 -0.17308462115E+02  0.29316757025E+01  0.18645310650E+02  0.00000000000E+00 0. -1.
</event>
<event>
 7    1  0.1265344E-009  0.4778728E+02  0.7816164E-02  0.1312668E+00
        -11   -1    0    0    0    0  0.00000000000E+00  0.00000000000E+00  0.45593999997E+02  0.45594000000E+02  0.51100000000E-03 0.  1.
         11   -1    0    0    0    0 -0.00000000000E+00 -0.00000000000E+00 -0.45593999997E+02  0.45594000000E+02  0.51100000000E-03 0. -1.
    9900012    2    1    2    0    0 -0.18107840142E+02 -0.35996018167E+02  0.16125000270E+02  0.47787276133E+02  0.20000023200E+02 0.  0.
         12    1    1    2    0    0  0.18107840142E+02  0.35996018167E+02 -0.16125000270E+02  0.43400723867E+02  0.00000000000E+00 0. -1.
         11    1    3    3    0    0 -0.45742463269E+01 -0.42977708515E+01 -0.35186583670E+00  0.62863640986E+01  0.51100000000E-03 0. -1.
        -11    1    3    3    0    0 -0.21688931263E+01 -0.16448263916E+02  0.15097996714E+02  0.22432097278E+02  0.51100000000E-03 0.  1.
        -12    1    3    3    0    0 -0.11364700688E+02 -0.15249983399E+02  0.13788693933E+01  0.19068814757E+02  0.00000000000E+00 0.  1.
</event>
<event>
 7    1  0.1265344E-009  0.4778727E+02  0.7816164E-02  0.1312668E+00
        -11   -1    0    0    0    0  0.00000000000E+00  0.00000000000E+00  0.45593999997E+02  0.45594000000E+02  0.51100000000E-03 0. -1.
         11   -1    0    0    0    0 -0.00000000000E+00 -0.00000000000E+00 -0.45593999997E+02  0.45594000000E+02  0.51100000000E-03 0.  1.
    9900012    2    1    2    0    0 -0.41902421270E+02 -0.96623268585E+01 -0.58694019903E+01  0.47787270186E+02  0.19999996087E+02 0.  0.
         12    1    1    2    0    0  0.41902421270E+02  0.96623268585E+01  0.58694019903E+01  0.43400729814E+02  0.00000000000E+00 0. -1.
         11    1    3    3    0    0 -0.64688037019E+01  0.51840085426E+01 -0.33761701971E+01  0.89508598114E+01  0.51100000000E-03 0. -1.
        -11    1    3    3    0    0 -0.17222643682E+02 -0.86725181161E+01  0.92860426562E+00  0.19305292850E+02  0.51100000000E-03 0.  1.
        -12    1    3    3    0    0 -0.18210973886E+02 -0.61738172849E+01 -0.34218360587E+01  0.19531117525E+02  0.00000000000E+00 0.  1.
</event>
<event>
 7    1  0.1481776E-009  0.4778727E+02  0.7816164E-02  0.1312668E+00
        -11   -1    0    0    0    0  0.00000000000E+00  0.00000000000E+00  0.45593999997E+02  0.45594000000E+02  0.51100000000E-03 0. -1.
         11   -1    0    0    0    0 -0.00000000000E+00 -0.00000000000E+00 -0.45593999997E+02  0.45594000000E+02  0.51100000000E-03 0.  1.
    9900012    2    1    2    0    0 -0.90070189865E+01 -0.12795782521E+02 -0.40481661384E+02  0.47787270170E+02  0.19999996014E+02 0.  0.
         12    1    1    2    0    0  0.90070189865E+01  0.12795782521E+02  0.40481661384E+02  0.43400729830E+02  0.00000000000E+00 0. -1.
         11    1    3    3    0    0  0.59019988282E+00  0.69936848006E+00 -0.14927535268E+02  0.14955559555E+02  0.51100000000E-03 0. -1.
        -11    1    3    3    0    0  0.81334504319E+00 -0.68051221926E+01 -0.38852466715E+01  0.78782206224E+01  0.51100000000E-03 0.  1.
        -12    1    3    3    0    0 -0.10410563913E+02 -0.66900288087E+01 -0.21668879444E+02  0.24953489992E+02  0.00000000000E+00 0.  1.
</event>
<event>
 7    1  0.1265344E-009  0.4778729E+02  0.7816164E-02  0.1312668E+00
        -11   -1    0    0    0    0  0.00000000000E+00  0.00000000000E+00  0.45593999997E+02  0.45594000000E+02  0.51100000000E-03 0. -1.
         11   -1    0    0    0    0 -0.00000000000E+00 -0.00000000000E+00 -0.45593999997E+02  0.45594000000E+02  0.51100000000E-03 0.  1.
    9900012    2    1    2    0    0 -0.13751556971E+02 -0.60541851498E+01 -0.40716861425E+02  0.47787294001E+02  0.20000104666E+02 0.  0.
         12    1    1    2    0    0  0.13751556971E+02  0.60541851498E+01  0.40716861425E+02  0.43400705999E+02  0.00000000000E+00 0. -1.
         11    1    3    3    0    0  0.15203649425E+01 -0.11510602997E+00 -0.17354075756E+01  0.23100646465E+01  0.51100000000E-03 0. -1.
        -11    1    3    3    0    0 -0.16788532963E+02 -0.12072295742E+01 -0.35847646767E+02  0.39602601193E+02  0.51100000000E-03 0.  1.
         12    1    3    3    0    0  0.15166110495E+01 -0.47318495456E+01 -0.31338070826E+01  0.58746281609E+01  0.00000000000E+00 0. -1.
</event>
<event>
 7    1  0.1265344E-009  0.4778727E+02  0.7816164E-02  0.1312668E+00
        -11   -1    0    0    0    0  0.00000000000E+00  0.00000000000E+00  0.45593999997E+02  0.45594000000E+02  0.51100000000E-03 0. -1.
         11   -1    0    0    0    0 -0.00000000000E+00 -0.00000000000E+00 -0.45593999997E+02  0.45594000000E+02  0.51100000000E-03 0.  1.
    9900012    2    1    2    0    0 -0.33192250288E+02  0.24906717939E+02 -0.12710376689E+02  0.47787265522E+02  0.19999974820E+02 0.  0.
         12    1    1    2    0    0  0.33192250288E+02 -0.24906717939E+02  0.12710376689E+02  0.43400734478E+02  0.00000000000E+00 0. -1.
         11    1    3    3    0    0 -0.14032526568E+02  0.17056397364E+02 -0.27191998920E+01  0.22253686015E+02  0.51100000000E-03 0. -1.
        -11    1    3    3    0    0 -0.49821153227E+01 -0.92023754616E+00  0.15023208237E+01  0.52844373729E+01  0.51100000000E-03 0.  1.
        -12    1    3    3    0    0 -0.14177608397E+02  0.87705581208E+01 -0.11493497620E+02  0.20249142134E+02  0.00000000000E+00 0.  1.
</event>
<event>
 7    1  0.1265344E-009  0.4778727E+02  0.7816164E-02  0.1312668E+00
        -11   -1    0    0    0    0  0.00000000000E+00  0.00000000000E+00  0.45593999997E+02  0.45594000000E+02  0.51100000000E-03 0. -1.
         11   -1    0    0    0    0 -0.00000000000E+00 -0.00000000000E+00 -0.45593999997E+02  0.45594000000E+02  0.51100000000E-03 0.  1.
    9900012    2    1    2    0    0 -0.17840892115E+01 -0.33342964496E+02 -0.27725201320E+02  0.47787273693E+02  0.20000012078E+02 0.  0.
         12    1    1    2    0    0  0.17840892115E+01  0.33342964496E+02  0.27725201320E+02  0.43400726307E+02  0.00000000000E+00 0. -1.
         11    1    3    3    0    0 -0.25357630651E+01 -0.34918144615E+01  0.56437526865E+00  0.43521698337E+01  0.51100000000E-03 0. -1.
        -11    1    3    3    0    0 -0.17811355198E+01 -0.28354568008E+02 -0.20290401485E+02  0.34912094800E+02  0.51100000000E-03 0.  1.
         12    1    3    3    0    0  0.25328093734E+01 -0.14965820264E+01 -0.79991751042E+01  0.85230090597E+01  0.00000000000E+00 0. -1.
</event>
<event>
 7    1  0.1265344E-009  0.4778727E+02  0.7816164E-02  0.1312668E+00
        -11   -1    0    0    0    0  0.00000000000E+00  0.00000000000E+00  0.45593999997E+02  0.45594000000E+02  0.51100000000E-03 0.  1.
         11   -1    0    0    0    0 -0.00000000000E+00 -0.00000000000E+00 -0.45593999997E+02  0.45594000000E+02  0.51100000000E-03 0. -1.
    9900012    2    1    2    0    0  0.21787437468E+02  0.20415218061E+02  0.31498413422E+02  0.47787267195E+02  0.19999982451E+02 0.  0.
         12    1    1    2    0    0 -0.21787437468E+02 -0.20415218061E+02 -0.31498413422E+02  0.43400732805E+02  0.00000000000E+00 0. -1.
         11    1    3    3    0    0  0.29941859029E+01 -0.16026577023E+01  0.31491343659E+01  0.46314909530E+01  0.51100000000E-03 0.  1.
        -11    1    3    3    0    0  0.12894712782E+02  0.51274488931E+01  0.17100514419E+02  0.22022532633E+02  0.51100000000E-03 0. -1.
         12    1    3    3    0    0  0.58985387826E+01  0.16890426870E+02  0.11248764636E+02  0.21133243610E+02  0.00000000000E+00 0. -1.
</event>
<event>
 7    1  0.1265344E-009  0.4778727E+02  0.7816164E-02  0.1312668E+00
        -11   -1    0    0    0    0  0.00000000000E+00  0.00000000000E+00  0.45593999997E+02  0.45594000000E+02  0.51100000000E-03 0.  1.
         11   -1    0    0    0    0 -0.00000000000E+00 -0.00000000000E+00 -0.45593999997E+02  0.45594000000E+02  0.51100000000E-03 0. -1.
    9900012    2    1    2    0    0 -0.26604907008E+02  0.55625663487E+01  0.33835778704E+02  0.47787272565E+02  0.20000006935E+02 0.  0.
         12    1    1    2    0    0  0.26604907008E+02 -0.55625663487E+01 -0.33835778704E+02  0.43400727435E+02  0.00000000000E+00 0. -1.
         11    1    3    3    0    0 -0.19890730692E+02 -0.21106553801E+01  0.13275249822E+02  0.24006838437E+02  0.51100000000E-03 0.  1.
        -11    1    3    3    0    0  0.11640937727E+01  0.17077360464E+01  0.35757561101E+01  0.41300736962E+01  0.51100000000E-03 0. -1.
        -12    1    3    3    0    0 -0.78782700888E+01  0.59654856823E+01  0.16984772772E+02  0.19650360433E+02  0.00000000000E+00 0.  1.
</event>
<event>
 7    1  0.1265344E-009  0.4778727E+02  0.7816164E-02  0.1312668E+00
        -11   -1    0    0    0    0  0.00000000000E+00  0.00000000000E+00  0.45593999997E+02  0.45594000000E+02  0.51100000000E-03 0.  1.
         11   -1    0    0    0    0 -0.00000000000E+00 -0.00000000000E+00 -0.45593999997E+02  0.45594000000E+02  0.51100000000E-03 0. -1.
    9900012    2    1    2    0    0  0.33071800155E+02 -0.15097921883E+02  0.23705104877E+02  0.47787271805E+02  0.20000003466E+02 0.  0.
         12    1    1    2    0    0 -0.33071800155E+02  0.15097921883E+02 -0.23705104877E+02  0.43400728195E+02  0.00000000000E+00 0. -1.
         11    1    3    3    0    0  0.10630447265E+01 -0.27420147839E+01  0.69812680020E+01  0.75754083945E+01  0.51100000000E-03 0.  1.
        -11    1    3    3    0    0  0.38128718758E+01 -0.68503501127E+01  0.34721452598E+01  0.85744435140E+01  0.51100000000E-03 0. -1.
         12    1    3    3    0    0  0.28195883552E+02 -0.55055569869E+01  0.13251691615E+02  0.31637419896E+02  0.00000000000E+00 0. -1.
</event>
<event>
 7    1  0.1265344E-009  0.4778727E+02  0.7816164E-02  0.1312668E+00
        -11   -1    0    0    0    0  0.00000000000E+00  0.00000000000E+00  0.45593999997E+02  0.45594000000E+02  0.51100000000E-03 0.  1.
         11   -1    0    0    0    0 -0.00000000000E+00 -0.00000000000E+00 -0.45593999997E+02  0.45594000000E+02  0.51100000000E-03 0. -1.
    9900012    2    1    2    0    0 -0.26215797303E+02 -0.13878989758E+02  0.31681687304E+02  0.47787266189E+02  0.19999977861E+02 0.  0.
         12    1    1    2    0    0  0.26215797303E+02  0.13878989758E+02 -0.31681687304E+02  0.43400733811E+02  0.00000000000E+00 0. -1.
         11    1    3    3    0    0 -0.42385120375E+01 -0.26061070818E+01 -0.92544917607E+00  0.50609519710E+01  0.51100000000E-03 0. -1.
        -11    1    3    3    0    0 -0.21610300994E+02 -0.85256765305E+01  0.22858967880E+02  0.32591788569E+02  0.51100000000E-03 0.  1.
         12    1    3    3    0    0 -0.36698427161E+00 -0.27472061462E+01  0.97481686004E+01  0.10134525649E+02  0.00000000000E+00 0. -1.
</event>
<event>
 7    1  0.1265344E-009  0.4778727E+02  0.7816164E-02  0.1312668E+00
        -11   -1    0    0    0    0  0.00000000000E+00  0.00000000000E+00  0.45593999997E+02  0.45594000000E+02  0.51100000000E-03 0.  1.
         11   -1    0    0    0    0 -0.00000000000E+00 -0.00000000000E+00 -0.45593999997E+02  0.45594000000E+02  0.51100000000E-03 0. -1.
    9900012    2    1    2    0    0 -0.11796794410E+02 -0.85207377995E+01  0.40888335895E+02  0.47787270246E+02  0.19999996357E+02 0.  0.
         12    1    1    2    0    0  0.11796794410E+02  0.85207377995E+01 -0.40888335895E+02  0.43400729754E+02  0.00000000000E+00 0. -1.
         11    1    3    3    0    0 -0.62271613875E+01 -0.26990108909E+01  0.90876712565E+01  0.11342308754E+02  0.51100000000E-03 0. -1.
        -11    1    3    3    0    0  0.71069778006E+00  0.24703626744E+01  0.22011492297E+02  0.22161082475E+02  0.51100000000E-03 0.  1.
        -12    1    3    3    0    0 -0.62803308025E+01 -0.82920895830E+01  0.97891723415E+01  0.14283879017E+02  0.00000000000E+00 0.  1.
</event>
<event>
 7    1  0.1265344E-009  0.4778727E+02  0.7816164E-02  0.1312668E+00
        -11   -1    0    0    0    0  0.00000000000E+00  0.00000000000E+00  0.45593999997E+02  0.45594000000E+02  0.51100000000E-03 0.  1.
         11   -1    0    0    0    0 -0.00000000000E+00 -0.00000000000E+00 -0.45593999997E+02  0.45594000000E+02  0.51100000000E-03 0. -1.
    9900012    2    1    2    0    0  0.26834554226E+02 -0.19518602035E+02  0.27974177985E+02  0.47787265446E+02  0.19999974473E+02 0.  0.
         12    1    1    2    0    0 -0.26834554226E+02  0.19518602035E+02 -0.27974177985E+02  0.43400734554E+02  0.00000000000E+00 0. -1.
         11    1    3    3    0    0  0.16092482806E+02 -0.13524123865E+02  0.82316103391E+01  0.22574971500E+02  0.51100000000E-03 0. -1.
        -11    1    3    3    0    0  0.25176307250E+01  0.24917688925E+01  0.26129944252E+01  0.44017174839E+01  0.51100000000E-03 0.  1.
        -12    1    3    3    0    0  0.82244406949E+01 -0.84862470624E+01  0.17129573221E+02  0.20810576462E+02  0.00000000000E+00 0.  1.
</event>
<event>
 7    1  0.1265344E-009  0.4778727E+02  0.7816164E-02  0.1312668E+00
        -11   -1    0    0    0    0  0.00000000000E+00  0.00000000000E+00  0.45593999997E+02  0.45594000000E+02  0.51100000000E-03 0.  1.
         11   -1    0    0    0    0 -0.00000000000E+00 -0.00000000000E+00 -0.45593999997E+02  0.45594000000E+02  0.51100000000E-03 0. -1.
    9900012    2    1    2    0    0 -0.35793962411E+02  0.53158186287E+01  0.23961588013E+02  0.47787269904E+02  0.19999994801E+02 0.  0.
         12    1    1    2    0    0  0.35793962411E+02 -0.53158186287E+01 -0.23961588013E+02  0.43400730096E+02  0.00000000000E+00 0. -1.
         11    1    3    3    0    0 -0.12282818727E+02 -0.36570449754E+00  0.11184717782E+02  0.16616235668E+02  0.51100000000E-03 0.  1.
        -11    1    3    3    0    0 -0.73004606969E+01  0.92657669740E+01  0.60572870126E+01  0.13260538836E+02  0.51100000000E-03 0. -1.
         12    1    3    3    0    0 -0.16210682986E+02 -0.35842438477E+01  0.67195832184E+01  0.17910495400E+02  0.00000000000E+00 0. -1.
</event>
<event>
 7    1  0.1265344E-009  0.4778727E+02  0.7816164E-02  0.1312668E+00
        -11   -1    0    0    0    0  0.00000000000E+00  0.00000000000E+00  0.45593999997E+02  0.45594000000E+02  0.51100000000E-03 0.  1.
         11   -1    0    0    0    0 -0.00000000000E+00 -0.00000000000E+00 -0.45593999997E+02  0.45594000000E+02  0.51100000000E-03 0. -1.
    9900012    2    1    2    0    0  0.17739659577E+02 -0.59833659740E+01  0.39155165865E+02  0.47787271847E+02  0.20000003660E+02 0.  0.
         12    1    1    2    0    0 -0.17739659577E+02  0.59833659740E+01 -0.39155165865E+02  0.43400728153E+02  0.00000000000E+00 0. -1.
         11    1    3    3    0    0  0.13203790317E+02 -0.37302000212E+01  0.15292816480E+02  0.20545673683E+02  0.51100000000E-03 0. -1.
        -11    1    3    3    0    0  0.31525927094E+01 -0.42868609525E+01  0.24182733481E+02  0.24761272513E+02  0.51100000000E-03 0.  1.
        -12    1    3    3    0    0  0.13832765503E+01  0.20336949996E+01 -0.32038409576E+00  0.24803256510E+01  0.00000000000E+00 0.  1.
</event>
<event>
 7    1  0.1265344E-009  0.4778727E+02  0.7816164E-02  0.1312668E+00
        -11   -1    0    0    0    0  0.00000000000E+00  0.00000000000E+00  0.45593999997E+02  0.45594000000E+02  0.51100000000E-03 0. -1.
         11   -1    0    0    0    0 -0.00000000000E+00 -0.00000000000E+00 -0.45593999997E+02  0.45594000000E+02  0.51100000000E-03 0.  1.
    9900012    2    1    2    0    0 -0.21575025067E+02  0.21696525016E+02 -0.30779902196E+02  0.47787270932E+02  0.19999999488E+02 0.  0.
         12    1    1    2    0    0  0.21575025067E+02 -0.21696525016E+02  0.30779902196E+02  0.43400729068E+02  0.00000000000E+00 0. -1.
         11    1    3    3    0    0 -0.53117455651E+01  0.10363321726E+02 -0.10063620709E+02  0.15391216332E+02  0.51100000000E-03 0. -1.
        -11    1    3    3    0    0 -0.57793974203E+01  0.77654414579E+01 -0.18815831074E+02  0.21159844396E+02  0.51100000000E-03 0.  1.
         12    1    3    3    0    0 -0.10483882082E+02  0.35677618327E+01 -0.19004504135E+01  0.11236210205E+02  0.00000000000E+00 0. -1.
</event>
<event>
 7    1  0.1265344E-009  0.4778727E+02  0.7816164E-02  0.1312668E+00
        -11   -1    0    0    0    0  0.00000000000E+00  0.00000000000E+00  0.45593999997E+02  0.45594000000E+02  0.51100000000E-03 0.  1.
         11   -1    0    0    0    0 -0.00000000000E+00 -0.00000000000E+00 -0.45593999997E+02  0.45594000000E+02  0.51100000000E-03 0. -1.
    9900012    2    1    2    0    0 -0.42926306240E+01  0.13479431527E+02  0.41030494455E+02  0.47787271583E+02  0.20000002454E+02 0.  0.
         12    1    1    2    0    0  0.42926306240E+01 -0.13479431527E+02 -0.41030494455E+02  0.43400728417E+02  0.00000000000E+00 0. -1.
         11    1    3    3    0    0 -0.58010167866E+01  0.84006180831E+01  0.10732229310E+02  0.14812255944E+02  0.51100000000E-03 0. -1.
        -11    1    3    3    0    0  0.47223183751E+01  0.10084736973E+01  0.25353619435E+02  0.25809365137E+02  0.51100000000E-03 0.  1.
        -12    1    3    3    0    0 -0.32139322126E+01  0.40703397468E+01  0.49446457094E+01  0.71656505017E+01  0.00000000000E+00 0.  1.
</event>
<event>
 7    1  0.1265344E-009  0.4778727E+02  0.7816164E-02  0.1312668E+00
        -11   -1    0    0    0    0  0.00000000000E+00  0.00000000000E+00  0.45593999997E+02  0.45594000000E+02  0.51100000000E-03 0.  1.
         11   -1    0    0    0    0 -0.00000000000E+00 -0.00000000000E+00 -0.45593999997E+02  0.45594000000E+02  0.51100000000E-03 0. -1.
    9900012    2    1    2    0    0  0.21546643926E+02  0.77167400383E+01  0.36875704753E+02  0.47787267952E+02  0.19999985899E+02 0.  0.
         12    1    1    2    0    0 -0.21546643926E+02 -0.77167400383E+01 -0.36875704753E+02  0.43400732048E+02  0.00000000000E+00 0. -1.
         11    1    3    3    0    0  0.46228634361E+01  0.10033671434E+02  0.61950833870E+01  0.12665878857E+02  0.51100000000E-03 0. -1.
        -11    1    3    3    0    0  0.83997786134E+01 -0.82892602791E+00  0.15309547442E+02  0.17482152106E+02  0.51100000000E-03 0.  1.
         12    1    3    3    0    0  0.85240018768E+01 -0.14880053677E+01  0.15371073923E+02  0.17639236988E+02  0.00000000000E+00 0. -1.
</event>
<event>
 7    1  0.1265344E-009  0.4778726E+02  0.7816164E-02  0.1312668E+00
        -11   -1    0    0    0    0  0.00000000000E+00  0.00000000000E+00  0.45593999997E+02  0.45594000000E+02  0.51100000000E-03 0.  1.
         11   -1    0    0    0    0 -0.00000000000E+00 -0.00000000000E+00 -0.45593999997E+02  0.45594000000E+02  0.51100000000E-03 0. -1.
    9900012    2    1    2    0    0  0.33380312580E+02  0.12350573853E+01  0.27710163768E+02  0.47787264860E+02  0.19999971801E+02 0.  0.
         12    1    1    2    0    0 -0.33380312580E+02 -0.12350573853E+01 -0.27710163768E+02  0.43400735140E+02  0.00000000000E+00 0. -1.
         11    1    3    3    0    0  0.46691258942E+01  0.38637277098E+00  0.10763339070E+02  0.11738802696E+02  0.51100000000E-03 0. -1.
        -11    1    3    3    0    0  0.10317057475E+02 -0.82165885447E+00  0.13898575938E+02  0.17328797177E+02  0.51100000000E-03 0.  1.
         12    1    3    3    0    0  0.18394129211E+02  0.16703434687E+01  0.30482487595E+01  0.18719664987E+02  0.00000000000E+00 0. -1.
</event>
<event>
 7    1  0.1265344E-009  0.4778727E+02  0.7816164E-02  0.1312668E+00
        -11   -1    0    0    0    0  0.00000000000E+00  0.00000000000E+00  0.45593999997E+02  0.45594000000E+02  0.51100000000E-03 0. -1.
         11   -1    0    0    0    0 -0.00000000000E+00 -0.00000000000E+00 -0.45593999997E+02  0.45594000000E+02  0.51100000000E-03 0.  1.
    9900012    2    1    2    0    0  0.38655142133E+02  0.10210324031E+02  0.16886461736E+02  0.47787270512E+02  0.19999997572E+02 0.  0.
         12    1    1    2    0    0 -0.38655142133E+02 -0.10210324031E+02 -0.16886461736E+02  0.43400729488E+02  0.00000000000E+00 0. -1.
         11    1    3    3    0    0  0.16226734874E+02  0.20247475571E+01  0.71713476506E+01  0.17855944521E+02  0.51100000000E-03 0. -1.
        -11    1    3    3    0    0  0.84727793691E+01 -0.25515340901E+01  0.85184666334E+01  0.12282613341E+02  0.51100000000E-03 0.  1.
         12    1    3    3    0    0  0.13955627890E+02  0.10737110564E+02  0.11966474515E+01  0.17648712649E+02  0.00000000000E+00 0. -1.
</event>
<event>
 7    1  0.1265344E-009  0.4778727E+02  0.7816164E-02  0.1312668E+00
        -11   -1    0    0    0    0  0.00000000000E+00  0.00000000000E+00  0.45593999997E+02  0.45594000000E+02  0.51100000000E-03 0.  1.
         11   -1    0    0    0    0 -0.00000000000E+00 -0.00000000000E+00 -0.45593999997E+02  0.45594000000E+02  0.51100000000E-03 0. -1.
    9900012    2    1    2    0    0  0.32767788348E+02  0.16729268873E+01  0.28409447753E+02  0.47787270061E+02  0.19999995517E+02 0.  0.
         12    1    1    2    0    0 -0.32767788348E+02 -0.16729268873E+01 -0.28409447753E+02  0.43400729939E+02  0.00000000000E+00 0. -1.
         11    1    3    3    0    0  0.21999373838E+02 -0.73951500023E+01  0.16001318951E+02  0.28190475364E+02  0.51100000000E-03 0. -1.
        -11    1    3    3    0    0  0.11871578129E+01  0.40220889630E+00 -0.48587062696E+00  0.13443162560E+01  0.51100000000E-03 0.  1.
        -12    1    3    3    0    0  0.95812566971E+01  0.86658679933E+01  0.12893999429E+02  0.18252478441E+02  0.00000000000E+00 0.  1.
</event>
<event>
 7    1  0.1265344E-009  0.4778727E+02  0.7816164E-02  0.1312668E+00
        -11   -1    0    0    0    0  0.00000000000E+00  0.00000000000E+00  0.45593999997E+02  0.45594000000E+02  0.51100000000E-03 0. -1.
         11   -1    0    0    0    0 -0.00000000000E+00 -0.00000000000E+00 -0.45593999997E+02  0.45594000000E+02  0.51100000000E-03 0.  1.
    9900012    2    1    2    0    0  0.36942521982E+02  0.72710877455E+01 -0.21587137188E+02  0.47787272594E+02  0.20000007066E+02 0.  0.
         12    1    1    2    0    0 -0.36942521982E+02 -0.72710877455E+01  0.21587137188E+02  0.43400727406E+02  0.00000000000E+00 0. -1.
         11    1    3    3    0    0  0.29993015510E+01  0.41237695108E+01 -0.65574094948E+00  0.51411361804E+01  0.51100000000E-03 0.  1.
        -11    1    3    3    0    0  0.18735829716E+01  0.38662307742E+01 -0.56949962950E+01  0.71337953863E+01  0.51100000000E-03 0. -1.
         12    1    3    3    0    0  0.32069637459E+02 -0.71891253946E+00 -0.15236399944E+02  0.35512341027E+02  0.00000000000E+00 0. -1.
</event>
<event>
 7    1  0.1265344E-009  0.4778727E+02  0.7816164E-02  0.1312668E+00
        -11   -1    0    0    0    0  0.00000000000E+00  0.00000000000E+00  0.45593999997E+02  0.45594000000E+02  0.51100000000E-03 0. -1.
         11   -1    0    0    0    0 -0.00000000000E+00 -0.00000000000E+00 -0.45593999997E+02  0.45594000000E+02  0.51100000000E-03 0.  1.
    9900012    2    1    2    0    0  0.18227101376E+02  0.13966467442E+02 -0.36828443425E+02  0.47787266337E+02  0.19999978538E+02 0.  0.
         12    1    1    2    0    0 -0.18227101376E+02 -0.13966467442E+02  0.36828443425E+02  0.43400733663E+02  0.00000000000E+00 0. -1.
         11    1    3    3    0    0  0.44819436474E+01 -0.12679702801E+01  0.84518459713E+00  0.47339100914E+01  0.51100000000E-03 0. -1.
        -11    1    3    3    0    0  0.62938194305E+01  0.49094844755E+01 -0.12280516152E+02  0.14646715607E+02  0.51100000000E-03 0.  1.
         12    1    3    3    0    0  0.74513382979E+01  0.10324953246E+02 -0.25393111870E+02  0.28406640639E+02  0.00000000000E+00 0. -1.
</event>
<event>
 7    1  0.1265344E-009  0.4778728E+02  0.7816164E-02  0.1312668E+00
        -11   -1    0    0    0    0  0.00000000000E+00  0.00000000000E+00  0.45593999997E+02  0.45594000000E+02  0.51100000000E-03 0.  1.
         11   -1    0    0    0    0 -0.00000000000E+00 -0.00000000000E+00 -0.45593999997E+02  0.45594000000E+02  0.51100000000E-03 0. -1.
    9900012    2    1    2    0    0 -0.11824682029E+02 -0.19957701905E+02  0.36680918341E+02  0.47787277186E+02  0.20000028001E+02 0.  0.
         12    1    1    2    0    0  0.11824682029E+02  0.19957701905E+02 -0.36680918341E+02  0.43400722814E+02  0.00000000000E+00 0. -1.
         11    1    3    3    0    0 -0.58229336317E+01  0.21767056318E+00  0.15883929246E+01  0.60396133070E+01  0.51100000000E-03 0. -1.
        -11    1    3    3    0    0 -0.20794822785E+01 -0.54023442741E+01  0.17551684962E+02  0.18481645367E+02  0.51100000000E-03 0.  1.
        -12    1    3    3    0    0 -0.39222661193E+01 -0.14773028194E+02  0.17540840455E+02  0.23266018512E+02  0.00000000000E+00 0.  1.
</event>
<event>
 7    1  0.1265344E-009  0.4778727E+02  0.7816164E-02  0.1312668E+00
        -11   -1    0    0    0    0  0.00000000000E+00  0.00000000000E+00  0.45593999997E+02  0.45594000000E+02  0.51100000000E-03 0. -1.
         11   -1    0    0    0    0 -0.00000000000E+00 -0.00000000000E+00 -0.45593999997E+02  0.45594000000E+02  0.51100000000E-03 0.  1.
    9900012    2    1    2    0    0  0.35053770086E+02  0.16140110410E+02 -0.19858337684E+02  0.47787268015E+02  0.19999986189E+02 0.  0.
         12    1    1    2    0    0 -0.35053770086E+02 -0.16140110410E+02  0.19858337684E+02  0.43400731985E+02  0.00000000000E+00 0. -1.
         11    1    3    3    0    0 -0.43626885617E+00  0.18773127234E+01  0.51302332197E+00  0.19944489881E+01  0.51100000000E-03 0. -1.
        -11    1    3    3    0    0  0.27675860558E+02  0.53787037209E+01 -0.18729272441E+02  0.33847737853E+02  0.51100000000E-03 0.  1.
         12    1    3    3    0    0  0.78141783840E+01  0.88840939654E+01 -0.16420885643E+01  0.11945081174E+02  0.00000000000E+00 0. -1.
</event>
<event>
 7    1  0.1265344E-009  0.4778727E+02  0.7816164E-02  0.1312668E+00
        -11   -1    0    0    0    0  0.00000000000E+00  0.00000000000E+00  0.45593999997E+02  0.45594000000E+02  0.51100000000E-03 0. -1.
         11   -1    0    0    0    0 -0.00000000000E+00 -0.00000000000E+00 -0.45593999997E+02  0.45594000000E+02  0.51100000000E-03 0.  1.
    9900012    2    1    2    0    0 -0.80545808473E+00  0.43260752971E+02 -0.33885445403E+01  0.47787265623E+02  0.19999975283E+02 0.  0.
         12    1    1    2    0    0  0.80545808473E+00 -0.43260752971E+02  0.33885445403E+01  0.43400734377E+02  0.00000000000E+00 0. -1.
         11    1    3    3    0    0 -0.46027905813E+01  0.25734890044E+02  0.24188876381E+01  0.26254928383E+02  0.51100000000E-03 0.  1.
        -11    1    3    3    0    0  0.10840164453E+01 -0.59849016749E+00  0.13735745044E+01  0.18493213119E+01  0.51100000000E-03 0. -1.
        -12    1    3    3    0    0  0.27133160513E+01  0.18124353094E+02 -0.71810066828E+01  0.19683015929E+02  0.00000000000E+00 0.  1.
</event>
<event>
 7    1  0.1265344E-009  0.4778728E+02  0.7816164E-02  0.1312668E+00
        -11   -1    0    0    0    0  0.00000000000E+00  0.00000000000E+00  0.45593999997E+02  0.45594000000E+02  0.51100000000E-03 0.  1.
         11   -1    0    0    0    0 -0.00000000000E+00 -0.00000000000E+00 -0.45593999997E+02  0.45594000000E+02  0.51100000000E-03 0. -1.
    9900012    2    1    2    0    0  0.19148739342E+02  0.10072064586E+02  0.37623158725E+02  0.47787276782E+02  0.20000026160E+02 0.  0.
         12    1    1    2    0    0 -0.19148739342E+02 -0.10072064586E+02 -0.37623158725E+02  0.43400723218E+02  0.00000000000E+00 0. -1.
         11    1    3    3    0    0  0.65020607202E+01  0.41069628875E+01  0.51748110892E+01  0.92694448507E+01  0.51100000000E-03 0. -1.
        -11    1    3    3    0    0  0.11912486663E+02  0.16545690410E+01  0.31923480339E+02  0.34113832010E+02  0.51100000000E-03 0.  1.
         12    1    3    3    0    0  0.73419195885E+00  0.43105326578E+01  0.52486729641E+00  0.44039999211E+01  0.00000000000E+00 0. -1.
</event>
<event>
 7    1  0.1313787E-009  0.4778727E+02  0.7816164E-02  0.1312668E+00
        -11   -1    0    0    0    0  0.00000000000E+00  0.00000000000E+00  0.45593999997E+02  0.45594000000E+02  0.51100000000E-03 0.  1.
         11   -1    0    0    0    0 -0.00000000000E+00 -0.00000000000E+00 -0.45593999997E+02  0.45594000000E+02  0.51100000000E-03 0. -1.
    9900012    2    1    2    0    0  0.25612745967E+02 -0.32533069699E+02  0.13008071468E+02  0.47787270705E+02  0.19999998452E+02 0.  0.
         12    1    1    2    0    0 -0.25612745967E+02  0.32533069699E+02 -0.13008071468E+02  0.43400729295E+02  0.00000000000E+00 0. -1.
         11    1    3    3    0    0  0.10864187498E+02 -0.73485121891E+01 -0.13292567633E+01  0.13183251692E+02  0.51100000000E-03 0. -1.
        -11    1    3    3    0    0  0.14728703750E+02 -0.14547333625E+02  0.11073783533E+02  0.23477400021E+02  0.51100000000E-03 0.  1.
         12    1    3    3    0    0  0.19854719516E-01 -0.10637223885E+02  0.32635446980E+01  0.11126618992E+02  0.00000000000E+00 0. -1.
</event>
<event>
 7    1  0.1265344E-009  0.4778727E+02  0.7816164E-02  0.1312668E+00
        -11   -1    0    0    0    0  0.00000000000E+00  0.00000000000E+00  0.45593999997E+02  0.45594000000E+02  0.51100000000E-03 0.  1.
         11   -1    0    0    0    0 -0.00000000000E+00 -0.00000000000E+00 -0.45593999997E+02  0.45594000000E+02  0.51100000000E-03 0. -1.
    9900012    2    1    2    0    0 -0.16696305642E+02 -0.29889470106E+01  0.39949004820E+02  0.47787269449E+02  0.19999992724E+02 0.  0.
         12    1    1    2    0    0  0.16696305642E+02  0.29889470106E+01 -0.39949004820E+02  0.43400730551E+02  0.00000000000E+00 0. -1.
         11    1    3    3    0    0 -0.46153119681E+01 -0.68043432333E+01  0.61143892528E+01  0.10246265056E+02  0.51100000000E-03 0. -1.
        -11    1    3    3    0    0 -0.11446125605E+01  0.49130209895E+01  0.78980419869E+01  0.93716050197E+01  0.51100000000E-03 0.  1.
        -12    1    3    3    0    0 -0.10936381113E+02 -0.10976247669E+01  0.25936573580E+02  0.28169399373E+02  0.00000000000E+00 0.  1.
</event>
<event>
 7    1  0.1265344E-009  0.4778727E+02  0.7816164E-02  0.1312668E+00
        -11   -1    0    0    0    0  0.00000000000E+00  0.00000000000E+00  0.45593999997E+02  0.45594000000E+02  0.51100000000E-03 0.  1.
         11   -1    0    0    0    0 -0.00000000000E+00 -0.00000000000E+00 -0.45593999997E+02  0.45594000000E+02  0.51100000000E-03 0. -1.
    9900012    2    1    2    0    0  0.10056307516E+02 -0.21668507603E+02  0.36234924873E+02  0.47787270476E+02  0.19999997410E+02 0.  0.
         12    1    1    2    0    0 -0.10056307516E+02  0.21668507603E+02 -0.36234924873E+02  0.43400729524E+02  0.00000000000E+00 0. -1.
         11    1    3    3    0    0 -0.15215608622E+00 -0.14420802289E+01  0.78218092132E-01  0.14521932352E+01  0.51100000000E-03 0. -1.
        -11    1    3    3    0    0  0.84440498113E+01 -0.18202612536E+02  0.38072546087E+02  0.43036680241E+02  0.51100000000E-03 0.  1.
        -12    1    3    3    0    0  0.17644137910E+01 -0.20238148389E+01 -0.19158393056E+01  0.32983970005E+01  0.00000000000E+00 0.  1.
</event>
<event>
 7    1  0.1265344E-009  0.4778727E+02  0.7816164E-02  0.1312668E+00
        -11   -1    0    0    0    0  0.00000000000E+00  0.00000000000E+00  0.45593999997E+02  0.45594000000E+02  0.51100000000E-03 0.  1.
         11   -1    0    0    0    0 -0.00000000000E+00 -0.00000000000E+00 -0.45593999997E+02  0.45594000000E+02  0.51100000000E-03 0. -1.
    9900012    2    1    2    0    0  0.38584824850E+02 -0.19772533017E+02 -0.19700969192E+01  0.47787273595E+02  0.20000011629E+02 0.  0.
         12    1    1    2    0    0 -0.38584824850E+02  0.19772533017E+02  0.19700969192E+01  0.43400726405E+02  0.00000000000E+00 0. -1.
         11    1    3    3    0    0  0.90430595543E+01  0.12869035860E-01 -0.58284462210E+01  0.10758618746E+02  0.51100000000E-03 0. -1.
        -11    1    3    3    0    0  0.25346591519E+02 -0.14657365079E+02 -0.15994223730E+00  0.29279918621E+02  0.51100000000E-03 0.  1.
        -12    1    3    3    0    0  0.41951737762E+01 -0.51280369747E+01  0.40182915391E+01  0.77487362273E+01  0.00000000000E+00 0.  1.
</event>
<event>
 7    1  0.1265344E-009  0.4778727E+02  0.7816164E-02  0.1312668E+00
        -11   -1    0    0    0    0  0.00000000000E+00  0.00000000000E+00  0.45593999997E+02  0.45594000000E+02  0.51100000000E-03 0. -1.
         11   -1    0    0    0    0 -0.00000000000E+00 -0.00000000000E+00 -0.45593999997E+02  0.45594000000E+02  0.51100000000E-03 0.  1.
    9900012    2    1    2    0    0  0.42308640386E+02  0.59282899797E+01 -0.76457696310E+01  0.47787268823E+02  0.19999989873E+02 0.  0.
         12    1    1    2    0    0 -0.42308640386E+02 -0.59282899797E+01  0.76457696310E+01  0.43400731177E+02  0.00000000000E+00 0. -1.
         11    1    3    3    0    0  0.30621085759E+02 -0.40787352673E+01 -0.35564424004E+01  0.31095582601E+02  0.51100000000E-03 0. -1.
        -11    1    3    3    0    0  0.15100159361E+01  0.23977006527E+01  0.99710234601E+00  0.30038857995E+01  0.51100000000E-03 0.  1.
        -12    1    3    3    0    0  0.10177538691E+02  0.76093245944E+01 -0.50864295766E+01  0.13687800423E+02  0.00000000000E+00 0.  1.
</event>
<event>
 7    1  0.1265344E-009  0.4778726E+02  0.7816164E-02  0.1312668E+00
        -11   -1    0    0    0    0  0.00000000000E+00  0.00000000000E+00  0.45593999997E+02  0.45594000000E+02  0.51100000000E-03 0.  1.
         11   -1    0    0    0    0 -0.00000000000E+00 -0.00000000000E+00 -0.45593999997E+02  0.45594000000E+02  0.51100000000E-03 0. -1.
    9900012    2    1    2    0    0 -0.15739238966E+02  0.34214321167E+02  0.21570366147E+02  0.47787261391E+02  0.19999955984E+02 0.  0.
         12    1    1    2    0    0  0.15739238966E+02 -0.34214321167E+02 -0.21570366147E+02  0.43400738609E+02  0.00000000000E+00 0. -1.
         11    1    3    3    0    0 -0.89223555323E+01  0.60092910975E+01  0.55642243711E+01  0.12111176691E+02  0.51100000000E-03 0. -1.
        -11    1    3    3    0    0 -0.65489203850E+01  0.24130359012E+02  0.18307145046E+02  0.30988935836E+02  0.51100000000E-03 0.  1.
         12    1    3    3    0    0 -0.26796304915E+00  0.40746710567E+01 -0.23010032697E+01  0.46871488630E+01  0.00000000000E+00 0. -1.
</event>
<event>
 7    1  0.1265344E-009  0.4778728E+02  0.7816164E-02  0.1312668E+00
        -11   -1    0    0    0    0  0.00000000000E+00  0.00000000000E+00  0.45593999997E+02  0.45594000000E+02  0.51100000000E-03 0.  1.
         11   -1    0    0    0    0 -0.00000000000E+00 -0.00000000000E+00 -0.45593999997E+02  0.45594000000E+02  0.51100000000E-03 0. -1.
    9900012    2    1    2    0    0  0.12490169776E+02  0.38616777285E+02  0.15374091407E+02  0.47787279781E+02  0.20000039834E+02 0.  0.
         12    1    1    2    0    0 -0.12490169776E+02 -0.38616777285E+02 -0.15374091407E+02  0.43400720219E+02  0.00000000000E+00 0. -1.
         11    1    3    3    0    0 -0.35842073194E+00  0.30719178360E+01 -0.37760661672E+01  0.48809651271E+01  0.51100000000E-03 0. -1.
        -11    1    3    3    0    0  0.77109131700E+01  0.12341394934E+02  0.86082259101E+01  0.16907683591E+02  0.51100000000E-03 0.  1.
        -12    1    3    3    0    0  0.51376773383E+01  0.23203464515E+02  0.10541931664E+02  0.25998631063E+02  0.00000000000E+00 0.  1.
</event>
<event>
 7    1  0.1265344E-009  0.4778727E+02  0.7816164E-02  0.1312668E+00
        -11   -1    0    0    0    0  0.00000000000E+00  0.00000000000E+00  0.45593999997E+02  0.45594000000E+02  0.51100000000E-03 0. -1.
         11   -1    0    0    0    0 -0.00000000000E+00 -0.00000000000E+00 -0.45593999997E+02  0.45594000000E+02  0.51100000000E-03 0.  1.
    9900012    2    1    2    0    0  0.14132312680E+02  0.33432472825E+02  0.23794344407E+02  0.47787270436E+02  0.19999997227E+02 0.  0.
         12    1    1    2    0    0 -0.14132312680E+02 -0.33432472825E+02 -0.23794344407E+02  0.43400729564E+02  0.00000000000E+00 0. -1.
         11    1    3    3    0    0  0.72866116897E+01  0.21096026402E+02  0.12565344744E+02  0.25612983596E+02  0.51100000000E-03 0. -1.
        -11    1    3    3    0    0  0.53860781118E+01  0.13736856732E+02  0.12862459149E+02  0.19574318019E+02  0.51100000000E-03 0.  1.
         12    1    3    3    0    0  0.14596228785E+01 -0.14004103090E+01 -0.16334594855E+01  0.25999688213E+01  0.00000000000E+00 0. -1.
</event>
<event>
 7    1  0.1265344E-009  0.4778727E+02  0.7816164E-02  0.1312668E+00
        -11   -1    0    0    0    0  0.00000000000E+00  0.00000000000E+00  0.45593999997E+02  0.45594000000E+02  0.51100000000E-03 0.  1.
         11   -1    0    0    0    0 -0.00000000000E+00 -0.00000000000E+00 -0.45593999997E+02  0.45594000000E+02  0.51100000000E-03 0. -1.
    9900012    2    1    2    0    0 -0.28337950245E+02  0.25252065341E+02  0.21045595105E+02  0.47787270728E+02  0.19999998555E+02 0.  0.
         12    1    1    2    0    0  0.28337950245E+02 -0.25252065341E+02 -0.21045595105E+02  0.43400729272E+02  0.00000000000E+00 0. -1.
         11    1    3    3    0    0 -0.11630860735E+02  0.13118035216E+02  0.43700307521E+01  0.18068119394E+02  0.51100000000E-03 0. -1.
        -11    1    3    3    0    0 -0.15588375540E+02  0.14912304324E+02  0.14127243862E+02  0.25786688264E+02  0.51100000000E-03 0.  1.
         12    1    3    3    0    0 -0.11187139700E+01 -0.27782741997E+01  0.25483204911E+01  0.39324630705E+01  0.00000000000E+00 0. -1.
</event>
<event>
 7    1  0.1265344E-009  0.4778727E+02  0.7816164E-02  0.1312668E+00
        -11   -1    0    0    0    0  0.00000000000E+00  0.00000000000E+00  0.45593999997E+02  0.45594000000E+02  0.51100000000E-03 0.  1.
         11   -1    0    0    0    0 -0.00000000000E+00 -0.00000000000E+00 -0.45593999997E+02  0.45594000000E+02  0.51100000000E-03 0. -1.
    9900012    2    1    2    0    0  0.20489897887E+02 -0.37439760745E+02  0.78772777901E+01  0.47787272985E+02  0.20000008846E+02 0.  0.
         12    1    1    2    0    0 -0.20489897887E+02  0.37439760745E+02 -0.78772777901E+01  0.43400727015E+02  0.00000000000E+00 0. -1.
         11    1    3    3    0    0 -0.68075385351E+00 -0.10200900767E+02 -0.20419756747E+01  0.10425519996E+02  0.51100000000E-03 0. -1.
        -11    1    3    3    0    0  0.11941935901E+02 -0.11296461847E+02 -0.33896065680E-02  0.16438366557E+02  0.51100000000E-03 0.  1.
         12    1    3    3    0    0  0.92287158393E+01 -0.15942398131E+02  0.99226430714E+01  0.20923386431E+02  0.00000000000E+00 0. -1.
</event>
<event>
 7    1  0.1265344E-009  0.4778727E+02  0.7816164E-02  0.1312668E+00
        -11   -1    0    0    0    0  0.00000000000E+00  0.00000000000E+00  0.45593999997E+02  0.45594000000E+02  0.51100000000E-03 0.  1.
         11   -1    0    0    0    0 -0.00000000000E+00 -0.00000000000E+00 -0.45593999997E+02  0.45594000000E+02  0.51100000000E-03 0. -1.
    9900012    2    1    2    0    0 -0.16430270206E+02  0.16839517804E+02  0.36470537437E+02  0.47787271436E+02  0.20000001785E+02 0.  0.
         12    1    1    2    0    0  0.16430270206E+02 -0.16839517804E+02 -0.36470537437E+02  0.43400728564E+02  0.00000000000E+00 0. -1.
         11    1    3    3    0    0 -0.80108085907E+00 -0.19898177802E+01  0.26514144954E+01  0.34104405036E+01  0.51100000000E-03 0. -1.
        -11    1    3    3    0    0 -0.14659048366E+02  0.11781155993E+02  0.14372616516E+02  0.23669715700E+02  0.51100000000E-03 0.  1.
         12    1    3    3    0    0 -0.97014098082E+00  0.70481795915E+01  0.19446506426E+02  0.20707115233E+02  0.00000000000E+00 0. -1.
</event>
<event>
 7    1  0.1265344E-009  0.4778727E+02  0.7816164E-02  0.1312668E+00
        -11   -1    0    0    0    0  0.00000000000E+00  0.00000000000E+00  0.45593999997E+02  0.45594000000E+02  0.51100000000E-03 0. -1.
         11   -1    0    0    0    0 -0.00000000000E+00 -0.00000000000E+00 -0.45593999997E+02  0.45594000000E+02  0.51100000000E-03 0.  1.
    9900012    2    1    2    0    0  0.16457764842E+00 -0.42869223385E+02  0.67695008611E+01  0.47787267963E+02  0.19999985950E+02 0.  0.
         12    1    1    2    0    0 -0.16457764842E+00  0.42869223385E+02 -0.67695008611E+01  0.43400732037E+02  0.00000000000E+00 0. -1.
         11    1    3    3    0    0 -0.64927461776E+01 -0.30555379540E+02  0.10132079173E+02  0.32839701588E+02  0.51100000000E-03 0.  1.
        -11    1    3    3    0    0  0.44982733445E+01 -0.10234385584E+02 -0.11838438485E+01  0.11241823601E+02  0.51100000000E-03 0. -1.
        -12    1    3    3    0    0  0.21590504814E+01 -0.20794582615E+01 -0.21787344636E+01  0.37057427738E+01  0.00000000000E+00 0.  1.
</event>
<event>
 7    1  0.1265344E-009  0.4778727E+02  0.7816164E-02  0.1312668E+00
        -11   -1    0    0    0    0  0.00000000000E+00  0.00000000000E+00  0.45593999997E+02  0.45594000000E+02  0.51100000000E-03 0. -1.
         11   -1    0    0    0    0 -0.00000000000E+00 -0.00000000000E+00 -0.45593999997E+02  0.45594000000E+02  0.51100000000E-03 0.  1.
    9900012    2    1    2    0    0  0.15658722410E+02  0.33777982072E+02  0.22304160722E+02  0.47787271367E+02  0.20000001471E+02 0.  0.
         12    1    1    2    0    0 -0.15658722410E+02 -0.33777982072E+02 -0.22304160722E+02  0.43400728633E+02  0.00000000000E+00 0. -1.
         11    1    3    3    0    0  0.38275763684E+00  0.15204196379E+01  0.36349032629E+01  0.39586236593E+01  0.51100000000E-03 0. -1.
        -11    1    3    3    0    0  0.70066737415E+01  0.30306140761E+02  0.15568429985E+02  0.34784071889E+02  0.51100000000E-03 0.  1.
         12    1    3    3    0    0  0.82692910313E+01  0.19514216729E+01  0.31008274745E+01  0.90445758183E+01  0.00000000000E+00 0. -1.
</event>
<event>
 7    1  0.1265344E-009  0.4778727E+02  0.7816164E-02  0.1312668E+00
        -11   -1    0    0    0    0  0.00000000000E+00  0.00000000000E+00  0.45593999997E+02  0.45594000000E+02  0.51100000000E-03 0. -1.
         11   -1    0    0    0    0 -0.00000000000E+00 -0.00000000000E+00 -0.45593999997E+02  0.45594000000E+02  0.51100000000E-03 0.  1.
    9900012    2    1    2    0    0 -0.28226210092E+02 -0.26559047865E+02 -0.19532570609E+02  0.47787271040E+02  0.19999999979E+02 0.  0.
         12    1    1    2    0    0  0.28226210092E+02  0.26559047865E+02  0.19532570609E+02  0.43400728960E+02  0.00000000000E+00 0. -1.
         11    1    3    3    0    0 -0.82326147813E+01 -0.22995654898E+01  0.11889308760E+01  0.86300350212E+01  0.51100000000E-03 0. -1.
        -11    1    3    3    0    0 -0.51171992275E+01 -0.72091193338E+01 -0.57336514276E+00  0.88592255503E+01  0.51100000000E-03 0.  1.
         12    1    3    3    0    0 -0.14876396083E+02 -0.17050363042E+02 -0.20148136342E+02  0.30298010468E+02  0.00000000000E+00 0. -1.
</event>
<event>
 7    1  0.1265344E-009  0.4778727E+02  0.7816164E-02  0.1312668E+00
        -11   -1    0    0    0    0  0.00000000000E+00  0.00000000000E+00  0.45593999997E+02  0.45594000000E+02  0.51100000000E-03 0.  1.
         11   -1    0    0    0    0 -0.00000000000E+00 -0.00000000000E+00 -0.45593999997E+02  0.45594000000E+02  0.51100000000E-03 0. -1.
    9900012    2    1    2    0    0  0.32599069936E+02 -0.24446026912E+02 -0.14943749045E+02  0.47787271573E+02  0.20000002410E+02 0.  0.
         12    1    1    2    0    0 -0.32599069936E+02  0.24446026912E+02  0.14943749045E+02  0.43400728427E+02  0.00000000000E+00 0. -1.
         11    1    3    3    0    0  0.72942812737E+01 -0.47793368604E+01 -0.85166475772E+01  0.12189416981E+02  0.51100000000E-03 0. -1.
        -11    1    3    3    0    0  0.47160962501E+01  0.82506595303E+00  0.22375459192E+01  0.52847809480E+01  0.51100000000E-03 0.  1.
        -12    1    3    3    0    0  0.20588692412E+02 -0.20491756005E+02 -0.86646473871E+01  0.30313073644E+02  0.00000000000E+00 0.  1.
</event>
<event>
 7    1  0.1265344E-009  0.4778727E+02  0.7816164E-02  0.1312668E+00
        -11   -1    0    0    0    0  0.00000000000E+00  0.00000000000E+00  0.45593999997E+02  0.45594000000E+02  0.51100000000E-03 0. -1.
         11   -1    0    0    0    0 -0.00000000000E+00 -0.00000000000E+00 -0.45593999997E+02  0.45594000000E+02  0.51100000000E-03 0.  1.
    9900012    2    1    2    0    0 -0.39932246034E+02  0.69787473343E+01 -0.15502776300E+02  0.47787271197E+02  0.20000000694E+02 0.  0.
         12    1    1    2    0    0  0.39932246034E+02 -0.69787473343E+01  0.15502776300E+02  0.43400728803E+02  0.00000000000E+00 0. -1.
         11    1    3    3    0    0 -0.57600245051E+01  0.63988515662E+01 -0.58911447662E+00  0.86296141162E+01  0.51100000000E-03 0. -1.
        -11    1    3    3    0    0 -0.30669435900E+01  0.17847929510E+01 -0.56642257988E+01  0.66839421768E+01  0.51100000000E-03 0.  1.
        -12    1    3    3    0    0 -0.31105277939E+02 -0.12048971829E+01 -0.92494360241E+01  0.32473714904E+02  0.00000000000E+00 0.  1.
</event>
<event>
 7    1  0.1265344E-009  0.4778727E+02  0.7816164E-02  0.1312668E+00
        -11   -1    0    0    0    0  0.00000000000E+00  0.00000000000E+00  0.45593999997E+02  0.45594000000E+02  0.51100000000E-03 0.  1.
         11   -1    0    0    0    0 -0.00000000000E+00 -0.00000000000E+00 -0.45593999997E+02  0.45594000000E+02  0.51100000000E-03 0. -1.
    9900012    2    1    2    0    0 -0.50791477924E+01 -0.24736974294E+02  0.35297418968E+02  0.47787269299E+02  0.19999992044E+02 0.  0.
         12    1    1    2    0    0  0.50791477924E+01  0.24736974294E+02 -0.35297418968E+02  0.43400730701E+02  0.00000000000E+00 0. -1.
         11    1    3    3    0    0 -0.30117967077E+00 -0.10328589287E+02  0.18057808721E+01  0.10489581053E+02  0.51100000000E-03 0. -1.
        -11    1    3    3    0    0 -0.85266232680E+00 -0.48829048185E+00  0.20357836709E+00  0.10034465860E+01  0.51100000000E-03 0.  1.
        -12    1    3    3    0    0 -0.39253057949E+01 -0.13920094526E+02  0.33288059729E+02  0.36294241660E+02  0.00000000000E+00 0.  1.
</event>
<event>
 7    1  0.1265344E-009  0.4778730E+02  0.7816164E-02  0.1312668E+00
        -11   -1    0    0    0    0  0.00000000000E+00  0.00000000000E+00  0.45593999997E+02  0.45594000000E+02  0.51100000000E-03 0. -1.
         11   -1    0    0    0    0 -0.00000000000E+00 -0.00000000000E+00 -0.45593999997E+02  0.45594000000E+02  0.51100000000E-03 0.  1.
    9900012    2    1    2    0    0 -0.34266131179E+02 -0.18053408908E+02 -0.19583858332E+02  0.47787299242E+02  0.20000128561E+02 0.  0.
         12    1    1    2    0    0  0.34266131179E+02  0.18053408908E+02  0.19583858332E+02  0.43400700758E+02  0.00000000000E+00 0. -1.
         11    1    3    3    0    0 -0.18341446201E+01  0.80945181073E+00 -0.41332782491E+01  0.45938315236E+01  0.51100000000E-03 0. -1.
        -11    1    3    3    0    0 -0.71717841950E+01  0.19858461347E+01 -0.42996824577E+01  0.85944949188E+01  0.51100000000E-03 0.  1.
        -12    1    3    3    0    0 -0.25260202363E+02 -0.20848706853E+02 -0.11150897626E+02  0.34598972799E+02  0.00000000000E+00 0.  1.
</event>
<event>
 7    1  0.1265344E-009  0.4778727E+02  0.7816164E-02  0.1312668E+00
        -11   -1    0    0    0    0  0.00000000000E+00  0.00000000000E+00  0.45593999997E+02  0.45594000000E+02  0.51100000000E-03 0. -1.
         11   -1    0    0    0    0 -0.00000000000E+00 -0.00000000000E+00 -0.45593999997E+02  0.45594000000E+02  0.51100000000E-03 0.  1.
    9900012    2    1    2    0    0  0.27826159816E+02  0.24806565804E+02 -0.22225271714E+02  0.47787267519E+02  0.19999983927E+02 0.  0.
         12    1    1    2    0    0 -0.27826159816E+02 -0.24806565804E+02  0.22225271714E+02  0.43400732481E+02  0.00000000000E+00 0. -1.
         11    1    3    3    0    0  0.86524857484E+00 -0.12209710883E+01 -0.41063462249E+01  0.43705268646E+01  0.51100000000E-03 0. -1.
        -11    1    3    3    0    0  0.93845870064E+01  0.17524948036E+02 -0.10242888176E+02  0.22363162464E+02  0.51100000000E-03 0.  1.
        -12    1    3    3    0    0  0.17576324235E+02  0.85025888566E+01 -0.78760373130E+01  0.21053578191E+02  0.00000000000E+00 0.  1.
</event>
<event>
 7    1  0.1265344E-009  0.4778730E+02  0.7816164E-02  0.1312668E+00
        -11   -1    0    0    0    0  0.00000000000E+00  0.00000000000E+00  0.45593999997E+02  0.45594000000E+02  0.51100000000E-03 0.  1.
         11   -1    0    0    0    0 -0.00000000000E+00 -0.00000000000E+00 -0.45593999997E+02  0.45594000000E+02  0.51100000000E-03 0. -1.
    9900012    2    1    2    0    0 -0.42210102180E+01 -0.33494760363E+02  0.27274615562E+02  0.47787302389E+02  0.20000142914E+02 0.  0.
         12    1    1    2    0    0  0.42210102180E+01  0.33494760363E+02 -0.27274615562E+02  0.43400697611E+02  0.00000000000E+00 0. -1.
         11    1    3    3    0    0 -0.18845899155E+01  0.58035771169E+00 -0.20913260346E+00  0.19829853580E+01  0.51100000000E-03 0. -1.
        -11    1    3    3    0    0 -0.66393977178E+01 -0.17913514389E+02  0.19403772446E+02  0.27230166823E+02  0.51100000000E-03 0.  1.
         12    1    3    3    0    0  0.43029774152E+01 -0.16161603686E+02  0.80799757191E+01  0.18574150208E+02  0.00000000000E+00 0. -1.
</event>
<event>
 7    1  0.1265344E-009  0.4778729E+02  0.7816164E-02  0.1312668E+00
        -11   -1    0    0    0    0  0.00000000000E+00  0.00000000000E+00  0.45593999997E+02  0.45594000000E+02  0.51100000000E-03 0.  1.
         11   -1    0    0    0    0 -0.00000000000E+00 -0.00000000000E+00 -0.45593999997E+02  0.45594000000E+02  0.51100000000E-03 0. -1.
    9900012    2    1    2    0    0  0.54241309481E+01  0.17910131311E+02  0.39159008541E+02  0.47787286296E+02  0.20000069536E+02 0.  0.
         12    1    1    2    0    0 -0.54241309481E+01 -0.17910131311E+02 -0.39159008541E+02  0.43400713704E+02  0.00000000000E+00 0. -1.
         11    1    3    3    0    0 -0.45323136330E+01  0.34652345051E+01  0.16742561659E+02  0.17687936234E+02  0.51100000000E-03 0. -1.
        -11    1    3    3    0    0  0.33210436121E+01  0.12175178209E+02  0.17320775987E+02  0.21430669055E+02  0.51100000000E-03 0.  1.
         12    1    3    3    0    0  0.66354009690E+01  0.22697185971E+01  0.50956708950E+01  0.86686810069E+01  0.00000000000E+00 0. -1.
</event>
<event>
 7    1  0.1265344E-009  0.4778727E+02  0.7816164E-02  0.1312668E+00
        -11   -1    0    0    0    0  0.00000000000E+00  0.00000000000E+00  0.45593999997E+02  0.45594000000E+02  0.51100000000E-03 0.  1.
         11   -1    0    0    0    0 -0.00000000000E+00 -0.00000000000E+00 -0.45593999997E+02  0.45594000000E+02  0.51100000000E-03 0. -1.
    9900012    2    1    2    0    0 -0.37990561849E+02  0.20953158342E+02  0.11425863195E+01  0.47787272614E+02  0.20000007156E+02 0.  0.
         12    1    1    2    0    0  0.37990561849E+02 -0.20953158342E+02 -0.11425863195E+01  0.43400727386E+02  0.00000000000E+00 0. -1.
         11    1    3    3    0    0 -0.13306988340E+00  0.39354227569E+01 -0.17296130442E+01  0.43007931145E+01  0.51100000000E-03 0. -1.
        -11    1    3    3    0    0 -0.34036628870E+02  0.18992773305E+02  0.35244739067E+01  0.39136165618E+02  0.51100000000E-03 0.  1.
        -12    1    3    3    0    0 -0.38208630956E+01 -0.19750377201E+01 -0.65227454294E+00  0.43503138818E+01  0.00000000000E+00 0.  1.
</event>
<event>
 7    1  0.1265344E-009  0.4778728E+02  0.7816164E-02  0.1312668E+00
        -11   -1    0    0    0    0  0.00000000000E+00  0.00000000000E+00  0.45593999997E+02  0.45594000000E+02  0.51100000000E-03 0.  1.
         11   -1    0    0    0    0 -0.00000000000E+00 -0.00000000000E+00 -0.45593999997E+02  0.45594000000E+02  0.51100000000E-03 0. -1.
    9900012    2    1    2    0    0 -0.12454004802E+02  0.35623984550E+02  0.21434831905E+02  0.47787279619E+02  0.20000039093E+02 0.  0.
         12    1    1    2    0    0  0.12454004802E+02 -0.35623984550E+02 -0.21434831905E+02  0.43400720381E+02  0.00000000000E+00 0. -1.
         11    1    3    3    0    0 -0.34528623085E+01  0.12727837094E+02  0.13578854680E+02  0.18928956387E+02  0.51100000000E-03 0. -1.
        -11    1    3    3    0    0  0.10095472565E+01  0.65846256089E+01  0.70551001856E+01  0.97031396446E+01  0.51100000000E-03 0.  1.
         12    1    3    3    0    0 -0.10010689750E+02  0.16311521847E+02  0.80087703969E+00  0.19155183588E+02  0.00000000000E+00 0. -1.
</event>
<event>
 7    1  0.1265344E-009  0.4778727E+02  0.7816164E-02  0.1312668E+00
        -11   -1    0    0    0    0  0.00000000000E+00  0.00000000000E+00  0.45593999997E+02  0.45594000000E+02  0.51100000000E-03 0.  1.
         11   -1    0    0    0    0 -0.00000000000E+00 -0.00000000000E+00 -0.45593999997E+02  0.45594000000E+02  0.51100000000E-03 0. -1.
    9900012    2    1    2    0    0 -0.21471478833E+01  0.39951888964E+02  0.16818436664E+02  0.47787268582E+02  0.19999988771E+02 0.  0.
         12    1    1    2    0    0  0.21471478833E+01 -0.39951888964E+02 -0.16818436664E+02  0.43400731418E+02  0.00000000000E+00 0. -1.
         11    1    3    3    0    0  0.42589226884E+00  0.19981412777E+02  0.12652708591E+02  0.23654371176E+02  0.51100000000E-03 0. -1.
        -11    1    3    3    0    0 -0.22131946963E+01  0.20811157640E+02  0.11262002303E+01  0.20958789095E+02  0.51100000000E-03 0.  1.
         12    1    3    3    0    0 -0.35984545583E+00 -0.84068145363E+00  0.30395278435E+01  0.31741083110E+01  0.00000000000E+00 0. -1.
</event>
<event>
 7    1  0.1265344E-009  0.4778726E+02  0.7816164E-02  0.1312668E+00
        -11   -1    0    0    0    0  0.00000000000E+00  0.00000000000E+00  0.45593999997E+02  0.45594000000E+02  0.51100000000E-03 0.  1.
         11   -1    0    0    0    0 -0.00000000000E+00 -0.00000000000E+00 -0.45593999997E+02  0.45594000000E+02  0.51100000000E-03 0. -1.
    9900012    2    1    2    0    0  0.42435645759E+02  0.29834158612E+01  0.85988009213E+01  0.47787260623E+02  0.19999952484E+02 0.  0.
         12    1    1    2    0    0 -0.42435645759E+02 -0.29834158612E+01 -0.85988009213E+01  0.43400739377E+02  0.00000000000E+00 0. -1.
         11    1    3    3    0    0  0.35765158331E+02 -0.91396292004E+00  0.15741007393E+01  0.35811446104E+02  0.51100000000E-03 0. -1.
        -11    1    3    3    0    0  0.52851949787E+01 -0.20161356236E+00  0.30782723955E+01  0.61196156083E+01  0.51100000000E-03 0.  1.
         12    1    3    3    0    0  0.13852924491E+01  0.40989923436E+01  0.39464277865E+01  0.58561989102E+01  0.00000000000E+00 0. -1.
</event>
<event>
 7    1  0.1265344E-009  0.4778728E+02  0.7816164E-02  0.1312668E+00
        -11   -1    0    0    0    0  0.00000000000E+00  0.00000000000E+00  0.45593999997E+02  0.45594000000E+02  0.51100000000E-03 0. -1.
         11   -1    0    0    0    0 -0.00000000000E+00 -0.00000000000E+00 -0.45593999997E+02  0.45594000000E+02  0.51100000000E-03 0.  1.
    9900012    2    1    2    0    0 -0.13961988080E+02  0.71847420420E+01 -0.40460662726E+02  0.47787275840E+02  0.20000021865E+02 0.  0.
         12    1    1    2    0    0  0.13961988080E+02 -0.71847420420E+01  0.40460662726E+02  0.43400724160E+02  0.00000000000E+00 0. -1.
         11    1    3    3    0    0 -0.62390162103E+00  0.50251493386E+01 -0.13710417765E+02  0.14615640070E+02  0.51100000000E-03 0. -1.
        -11    1    3    3    0    0 -0.13201965319E+02 -0.26554165119E+01 -0.24265223758E+02  0.27751472203E+02  0.51100000000E-03 0.  1.
         12    1    3    3    0    0 -0.13612113957E+00  0.48150092153E+01 -0.24850212033E+01  0.54201635666E+01  0.00000000000E+00 0. -1.
</event>
<event>
 7    1  0.1265344E-009  0.4778725E+02  0.7816164E-02  0.1312668E+00
        -11   -1    0    0    0    0  0.00000000000E+00  0.00000000000E+00  0.45593999997E+02  0.45594000000E+02  0.51100000000E-03 0.  1.
         11   -1    0    0    0    0 -0.00000000000E+00 -0.00000000000E+00 -0.45593999997E+02  0.45594000000E+02  0.51100000000E-03 0. -1.
    9900012    2    1    2    0    0  0.60739873160E+01  0.19611347385E+01  0.42928842838E+02  0.47787252094E+02  0.19999913597E+02 0.  0.
         12    1    1    2    0    0 -0.60739873160E+01 -0.19611347385E+01 -0.42928842838E+02  0.43400747906E+02  0.00000000000E+00 0. -1.
         11    1    3    3    0    0  0.37278237697E+01  0.43822199348E+01  0.81696770868E+01  0.99922042402E+01  0.51100000000E-03 0. -1.
        -11    1    3    3    0    0  0.46174785479E+01  0.22630269468E+01  0.37813427280E+01  0.63828639489E+01  0.51100000000E-03 0.  1.
        -12    1    3    3    0    0 -0.22713150016E+01 -0.46841121430E+01  0.30977823023E+02  0.31412183905E+02  0.00000000000E+00 0.  1.
</event>
<event>
 7    1  0.1265344E-009  0.4778726E+02  0.7816164E-02  0.1312668E+00
        -11   -1    0    0    0    0  0.00000000000E+00  0.00000000000E+00  0.45593999997E+02  0.45594000000E+02  0.51100000000E-03 0. -1.
         11   -1    0    0    0    0 -0.00000000000E+00 -0.00000000000E+00 -0.45593999997E+02  0.45594000000E+02  0.51100000000E-03 0.  1.
    9900012    2    1    2    0    0  0.34732129837E+02 -0.25448594542E+02  0.54472243139E+01  0.47787261989E+02  0.19999958710E+02 0.  0.
         12    1    1    2    0    0 -0.34732129837E+02  0.25448594542E+02 -0.54472243139E+01  0.43400738011E+02  0.00000000000E+00 0. -1.
         11    1    3    3    0    0  0.91827462227E+01 -0.16332972349E+02  0.80968638890E+00  0.18754850206E+02  0.51100000000E-03 0. -1.
        -11    1    3    3    0    0  0.56677765526E-01 -0.15571393904E+01  0.16597612241E+01  0.22765550800E+01  0.51100000000E-03 0.  1.
        -12    1    3    3    0    0  0.25492705849E+02 -0.75584828026E+01  0.29777767009E+01  0.26755856702E+02  0.00000000000E+00 0.  1.
</event>
<event>
 7    1  0.1265344E-009  0.4778728E+02  0.7816164E-02  0.1312668E+00
        -11   -1    0    0    0    0  0.00000000000E+00  0.00000000000E+00  0.45593999997E+02  0.45594000000E+02  0.51100000000E-03 0.  1.
         11   -1    0    0    0    0 -0.00000000000E+00 -0.00000000000E+00 -0.45593999997E+02  0.45594000000E+02  0.51100000000E-03 0. -1.
    9900012    2    1    2    0    0  0.27663409998E+02  0.33266964587E+02 -0.34158050461E+01  0.47787275240E+02  0.20000019131E+02 0.  0.
         12    1    1    2    0    0 -0.27663409998E+02 -0.33266964587E+02  0.34158050461E+01  0.43400724760E+02  0.00000000000E+00 0. -1.
         11    1    3    3    0    0  0.47123852396E+01  0.60546191870E+01  0.69037039726E+01  0.10321149013E+02  0.51100000000E-03 0. -1.
        -11    1    3    3    0    0  0.13196181706E+02  0.12114463054E+02 -0.35719174968E+01  0.18266308372E+02  0.51100000000E-03 0.  1.
        -12    1    3    3    0    0  0.97548430531E+01  0.15097882346E+02 -0.67475915219E+01  0.19199817855E+02  0.00000000000E+00 0.  1.
</event>
<event>
 7    1  0.1265344E-009  0.4778728E+02  0.7816164E-02  0.1312668E+00
        -11   -1    0    0    0    0  0.00000000000E+00  0.00000000000E+00  0.45593999997E+02  0.45594000000E+02  0.51100000000E-03 0.  1.
         11   -1    0    0    0    0 -0.00000000000E+00 -0.00000000000E+00 -0.45593999997E+02  0.45594000000E+02  0.51100000000E-03 0. -1.
    9900012    2    1    2    0    0  0.49140381402E+01 -0.39187478859E+02  0.17994899510E+02  0.47787277903E+02  0.20000031271E+02 0.  0.
         12    1    1    2    0    0 -0.49140381402E+01  0.39187478859E+02 -0.17994899510E+02  0.43400722097E+02  0.00000000000E+00 0. -1.
         11    1    3    3    0    0 -0.19534128117E+01 -0.21065099025E+01  0.37812594319E+01  0.47488028739E+01  0.51100000000E-03 0. -1.
        -11    1    3    3    0    0  0.11103345486E+02 -0.32482361201E+02  0.11290955642E+02  0.36136875207E+02  0.51100000000E-03 0.  1.
        -12    1    3    3    0    0 -0.42358945336E+01 -0.45986077551E+01  0.29226844364E+01  0.69015998218E+01  0.00000000000E+00 0.  1.
</event>
<event>
 7    1  0.1265344E-009  0.4778727E+02  0.7816164E-02  0.1312668E+00
        -11   -1    0    0    0    0  0.00000000000E+00  0.00000000000E+00  0.45593999997E+02  0.45594000000E+02  0.51100000000E-03 0. -1.
         11   -1    0    0    0    0 -0.00000000000E+00 -0.00000000000E+00 -0.45593999997E+02  0.45594000000E+02  0.51100000000E-03 0.  1.
    9900012    2    1    2    0    0  0.43368363639E+02 -0.15583404144E+01 -0.61636970094E+00  0.47787270729E+02  0.19999998564E+02 0.  0.
         12    1    1    2    0    0 -0.43368363639E+02  0.15583404144E+01  0.61636970094E+00  0.43400729271E+02  0.00000000000E+00 0. -1.
         11    1    3    3    0    0  0.11686428443E+02  0.14642410833E+01 -0.87947134412E+01  0.14699101893E+02  0.51100000000E-03 0. -1.
        -11    1    3    3    0    0  0.59067705309E+01 -0.14967610244E+01  0.33402477242E+00  0.61026063677E+01  0.51100000000E-03 0.  1.
         12    1    3    3    0    0  0.25775164666E+02 -0.15258204733E+01  0.78443189679E+01  0.26985562468E+02  0.00000000000E+00 0. -1.
</event>
<event>
 7    1  0.1265344E-009  0.4778727E+02  0.7816164E-02  0.1312668E+00
        -11   -1    0    0    0    0  0.00000000000E+00  0.00000000000E+00  0.45593999997E+02  0.45594000000E+02  0.51100000000E-03 0.  1.
         11   -1    0    0    0    0 -0.00000000000E+00 -0.00000000000E+00 -0.45593999997E+02  0.45594000000E+02  0.51100000000E-03 0. -1.
    9900012    2    1    2    0    0  0.21902916651E+02 -0.72808301832E+01  0.36754251452E+02  0.47787271368E+02  0.20000001475E+02 0.  0.
         12    1    1    2    0    0 -0.21902916651E+02  0.72808301832E+01 -0.36754251452E+02  0.43400728632E+02  0.00000000000E+00 0. -1.
         11    1    3    3    0    0 -0.21888380290E+01 -0.35247448153E+00  0.35896109893E+01  0.42190706907E+01  0.51100000000E-03 0.  1.
        -11    1    3    3    0    0  0.11582356057E+02 -0.85217978007E+01  0.11143824831E+02  0.18192219263E+02  0.51100000000E-03 0. -1.
        -12    1    3    3    0    0  0.12509398623E+02  0.15934420991E+01  0.22020815632E+02  0.25375981414E+02  0.00000000000E+00 0.  1.
</event>
<event>
 7    1  0.1265344E-009  0.4778728E+02  0.7816164E-02  0.1312668E+00
        -11   -1    0    0    0    0  0.00000000000E+00  0.00000000000E+00  0.45593999997E+02  0.45594000000E+02  0.51100000000E-03 0.  1.
         11   -1    0    0    0    0 -0.00000000000E+00 -0.00000000000E+00 -0.45593999997E+02  0.45594000000E+02  0.51100000000E-03 0. -1.
    9900012    2    1    2    0    0  0.33739493602E+02  0.94226953830E+01  0.25621910348E+02  0.47787275275E+02  0.20000019290E+02 0.  0.
         12    1    1    2    0    0 -0.33739493602E+02 -0.94226953830E+01 -0.25621910348E+02  0.43400724725E+02  0.00000000000E+00 0. -1.
         11    1    3    3    0    0  0.14734193425E+02  0.10073516018E+02  0.67062866467E+01  0.19066894390E+02  0.51100000000E-03 0. -1.
        -11    1    3    3    0    0 -0.37926995328E+00  0.35350164586E+00  0.45314673668E+01  0.45610312287E+01  0.51100000000E-03 0.  1.
        -12    1    3    3    0    0  0.19384570130E+02 -0.10043222807E+01  0.14384156334E+02  0.24159349656E+02  0.00000000000E+00 0.  1.
</event>
<event>
 7    1  0.1265344E-009  0.4778727E+02  0.7816164E-02  0.1312668E+00
        -11   -1    0    0    0    0  0.00000000000E+00  0.00000000000E+00  0.45593999997E+02  0.45594000000E+02  0.51100000000E-03 0.  1.
         11   -1    0    0    0    0 -0.00000000000E+00 -0.00000000000E+00 -0.45593999997E+02  0.45594000000E+02  0.51100000000E-03 0. -1.
    9900012    2    1    2    0    0  0.22799403662E+02  0.24672748319E+02  0.27478466558E+02  0.47787269115E+02  0.19999991202E+02 0.  0.
         12    1    1    2    0    0 -0.22799403662E+02 -0.24672748319E+02 -0.27478466558E+02  0.43400730885E+02  0.00000000000E+00 0. -1.
         11    1    3    3    0    0  0.48284956172E+01  0.43465700820E+01  0.10875354636E+02  0.12668085101E+02  0.51100000000E-03 0. -1.
        -11    1    3    3    0    0  0.83323009748E+01  0.12774892608E+02  0.99926557549E+00  0.15284752292E+02  0.51100000000E-03 0.  1.
        -12    1    3    3    0    0  0.96386070700E+01  0.75512856289E+01  0.15603846346E+02  0.19834431721E+02  0.00000000000E+00 0.  1.
</event>
<event>
 7    1  0.1265344E-009  0.4778727E+02  0.7816164E-02  0.1312668E+00
        -11   -1    0    0    0    0  0.00000000000E+00  0.00000000000E+00  0.45593999997E+02  0.45594000000E+02  0.51100000000E-03 0.  1.
         11   -1    0    0    0    0 -0.00000000000E+00 -0.00000000000E+00 -0.45593999997E+02  0.45594000000E+02  0.51100000000E-03 0. -1.
    9900012    2    1    2    0    0 -0.33403178937E+02 -0.20012726738E+02 -0.19166157670E+02  0.47787271960E+02  0.20000004173E+02 0.  0.
         12    1    1    2    0    0  0.33403178937E+02  0.20012726738E+02  0.19166157670E+02  0.43400728040E+02  0.00000000000E+00 0. -1.
         11    1    3    3    0    0  0.39329091493E+00 -0.23799292157E+00  0.12513654043E+01  0.13331294051E+01  0.51100000000E-03 0. -1.
        -11    1    3    3    0    0 -0.23674872415E+02 -0.13200217921E+02 -0.62031611142E+01  0.27806915419E+02  0.51100000000E-03 0.  1.
         12    1    3    3    0    0 -0.10121597437E+02 -0.65745158957E+01 -0.14214361960E+02  0.18647227136E+02  0.00000000000E+00 0. -1.
</event>
<event>
 7    1  0.1265344E-009  0.4778727E+02  0.7816164E-02  0.1312668E+00
        -11   -1    0    0    0    0  0.00000000000E+00  0.00000000000E+00  0.45593999997E+02  0.45594000000E+02  0.51100000000E-03 0.  1.
         11   -1    0    0    0    0 -0.00000000000E+00 -0.00000000000E+00 -0.45593999997E+02  0.45594000000E+02  0.51100000000E-03 0. -1.
    9900012    2    1    2    0    0 -0.17252276190E+02 -0.26308484142E+02  0.29897255802E+02  0.47787271019E+02  0.19999999884E+02 0.  0.
         12    1    1    2    0    0  0.17252276190E+02  0.26308484142E+02 -0.29897255802E+02  0.43400728981E+02  0.00000000000E+00 0. -1.
         11    1    3    3    0    0 -0.98665004279E+01 -0.53351155239E+01  0.52077070586E+01  0.12366547676E+02  0.51100000000E-03 0. -1.
        -11    1    3    3    0    0 -0.96994838542E+01 -0.20394053678E+02  0.23962654067E+02  0.32927286597E+02  0.51100000000E-03 0.  1.
         12    1    3    3    0    0  0.23137080925E+01 -0.57931494044E+00  0.72689467711E+00  0.24934367466E+01  0.00000000000E+00 0. -1.
</event>
<event>
 7    1  0.1265344E-009  0.4778727E+02  0.7816164E-02  0.1312668E+00
        -11   -1    0    0    0    0  0.00000000000E+00  0.00000000000E+00  0.45593999997E+02  0.45594000000E+02  0.51100000000E-03 0. -1.
         11   -1    0    0    0    0 -0.00000000000E+00 -0.00000000000E+00 -0.45593999997E+02  0.45594000000E+02  0.51100000000E-03 0.  1.
    9900012    2    1    2    0    0 -0.81678593388E+01  0.36007564793E+02 -0.22811502463E+02  0.47787270822E+02  0.19999998988E+02 0.  0.
         12    1    1    2    0    0  0.81678593388E+01 -0.36007564793E+02  0.22811502463E+02  0.43400729178E+02  0.00000000000E+00 0. -1.
         11    1    3    3    0    0 -0.25847235625E+01  0.79561720307E+01 -0.10664227110E+02  0.13553863265E+02  0.51100000000E-03 0. -1.
        -11    1    3    3    0    0 -0.79487476122E+01  0.28387671827E+02 -0.10350426330E+02  0.31243780595E+02  0.51100000000E-03 0.  1.
         12    1    3    3    0    0  0.23656118359E+01 -0.33627906477E+00 -0.17968490229E+01  0.29896269632E+01  0.00000000000E+00 0. -1.
</event>
<event>
 7    1  0.1265344E-009  0.4778727E+02  0.7816164E-02  0.1312668E+00
        -11   -1    0    0    0    0  0.00000000000E+00  0.00000000000E+00  0.45593999997E+02  0.45594000000E+02  0.51100000000E-03 0. -1.
         11   -1    0    0    0    0 -0.00000000000E+00 -0.00000000000E+00 -0.45593999997E+02  0.45594000000E+02  0.51100000000E-03 0.  1.
    9900012    2    1    2    0    0 -0.17625030873E+02 -0.32304718582E+02 -0.23008407321E+02  0.47787270013E+02  0.19999995299E+02 0.  0.
         12    1    1    2    0    0  0.17625030873E+02  0.32304718582E+02  0.23008407321E+02  0.43400729987E+02  0.00000000000E+00 0. -1.
         11    1    3    3    0    0 -0.10775162946E+02 -0.21430659842E+02 -0.96230339171E+01  0.25845310983E+02  0.51100000000E-03 0. -1.
        -11    1    3    3    0    0 -0.58298181746E+01 -0.91281812059E+00 -0.95101238787E+00  0.59769926964E+01  0.51100000000E-03 0.  1.
        -12    1    3    3    0    0 -0.10200497525E+01 -0.99612406191E+01 -0.12434361016E+02  0.15964966334E+02  0.00000000000E+00 0.  1.
</event>
<event>
 7    1  0.1265344E-009  0.4778727E+02  0.7816164E-02  0.1312668E+00
        -11   -1    0    0    0    0  0.00000000000E+00  0.00000000000E+00  0.45593999997E+02  0.45594000000E+02  0.51100000000E-03 0.  1.
         11   -1    0    0    0    0 -0.00000000000E+00 -0.00000000000E+00 -0.45593999997E+02  0.45594000000E+02  0.51100000000E-03 0. -1.
    9900012    2    1    2    0    0  0.12178490595E+01 -0.11993555493E+02  0.41692858481E+02  0.47787274453E+02  0.20000015540E+02 0.  0.
         12    1    1    2    0    0 -0.12178490595E+01  0.11993555493E+02 -0.41692858481E+02  0.43400725547E+02  0.00000000000E+00 0. -1.
         11    1    3    3    0    0  0.49566810238E+01  0.10523584281E+01  0.12291505593E+02  0.13295008651E+02  0.51100000000E-03 0. -1.
        -11    1    3    3    0    0 -0.37709187620E+01 -0.53460182397E+01  0.24514571663E+02  0.25372504082E+02  0.51100000000E-03 0.  1.
         12    1    3    3    0    0  0.32086797686E-01 -0.76998956815E+01  0.48867812249E+01  0.91197617188E+01  0.00000000000E+00 0. -1.
</event>
<event>
 7    1  0.1265344E-009  0.4778727E+02  0.7816164E-02  0.1312668E+00
        -11   -1    0    0    0    0  0.00000000000E+00  0.00000000000E+00  0.45593999997E+02  0.45594000000E+02  0.51100000000E-03 0. -1.
         11   -1    0    0    0    0 -0.00000000000E+00 -0.00000000000E+00 -0.45593999997E+02  0.45594000000E+02  0.51100000000E-03 0.  1.
    9900012    2    1    2    0    0 -0.17599474636E+02 -0.39429264974E+02 -0.43834999041E+01  0.47787268264E+02  0.19999987322E+02 0.  0.
         12    1    1    2    0    0  0.17599474636E+02  0.39429264974E+02  0.43834999041E+01  0.43400731736E+02  0.00000000000E+00 0. -1.
         11    1    3    3    0    0 -0.47880481365E+01 -0.19712532944E+02  0.37475880609E+01  0.20628954811E+02  0.51100000000E-03 0. -1.
        -11    1    3    3    0    0 -0.93628477303E+00 -0.98396926395E+01 -0.41618392333E+00  0.98928959226E+01  0.51100000000E-03 0.  1.
         12    1    3    3    0    0 -0.11875141727E+02 -0.98770393897E+01 -0.77149040417E+01  0.17265417531E+02  0.00000000000E+00 0. -1.
</event>
<event>
 7    1  0.1265344E-009  0.4778727E+02  0.7816164E-02  0.1312668E+00
        -11   -1    0    0    0    0  0.00000000000E+00  0.00000000000E+00  0.45593999997E+02  0.45594000000E+02  0.51100000000E-03 0.  1.
         11   -1    0    0    0    0 -0.00000000000E+00 -0.00000000000E+00 -0.45593999997E+02  0.45594000000E+02  0.51100000000E-03 0. -1.
    9900012    2    1    2    0    0  0.18695228019E+02 -0.17020655066E+02  0.35276178759E+02  0.47787273769E+02  0.20000012421E+02 0.  0.
         12    1    1    2    0    0 -0.18695228019E+02  0.17020655066E+02 -0.35276178759E+02  0.43400726231E+02  0.00000000000E+00 0. -1.
         11    1    3    3    0    0  0.68805077958E+00 -0.57204619795E+01  0.55953468059E+01  0.80315008107E+01  0.51100000000E-03 0. -1.
        -11    1    3    3    0    0 -0.53223517791E+00 -0.69545035843E+01  0.11366632771E+02  0.13335993972E+02  0.51100000000E-03 0.  1.
         12    1    3    3    0    0  0.18539412417E+02 -0.43456895024E+01  0.18314199182E+02  0.26419778986E+02  0.00000000000E+00 0. -1.
</event>
<event>
 7    1  0.1265344E-009  0.4778728E+02  0.7816164E-02  0.1312668E+00
        -11   -1    0    0    0    0  0.00000000000E+00  0.00000000000E+00  0.45593999997E+02  0.45594000000E+02  0.51100000000E-03 0. -1.
         11   -1    0    0    0    0 -0.00000000000E+00 -0.00000000000E+00 -0.45593999997E+02  0.45594000000E+02  0.51100000000E-03 0.  1.
    9900012    2    1    2    0    0  0.19864499858E+01  0.42019986604E+02 -0.10676961600E+02  0.47787276886E+02  0.20000026635E+02 0.  0.
         12    1    1    2    0    0 -0.19864499858E+01 -0.42019986604E+02  0.10676961600E+02  0.43400723114E+02  0.00000000000E+00 0. -1.
         11    1    3    3    0    0 -0.69222145757E+01  0.30720216089E+02 -0.90311934836E+01  0.32759902125E+02  0.51100000000E-03 0. -1.
        -11    1    3    3    0    0  0.30064510431E+01  0.42530691778E+01 -0.25349223635E+01  0.57925104191E+01  0.51100000000E-03 0.  1.
         12    1    3    3    0    0  0.59022135185E+01  0.70467013372E+01  0.88915424674E+00  0.92348643427E+01  0.00000000000E+00 0. -1.
</event>
<event>
 7    1  0.1265344E-009  0.4778727E+02  0.7816164E-02  0.1312668E+00
        -11   -1    0    0    0    0  0.00000000000E+00  0.00000000000E+00  0.45593999997E+02  0.45594000000E+02  0.51100000000E-03 0.  1.
         11   -1    0    0    0    0 -0.00000000000E+00 -0.00000000000E+00 -0.45593999997E+02  0.45594000000E+02  0.51100000000E-03 0. -1.
    9900012    2    1    2    0    0  0.30537500924E+02 -0.26482319497E+02 -0.15804137628E+02  0.47787274490E+02  0.20000015708E+02 0.  0.
         12    1    1    2    0    0 -0.30537500924E+02  0.26482319497E+02  0.15804137628E+02  0.43400725510E+02  0.00000000000E+00 0. -1.
         11    1    3    3    0    0  0.76236413158E+01 -0.28834439414E+01 -0.11189097649E+02  0.13843051049E+02  0.51100000000E-03 0. -1.
        -11    1    3    3    0    0  0.73792687262E+01 -0.45565448422E+01  0.10167776156E+01  0.87320985344E+01  0.51100000000E-03 0.  1.
         12    1    3    3    0    0  0.15534590882E+02 -0.19042330714E+02 -0.56318175948E+01  0.25212124907E+02  0.00000000000E+00 0. -1.
</event>
<event>
 7    1  0.1265344E-009  0.4778727E+02  0.7816164E-02  0.1312668E+00
        -11   -1    0    0    0    0  0.00000000000E+00  0.00000000000E+00  0.45593999997E+02  0.45594000000E+02  0.51100000000E-03 0.  1.
         11   -1    0    0    0    0 -0.00000000000E+00 -0.00000000000E+00 -0.45593999997E+02  0.45594000000E+02  0.51100000000E-03 0. -1.
    9900012    2    1    2    0    0 -0.19915541769E+02  0.37790674562E+02  0.76720058251E+01  0.47787267735E+02  0.19999984909E+02 0.  0.
         12    1    1    2    0    0  0.19915541769E+02 -0.37790674562E+02 -0.76720058251E+01  0.43400732265E+02  0.00000000000E+00 0. -1.
         11    1    3    3    0    0  0.25205887799E+01  0.11456096523E+02  0.10781143013E+00  0.11730606928E+02  0.51100000000E-03 0. -1.
        -11    1    3    3    0    0 -0.97961630818E+01  0.66316133269E+01  0.20328281994E+01  0.12003145304E+02  0.51100000000E-03 0.  1.
        -12    1    3    3    0    0 -0.12639967467E+02  0.19702964712E+02  0.55313661956E+01  0.24053515502E+02  0.00000000000E+00 0.  1.
</event>
<event>
 7    1  0.1265344E-009  0.4778727E+02  0.7816164E-02  0.1312668E+00
        -11   -1    0    0    0    0  0.00000000000E+00  0.00000000000E+00  0.45593999997E+02  0.45594000000E+02  0.51100000000E-03 0.  1.
         11   -1    0    0    0    0 -0.00000000000E+00 -0.00000000000E+00 -0.45593999997E+02  0.45594000000E+02  0.51100000000E-03 0. -1.
    9900012    2    1    2    0    0 -0.27448478075E+02  0.30925255662E+02 -0.13184586263E+02  0.47787266120E+02  0.19999977547E+02 0.  0.
         12    1    1    2    0    0  0.27448478075E+02 -0.30925255662E+02  0.13184586263E+02  0.43400733880E+02  0.00000000000E+00 0. -1.
         11    1    3    3    0    0 -0.26988574174E+01  0.38216124802E+01 -0.90139670648E+01  0.10155794199E+02  0.51100000000E-03 0. -1.
        -11    1    3    3    0    0 -0.82411498645E+01  0.10466663250E+02  0.18068961598E+01  0.13443677498E+02  0.51100000000E-03 0.  1.
        -12    1    3    3    0    0 -0.16508470793E+02  0.16636979932E+02 -0.59775153579E+01  0.24187794423E+02  0.00000000000E+00 0.  1.
</event>
<event>
 7    1  0.1265344E-009  0.4778727E+02  0.7816164E-02  0.1312668E+00
        -11   -1    0    0    0    0  0.00000000000E+00  0.00000000000E+00  0.45593999997E+02  0.45594000000E+02  0.51100000000E-03 0.  1.
         11   -1    0    0    0    0 -0.00000000000E+00 -0.00000000000E+00 -0.45593999997E+02  0.45594000000E+02  0.51100000000E-03 0. -1.
    9900012    2    1    2    0    0  0.30681096958E+02  0.68265844706E+01  0.29928103828E+02  0.47787269997E+02  0.19999995224E+02 0.  0.
         12    1    1    2    0    0 -0.30681096958E+02 -0.68265844706E+01 -0.29928103828E+02  0.43400730003E+02  0.00000000000E+00 0. -1.
         11    1    3    3    0    0  0.74237131424E+01  0.59196334623E+01  0.67224792978E+01  0.11633800124E+02  0.51100000000E-03 0.  1.
        -11    1    3    3    0    0  0.13072540820E+02 -0.27336438129E+01  0.37141255024E+01  0.13862137660E+02  0.51100000000E-03 0. -1.
         12    1    3    3    0    0  0.10184842995E+02  0.36405948213E+01  0.19491499028E+02  0.22291332213E+02  0.00000000000E+00 0. -1.
</event>
<event>
 7    1  0.1265344E-009  0.4778727E+02  0.7816164E-02  0.1312668E+00
        -11   -1    0    0    0    0  0.00000000000E+00  0.00000000000E+00  0.45593999997E+02  0.45594000000E+02  0.51100000000E-03 0. -1.
         11   -1    0    0    0    0 -0.00000000000E+00 -0.00000000000E+00 -0.45593999997E+02  0.45594000000E+02  0.51100000000E-03 0.  1.
    9900012    2    1    2    0    0  0.40460915376E+02  0.22244993169E+01 -0.15543134354E+02  0.47787273096E+02  0.20000009353E+02 0.  0.
         12    1    1    2    0    0 -0.40460915376E+02 -0.22244993169E+01  0.15543134354E+02  0.43400726904E+02  0.00000000000E+00 0. -1.
         11    1    3    3    0    0  0.87349450384E+01  0.26441435995E+01 -0.63909823026E+01  0.11141607391E+02  0.51100000000E-03 0. -1.
        -11    1    3    3    0    0  0.25624048456E+02 -0.60450156338E+01 -0.33959390242E+01  0.26545554720E+02  0.51100000000E-03 0.  1.
        -12    1    3    3    0    0  0.61019218815E+01  0.56253713512E+01 -0.57562130276E+01  0.10100110985E+02  0.00000000000E+00 0.  1.
</event>
<event>
 7    1  0.1265344E-009  0.4778727E+02  0.7816164E-02  0.1312668E+00
        -11   -1    0    0    0    0  0.00000000000E+00  0.00000000000E+00  0.45593999997E+02  0.45594000000E+02  0.51100000000E-03 0. -1.
         11   -1    0    0    0    0 -0.00000000000E+00 -0.00000000000E+00 -0.45593999997E+02  0.45594000000E+02  0.51100000000E-03 0.  1.
    9900012    2    1    2    0    0 -0.20143417110E+02  0.31748578316E+02 -0.21677030962E+02  0.47787272480E+02  0.20000006545E+02 0.  0.
         12    1    1    2    0    0  0.20143417110E+02 -0.31748578316E+02  0.21677030962E+02  0.43400727520E+02  0.00000000000E+00 0. -1.
         11    1    3    3    0    0 -0.18587350173E+01  0.24629023955E+01 -0.43339195470E+01  0.53201168197E+01  0.51100000000E-03 0. -1.
        -11    1    3    3    0    0  0.11515873701E+01  0.85630596777E+01 -0.98136873546E+01  0.13075190411E+02  0.51100000000E-03 0.  1.
         12    1    3    3    0    0 -0.19436269462E+02  0.20722616243E+02 -0.75294240601E+01  0.29391965250E+02  0.00000000000E+00 0. -1.
</event>
<event>
 7    1  0.1594126E-009  0.4778728E+02  0.7816164E-02  0.1312668E+00
        -11   -1    0    0    0    0  0.00000000000E+00  0.00000000000E+00  0.45593999997E+02  0.45594000000E+02  0.51100000000E-03 0.  1.
         11   -1    0    0    0    0 -0.00000000000E+00 -0.00000000000E+00 -0.45593999997E+02  0.45594000000E+02  0.51100000000E-03 0. -1.
    9900012    2    1    2    0    0 -0.27280611912E+02 -0.29672725253E+02  0.16091007350E+02  0.47787275032E+02  0.20000018179E+02 0.  0.
         12    1    1    2    0    0  0.27280611912E+02  0.29672725253E+02 -0.16091007350E+02  0.43400724968E+02  0.00000000000E+00 0. -1.
         11    1    3    3    0    0 -0.20962526798E+01  0.38821131500E+00  0.51367549137E+01  0.55615856216E+01  0.51100000000E-03 0. -1.
        -11    1    3    3    0    0 -0.72814356616E+01 -0.14152692146E+02  0.63526212929E-01  0.15916093620E+02  0.51100000000E-03 0.  1.
        -12    1    3    3    0    0 -0.17902923571E+02 -0.15908244422E+02  0.10890726224E+02  0.26309595790E+02  0.00000000000E+00 0.  1.
</event>
<event>
 7    1  0.1265344E-009  0.4778727E+02  0.7816164E-02  0.1312668E+00
        -11   -1    0    0    0    0  0.00000000000E+00  0.00000000000E+00  0.45593999997E+02  0.45594000000E+02  0.51100000000E-03 0.  1.
         11   -1    0    0    0    0 -0.00000000000E+00 -0.00000000000E+00 -0.45593999997E+02  0.45594000000E+02  0.51100000000E-03 0. -1.
    9900012    2    1    2    0    0 -0.34659991399E+02  0.75255797610E+01  0.25013473677E+02  0.47787271666E+02  0.20000002833E+02 0.  0.
         12    1    1    2    0    0  0.34659991399E+02 -0.75255797610E+01 -0.25013473677E+02  0.43400728334E+02  0.00000000000E+00 0. -1.
         11    1    3    3    0    0  0.89070801506E+00  0.86246813837E-01  0.41598357671E+01  0.42550009579E+01  0.51100000000E-03 0. -1.
        -11    1    3    3    0    0 -0.22587924451E+02  0.92283971867E+01  0.17489811696E+02  0.30021178509E+02  0.51100000000E-03 0.  1.
         12    1    3    3    0    0 -0.12962774964E+02 -0.17890642394E+01  0.33638262139E+01  0.13511092199E+02  0.00000000000E+00 0. -1.
</event>
<event>
 7    1  0.1265344E-009  0.4778727E+02  0.7816164E-02  0.1312668E+00
        -11   -1    0    0    0    0  0.00000000000E+00  0.00000000000E+00  0.45593999997E+02  0.45594000000E+02  0.51100000000E-03 0. -1.
         11   -1    0    0    0    0 -0.00000000000E+00 -0.00000000000E+00 -0.45593999997E+02  0.45594000000E+02  0.51100000000E-03 0.  1.
    9900012    2    1    2    0    0  0.25991575802E+02  0.34284260287E+02  0.57140931649E+01  0.47787269859E+02  0.19999994593E+02 0.  0.
         12    1    1    2    0    0 -0.25991575802E+02 -0.34284260287E+02 -0.57140931649E+01  0.43400730141E+02  0.00000000000E+00 0. -1.
         11    1    3    3    0    0  0.10231275671E+02  0.95249850916E+01  0.26570021115E+01  0.14228984621E+02  0.51100000000E-03 0. -1.
        -11    1    3    3    0    0  0.12147211786E+02  0.50019864632E+01 -0.56701783278E+00  0.13148997385E+02  0.51100000000E-03 0.  1.
         12    1    3    3    0    0  0.36130883451E+01  0.19757288732E+02  0.36241088862E+01  0.20409287853E+02  0.00000000000E+00 0. -1.
</event>
<event>
 7    1  0.1265344E-009  0.4778729E+02  0.7816164E-02  0.1312668E+00
        -11   -1    0    0    0    0  0.00000000000E+00  0.00000000000E+00  0.45593999997E+02  0.45594000000E+02  0.51100000000E-03 0.  1.
         11   -1    0    0    0    0 -0.00000000000E+00 -0.00000000000E+00 -0.45593999997E+02  0.45594000000E+02  0.51100000000E-03 0. -1.
    9900012    2    1    2    0    0 -0.64043532637E+01  0.24141883721E+02  0.35493319813E+02  0.47787285240E+02  0.20000064722E+02 0.  0.
         12    1    1    2    0    0  0.64043532637E+01 -0.24141883721E+02 -0.35493319813E+02  0.43400714760E+02  0.00000000000E+00 0. -1.
         11    1    3    3    0    0  0.41674971584E+01  0.76950931818E+01  0.10315959410E+02  0.13527805086E+02  0.51100000000E-03 0. -1.
        -11    1    3    3    0    0 -0.53129896010E+01  0.39146736895E+00  0.10930563999E+02  0.12159701263E+02  0.51100000000E-03 0.  1.
         12    1    3    3    0    0 -0.52588608211E+01  0.16055323170E+02  0.14246796405E+02  0.22099778891E+02  0.00000000000E+00 0. -1.
</event>
<event>
 7    1  0.1265344E-009  0.4778728E+02  0.7816164E-02  0.1312668E+00
        -11   -1    0    0    0    0  0.00000000000E+00  0.00000000000E+00  0.45593999997E+02  0.45594000000E+02  0.51100000000E-03 0. -1.
         11   -1    0    0    0    0 -0.00000000000E+00 -0.00000000000E+00 -0.45593999997E+02  0.45594000000E+02  0.51100000000E-03 0.  1.
    9900012    2    1    2    0    0 -0.45669294634E+01  0.39732848211E+02  0.16854282742E+02  0.47787275140E+02  0.20000018671E+02 0.  0.
         12    1    1    2    0    0  0.45669294634E+01 -0.39732848211E+02 -0.16854282742E+02  0.43400724860E+02  0.00000000000E+00 0. -1.
         11    1    3    3    0    0  0.23021736071E+01  0.20462975700E+02  0.15561335528E+02  0.25810628460E+02  0.51100000000E-03 0. -1.
        -11    1    3    3    0    0  0.49217123725E+00  0.10320693265E+02  0.16032242641E+00  0.10333665639E+02  0.51100000000E-03 0.  1.
        -12    1    3    3    0    0 -0.73612743078E+01  0.89491792449E+01  0.11326247881E+01  0.11642981040E+02  0.00000000000E+00 0.  1.
</event>
<event>
 7    1  0.1265344E-009  0.4778727E+02  0.7816164E-02  0.1312668E+00
        -11   -1    0    0    0    0  0.00000000000E+00  0.00000000000E+00  0.45593999997E+02  0.45594000000E+02  0.51100000000E-03 0. -1.
         11   -1    0    0    0    0 -0.00000000000E+00 -0.00000000000E+00 -0.45593999997E+02  0.45594000000E+02  0.51100000000E-03 0.  1.
    9900012    2    1    2    0    0 -0.41030665642E+02 -0.50325988706E+01 -0.13220462797E+02  0.47787271769E+02  0.20000003304E+02 0.  0.
         12    1    1    2    0    0  0.41030665642E+02  0.50325988706E+01  0.13220462797E+02  0.43400728231E+02  0.00000000000E+00 0. -1.
         11    1    3    3    0    0 -0.13385493575E+02 -0.41630717563E+01  0.31586367661E+01  0.14369397732E+02  0.51100000000E-03 0. -1.
        -11    1    3    3    0    0 -0.18746019059E+02 -0.46435950071E+01 -0.92911960256E+01  0.21431344544E+02  0.51100000000E-03 0.  1.
        -12    1    3    3    0    0 -0.88991530083E+01  0.37740678928E+01 -0.70879035376E+01  0.11986529493E+02  0.00000000000E+00 0.  1.
</event>
<event>
 7    1  0.1265344E-009  0.4778727E+02  0.7816164E-02  0.1312668E+00
        -11   -1    0    0    0    0  0.00000000000E+00  0.00000000000E+00  0.45593999997E+02  0.45594000000E+02  0.51100000000E-03 0.  1.
         11   -1    0    0    0    0 -0.00000000000E+00 -0.00000000000E+00 -0.45593999997E+02  0.45594000000E+02  0.51100000000E-03 0. -1.
    9900012    2    1    2    0    0 -0.12503877729E+02  0.24212332290E+02  0.33779274101E+02  0.47787270145E+02  0.19999995898E+02 0.  0.
         12    1    1    2    0    0  0.12503877729E+02 -0.24212332290E+02 -0.33779274101E+02  0.43400729855E+02  0.00000000000E+00 0. -1.
         11    1    3    3    0    0 -0.18278845777E+01 -0.22009726563E+01  0.20433077643E+01  0.35157573216E+01  0.51100000000E-03 0. -1.
        -11    1    3    3    0    0 -0.25649122283E+00  0.16186006159E+01  0.87200360610E+01  0.88726932139E+01  0.51100000000E-03 0.  1.
        -12    1    3    3    0    0 -0.10419501928E+02  0.24794704331E+02  0.23015930275E+02  0.35398819609E+02  0.00000000000E+00 0.  1.
</event>
<event>
 7    1  0.1265344E-009  0.4778727E+02  0.7816164E-02  0.1312668E+00
        -11   -1    0    0    0    0  0.00000000000E+00  0.00000000000E+00  0.45593999997E+02  0.45594000000E+02  0.51100000000E-03 0. -1.
         11   -1    0    0    0    0 -0.00000000000E+00 -0.00000000000E+00 -0.45593999997E+02  0.45594000000E+02  0.51100000000E-03 0.  1.
    9900012    2    1    2    0    0  0.22452455390E+02  0.36850533803E+02 -0.46420918301E+01  0.47787267159E+02  0.19999982284E+02 0.  0.
         12    1    1    2    0    0 -0.22452455390E+02 -0.36850533803E+02  0.46420918301E+01  0.43400732841E+02  0.00000000000E+00 0. -1.
         11    1    3    3    0    0  0.19575827553E+01  0.13192384786E+02 -0.49570424475E+01  0.14228261197E+02  0.51100000000E-03 0. -1.
        -11    1    3    3    0    0  0.14078381139E+02  0.22640510176E+02  0.23160282713E+01  0.26761119254E+02  0.51100000000E-03 0.  1.
         12    1    3    3    0    0  0.64164914952E+01  0.10176388411E+01 -0.20010776539E+01  0.67978867080E+01  0.00000000000E+00 0. -1.
</event>
<event>
 7    1  0.1265344E-009  0.4778727E+02  0.7816164E-02  0.1312668E+00
        -11   -1    0    0    0    0  0.00000000000E+00  0.00000000000E+00  0.45593999997E+02  0.45594000000E+02  0.51100000000E-03 0. -1.
         11   -1    0    0    0    0 -0.00000000000E+00 -0.00000000000E+00 -0.45593999997E+02  0.45594000000E+02  0.51100000000E-03 0.  1.
    9900012    2    1    2    0    0  0.36727895469E+02 -0.23123218107E+02 -0.38972256660E-01  0.47787273739E+02  0.20000012284E+02 0.  0.
         12    1    1    2    0    0 -0.36727895469E+02  0.23123218107E+02  0.38972256660E-01  0.43400726261E+02  0.00000000000E+00 0. -1.
         11    1    3    3    0    0  0.23770513504E+02 -0.15264853583E+02  0.55462740750E+01  0.28789133776E+02  0.51100000000E-03 0. -1.
        -11    1    3    3    0    0 -0.15115335373E+01  0.24801351792E+00 -0.12254483647E+00  0.15366397878E+01  0.51100000000E-03 0.  1.
        -12    1    3    3    0    0  0.14468915502E+02 -0.81063780418E+01 -0.54627014951E+01  0.17461500175E+02  0.00000000000E+00 0.  1.
</event>
<event>
 7    1  0.1265344E-009  0.4778726E+02  0.7816164E-02  0.1312668E+00
        -11   -1    0    0    0    0  0.00000000000E+00  0.00000000000E+00  0.45593999997E+02  0.45594000000E+02  0.51100000000E-03 0.  1.
         11   -1    0    0    0    0 -0.00000000000E+00 -0.00000000000E+00 -0.45593999997E+02  0.45594000000E+02  0.51100000000E-03 0. -1.
    9900012    2    1    2    0    0  0.39670452101E+02 -0.13867385526E+02 -0.10843206326E+02  0.47787259515E+02  0.19999947434E+02 0.  0.
         12    1    1    2    0    0 -0.39670452101E+02  0.13867385526E+02  0.10843206326E+02  0.43400740485E+02  0.00000000000E+00 0. -1.
         11    1    3    3    0    0  0.17813456796E+02 -0.69812981151E+01 -0.51667886597E+01  0.19818008773E+02  0.51100000000E-03 0. -1.
        -11    1    3    3    0    0  0.18054672830E+02 -0.77604152316E+01  0.15958017672E+01  0.19716537199E+02  0.51100000000E-03 0.  1.
         12    1    3    3    0    0  0.38023224742E+01  0.87432782101E+00 -0.72722194339E+01  0.82527135436E+01  0.00000000000E+00 0. -1.
</event>
<event>
 7    1  0.1265344E-009  0.4778726E+02  0.7816164E-02  0.1312668E+00
        -11   -1    0    0    0    0  0.00000000000E+00  0.00000000000E+00  0.45593999997E+02  0.45594000000E+02  0.51100000000E-03 0. -1.
         11   -1    0    0    0    0 -0.00000000000E+00 -0.00000000000E+00 -0.45593999997E+02  0.45594000000E+02  0.51100000000E-03 0.  1.
    9900012    2    1    2    0    0 -0.30060510416E+02 -0.21179564193E+02 -0.23052461444E+02  0.47787260323E+02  0.19999951116E+02 0.  0.
         12    1    1    2    0    0  0.30060510416E+02  0.21179564193E+02  0.23052461444E+02  0.43400739677E+02  0.00000000000E+00 0. -1.
         11    1    3    3    0    0 -0.73811463142E+01 -0.49300305393E+01 -0.49921886983E+01  0.10183735576E+02  0.51100000000E-03 0.  1.
        -11    1    3    3    0    0 -0.19669846492E+02 -0.49954552025E+01 -0.68045050677E+01  0.21404642561E+02  0.51100000000E-03 0. -1.
         12    1    3    3    0    0 -0.30095176105E+01 -0.11254078451E+02 -0.11255767678E+02  0.16198882185E+02  0.00000000000E+00 0. -1.
</event>
<event>
 7    1  0.1265344E-009  0.4778727E+02  0.7816164E-02  0.1312668E+00
        -11   -1    0    0    0    0  0.00000000000E+00  0.00000000000E+00  0.45593999997E+02  0.45594000000E+02  0.51100000000E-03 0.  1.
         11   -1    0    0    0    0 -0.00000000000E+00 -0.00000000000E+00 -0.45593999997E+02  0.45594000000E+02  0.51100000000E-03 0. -1.
    9900012    2    1    2    0    0  0.25768167222E+01 -0.13689619800E+02  0.41104471064E+02  0.47787271709E+02  0.20000003031E+02 0.  0.
         12    1    1    2    0    0 -0.25768167222E+01  0.13689619800E+02 -0.41104471064E+02  0.43400728291E+02  0.00000000000E+00 0. -1.
         11    1    3    3    0    0  0.50727620207E+01 -0.59653782092E+01  0.58508817174E+01  0.97750431625E+01  0.51100000000E-03 0. -1.
        -11    1    3    3    0    0 -0.42710479830E+01  0.62075983475E+00  0.51314381140E+01  0.67051361675E+01  0.51100000000E-03 0.  1.
         12    1    3    3    0    0  0.17751026845E+01 -0.83450014258E+01  0.30122151233E+02  0.31307092379E+02  0.00000000000E+00 0. -1.
</event>
<event>
 7    1  0.1265344E-009  0.4778727E+02  0.7816164E-02  0.1312668E+00
        -11   -1    0    0    0    0  0.00000000000E+00  0.00000000000E+00  0.45593999997E+02  0.45594000000E+02  0.51100000000E-03 0.  1.
         11   -1    0    0    0    0 -0.00000000000E+00 -0.00000000000E+00 -0.45593999997E+02  0.45594000000E+02  0.51100000000E-03 0. -1.
    9900012    2    1    2    0    0 -0.46301808566E+01 -0.39029176740E+02  0.18409456920E+02  0.47787270560E+02  0.19999997793E+02 0.  0.
         12    1    1    2    0    0  0.46301808566E+01  0.39029176740E+02 -0.18409456920E+02  0.43400729440E+02  0.00000000000E+00 0. -1.
         11    1    3    3    0    0 -0.54371008388E+01 -0.34926386402E+01  0.90467140690E+00  0.65252602107E+01  0.51100000000E-03 0. -1.
        -11    1    3    3    0    0  0.73632424850E+00 -0.11039033936E+02 -0.15167755648E+00  0.11064603471E+02  0.51100000000E-03 0.  1.
        -12    1    3    3    0    0  0.70595733757E-01 -0.24497504164E+02  0.17656463070E+02  0.30197406879E+02  0.00000000000E+00 0.  1.
</event>
<event>
 7    1  0.1265344E-009  0.4778728E+02  0.7816164E-02  0.1312668E+00
        -11   -1    0    0    0    0  0.00000000000E+00  0.00000000000E+00  0.45593999997E+02  0.45594000000E+02  0.51100000000E-03 0.  1.
         11   -1    0    0    0    0 -0.00000000000E+00 -0.00000000000E+00 -0.45593999997E+02  0.45594000000E+02  0.51100000000E-03 0. -1.
    9900012    2    1    2    0    0  0.21977565157E+02  0.30797874566E+02  0.21262642128E+02  0.47787281132E+02  0.20000045992E+02 0.  0.
         12    1    1    2    0    0 -0.21977565157E+02 -0.30797874566E+02 -0.21262642128E+02  0.43400718868E+02  0.00000000000E+00 0. -1.
         11    1    3    3    0    0  0.32264344267E+01  0.14278616952E+02  0.11787796609E+02  0.18794704848E+02  0.51100000000E-03 0. -1.
        -11    1    3    3    0    0  0.13591752250E+02  0.11278666701E+02  0.11844807908E+02  0.21266018114E+02  0.51100000000E-03 0.  1.
        -12    1    3    3    0    0  0.51593784799E+01  0.52405909135E+01 -0.23699623893E+01  0.77265581696E+01  0.00000000000E+00 0.  1.
</event>
<event>
 7    1  0.1265344E-009  0.4778727E+02  0.7816164E-02  0.1312668E+00
        -11   -1    0    0    0    0  0.00000000000E+00  0.00000000000E+00  0.45593999997E+02  0.45594000000E+02  0.51100000000E-03 0.  1.
         11   -1    0    0    0    0 -0.00000000000E+00 -0.00000000000E+00 -0.45593999997E+02  0.45594000000E+02  0.51100000000E-03 0. -1.
    9900012    2    1    2    0    0 -0.13389420164E+02 -0.40795214822E+02  0.63322072873E+01  0.47787274501E+02  0.20000015759E+02 0.  0.
         12    1    1    2    0    0  0.13389420164E+02  0.40795214822E+02 -0.63322072873E+01  0.43400725499E+02  0.00000000000E+00 0. -1.
         11    1    3    3    0    0 -0.80071936175E+01 -0.85636237572E+01  0.13571242500E+01  0.11802228094E+02  0.51100000000E-03 0. -1.
        -11    1    3    3    0    0 -0.12095046276E+01 -0.14365836393E+02 -0.48026841616E+01  0.15195589233E+02  0.51100000000E-03 0.  1.
        -12    1    3    3    0    0 -0.41727219186E+01 -0.17865754672E+02  0.97777671989E+01  0.20789457174E+02  0.00000000000E+00 0.  1.
</event>
<event>
 7    1  0.1265344E-009  0.4778726E+02  0.7816164E-02  0.1312668E+00
        -11   -1    0    0    0    0  0.00000000000E+00  0.00000000000E+00  0.45593999997E+02  0.45594000000E+02  0.51100000000E-03 0.  1.
         11   -1    0    0    0    0 -0.00000000000E+00 -0.00000000000E+00 -0.45593999997E+02  0.45594000000E+02  0.51100000000E-03 0. -1.
    9900012    2    1    2    0    0  0.21665974714E+02  0.32777348509E+02  0.18435152552E+02  0.47787264002E+02  0.19999967889E+02 0.  0.
         12    1    1    2    0    0 -0.21665974714E+02 -0.32777348509E+02 -0.18435152552E+02  0.43400735998E+02  0.00000000000E+00 0. -1.
         11    1    3    3    0    0  0.37374379400E+01  0.16805795859E+02  0.49153757281E+01  0.17904304947E+02  0.51100000000E-03 0. -1.
        -11    1    3    3    0    0  0.14946664623E+02  0.12850171702E+02  0.50053382375E+01  0.20336742789E+02  0.51100000000E-03 0.  1.
         12    1    3    3    0    0  0.29818721509E+01  0.31213809470E+01  0.85144385865E+01  0.95462162653E+01  0.00000000000E+00 0. -1.
</event>
<event>
 7    1  0.1265344E-009  0.4778727E+02  0.7816164E-02  0.1312668E+00
        -11   -1    0    0    0    0  0.00000000000E+00  0.00000000000E+00  0.45593999997E+02  0.45594000000E+02  0.51100000000E-03 0.  1.
         11   -1    0    0    0    0 -0.00000000000E+00 -0.00000000000E+00 -0.45593999997E+02  0.45594000000E+02  0.51100000000E-03 0. -1.
    9900012    2    1    2    0    0 -0.31725413423E+02  0.19207249323E+02  0.22543358283E+02  0.47787270904E+02  0.19999999360E+02 0.  0.
         12    1    1    2    0    0  0.31725413423E+02 -0.19207249323E+02 -0.22543358283E+02  0.43400729096E+02  0.00000000000E+00 0. -1.
         11    1    3    3    0    0 -0.63753625402E+01 -0.22323218177E+01 -0.13417600390E+01  0.68868591158E+01  0.51100000000E-03 0. -1.
        -11    1    3    3    0    0 -0.12192375468E+02  0.10309575358E+02  0.11330568101E+02  0.19578639824E+02  0.51100000000E-03 0.  1.
         12    1    3    3    0    0 -0.13157675415E+02  0.11129995783E+02  0.12554550221E+02  0.21321771964E+02  0.00000000000E+00 0. -1.
</event>
<event>
 7    1  0.1265344E-009  0.4778730E+02  0.7816164E-02  0.1312668E+00
        -11   -1    0    0    0    0  0.00000000000E+00  0.00000000000E+00  0.45593999997E+02  0.45594000000E+02  0.51100000000E-03 0. -1.
         11   -1    0    0    0    0 -0.00000000000E+00 -0.00000000000E+00 -0.45593999997E+02  0.45594000000E+02  0.51100000000E-03 0.  1.
    9900012    2    1    2    0    0  0.24296160509E+02 -0.23202495796E+02 -0.27476565126E+02  0.47787298879E+02  0.20000126909E+02 0.  0.
         12    1    1    2    0    0 -0.24296160509E+02  0.23202495796E+02  0.27476565126E+02  0.43400701121E+02  0.00000000000E+00 0. -1.
         11    1    3    3    0    0  0.48733780166E-01 -0.56337570821E+01 -0.58630225837E+01  0.81312131887E+01  0.51100000000E-03 0. -1.
        -11    1    3    3    0    0  0.19285321705E+02 -0.14294956235E+02 -0.23323578622E+02  0.33470266312E+02  0.51100000000E-03 0.  1.
         12    1    3    3    0    0  0.49621050240E+01 -0.32737824793E+01  0.17100360793E+01  0.61858193785E+01  0.00000000000E+00 0. -1.
</event>
<event>
 7    1  0.1265344E-009  0.4778728E+02  0.7816164E-02  0.1312668E+00
        -11   -1    0    0    0    0  0.00000000000E+00  0.00000000000E+00  0.45593999997E+02  0.45594000000E+02  0.51100000000E-03 0.  1.
         11   -1    0    0    0    0 -0.00000000000E+00 -0.00000000000E+00 -0.45593999997E+02  0.45594000000E+02  0.51100000000E-03 0. -1.
    9900012    2    1    2    0    0 -0.40300571618E+02  0.10646047879E+02 -0.12089177029E+02  0.47787278700E+02  0.20000034904E+02 0.  0.
         12    1    1    2    0    0  0.40300571618E+02 -0.10646047879E+02  0.12089177029E+02  0.43400721300E+02  0.00000000000E+00 0. -1.
         11    1    3    3    0    0 -0.20446021304E+02  0.49981220113E+01  0.34024812422E+01  0.21321301313E+02  0.51100000000E-03 0. -1.
        -11    1    3    3    0    0 -0.12237738992E+02  0.57577745596E+00 -0.79176262493E+01  0.14587068966E+02  0.51100000000E-03 0.  1.
        -12    1    3    3    0    0 -0.76168113211E+01  0.50721484117E+01 -0.75740320219E+01  0.11878908421E+02  0.00000000000E+00 0.  1.
</event>
<event>
 7    1  0.1265344E-009  0.4778727E+02  0.7816164E-02  0.1312668E+00
        -11   -1    0    0    0    0  0.00000000000E+00  0.00000000000E+00  0.45593999997E+02  0.45594000000E+02  0.51100000000E-03 0.  1.
         11   -1    0    0    0    0 -0.00000000000E+00 -0.00000000000E+00 -0.45593999997E+02  0.45594000000E+02  0.51100000000E-03 0. -1.
    9900012    2    1    2    0    0  0.16842410335E+02 -0.38909318725E+02  0.92747759668E+01  0.47787270297E+02  0.19999996591E+02 0.  0.
         12    1    1    2    0    0 -0.16842410335E+02  0.38909318725E+02 -0.92747759668E+01  0.43400729703E+02  0.00000000000E+00 0. -1.
         11    1    3    3    0    0 -0.13368125234E+01 -0.22304477032E+01 -0.36325752684E+01  0.44673893966E+01  0.51100000000E-03 0. -1.
        -11    1    3    3    0    0  0.85869679330E+01 -0.14075753335E+02  0.26089218517E+01  0.16693391619E+02  0.51100000000E-03 0.  1.
         12    1    3    3    0    0  0.95922549257E+01 -0.22603117686E+02  0.10298429384E+02  0.26626489282E+02  0.00000000000E+00 0. -1.
</event>
<event>
 7    1  0.1265344E-009  0.4778727E+02  0.7816164E-02  0.1312668E+00
        -11   -1    0    0    0    0  0.00000000000E+00  0.00000000000E+00  0.45593999997E+02  0.45594000000E+02  0.51100000000E-03 0.  1.
         11   -1    0    0    0    0 -0.00000000000E+00 -0.00000000000E+00 -0.45593999997E+02  0.45594000000E+02  0.51100000000E-03 0. -1.
    9900012    2    1    2    0    0 -0.18879400511E+01  0.27653309597E+02  0.33396913526E+02  0.47787266338E+02  0.19999978544E+02 0.  0.
         12    1    1    2    0    0  0.18879400511E+01 -0.27653309597E+02 -0.33396913526E+02  0.43400733662E+02  0.00000000000E+00 0. -1.
         11    1    3    3    0    0  0.14939153934E+01 -0.12411221210E+01  0.13304983358E+01  0.23542288344E+01  0.51100000000E-03 0. -1.
        -11    1    3    3    0    0  0.52786425312E+01  0.88530633855E+01  0.11428869194E+02  0.15390251771E+02  0.51100000000E-03 0.  1.
        -12    1    3    3    0    0 -0.86604979758E+01  0.20041368333E+02  0.20637545996E+02  0.30042785733E+02  0.00000000000E+00 0.  1.
</event>
<event>
 7    1  0.1265344E-009  0.4778727E+02  0.7816164E-02  0.1312668E+00
        -11   -1    0    0    0    0  0.00000000000E+00  0.00000000000E+00  0.45593999997E+02  0.45594000000E+02  0.51100000000E-03 0.  1.
         11   -1    0    0    0    0 -0.00000000000E+00 -0.00000000000E+00 -0.45593999997E+02  0.45594000000E+02  0.51100000000E-03 0. -1.
    9900012    2    1    2    0    0 -0.30058979998E+02  0.24358017108E+02  0.19666414132E+02  0.47787272809E+02  0.20000008044E+02 0.  0.
         12    1    1    2    0    0  0.30058979998E+02 -0.24358017108E+02 -0.19666414132E+02  0.43400727191E+02  0.00000000000E+00 0. -1.
         11    1    3    3    0    0 -0.50643373500E+01  0.15385112583E+01  0.10485980189E+02  0.11746076386E+02  0.51100000000E-03 0. -1.
        -11    1    3    3    0    0 -0.15594079832E+02  0.10184252768E+02  0.79299070327E+01  0.20242968065E+02  0.51100000000E-03 0.  1.
        -12    1    3    3    0    0 -0.94005628155E+01  0.12635253082E+02  0.12505269100E+01  0.15798228357E+02  0.00000000000E+00 0.  1.
</event>
<event>
 7    1  0.1265344E-009  0.4778727E+02  0.7816164E-02  0.1312668E+00
        -11   -1    0    0    0    0  0.00000000000E+00  0.00000000000E+00  0.45593999997E+02  0.45594000000E+02  0.51100000000E-03 0.  1.
         11   -1    0    0    0    0 -0.00000000000E+00 -0.00000000000E+00 -0.45593999997E+02  0.45594000000E+02  0.51100000000E-03 0. -1.
    9900012    2    1    2    0    0 -0.27166762745E+02  0.41012690723E+01  0.33597171624E+02  0.47787270200E+02  0.19999996150E+02 0.  0.
         12    1    1    2    0    0  0.27166762745E+02 -0.41012690723E+01 -0.33597171624E+02  0.43400729800E+02  0.00000000000E+00 0. -1.
         11    1    3    3    0    0 -0.10579034320E+02  0.24887434113E+01  0.20473267994E+01  0.11058994447E+02  0.51100000000E-03 0. -1.
        -11    1    3    3    0    0  0.17877630746E+00  0.97215420357E+00  0.65226749475E+01  0.65971458598E+01  0.51100000000E-03 0.  1.
        -12    1    3    3    0    0 -0.16766504733E+02  0.64037145740E+00  0.25027169877E+02  0.30131129893E+02  0.00000000000E+00 0.  1.
</event>
<event>
 7    1  0.1265344E-009  0.4778727E+02  0.7816164E-02  0.1312668E+00
        -11   -1    0    0    0    0  0.00000000000E+00  0.00000000000E+00  0.45593999997E+02  0.45594000000E+02  0.51100000000E-03 0.  1.
         11   -1    0    0    0    0 -0.00000000000E+00 -0.00000000000E+00 -0.45593999997E+02  0.45594000000E+02  0.51100000000E-03 0. -1.
    9900012    2    1    2    0    0  0.31462069208E+01 -0.31688893107E+02  0.29487945030E+02  0.47787268826E+02  0.19999989887E+02 0.  0.
         12    1    1    2    0    0 -0.31462069208E+01  0.31688893107E+02 -0.29487945030E+02  0.43400731174E+02  0.00000000000E+00 0. -1.
         11    1    3    3    0    0 -0.43330703717E+01 -0.16792425325E+01  0.41752152442E+01  0.62472215364E+01  0.51100000000E-03 0. -1.
        -11    1    3    3    0    0 -0.32897993329E+00  0.18176693225E+00  0.34133149903E+01  0.34339461991E+01  0.51100000000E-03 0.  1.
        -12    1    3    3    0    0  0.78082572258E+01 -0.30191417507E+02  0.21899414795E+02  0.38106101091E+02  0.00000000000E+00 0.  1.
</event>
<event>
 7    1  0.1265344E-009  0.4778727E+02  0.7816164E-02  0.1312668E+00
        -11   -1    0    0    0    0  0.00000000000E+00  0.00000000000E+00  0.45593999997E+02  0.45594000000E+02  0.51100000000E-03 0. -1.
         11   -1    0    0    0    0 -0.00000000000E+00 -0.00000000000E+00 -0.45593999997E+02  0.45594000000E+02  0.51100000000E-03 0.  1.
    9900012    2    1    2    0    0  0.35081564067E+02  0.19487679331E+02  0.16526867408E+02  0.47787272709E+02  0.20000007589E+02 0.  0.
         12    1    1    2    0    0 -0.35081564067E+02 -0.19487679331E+02 -0.16526867408E+02  0.43400727291E+02  0.00000000000E+00 0. -1.
         11    1    3    3    0    0  0.68874019985E+01  0.10517406389E+02  0.19127193948E+01  0.12716549815E+02  0.51100000000E-03 0. -1.
        -11    1    3    3    0    0  0.20033094394E+02  0.52694508889E+01  0.38576552495E+01  0.21070678393E+02  0.51100000000E-03 0.  1.
         12    1    3    3    0    0  0.81610676743E+01  0.37008220524E+01  0.10756492764E+02  0.14000044501E+02  0.00000000000E+00 0. -1.
</event>
<event>
 7    1  0.1265344E-009  0.4778727E+02  0.7816164E-02  0.1312668E+00
        -11   -1    0    0    0    0  0.00000000000E+00  0.00000000000E+00  0.45593999997E+02  0.45594000000E+02  0.51100000000E-03 0.  1.
         11   -1    0    0    0    0 -0.00000000000E+00 -0.00000000000E+00 -0.45593999997E+02  0.45594000000E+02  0.51100000000E-03 0. -1.
    9900012    2    1    2    0    0 -0.40097000339E+01 -0.15460612250E+01  0.43187444002E+02  0.47787270524E+02  0.19999997625E+02 0.  0.
         12    1    1    2    0    0  0.40097000339E+01  0.15460612250E+01 -0.43187444002E+02  0.43400729476E+02  0.00000000000E+00 0. -1.
         11    1    3    3    0    0 -0.89705661380E+00 -0.43340529642E+01  0.14006422344E+02  0.14689063714E+02  0.51100000000E-03 0. -1.
        -11    1    3    3    0    0 -0.64221373947E+01  0.61640264133E+00  0.28322234113E+02  0.29047766632E+02  0.51100000000E-03 0.  1.
         12    1    3    3    0    0  0.33094939746E+01  0.21715890979E+01  0.85878754518E+00  0.40504401768E+01  0.00000000000E+00 0. -1.
</event>
<event>
 7    1  0.1265344E-009  0.4778727E+02  0.7816164E-02  0.1312668E+00
        -11   -1    0    0    0    0  0.00000000000E+00  0.00000000000E+00  0.45593999997E+02  0.45594000000E+02  0.51100000000E-03 0.  1.
         11   -1    0    0    0    0 -0.00000000000E+00 -0.00000000000E+00 -0.45593999997E+02  0.45594000000E+02  0.51100000000E-03 0. -1.
    9900012    2    1    2    0    0  0.34534727347E+02 -0.20299636400E+02  0.16700321448E+02  0.47787269967E+02  0.19999995087E+02 0.  0.
         12    1    1    2    0    0 -0.34534727347E+02  0.20299636400E+02 -0.16700321448E+02  0.43400730033E+02  0.00000000000E+00 0. -1.
         11    1    3    3    0    0  0.48645165322E+01 -0.10726882503E+02  0.19616378662E+01  0.11940584270E+02  0.51100000000E-03 0. -1.
        -11    1    3    3    0    0  0.23332980955E+02 -0.10890123990E+02  0.92505019940E+01  0.27360456651E+02  0.51100000000E-03 0.  1.
        -12    1    3    3    0    0  0.63372298601E+01  0.13173700936E+01  0.54881815881E+01  0.84862290452E+01  0.00000000000E+00 0.  1.
</event>
<event>
 7    1  0.1265344E-009  0.4778728E+02  0.7816164E-02  0.1312668E+00
        -11   -1    0    0    0    0  0.00000000000E+00  0.00000000000E+00  0.45593999997E+02  0.45594000000E+02  0.51100000000E-03 0.  1.
         11   -1    0    0    0    0 -0.00000000000E+00 -0.00000000000E+00 -0.45593999997E+02  0.45594000000E+02  0.51100000000E-03 0. -1.
    9900012    2    1    2    0    0  0.41501399342E+01  0.18331093599E+02  0.39119944846E+02  0.47787277209E+02  0.20000028107E+02 0.  0.
         12    1    1    2    0    0 -0.41501399342E+01 -0.18331093599E+02 -0.39119944846E+02  0.43400722791E+02  0.00000000000E+00 0. -1.
         11    1    3    3    0    0 -0.40596471695E+01  0.40438776813E+01  0.10032101099E+02  0.11553213171E+02  0.51100000000E-03 0. -1.
        -11    1    3    3    0    0  0.73750023573E+01  0.16228536903E+02  0.29094277298E+02  0.34120859332E+02  0.51100000000E-03 0.  1.
         12    1    3    3    0    0  0.83478474647E+00 -0.19413209853E+01 -0.64335513545E-02  0.21132047065E+01  0.00000000000E+00 0. -1.
</event>
<event>
 7    1  0.1265344E-009  0.4778727E+02  0.7816164E-02  0.1312668E+00
        -11   -1    0    0    0    0  0.00000000000E+00  0.00000000000E+00  0.45593999997E+02  0.45594000000E+02  0.51100000000E-03 0. -1.
         11   -1    0    0    0    0 -0.00000000000E+00 -0.00000000000E+00 -0.45593999997E+02  0.45594000000E+02  0.51100000000E-03 0.  1.
    9900012    2    1    2    0    0 -0.27102131825E+02 -0.15849190644E+02 -0.29964995489E+02  0.47787270189E+02  0.19999996100E+02 0.  0.
         12    1    1    2    0    0  0.27102131825E+02  0.15849190644E+02  0.29964995489E+02  0.43400729811E+02  0.00000000000E+00 0. -1.
         11    1    3    3    0    0 -0.41825584948E+01 -0.43431118084E+01 -0.62124728469E+01  0.86574381244E+01  0.51100000000E-03 0. -1.
        -11    1    3    3    0    0 -0.15161467021E+02 -0.11282823733E+02 -0.24925656946E+02  0.31280354347E+02  0.51100000000E-03 0.  1.
         12    1    3    3    0    0 -0.77581063089E+01 -0.22325510239E+00  0.11731343048E+01  0.78494777175E+01  0.00000000000E+00 0. -1.
</event>
<event>
 7    1  0.1265344E-009  0.4778727E+02  0.7816164E-02  0.1312668E+00
        -11   -1    0    0    0    0  0.00000000000E+00  0.00000000000E+00  0.45593999997E+02  0.45594000000E+02  0.51100000000E-03 0.  1.
         11   -1    0    0    0    0 -0.00000000000E+00 -0.00000000000E+00 -0.45593999997E+02  0.45594000000E+02  0.51100000000E-03 0. -1.
    9900012    2    1    2    0    0  0.15512842262E+02 -0.26645847776E+02  0.30544618711E+02  0.47787271769E+02  0.20000003304E+02 0.  0.
         12    1    1    2    0    0 -0.15512842262E+02  0.26645847776E+02 -0.30544618711E+02  0.43400728231E+02  0.00000000000E+00 0. -1.
         11    1    3    3    0    0  0.94456203619E+00  0.14185296610E+01  0.78035087182E+01  0.79874384139E+01  0.51100000000E-03 0. -1.
        -11    1    3    3    0    0  0.70075938408E+01 -0.15926744065E+02  0.76434650403E+01  0.19005002132E+02  0.51100000000E-03 0.  1.
        -12    1    3    3    0    0  0.75606863849E+01 -0.12137633372E+02  0.15097644953E+02  0.20794831223E+02  0.00000000000E+00 0.  1.
</event>
<event>
 7    1  0.1265344E-009  0.4778727E+02  0.7816164E-02  0.1312668E+00
        -11   -1    0    0    0    0  0.00000000000E+00  0.00000000000E+00  0.45593999997E+02  0.45594000000E+02  0.51100000000E-03 0.  1.
         11   -1    0    0    0    0 -0.00000000000E+00 -0.00000000000E+00 -0.45593999997E+02  0.45594000000E+02  0.51100000000E-03 0. -1.
    9900012    2    1    2    0    0 -0.12691365554E+02 -0.11152761253E+01  0.41488659830E+02  0.47787268498E+02  0.19999988388E+02 0.  0.
         12    1    1    2    0    0  0.12691365554E+02  0.11152761253E+01 -0.41488659830E+02  0.43400731502E+02  0.00000000000E+00 0. -1.
         11    1    3    3    0    0 -0.62686541230E+01  0.31921973285E+01  0.27197194475E+01  0.75420834278E+01  0.51100000000E-03 0. -1.
        -11    1    3    3    0    0 -0.70484748476E+01 -0.84845072702E+00  0.29211474330E+02  0.30061788022E+02  0.51100000000E-03 0.  1.
        -12    1    3    3    0    0  0.62576341660E+00 -0.34590227267E+01  0.95574660527E+01  0.10183397047E+02  0.00000000000E+00 0.  1.
</event>
<event>
 7    1  0.1265344E-009  0.4778727E+02  0.7816164E-02  0.1312668E+00
        -11   -1    0    0    0    0  0.00000000000E+00  0.00000000000E+00  0.45593999997E+02  0.45594000000E+02  0.51100000000E-03 0. -1.
         11   -1    0    0    0    0 -0.00000000000E+00 -0.00000000000E+00 -0.45593999997E+02  0.45594000000E+02  0.51100000000E-03 0.  1.
    9900012    2    1    2    0    0  0.28203723944E+02 -0.32441428688E+02  0.59772052013E+01  0.47787270494E+02  0.19999997492E+02 0.  0.
         12    1    1    2    0    0 -0.28203723944E+02  0.32441428688E+02 -0.59772052013E+01  0.43400729506E+02  0.00000000000E+00 0. -1.
         11    1    3    3    0    0 -0.11475401111E+01 -0.24723413461E+01  0.45568986949E+01  0.53098630881E+01  0.51100000000E-03 0. -1.
        -11    1    3    3    0    0  0.13619890791E+02 -0.96167341949E+01  0.16377619867E+01  0.16753067371E+02  0.51100000000E-03 0.  1.
         12    1    3    3    0    0  0.15731373264E+02 -0.20352353147E+02 -0.21745548019E+00  0.25724340035E+02  0.00000000000E+00 0. -1.
</event>
<event>
 7    1  0.1265344E-009  0.4778727E+02  0.7816164E-02  0.1312668E+00
        -11   -1    0    0    0    0  0.00000000000E+00  0.00000000000E+00  0.45593999997E+02  0.45594000000E+02  0.51100000000E-03 0.  1.
         11   -1    0    0    0    0 -0.00000000000E+00 -0.00000000000E+00 -0.45593999997E+02  0.45594000000E+02  0.51100000000E-03 0. -1.
    9900012    2    1    2    0    0  0.30286115112E+02 -0.26758400928E+02  0.15822853789E+02  0.47787268545E+02  0.19999988603E+02 0.  0.
         12    1    1    2    0    0 -0.30286115112E+02  0.26758400928E+02 -0.15822853789E+02  0.43400731455E+02  0.00000000000E+00 0. -1.
         11    1    3    3    0    0  0.86702392006E+01 -0.51158766154E-01  0.10625435837E-01  0.86703966562E+01  0.51100000000E-03 0. -1.
        -11    1    3    3    0    0  0.34762594171E+01 -0.11243284149E+02  0.34408212693E+01  0.12261120229E+02  0.51100000000E-03 0.  1.
         12    1    3    3    0    0  0.18139616494E+02 -0.15463958013E+02  0.12371407084E+02  0.26855751660E+02  0.00000000000E+00 0. -1.
</event>
<event>
 7    1  0.1265344E-009  0.4778727E+02  0.7816164E-02  0.1312668E+00
        -11   -1    0    0    0    0  0.00000000000E+00  0.00000000000E+00  0.45593999997E+02  0.45594000000E+02  0.51100000000E-03 0.  1.
         11   -1    0    0    0    0 -0.00000000000E+00 -0.00000000000E+00 -0.45593999997E+02  0.45594000000E+02  0.51100000000E-03 0. -1.
    9900012    2    1    2    0    0 -0.22135729058E+02 -0.94080389865E+01  0.36126463611E+02  0.47787273375E+02  0.20000010627E+02 0.  0.
         12    1    1    2    0    0  0.22135729058E+02  0.94080389865E+01 -0.36126463611E+02  0.43400726625E+02  0.00000000000E+00 0. -1.
         11    1    3    3    0    0  0.86544760378E-01  0.99423676888E+00 -0.62322028811E+00  0.11766055145E+01  0.51100000000E-03 0. -1.
        -11    1    3    3    0    0 -0.57662611587E+01  0.14146814369E+01  0.18192634053E+02  0.19136954444E+02  0.51100000000E-03 0.  1.
        -12    1    3    3    0    0 -0.16456012660E+02 -0.11816957192E+02  0.18557049846E+02  0.27473713417E+02  0.00000000000E+00 0.  1.
</event>
<event>
 7    1  0.1265344E-009  0.4778727E+02  0.7816164E-02  0.1312668E+00
        -11   -1    0    0    0    0  0.00000000000E+00  0.00000000000E+00  0.45593999997E+02  0.45594000000E+02  0.51100000000E-03 0. -1.
         11   -1    0    0    0    0 -0.00000000000E+00 -0.00000000000E+00 -0.45593999997E+02  0.45594000000E+02  0.51100000000E-03 0.  1.
    9900012    2    1    2    0    0 -0.36041303960E+02  0.41041570551E+01 -0.23828629493E+02  0.47787270976E+02  0.19999999690E+02 0.  0.
         12    1    1    2    0    0  0.36041303960E+02 -0.41041570551E+01  0.23828629493E+02  0.43400729024E+02  0.00000000000E+00 0. -1.
         11    1    3    3    0    0 -0.30992366552E+02  0.55435761492E+01 -0.21573267567E+02  0.38166266451E+02  0.51100000000E-03 0.  1.
        -11    1    3    3    0    0 -0.64071398491E+01 -0.17782200143E+01  0.35521745317E+00  0.66588052356E+01  0.51100000000E-03 0. -1.
        -12    1    3    3    0    0  0.13582024417E+01  0.33880092022E+00 -0.26105793790E+01  0.29621992894E+01  0.00000000000E+00 0.  1.
</event>
<event>
 7    1  0.1265344E-009  0.4778726E+02  0.7816164E-02  0.1312668E+00
        -11   -1    0    0    0    0  0.00000000000E+00  0.00000000000E+00  0.45593999997E+02  0.45594000000E+02  0.51100000000E-03 0.  1.
         11   -1    0    0    0    0 -0.00000000000E+00 -0.00000000000E+00 -0.45593999997E+02  0.45594000000E+02  0.51100000000E-03 0. -1.
    9900012    2    1    2    0    0  0.44274435231E+01 -0.38909030169E+02  0.18711214854E+02  0.47787257539E+02  0.19999938423E+02 0.  0.
         12    1    1    2    0    0 -0.44274435231E+01  0.38909030169E+02 -0.18711214854E+02  0.43400742461E+02  0.00000000000E+00 0. -1.
         11    1    3    3    0    0  0.55551879379E+01 -0.50403004307E+01  0.30405137288E+01  0.80937917847E+01  0.51100000000E-03 0. -1.
        -11    1    3    3    0    0 -0.62862947529E+01 -0.99679542387E+01  0.30291276475E+01  0.12167712521E+02  0.51100000000E-03 0.  1.
         12    1    3    3    0    0  0.51585503381E+01 -0.23900775500E+02  0.12641573477E+02  0.27525753233E+02  0.00000000000E+00 0. -1.
</event>
<event>
 7    1  0.1265344E-009  0.4778727E+02  0.7816164E-02  0.1312668E+00
        -11   -1    0    0    0    0  0.00000000000E+00  0.00000000000E+00  0.45593999997E+02  0.45594000000E+02  0.51100000000E-03 0.  1.
         11   -1    0    0    0    0 -0.00000000000E+00 -0.00000000000E+00 -0.45593999997E+02  0.45594000000E+02  0.51100000000E-03 0. -1.
    9900012    2    1    2    0    0  0.14591585771E+02  0.23357236156E+02  0.33543233032E+02  0.47787270301E+02  0.19999996608E+02 0.  0.
         12    1    1    2    0    0 -0.14591585771E+02 -0.23357236156E+02 -0.33543233032E+02  0.43400729699E+02  0.00000000000E+00 0. -1.
         11    1    3    3    0    0 -0.10428830218E+00 -0.12027605024E+01  0.43148154613E+01  0.44805291655E+01  0.51100000000E-03 0. -1.
        -11    1    3    3    0    0  0.48457314110E+01  0.10755032156E+02  0.31681416503E+01  0.12214292913E+02  0.51100000000E-03 0.  1.
         12    1    3    3    0    0  0.98501426622E+01  0.13804964503E+02  0.26060275921E+02  0.31092448222E+02  0.00000000000E+00 0. -1.
</event>
<event>
 7    1  0.1265344E-009  0.4778727E+02  0.7816164E-02  0.1312668E+00
        -11   -1    0    0    0    0  0.00000000000E+00  0.00000000000E+00  0.45593999997E+02  0.45594000000E+02  0.51100000000E-03 0.  1.
         11   -1    0    0    0    0 -0.00000000000E+00 -0.00000000000E+00 -0.45593999997E+02  0.45594000000E+02  0.51100000000E-03 0. -1.
    9900012    2    1    2    0    0  0.33133830773E+02 -0.62605115161E+01  0.27323586371E+02  0.47787272837E+02  0.20000008173E+02 0.  0.
         12    1    1    2    0    0 -0.33133830773E+02  0.62605115161E+01 -0.27323586371E+02  0.43400727163E+02  0.00000000000E+00 0. -1.
         11    1    3    3    0    0 -0.68922569870E+00 -0.11360894911E+01 -0.15000017726E+01  0.20039303817E+01  0.51100000000E-03 0. -1.
        -11    1    3    3    0    0  0.16744767530E+02  0.19388828140E+01  0.16372816970E+02  0.23499268967E+02  0.51100000000E-03 0.  1.
        -12    1    3    3    0    0  0.17078288942E+02 -0.70633048390E+01  0.12450771173E+02  0.22284073488E+02  0.00000000000E+00 0.  1.
</event>
<event>
 7    1  0.1265344E-009  0.4778729E+02  0.7816164E-02  0.1312668E+00
        -11   -1    0    0    0    0  0.00000000000E+00  0.00000000000E+00  0.45593999997E+02  0.45594000000E+02  0.51100000000E-03 0. -1.
         11   -1    0    0    0    0 -0.00000000000E+00 -0.00000000000E+00 -0.45593999997E+02  0.45594000000E+02  0.51100000000E-03 0.  1.
    9900012    2    1    2    0    0 -0.12682899900E+02 -0.32067925389E+02 -0.26351731586E+02  0.47787290948E+02  0.20000090749E+02 0.  0.
         12    1    1    2    0    0  0.12682899900E+02  0.32067925389E+02  0.26351731586E+02  0.43400709052E+02  0.00000000000E+00 0. -1.
         11    1    3    3    0    0 -0.77269070669E+00 -0.11105385996E+02 -0.74081745142E+01  0.13371899601E+02  0.51100000000E-03 0. -1.
        -11    1    3    3    0    0  0.18344629638E+01 -0.12343949268E+02 -0.90149161315E+01  0.15395033323E+02  0.51100000000E-03 0.  1.
        -12    1    3    3    0    0 -0.13744672157E+02 -0.86185901253E+01 -0.99286409406E+01  0.19020358024E+02  0.00000000000E+00 0.  1.
</event>
<event>
 7    1  0.1265344E-009  0.4778726E+02  0.7816164E-02  0.1312668E+00
        -11   -1    0    0    0    0  0.00000000000E+00  0.00000000000E+00  0.45593999997E+02  0.45594000000E+02  0.51100000000E-03 0.  1.
         11   -1    0    0    0    0 -0.00000000000E+00 -0.00000000000E+00 -0.45593999997E+02  0.45594000000E+02  0.51100000000E-03 0. -1.
    9900012    2    1    2    0    0  0.32629717873E+02 -0.28375473958E+02  0.37091909283E+01  0.47787261433E+02  0.19999956177E+02 0.  0.
         12    1    1    2    0    0 -0.32629717873E+02  0.28375473958E+02 -0.37091909283E+01  0.43400738567E+02  0.00000000000E+00 0. -1.
         11    1    3    3    0    0  0.22536015473E+01 -0.20780033383E-01 -0.45133170802E+01  0.50447183342E+01  0.51100000000E-03 0. -1.
        -11    1    3    3    0    0  0.80137061573E+01 -0.91099277215E+01  0.47741442804E+01  0.13038509245E+02  0.51100000000E-03 0.  1.
         12    1    3    3    0    0  0.22362410169E+02 -0.19244766203E+02  0.34483637281E+01  0.29704033853E+02  0.00000000000E+00 0. -1.
</event>
<event>
 7    1  0.1265344E-009  0.4778729E+02  0.7816164E-02  0.1312668E+00
        -11   -1    0    0    0    0  0.00000000000E+00  0.00000000000E+00  0.45593999997E+02  0.45594000000E+02  0.51100000000E-03 0.  1.
         11   -1    0    0    0    0 -0.00000000000E+00 -0.00000000000E+00 -0.45593999997E+02  0.45594000000E+02  0.51100000000E-03 0. -1.
    9900012    2    1    2    0    0  0.73072827977E+00  0.39466893444E+02  0.18040287146E+02  0.47787290303E+02  0.20000087806E+02 0.  0.
         12    1    1    2    0    0 -0.73072827977E+00 -0.39466893444E+02 -0.18040287146E+02  0.43400709697E+02  0.00000000000E+00 0. -1.
         11    1    3    3    0    0  0.41263570462E+00 -0.58281650165E+00  0.29940620458E+01  0.30780433874E+01  0.51100000000E-03 0. -1.
        -11    1    3    3    0    0  0.38031182241E+01  0.16355716887E+02  0.73079432484E+00  0.16807951800E+02  0.51100000000E-03 0.  1.
        -12    1    3    3    0    0 -0.34850256489E+01  0.23693993058E+02  0.14315430775E+02  0.27901295115E+02  0.00000000000E+00 0.  1.
</event>
<event>
 7    1  0.1265344E-009  0.4778727E+02  0.7816164E-02  0.1312668E+00
        -11   -1    0    0    0    0  0.00000000000E+00  0.00000000000E+00  0.45593999997E+02  0.45594000000E+02  0.51100000000E-03 0. -1.
         11   -1    0    0    0    0 -0.00000000000E+00 -0.00000000000E+00 -0.45593999997E+02  0.45594000000E+02  0.51100000000E-03 0.  1.
    9900012    2    1    2    0    0 -0.41296137553E+02  0.66503897234E+01 -0.11576891605E+02  0.47787273284E+02  0.20000010209E+02 0.  0.
         12    1    1    2    0    0  0.41296137553E+02 -0.66503897234E+01  0.11576891605E+02  0.43400726716E+02  0.00000000000E+00 0. -1.
         11    1    3    3    0    0 -0.22804534840E+00  0.40964043970E+01 -0.74708929215E+00  0.41702129845E+01  0.51100000000E-03 0. -1.
        -11    1    3    3    0    0 -0.12165865359E+02 -0.36253938355E+01 -0.34052204399E+01  0.13143336216E+02  0.51100000000E-03 0.  1.
         12    1    3    3    0    0 -0.28902226846E+02  0.61793791620E+01 -0.74245818729E+01  0.30473724083E+02  0.00000000000E+00 0. -1.
</event>
<event>
 7    1  0.1265344E-009  0.4778727E+02  0.7816164E-02  0.1312668E+00
        -11   -1    0    0    0    0  0.00000000000E+00  0.00000000000E+00  0.45593999997E+02  0.45594000000E+02  0.51100000000E-03 0.  1.
         11   -1    0    0    0    0 -0.00000000000E+00 -0.00000000000E+00 -0.45593999997E+02  0.45594000000E+02  0.51100000000E-03 0. -1.
    9900012    2    1    2    0    0  0.17099689124E+02 -0.11057172758E+02  0.38327049748E+02  0.47787272127E+02  0.20000004938E+02 0.  0.
         12    1    1    2    0    0 -0.17099689124E+02  0.11057172758E+02 -0.38327049748E+02  0.43400727873E+02  0.00000000000E+00 0. -1.
         11    1    3    3    0    0  0.41144211338E+01 -0.73195079238E+01  0.30834473711E+02  0.31957290667E+02  0.51100000000E-03 0. -1.
        -11    1    3    3    0    0  0.54806803737E+01  0.89097251872E-02  0.37766446657E+01  0.66558982815E+01  0.51100000000E-03 0.  1.
         12    1    3    3    0    0  0.75045876160E+01 -0.37465745590E+01  0.37159313710E+01  0.91740831786E+01  0.00000000000E+00 0. -1.
</event>
<event>
 7    1  0.1265344E-009  0.4778728E+02  0.7816164E-02  0.1312668E+00
        -11   -1    0    0    0    0  0.00000000000E+00  0.00000000000E+00  0.45593999997E+02  0.45594000000E+02  0.51100000000E-03 0.  1.
         11   -1    0    0    0    0 -0.00000000000E+00 -0.00000000000E+00 -0.45593999997E+02  0.45594000000E+02  0.51100000000E-03 0. -1.
    9900012    2    1    2    0    0  0.25302741294E+02  0.34482134012E+02 -0.73740355890E+01  0.47787277841E+02  0.20000030990E+02 0.  0.
         12    1    1    2    0    0 -0.25302741294E+02 -0.34482134012E+02  0.73740355890E+01  0.43400722159E+02  0.00000000000E+00 0. -1.
         11    1    3    3    0    0 -0.10970039571E+01  0.24697207519E+01  0.10031719934E+01  0.28825843584E+01  0.51100000000E-03 0. -1.
        -11    1    3    3    0    0  0.61887744388E+01  0.16346587121E+02  0.13837430971E+01  0.17533584482E+02  0.51100000000E-03 0.  1.
         12    1    3    3    0    0  0.20210970812E+02  0.15665826139E+02 -0.97609506795E+01  0.27371109001E+02  0.00000000000E+00 0. -1.
</event>
<event>
 7    1  0.1265344E-009  0.4778727E+02  0.7816164E-02  0.1312668E+00
        -11   -1    0    0    0    0  0.00000000000E+00  0.00000000000E+00  0.45593999997E+02  0.45594000000E+02  0.51100000000E-03 0.  1.
         11   -1    0    0    0    0 -0.00000000000E+00 -0.00000000000E+00 -0.45593999997E+02  0.45594000000E+02  0.51100000000E-03 0. -1.
    9900012    2    1    2    0    0  0.22547908016E+02 -0.91221975411E+01  0.35944410211E+02  0.47787271097E+02  0.20000000239E+02 0.  0.
         12    1    1    2    0    0 -0.22547908016E+02  0.91221975411E+01 -0.35944410211E+02  0.43400728903E+02  0.00000000000E+00 0. -1.
         11    1    3    3    0    0 -0.14093632594E+01 -0.26338590539E+01  0.37377021533E+01  0.47847608049E+01  0.51100000000E-03 0. -1.
        -11    1    3    3    0    0  0.18905226790E+02 -0.89979109387E+01  0.30706703475E+02  0.37165462997E+02  0.51100000000E-03 0.  1.
         12    1    3    3    0    0  0.50520444854E+01  0.25095724515E+01  0.15000045833E+01  0.58370472949E+01  0.00000000000E+00 0. -1.
</event>
<event>
 7    1  0.1265344E-009  0.4778726E+02  0.7816164E-02  0.1312668E+00
        -11   -1    0    0    0    0  0.00000000000E+00  0.00000000000E+00  0.45593999997E+02  0.45594000000E+02  0.51100000000E-03 0. -1.
         11   -1    0    0    0    0 -0.00000000000E+00 -0.00000000000E+00 -0.45593999997E+02  0.45594000000E+02  0.51100000000E-03 0.  1.
    9900012    2    1    2    0    0  0.30274271552E+02  0.29482433696E+02 -0.98933666668E+01  0.47787261312E+02  0.19999955627E+02 0.  0.
         12    1    1    2    0    0 -0.30274271552E+02 -0.29482433696E+02  0.98933666668E+01  0.43400738688E+02  0.00000000000E+00 0. -1.
         11    1    3    3    0    0  0.26985559694E+02  0.32427183234E+02 -0.78420710713E+01  0.42909680999E+02  0.51100000000E-03 0.  1.
        -11    1    3    3    0    0  0.11311087226E+01 -0.12111942050E+01 -0.79506386329E+00  0.18380764816E+01  0.51100000000E-03 0. -1.
        -12    1    3    3    0    0  0.21576031349E+01 -0.17335553326E+01 -0.12562317323E+01  0.30395038319E+01  0.00000000000E+00 0.  1.
</event>
<event>
 7    1  0.1265344E-009  0.4778721E+02  0.7816164E-02  0.1312668E+00
        -11   -1    0    0    0    0  0.00000000000E+00  0.00000000000E+00  0.45593999997E+02  0.45594000000E+02  0.51100000000E-03 0. -1.
         11   -1    0    0    0    0 -0.00000000000E+00 -0.00000000000E+00 -0.45593999997E+02  0.45594000000E+02  0.51100000000E-03 0.  1.
    9900012    2    1    2    0    0  0.41131033860E+02  0.12719620282E+02 -0.54843039697E+01  0.47787213411E+02  0.19999737224E+02 0.  0.
         12    1    1    2    0    0 -0.41131033860E+02 -0.12719620282E+02  0.54843039697E+01  0.43400786589E+02  0.00000000000E+00 0. -1.
         11    1    3    3    0    0  0.31364777407E+00 -0.55254779739E+00 -0.18256524863E+01  0.19330523160E+01  0.51100000000E-03 0. -1.
        -11    1    3    3    0    0  0.25994526938E+02  0.88164972237E+01  0.53209316685E+01  0.27959942205E+02  0.51100000000E-03 0.  1.
        -12    1    3    3    0    0  0.14822859148E+02  0.44556708557E+01 -0.89795831519E+01  0.17894218890E+02  0.00000000000E+00 0.  1.
</event>
<event>
 7    1  0.1265344E-009  0.4778727E+02  0.7816164E-02  0.1312668E+00
        -11   -1    0    0    0    0  0.00000000000E+00  0.00000000000E+00  0.45593999997E+02  0.45594000000E+02  0.51100000000E-03 0.  1.
         11   -1    0    0    0    0 -0.00000000000E+00 -0.00000000000E+00 -0.45593999997E+02  0.45594000000E+02  0.51100000000E-03 0. -1.
    9900012    2    1    2    0    0  0.15139601118E+02 -0.20023351690E+02  0.35404540155E+02  0.47787267305E+02  0.19999982951E+02 0.  0.
         12    1    1    2    0    0 -0.15139601118E+02  0.20023351690E+02 -0.35404540155E+02  0.43400732695E+02  0.00000000000E+00 0. -1.
         11    1    3    3    0    0  0.22937638505E+00 -0.15335018906E+02  0.22235423752E+02  0.27011654671E+02  0.51100000000E-03 0. -1.
        -11    1    3    3    0    0  0.39634863675E+01 -0.21577702759E+00  0.17537756376E+01  0.43395291402E+01  0.51100000000E-03 0.  1.
        -12    1    3    3    0    0  0.10946738365E+02 -0.44725557558E+01  0.11415340765E+02  0.16436083494E+02  0.00000000000E+00 0.  1.
</event>
<event>
 7    1  0.1265344E-009  0.4778727E+02  0.7816164E-02  0.1312668E+00
        -11   -1    0    0    0    0  0.00000000000E+00  0.00000000000E+00  0.45593999997E+02  0.45594000000E+02  0.51100000000E-03 0.  1.
         11   -1    0    0    0    0 -0.00000000000E+00 -0.00000000000E+00 -0.45593999997E+02  0.45594000000E+02  0.51100000000E-03 0. -1.
    9900012    2    1    2    0    0  0.18215684185E+02  0.14423416043E+02  0.36657566009E+02  0.47787271591E+02  0.20000002493E+02 0.  0.
         12    1    1    2    0    0 -0.18215684185E+02 -0.14423416043E+02 -0.36657566009E+02  0.43400728409E+02  0.00000000000E+00 0. -1.
         11    1    3    3    0    0  0.12218949106E+02  0.59747760429E+01  0.14041606608E+02  0.19549101832E+02  0.51100000000E-03 0.  1.
        -11    1    3    3    0    0 -0.14802373105E+01 -0.29346571407E+01  0.46040473454E+01  0.56569043874E+01  0.51100000000E-03 0. -1.
         12    1    3    3    0    0  0.74769723894E+01  0.11383297141E+02  0.18011912056E+02  0.22581265372E+02  0.00000000000E+00 0. -1.
</event>
<event>
 7    1  0.1265344E-009  0.4778726E+02  0.7816164E-02  0.1312668E+00
        -11   -1    0    0    0    0  0.00000000000E+00  0.00000000000E+00  0.45593999997E+02  0.45594000000E+02  0.51100000000E-03 0.  1.
         11   -1    0    0    0    0 -0.00000000000E+00 -0.00000000000E+00 -0.45593999997E+02  0.45594000000E+02  0.51100000000E-03 0. -1.
    9900012    2    1    2    0    0 -0.24551409902E+00  0.72263282152E+01  0.42794208282E+02  0.47787258541E+02  0.19999942993E+02 0.  0.
         12    1    1    2    0    0  0.24551409902E+00 -0.72263282152E+01 -0.42794208282E+02  0.43400741459E+02  0.00000000000E+00 0. -1.
         11    1    3    3    0    0 -0.18156901372E+01 -0.78304507597E+00  0.25101349874E+02  0.25179111502E+02  0.51100000000E-03 0.  1.
        -11    1    3    3    0    0  0.30485818307E+01  0.87262784220E+01  0.18571657697E+02  0.20744836855E+02  0.51100000000E-03 0. -1.
        -12    1    3    3    0    0 -0.14784057925E+01 -0.71690513080E+00 -0.87879928847E+00  0.18633101844E+01  0.00000000000E+00 0.  1.
</event>
<event>
 7    1  0.1265344E-009  0.4778729E+02  0.7816164E-02  0.1312668E+00
        -11   -1    0    0    0    0  0.00000000000E+00  0.00000000000E+00  0.45593999997E+02  0.45594000000E+02  0.51100000000E-03 0.  1.
         11   -1    0    0    0    0 -0.00000000000E+00 -0.00000000000E+00 -0.45593999997E+02  0.45594000000E+02  0.51100000000E-03 0. -1.
    9900012    2    1    2    0    0 -0.19473429576E+02  0.19940541020E+02  0.33268338775E+02  0.47787285715E+02  0.20000066888E+02 0.  0.
         12    1    1    2    0    0  0.19473429576E+02 -0.19940541020E+02 -0.33268338775E+02  0.43400714285E+02  0.00000000000E+00 0. -1.
         11    1    3    3    0    0 -0.87779649560E+01  0.27703370908E+01  0.34678414506E+01  0.98363286318E+01  0.51100000000E-03 0. -1.
        -11    1    3    3    0    0 -0.10284757241E+02  0.16718102302E+02  0.19622076962E+02  0.27754226357E+02  0.51100000000E-03 0.  1.
         12    1    3    3    0    0 -0.41070737877E+00  0.45210162702E+00  0.10178420362E+02  0.10196730726E+02  0.00000000000E+00 0. -1.
</event>
<event>
 7    1  0.1265344E-009  0.4778727E+02  0.7816164E-02  0.1312668E+00
        -11   -1    0    0    0    0  0.00000000000E+00  0.00000000000E+00  0.45593999997E+02  0.45594000000E+02  0.51100000000E-03 0.  1.
         11   -1    0    0    0    0 -0.00000000000E+00 -0.00000000000E+00 -0.45593999997E+02  0.45594000000E+02  0.51100000000E-03 0. -1.
    9900012    2    1    2    0    0  0.12144335311E+02  0.39012841681E+02  0.14633402086E+02  0.47787272440E+02  0.20000006362E+02 0.  0.
         12    1    1    2    0    0 -0.12144335311E+02 -0.39012841681E+02 -0.14633402086E+02  0.43400727560E+02  0.00000000000E+00 0. -1.
         11    1    3    3    0    0  0.43129895684E+01  0.19553283346E+02  0.80363757160E+01  0.21575822199E+02  0.51100000000E-03 0. -1.
        -11    1    3    3    0    0  0.33877956085E+01  0.19426786474E+02  0.20054030137E+01  0.19821675845E+02  0.51100000000E-03 0.  1.
         12    1    3    3    0    0  0.44435501336E+01  0.32771859902E-01  0.45916233561E+01  0.63897743958E+01  0.00000000000E+00 0. -1.
</event>
<event>
 7    1  0.1265344E-009  0.4778726E+02  0.7816164E-02  0.1312668E+00
        -11   -1    0    0    0    0  0.00000000000E+00  0.00000000000E+00  0.45593999997E+02  0.45594000000E+02  0.51100000000E-03 0.  1.
         11   -1    0    0    0    0 -0.00000000000E+00 -0.00000000000E+00 -0.45593999997E+02  0.45594000000E+02  0.51100000000E-03 0. -1.
    9900012    2    1    2    0    0 -0.39472132362E+02 -0.11490346672E+02  0.13912106142E+02  0.47787262712E+02  0.19999962008E+02 0.  0.
         12    1    1    2    0    0  0.39472132362E+02  0.11490346672E+02 -0.13912106142E+02  0.43400737288E+02  0.00000000000E+00 0. -1.
         11    1    3    3    0    0 -0.13234750137E+02  0.32605052959E+01  0.81675430379E+01  0.15890194005E+02  0.51100000000E-03 0. -1.
        -11    1    3    3    0    0 -0.18280760161E+02 -0.81036757012E+01  0.75479602879E+01  0.21373522328E+02  0.51100000000E-03 0.  1.
        -12    1    3    3    0    0 -0.79566220648E+01 -0.66471762667E+01 -0.18033971840E+01  0.10523546380E+02  0.00000000000E+00 0.  1.
</event>
<event>
 7    1  0.1265344E-009  0.4778727E+02  0.7816164E-02  0.1312668E+00
        -11   -1    0    0    0    0  0.00000000000E+00  0.00000000000E+00  0.45593999997E+02  0.45594000000E+02  0.51100000000E-03 0. -1.
         11   -1    0    0    0    0 -0.00000000000E+00 -0.00000000000E+00 -0.45593999997E+02  0.45594000000E+02  0.51100000000E-03 0.  1.
    9900012    2    1    2    0    0 -0.17399772128E+02 -0.29212753068E+02 -0.26971951799E+02  0.47787271944E+02  0.20000004102E+02 0.  0.
         12    1    1    2    0    0  0.17399772128E+02  0.29212753068E+02  0.26971951799E+02  0.43400728056E+02  0.00000000000E+00 0. -1.
         11    1    3    3    0    0 -0.11021058250E+00 -0.11534595134E+02 -0.11918396909E+01  0.11596530230E+02  0.51100000000E-03 0. -1.
        -11    1    3    3    0    0 -0.34253219523E+01 -0.69554277970E+01 -0.95739494268E+01  0.12319550081E+02  0.51100000000E-03 0.  1.
        -12    1    3    3    0    0 -0.13864239593E+02 -0.10722730138E+02 -0.16206162681E+02  0.23871191632E+02  0.00000000000E+00 0.  1.
</event>
<event>
 7    1  0.1450130E-009  0.4778727E+02  0.7816164E-02  0.1312668E+00
        -11   -1    0    0    0    0  0.00000000000E+00  0.00000000000E+00  0.45593999997E+02  0.45594000000E+02  0.51100000000E-03 0. -1.
         11   -1    0    0    0    0 -0.00000000000E+00 -0.00000000000E+00 -0.45593999997E+02  0.45594000000E+02  0.51100000000E-03 0.  1.
    9900012    2    1    2    0    0 -0.11324038297E+02 -0.38414979485E+02 -0.16723599674E+02  0.47787270995E+02  0.19999999774E+02 0.  0.
         12    1    1    2    0    0  0.11324038297E+02  0.38414979485E+02  0.16723599674E+02  0.43400729005E+02  0.00000000000E+00 0. -1.
         11    1    3    3    0    0  0.41319896437E+01 -0.71313111526E+01 -0.49266113803E+00  0.82566126486E+01  0.51100000000E-03 0. -1.
        -11    1    3    3    0    0 -0.87126007410E+01 -0.80914961840E+01 -0.51706003346E+01  0.12965987438E+02  0.51100000000E-03 0.  1.
        -12    1    3    3    0    0 -0.67434271993E+01 -0.23192172148E+02 -0.11060338201E+02  0.26564670908E+02  0.00000000000E+00 0.  1.
</event>
<event>
 7    1  0.1265344E-009  0.4778727E+02  0.7816164E-02  0.1312668E+00
        -11   -1    0    0    0    0  0.00000000000E+00  0.00000000000E+00  0.45593999997E+02  0.45594000000E+02  0.51100000000E-03 0.  1.
         11   -1    0    0    0    0 -0.00000000000E+00 -0.00000000000E+00 -0.45593999997E+02  0.45594000000E+02  0.51100000000E-03 0. -1.
    9900012    2    1    2    0    0 -0.94624256789E+01  0.32148672151E+02  0.27578046771E+02  0.47787270922E+02  0.19999999443E+02 0.  0.
         12    1    1    2    0    0  0.94624256789E+01 -0.32148672151E+02 -0.27578046771E+02  0.43400729078E+02  0.00000000000E+00 0. -1.
         11    1    3    3    0    0 -0.65524877038E+01  0.10704926477E+02  0.51044230567E+01  0.13549379358E+02  0.51100000000E-03 0. -1.
        -11    1    3    3    0    0 -0.29083083593E+01  0.20774926884E+02  0.24412231873E+02  0.32187154423E+02  0.51100000000E-03 0.  1.
         12    1    3    3    0    0 -0.16296157504E-02  0.66881878956E+00 -0.19386081588E+01  0.20507371412E+01  0.00000000000E+00 0. -1.
</event>
<event>
 7    1  0.1265344E-009  0.4778727E+02  0.7816164E-02  0.1312668E+00
        -11   -1    0    0    0    0  0.00000000000E+00  0.00000000000E+00  0.45593999997E+02  0.45594000000E+02  0.51100000000E-03 0.  1.
         11   -1    0    0    0    0 -0.00000000000E+00 -0.00000000000E+00 -0.45593999997E+02  0.45594000000E+02  0.51100000000E-03 0. -1.
    9900012    2    1    2    0    0 -0.19928642999E+02  0.48099413632E+01  0.38253586950E+02  0.47787271178E+02  0.20000000610E+02 0.  0.
         12    1    1    2    0    0  0.19928642999E+02 -0.48099413632E+01 -0.38253586950E+02  0.43400728822E+02  0.00000000000E+00 0. -1.
         11    1    3    3    0    0 -0.47684529207E+01  0.19321185523E+01  0.78540493771E+01  0.93892128124E+01  0.51100000000E-03 0. -1.
        -11    1    3    3    0    0 -0.72798629902E+01 -0.35489640640E+00  0.28829988807E+02  0.29737024254E+02  0.51100000000E-03 0.  1.
         12    1    3    3    0    0 -0.78803270886E+01  0.32327192173E+01  0.15695487663E+01  0.86610341121E+01  0.00000000000E+00 0. -1.
</event>
<event>
 7    1  0.1265344E-009  0.4778728E+02  0.7816164E-02  0.1312668E+00
        -11   -1    0    0    0    0  0.00000000000E+00  0.00000000000E+00  0.45593999997E+02  0.45594000000E+02  0.51100000000E-03 0. -1.
         11   -1    0    0    0    0 -0.00000000000E+00 -0.00000000000E+00 -0.45593999997E+02  0.45594000000E+02  0.51100000000E-03 0.  1.
    9900012    2    1    2    0    0  0.39696526164E+02 -0.98423699005E+01  0.14523651740E+02  0.47787275414E+02  0.20000019922E+02 0.  0.
         12    1    1    2    0    0 -0.39696526164E+02  0.98423699005E+01 -0.14523651740E+02  0.43400724586E+02  0.00000000000E+00 0. -1.
         11    1    3    3    0    0  0.21109288673E+02 -0.22554177156E+00  0.53944025044E+01  0.21788816306E+02  0.51100000000E-03 0. -1.
        -11    1    3    3    0    0  0.18502860260E+02 -0.11526413700E+02  0.98941078160E+01  0.23939662076E+02  0.51100000000E-03 0.  1.
         12    1    3    3    0    0  0.84377230449E-01  0.19095855706E+01 -0.76485858045E+00  0.20587970315E+01  0.00000000000E+00 0. -1.
</event>
<event>
 7    1  0.1265344E-009  0.4778727E+02  0.7816164E-02  0.1312668E+00
        -11   -1    0    0    0    0  0.00000000000E+00  0.00000000000E+00  0.45593999997E+02  0.45594000000E+02  0.51100000000E-03 0.  1.
         11   -1    0    0    0    0 -0.00000000000E+00 -0.00000000000E+00 -0.45593999997E+02  0.45594000000E+02  0.51100000000E-03 0. -1.
    9900012    2    1    2    0    0  0.16002241604E+02  0.38234681291E+02 -0.12870932534E+02  0.47787268507E+02  0.19999988433E+02 0.  0.
         12    1    1    2    0    0 -0.16002241604E+02 -0.38234681291E+02  0.12870932534E+02  0.43400731493E+02  0.00000000000E+00 0. -1.
         11    1    3    3    0    0 -0.18579126408E+01  0.17206375214E+02 -0.81360447537E+01  0.19123451882E+02  0.51100000000E-03 0. -1.
        -11    1    3    3    0    0  0.10397936833E+02  0.15967497446E+02 -0.47889822696E+01  0.19647198694E+02  0.51100000000E-03 0.  1.
         12    1    3    3    0    0  0.74622174119E+01  0.50608086305E+01  0.54094489645E-01  0.90166179308E+01  0.00000000000E+00 0. -1.
</event>
<event>
 7    1  0.1265344E-009  0.4778727E+02  0.7816164E-02  0.1312668E+00
        -11   -1    0    0    0    0  0.00000000000E+00  0.00000000000E+00  0.45593999997E+02  0.45594000000E+02  0.51100000000E-03 0.  1.
         11   -1    0    0    0    0 -0.00000000000E+00 -0.00000000000E+00 -0.45593999997E+02  0.45594000000E+02  0.51100000000E-03 0. -1.
    9900012    2    1    2    0    0  0.25002111542E+02 -0.35152075756E+02  0.47800698472E+01  0.47787273286E+02  0.20000010221E+02 0.  0.
         12    1    1    2    0    0 -0.25002111542E+02  0.35152075756E+02 -0.47800698472E+01  0.43400726714E+02  0.00000000000E+00 0. -1.
         11    1    3    3    0    0  0.82424295821E+00 -0.16485362273E+01 -0.14031213929E+01  0.23164192305E+01  0.51100000000E-03 0. -1.
        -11    1    3    3    0    0  0.54120571245E+01 -0.18317777126E+02 -0.35758272733E+01  0.19432392084E+02  0.51100000000E-03 0.  1.
        -12    1    3    3    0    0  0.18765811460E+02 -0.15185762403E+02  0.97590185134E+01  0.26038461971E+02  0.00000000000E+00 0.  1.
</event>
<event>
 7    1  0.1265344E-009  0.4778727E+02  0.7816164E-02  0.1312668E+00
        -11   -1    0    0    0    0  0.00000000000E+00  0.00000000000E+00  0.45593999997E+02  0.45594000000E+02  0.51100000000E-03 0.  1.
         11   -1    0    0    0    0 -0.00000000000E+00 -0.00000000000E+00 -0.45593999997E+02  0.45594000000E+02  0.51100000000E-03 0. -1.
    9900012    2    1    2    0    0 -0.13845951780E+02 -0.18599338948E+02  0.36687564267E+02  0.47787272335E+02  0.20000005885E+02 0.  0.
         12    1    1    2    0    0  0.13845951780E+02  0.18599338948E+02 -0.36687564267E+02  0.43400727665E+02  0.00000000000E+00 0. -1.
         11    1    3    3    0    0 -0.19022966060E+01 -0.34358190760E+01  0.16381951616E+02  0.16846124899E+02  0.51100000000E-03 0. -1.
        -11    1    3    3    0    0 -0.14160643855E+02 -0.15327231984E+02  0.19546199654E+02  0.28591988316E+02  0.51100000000E-03 0.  1.
         12    1    3    3    0    0  0.22169886816E+01  0.16371211250E+00  0.75941299692E+00  0.23491591198E+01  0.00000000000E+00 0. -1.
</event>
<event>
 7    1  0.1265344E-009  0.4778728E+02  0.7816164E-02  0.1312668E+00
        -11   -1    0    0    0    0  0.00000000000E+00  0.00000000000E+00  0.45593999997E+02  0.45594000000E+02  0.51100000000E-03 0.  1.
         11   -1    0    0    0    0 -0.00000000000E+00 -0.00000000000E+00 -0.45593999997E+02  0.45594000000E+02  0.51100000000E-03 0. -1.
    9900012    2    1    2    0    0 -0.46607000354E+01  0.19526285934E+02  0.38478885111E+02  0.47787279193E+02  0.20000037151E+02 0.  0.
         12    1    1    2    0    0  0.46607000354E+01 -0.19526285934E+02 -0.38478885111E+02  0.43400720807E+02  0.00000000000E+00 0. -1.
         11    1    3    3    0    0 -0.10393491779E+02  0.14095032919E+02  0.18262196070E+02  0.25302221837E+02  0.51100000000E-03 0. -1.
        -11    1    3    3    0    0  0.29098181162E+01  0.62564596757E+01  0.14044693461E+02  0.15648122693E+02  0.51100000000E-03 0.  1.
        -12    1    3    3    0    0  0.28229736275E+01 -0.82520666050E+00  0.61719955802E+01  0.68369346623E+01  0.00000000000E+00 0.  1.
</event>
<event>
 7    1  0.1265344E-009  0.4778728E+02  0.7816164E-02  0.1312668E+00
        -11   -1    0    0    0    0  0.00000000000E+00  0.00000000000E+00  0.45593999997E+02  0.45594000000E+02  0.51100000000E-03 0. -1.
         11   -1    0    0    0    0 -0.00000000000E+00 -0.00000000000E+00 -0.45593999997E+02  0.45594000000E+02  0.51100000000E-03 0.  1.
    9900012    2    1    2    0    0  0.67704989182E+01  0.33379232222E+02 -0.26900000278E+02  0.47787276339E+02  0.20000024139E+02 0.  0.
         12    1    1    2    0    0 -0.67704989182E+01 -0.33379232222E+02  0.26900000278E+02  0.43400723661E+02  0.00000000000E+00 0. -1.
         11    1    3    3    0    0  0.63759349686E+01  0.13348623955E+02 -0.44741009173E+01  0.15454963200E+02  0.51100000000E-03 0. -1.
        -11    1    3    3    0    0  0.46967707732E+01  0.59977796399E+01 -0.12414835584E+02  0.14565752955E+02  0.51100000000E-03 0.  1.
        -12    1    3    3    0    0 -0.43022068235E+01  0.14032828627E+02 -0.10011063777E+02  0.17766560184E+02  0.00000000000E+00 0.  1.
</event>
<event>
 7    1  0.1265344E-009  0.4778727E+02  0.7816164E-02  0.1312668E+00
        -11   -1    0    0    0    0  0.00000000000E+00  0.00000000000E+00  0.45593999997E+02  0.45594000000E+02  0.51100000000E-03 0.  1.
         11   -1    0    0    0    0 -0.00000000000E+00 -0.00000000000E+00 -0.45593999997E+02  0.45594000000E+02  0.51100000000E-03 0. -1.
    9900012    2    1    2    0    0  0.12133097825E+02  0.10836085549E+02  0.40236678364E+02  0.47787273063E+02  0.20000009204E+02 0.  0.
         12    1    1    2    0    0 -0.12133097825E+02 -0.10836085549E+02 -0.40236678364E+02  0.43400726937E+02  0.00000000000E+00 0. -1.
         11    1    3    3    0    0 -0.17085729702E+01 -0.37131141466E+00  0.39903804406E+01  0.43566305883E+01  0.51100000000E-03 0. -1.
        -11    1    3    3    0    0  0.14113980203E+02  0.13320410911E+02  0.36445785467E+02  0.41290835092E+02  0.51100000000E-03 0.  1.
        -12    1    3    3    0    0 -0.27230940788E+00 -0.21130139473E+01 -0.19948754380E+00  0.21398073827E+01  0.00000000000E+00 0.  1.
</event>
<event>
 7    1  0.1265344E-009  0.4778727E+02  0.7816164E-02  0.1312668E+00
        -11   -1    0    0    0    0  0.00000000000E+00  0.00000000000E+00  0.45593999997E+02  0.45594000000E+02  0.51100000000E-03 0.  1.
         11   -1    0    0    0    0 -0.00000000000E+00 -0.00000000000E+00 -0.45593999997E+02  0.45594000000E+02  0.51100000000E-03 0. -1.
    9900012    2    1    2    0    0  0.14541978249E+02  0.32561365492E+02  0.24736845443E+02  0.47787272166E+02  0.20000005113E+02 0.  0.
         12    1    1    2    0    0 -0.14541978249E+02 -0.32561365492E+02 -0.24736845443E+02  0.43400727834E+02  0.00000000000E+00 0. -1.
         11    1    3    3    0    0  0.49977975300E+01  0.90743609797E+00  0.66673600760E+01  0.83818322022E+01  0.51100000000E-03 0. -1.
        -11    1    3    3    0    0  0.62216566718E+01  0.64661186399E+01  0.15637728815E+01  0.91085173268E+01  0.51100000000E-03 0.  1.
         12    1    3    3    0    0  0.33225240469E+01  0.25187810754E+02  0.16505712486E+02  0.30296922637E+02  0.00000000000E+00 0. -1.
</event>
<event>
 7    1  0.1311400E-009  0.4778727E+02  0.7816164E-02  0.1312668E+00
        -11   -1    0    0    0    0  0.00000000000E+00  0.00000000000E+00  0.45593999997E+02  0.45594000000E+02  0.51100000000E-03 0. -1.
         11   -1    0    0    0    0 -0.00000000000E+00 -0.00000000000E+00 -0.45593999997E+02  0.45594000000E+02  0.51100000000E-03 0.  1.
    9900012    2    1    2    0    0  0.22051803307E+02 -0.27998374615E+02 -0.24767566722E+02  0.47787269920E+02  0.19999994872E+02 0.  0.
         12    1    1    2    0    0 -0.22051803307E+02  0.27998374615E+02  0.24767566722E+02  0.43400730080E+02  0.00000000000E+00 0. -1.
         11    1    3    3    0    0  0.15731726428E+02 -0.14247139122E+02 -0.56470061208E+01  0.21962624341E+02  0.51100000000E-03 0. -1.
        -11    1    3    3    0    0  0.53306539235E+01 -0.12702365810E+02 -0.11143884872E+02  0.17718694611E+02  0.51100000000E-03 0.  1.
         12    1    3    3    0    0  0.98942295532E+00 -0.10488696833E+01 -0.79766757290E+01  0.81059509671E+01  0.00000000000E+00 0. -1.
</event>
<event>
 7    1  0.1265344E-009  0.4778727E+02  0.7816164E-02  0.1312668E+00
        -11   -1    0    0    0    0  0.00000000000E+00  0.00000000000E+00  0.45593999997E+02  0.45594000000E+02  0.51100000000E-03 0.  1.
         11   -1    0    0    0    0 -0.00000000000E+00 -0.00000000000E+00 -0.45593999997E+02  0.45594000000E+02  0.51100000000E-03 0. -1.
    9900012    2    1    2    0    0 -0.35340387986E+02  0.21520154222E+02  0.13098213891E+02  0.47787271113E+02  0.20000000314E+02 0.  0.
         12    1    1    2    0    0  0.35340387986E+02 -0.21520154222E+02 -0.13098213891E+02  0.43400728887E+02  0.00000000000E+00 0. -1.
         11    1    3    3    0    0  0.42092711529E+00  0.40448748341E+00 -0.26903125709E+01  0.27529205857E+01  0.51100000000E-03 0. -1.
        -11    1    3    3    0    0 -0.16913206722E+02  0.67009179506E+01  0.44117192388E+01  0.18719565430E+02  0.51100000000E-03 0.  1.
         12    1    3    3    0    0 -0.18848108380E+02  0.14414748788E+02  0.11376807223E+02  0.26314785097E+02  0.00000000000E+00 0. -1.
</event>
<event>
 7    1  0.1265344E-009  0.4778727E+02  0.7816164E-02  0.1312668E+00
        -11   -1    0    0    0    0  0.00000000000E+00  0.00000000000E+00  0.45593999997E+02  0.45594000000E+02  0.51100000000E-03 0.  1.
         11   -1    0    0    0    0 -0.00000000000E+00 -0.00000000000E+00 -0.45593999997E+02  0.45594000000E+02  0.51100000000E-03 0. -1.
    9900012    2    1    2    0    0 -0.36128180709E+02  0.22031005355E+02 -0.96443007543E+01  0.47787272179E+02  0.20000005175E+02 0.  0.
         12    1    1    2    0    0  0.36128180709E+02 -0.22031005355E+02  0.96443007543E+01  0.43400727821E+02  0.00000000000E+00 0. -1.
         11    1    3    3    0    0 -0.55892310233E+00  0.40456772977E+01  0.75583805588E+00  0.41534553398E+01  0.51100000000E-03 0. -1.
        -11    1    3    3    0    0 -0.29831228759E+02  0.15465809646E+02 -0.14005453858E+02  0.36403931317E+02  0.51100000000E-03 0.  1.
        -12    1    3    3    0    0 -0.57380288480E+01  0.25195184113E+01  0.36053150475E+01  0.72298855231E+01  0.00000000000E+00 0.  1.
</event>
<event>
 7    1  0.1265344E-009  0.4778728E+02  0.7816164E-02  0.1312668E+00
        -11   -1    0    0    0    0  0.00000000000E+00  0.00000000000E+00  0.45593999997E+02  0.45594000000E+02  0.51100000000E-03 0. -1.
         11   -1    0    0    0    0 -0.00000000000E+00 -0.00000000000E+00 -0.45593999997E+02  0.45594000000E+02  0.51100000000E-03 0.  1.
    9900012    2    1    2    0    0 -0.18691622370E+02 -0.36597240937E+02 -0.13960217886E+02  0.47787280254E+02  0.20000041992E+02 0.  0.
         12    1    1    2    0    0  0.18691622370E+02  0.36597240937E+02  0.13960217886E+02  0.43400719746E+02  0.00000000000E+00 0. -1.
         11    1    3    3    0    0 -0.63150944309E+01 -0.28219492823E+02 -0.41120682061E+01  0.29208377190E+02  0.51100000000E-03 0. -1.
        -11    1    3    3    0    0 -0.44958527482E+01 -0.58335395029E+01 -0.57230508407E+01  0.93271746125E+01  0.51100000000E-03 0.  1.
         12    1    3    3    0    0 -0.78806751912E+01 -0.25442086110E+01 -0.41250988387E+01  0.92517284522E+01  0.00000000000E+00 0. -1.
</event>
<event>
 7    1  0.1265344E-009  0.4778727E+02  0.7816164E-02  0.1312668E+00
        -11   -1    0    0    0    0  0.00000000000E+00  0.00000000000E+00  0.45593999997E+02  0.45594000000E+02  0.51100000000E-03 0. -1.
         11   -1    0    0    0    0 -0.00000000000E+00 -0.00000000000E+00 -0.45593999997E+02  0.45594000000E+02  0.51100000000E-03 0.  1.
    9900012    2    1    2    0    0 -0.24383780413E+02 -0.33274007984E+02 -0.13486841039E+02  0.47787271483E+02  0.20000002000E+02 0.  0.
         12    1    1    2    0    0  0.24383780413E+02  0.33274007984E+02  0.13486841039E+02  0.43400728517E+02  0.00000000000E+00 0. -1.
         11    1    3    3    0    0 -0.16772443211E+02 -0.14420014293E+02  0.79921457237E+00  0.22133468044E+02  0.51100000000E-03 0. -1.
        -11    1    3    3    0    0 -0.40405233596E+01 -0.13042735929E+02 -0.59805225981E+01  0.14906556958E+02  0.51100000000E-03 0.  1.
         12    1    3    3    0    0 -0.35708138429E+01 -0.58112577623E+01 -0.83055330136E+01  0.10747246481E+02  0.00000000000E+00 0. -1.
</event>
<event>
 7    1  0.1265344E-009  0.4778727E+02  0.7816164E-02  0.1312668E+00
        -11   -1    0    0    0    0  0.00000000000E+00  0.00000000000E+00  0.45593999997E+02  0.45594000000E+02  0.51100000000E-03 0.  1.
         11   -1    0    0    0    0 -0.00000000000E+00 -0.00000000000E+00 -0.45593999997E+02  0.45594000000E+02  0.51100000000E-03 0. -1.
    9900012    2    1    2    0    0  0.21053575482E+02  0.58849136132E+01  0.37493172287E+02  0.47787271700E+02  0.20000002989E+02 0.  0.
         12    1    1    2    0    0 -0.21053575482E+02 -0.58849136132E+01 -0.37493172287E+02  0.43400728300E+02  0.00000000000E+00 0. -1.
         11    1    3    3    0    0  0.12791071696E+00  0.55764094572E+01  0.12491255116E+02  0.13680064262E+02  0.51100000000E-03 0. -1.
        -11    1    3    3    0    0  0.10638238422E+02 -0.13547696376E+01  0.19664943549E+02  0.22399051822E+02  0.51100000000E-03 0.  1.
         12    1    3    3    0    0  0.10287426342E+02  0.16632737936E+01  0.53369736223E+01  0.11708155615E+02  0.00000000000E+00 0. -1.
</event>
<event>
 7    1  0.1265344E-009  0.4778728E+02  0.7816164E-02  0.1312668E+00
        -11   -1    0    0    0    0  0.00000000000E+00  0.00000000000E+00  0.45593999997E+02  0.45594000000E+02  0.51100000000E-03 0. -1.
         11   -1    0    0    0    0 -0.00000000000E+00 -0.00000000000E+00 -0.45593999997E+02  0.45594000000E+02  0.51100000000E-03 0.  1.
    9900012    2    1    2    0    0 -0.21063335221E+02 -0.23829872518E+02  0.29531267452E+02  0.47787277976E+02  0.20000031605E+02 0.  0.
         12    1    1    2    0    0  0.21063335221E+02  0.23829872518E+02 -0.29531267452E+02  0.43400722024E+02  0.00000000000E+00 0. -1.
         11    1    3    3    0    0 -0.37937236147E+00 -0.13223638146E+02  0.12709894055E+02  0.18345297391E+02  0.51100000000E-03 0. -1.
        -11    1    3    3    0    0 -0.65476337243E+01 -0.51649732051E+01  0.27885998846E+01  0.87934489919E+01  0.51100000000E-03 0.  1.
         12    1    3    3    0    0 -0.14136329136E+02 -0.54412611668E+01  0.14032773513E+02  0.20648531594E+02  0.00000000000E+00 0. -1.
</event>
<event>
 7    1  0.1265344E-009  0.4778727E+02  0.7816164E-02  0.1312668E+00
        -11   -1    0    0    0    0  0.00000000000E+00  0.00000000000E+00  0.45593999997E+02  0.45594000000E+02  0.51100000000E-03 0.  1.
         11   -1    0    0    0    0 -0.00000000000E+00 -0.00000000000E+00 -0.45593999997E+02  0.45594000000E+02  0.51100000000E-03 0. -1.
    9900012    2    1    2    0    0  0.19399800379E+02  0.31729091864E+02  0.22372650006E+02  0.47787274274E+02  0.20000014727E+02 0.  0.
         12    1    1    2    0    0 -0.19399800379E+02 -0.31729091864E+02 -0.22372650006E+02  0.43400725726E+02  0.00000000000E+00 0. -1.
         11    1    3    3    0    0  0.19152157728E+01  0.21972482320E+01 -0.84124191765E+00  0.30337500679E+01  0.51100000000E-03 0. -1.
        -11    1    3    3    0    0  0.15838887098E+02  0.28038521491E+02  0.25857923524E+02  0.41299651828E+02  0.51100000000E-03 0.  1.
         12    1    3    3    0    0  0.16456975079E+01  0.14933221409E+01 -0.26440316003E+01  0.34538723785E+01  0.00000000000E+00 0. -1.
</event>
<event>
 7    1  0.1265344E-009  0.4778729E+02  0.7816164E-02  0.1312668E+00
        -11   -1    0    0    0    0  0.00000000000E+00  0.00000000000E+00  0.45593999997E+02  0.45594000000E+02  0.51100000000E-03 0.  1.
         11   -1    0    0    0    0 -0.00000000000E+00 -0.00000000000E+00 -0.45593999997E+02  0.45594000000E+02  0.51100000000E-03 0. -1.
    9900012    2    1    2    0    0 -0.13769052324E+02  0.18673657612E+02  0.36678726328E+02  0.47787294297E+02  0.20000106018E+02 0.  0.
         12    1    1    2    0    0  0.13769052324E+02 -0.18673657612E+02 -0.36678726328E+02  0.43400705703E+02  0.00000000000E+00 0. -1.
         11    1    3    3    0    0 -0.51425844712E+01  0.10074587932E+02  0.70553655421E+01  0.13331229510E+02  0.51100000000E-03 0. -1.
        -11    1    3    3    0    0 -0.11322180615E+02  0.38997662858E+01  0.22700208108E+02  0.25665139769E+02  0.51100000000E-03 0.  1.
         12    1    3    3    0    0  0.26957127621E+01  0.46993033939E+01  0.69231526775E+01  0.87909250184E+01  0.00000000000E+00 0. -1.
</event>
<event>
 7    1  0.1265344E-009  0.4778727E+02  0.7816164E-02  0.1312668E+00
        -11   -1    0    0    0    0  0.00000000000E+00  0.00000000000E+00  0.45593999997E+02  0.45594000000E+02  0.51100000000E-03 0.  1.
         11   -1    0    0    0    0 -0.00000000000E+00 -0.00000000000E+00 -0.45593999997E+02  0.45594000000E+02  0.51100000000E-03 0. -1.
    9900012    2    1    2    0    0  0.98706683245E+01  0.22215200834E+02  0.35953832523E+02  0.47787270578E+02  0.19999997875E+02 0.  0.
         12    1    1    2    0    0 -0.98706683245E+01 -0.22215200834E+02 -0.35953832523E+02  0.43400729422E+02  0.00000000000E+00 0. -1.
         11    1    3    3    0    0 -0.87147179624E+00  0.56502573605E+01  0.15618372107E+02  0.16631849533E+02  0.51100000000E-03 0. -1.
        -11    1    3    3    0    0  0.20578665007E+01  0.12788251802E+02  0.67807074769E+01  0.14620266510E+02  0.51100000000E-03 0.  1.
        -12    1    3    3    0    0  0.86842736201E+01  0.37766916716E+01  0.13554752938E+02  0.16535154535E+02  0.00000000000E+00 0.  1.
</event>
<event>
 7    1  0.1460301E-009  0.4778727E+02  0.7816164E-02  0.1312668E+00
        -11   -1    0    0    0    0  0.00000000000E+00  0.00000000000E+00  0.45593999997E+02  0.45594000000E+02  0.51100000000E-03 0.  1.
         11   -1    0    0    0    0 -0.00000000000E+00 -0.00000000000E+00 -0.45593999997E+02  0.45594000000E+02  0.51100000000E-03 0. -1.
    9900012    2    1    2    0    0  0.29926866827E+02 -0.24460463424E+02  0.19740602295E+02  0.47787274108E+02  0.20000013967E+02 0.  0.
         12    1    1    2    0    0 -0.29926866827E+02  0.24460463424E+02 -0.19740602295E+02  0.43400725892E+02  0.00000000000E+00 0. -1.
         11    1    3    3    0    0  0.61632197610E+01 -0.14004615642E+01 -0.18431314842E+01  0.65835935738E+01  0.51100000000E-03 0. -1.
        -11    1    3    3    0    0  0.39723302000E+01 -0.11351415203E+02  0.61354130671E+01  0.13501012114E+02  0.51100000000E-03 0.  1.
        -12    1    3    3    0    0  0.19791316866E+02 -0.11708586657E+02  0.15448320712E+02  0.27702668420E+02  0.00000000000E+00 0.  1.
</event>
<event>
 7    1  0.1265344E-009  0.4778728E+02  0.7816164E-02  0.1312668E+00
        -11   -1    0    0    0    0  0.00000000000E+00  0.00000000000E+00  0.45593999997E+02  0.45594000000E+02  0.51100000000E-03 0.  1.
         11   -1    0    0    0    0 -0.00000000000E+00 -0.00000000000E+00 -0.45593999997E+02  0.45594000000E+02  0.51100000000E-03 0. -1.
    9900012    2    1    2    0    0  0.15510270826E+02 -0.25432338652E+02  0.31563430081E+02  0.47787280318E+02  0.20000042282E+02 0.  0.
         12    1    1    2    0    0 -0.15510270826E+02  0.25432338652E+02 -0.31563430081E+02  0.43400719682E+02  0.00000000000E+00 0. -1.
         11    1    3    3    0    0 -0.40530941040E+01 -0.35021838577E+01  0.29993148528E+01  0.61391166658E+01  0.51100000000E-03 0. -1.
        -11    1    3    3    0    0  0.72780768089E+01 -0.85909290019E+01  0.61934414407E+01  0.12850415569E+02  0.51100000000E-03 0.  1.
        -12    1    3    3    0    0  0.12285288122E+02 -0.13339225793E+02  0.22370673787E+02  0.28797748083E+02  0.00000000000E+00 0.  1.
</event>
<event>
 7    1  0.1265344E-009  0.4778727E+02  0.7816164E-02  0.1312668E+00
        -11   -1    0    0    0    0  0.00000000000E+00  0.00000000000E+00  0.45593999997E+02  0.45594000000E+02  0.51100000000E-03 0. -1.
         11   -1    0    0    0    0 -0.00000000000E+00 -0.00000000000E+00 -0.45593999997E+02  0.45594000000E+02  0.51100000000E-03 0.  1.
    9900012    2    1    2    0    0 -0.32717906567E+02 -0.21882366896E+02 -0.18284521862E+02  0.47787272693E+02  0.20000007515E+02 0.  0.
         12    1    1    2    0    0  0.32717906567E+02  0.21882366896E+02  0.18284521862E+02  0.43400727307E+02  0.00000000000E+00 0. -1.
         11    1    3    3    0    0  0.31685237179E+00  0.10926773279E+01 -0.31183332086E+01  0.33193887132E+01  0.51100000000E-03 0.  1.
        -11    1    3    3    0    0 -0.17116614963E+02 -0.18488759798E+02 -0.10390465904E+02  0.27253890156E+02  0.51100000000E-03 0. -1.
         12    1    3    3    0    0 -0.15918143975E+02 -0.44862844255E+01 -0.47757227500E+01  0.17213993823E+02  0.00000000000E+00 0. -1.
</event>
<event>
 7    1  0.1382443E-009  0.4778727E+02  0.7816164E-02  0.1312668E+00
        -11   -1    0    0    0    0  0.00000000000E+00  0.00000000000E+00  0.45593999997E+02  0.45594000000E+02  0.51100000000E-03 0.  1.
         11   -1    0    0    0    0 -0.00000000000E+00 -0.00000000000E+00 -0.45593999997E+02  0.45594000000E+02  0.51100000000E-03 0. -1.
    9900012    2    1    2    0    0  0.21103117003E+01 -0.28414156577E+02  0.32738442870E+02  0.47787270156E+02  0.19999995951E+02 0.  0.
         12    1    1    2    0    0 -0.21103117003E+01  0.28414156577E+02 -0.32738442870E+02  0.43400729844E+02  0.00000000000E+00 0. -1.
         11    1    3    3    0    0  0.69381680383E+01 -0.63092696686E+01  0.91771606146E+01  0.13121178937E+02  0.51100000000E-03 0. -1.
        -11    1    3    3    0    0 -0.30733284283E+01 -0.61318999892E+01  0.94697697337E+00  0.69240386159E+01  0.51100000000E-03 0.  1.
        -12    1    3    3    0    0 -0.17545279096E+01 -0.15972986919E+02  0.22614305282E+02  0.27742052604E+02  0.00000000000E+00 0.  1.
</event>
<event>
 7    1  0.1265344E-009  0.4778727E+02  0.7816164E-02  0.1312668E+00
        -11   -1    0    0    0    0  0.00000000000E+00  0.00000000000E+00  0.45593999997E+02  0.45594000000E+02  0.51100000000E-03 0. -1.
         11   -1    0    0    0    0 -0.00000000000E+00 -0.00000000000E+00 -0.45593999997E+02  0.45594000000E+02  0.51100000000E-03 0.  1.
    9900012    2    1    2    0    0 -0.11520525241E+02  0.21647142440E+02 -0.35809246273E+02  0.47787269634E+02  0.19999993568E+02 0.  0.
         12    1    1    2    0    0  0.11520525241E+02 -0.21647142440E+02  0.35809246273E+02  0.43400730366E+02  0.00000000000E+00 0. -1.
         11    1    3    3    0    0  0.31573072028E+01  0.17591329025E+01 -0.23864374895E+01  0.43310762512E+01  0.51100000000E-03 0. -1.
        -11    1    3    3    0    0 -0.89055768199E+01  0.19659006360E+02 -0.29154657868E+02  0.36273680613E+02  0.51100000000E-03 0.  1.
         12    1    3    3    0    0 -0.57722556238E+01  0.22900317757E+00 -0.42681509160E+01  0.71825127694E+01  0.00000000000E+00 0. -1.
</event>
<event>
 7    1  0.1265344E-009  0.4778727E+02  0.7816164E-02  0.1312668E+00
        -11   -1    0    0    0    0  0.00000000000E+00  0.00000000000E+00  0.45593999997E+02  0.45594000000E+02  0.51100000000E-03 0.  1.
         11   -1    0    0    0    0 -0.00000000000E+00 -0.00000000000E+00 -0.45593999997E+02  0.45594000000E+02  0.51100000000E-03 0. -1.
    9900012    2    1    2    0    0 -0.15188103545E+02 -0.15843679137E+02  0.37442257173E+02  0.47787270973E+02  0.19999999674E+02 0.  0.
         12    1    1    2    0    0  0.15188103545E+02  0.15843679137E+02 -0.37442257173E+02  0.43400729027E+02  0.00000000000E+00 0. -1.
         11    1    3    3    0    0  0.29091271405E+00 -0.31347861265E+01 -0.16496400002E+01  0.35542687937E+01  0.51100000000E-03 0. -1.
        -11    1    3    3    0    0 -0.19539674729E+01 -0.35387602917E+01  0.11196598985E+02  0.11903975906E+02  0.51100000000E-03 0.  1.
        -12    1    3    3    0    0 -0.13525048786E+02 -0.91701327192E+01  0.27895298188E+02  0.32329026273E+02  0.00000000000E+00 0.  1.
</event>
<event>
 7    1  0.1265344E-009  0.4778726E+02  0.7816164E-02  0.1312668E+00
        -11   -1    0    0    0    0  0.00000000000E+00  0.00000000000E+00  0.45593999997E+02  0.45594000000E+02  0.51100000000E-03 0.  1.
         11   -1    0    0    0    0 -0.00000000000E+00 -0.00000000000E+00 -0.45593999997E+02  0.45594000000E+02  0.51100000000E-03 0. -1.
    9900012    2    1    2    0    0 -0.39228763179E+02 -0.16711589225E+02  0.80901906028E+01  0.47787259696E+02  0.19999948258E+02 0.  0.
         12    1    1    2    0    0  0.39228763179E+02  0.16711589225E+02 -0.80901906028E+01  0.43400740304E+02  0.00000000000E+00 0. -1.
         11    1    3    3    0    0 -0.16082657909E+02 -0.13982779457E+02  0.16823720760E+01  0.21377567281E+02  0.51100000000E-03 0. -1.
        -11    1    3    3    0    0 -0.12489571898E+02 -0.42076190466E+01  0.81721438864E+01  0.15507333756E+02  0.51100000000E-03 0.  1.
        -12    1    3    3    0    0 -0.10656533371E+02  0.14788092789E+01 -0.17643253596E+01  0.10902358660E+02  0.00000000000E+00 0.  1.
</event>
<event>
 7    1  0.1265344E-009  0.4778726E+02  0.7816164E-02  0.1312668E+00
        -11   -1    0    0    0    0  0.00000000000E+00  0.00000000000E+00  0.45593999997E+02  0.45594000000E+02  0.51100000000E-03 0.  1.
         11   -1    0    0    0    0 -0.00000000000E+00 -0.00000000000E+00 -0.45593999997E+02  0.45594000000E+02  0.51100000000E-03 0. -1.
    9900012    2    1    2    0    0 -0.13312859713E+02  0.14598228979E+02  0.38643028112E+02  0.47787261012E+02  0.19999954256E+02 0.  0.
         12    1    1    2    0    0  0.13312859713E+02 -0.14598228979E+02 -0.38643028112E+02  0.43400738988E+02  0.00000000000E+00 0. -1.
         11    1    3    3    0    0 -0.54277257705E+01  0.37002097687E+01  0.13035705092E+02  0.14597306836E+02  0.51100000000E-03 0. -1.
        -11    1    3    3    0    0 -0.70066583845E+01  0.67465049296E+00  0.20605683204E+02  0.21774815626E+02  0.51100000000E-03 0.  1.
         12    1    3    3    0    0 -0.87847555830E+00  0.10223368717E+02  0.50016398164E+01  0.11415138549E+02  0.00000000000E+00 0. -1.
</event>
<event>
 7    1  0.1265344E-009  0.4778728E+02  0.7816164E-02  0.1312668E+00
        -11   -1    0    0    0    0  0.00000000000E+00  0.00000000000E+00  0.45593999997E+02  0.45594000000E+02  0.51100000000E-03 0.  1.
         11   -1    0    0    0    0 -0.00000000000E+00 -0.00000000000E+00 -0.45593999997E+02  0.45594000000E+02  0.51100000000E-03 0. -1.
    9900012    2    1    2    0    0 -0.18974994463E+02  0.50862514840E+01  0.38700161641E+02  0.47787275581E+02  0.20000020684E+02 0.  0.
         12    1    1    2    0    0  0.18974994463E+02 -0.50862514840E+01 -0.38700161641E+02  0.43400724419E+02  0.00000000000E+00 0. -1.
         11    1    3    3    0    0 -0.15067310786E+01 -0.20895850158E+00 -0.15491389765E+01  0.21711135456E+01  0.51100000000E-03 0. -1.
        -11    1    3    3    0    0  0.26623589407E+00  0.46285014625E+00 -0.61123380178E+00  0.81161495226E+00  0.51100000000E-03 0.  1.
        -12    1    3    3    0    0 -0.17734499278E+02  0.48323598394E+01  0.40860534420E+02  0.44804547083E+02  0.00000000000E+00 0.  1.
</event>
<event>
 7    1  0.1265344E-009  0.4778727E+02  0.7816164E-02  0.1312668E+00
        -11   -1    0    0    0    0  0.00000000000E+00  0.00000000000E+00  0.45593999997E+02  0.45594000000E+02  0.51100000000E-03 0.  1.
         11   -1    0    0    0    0 -0.00000000000E+00 -0.00000000000E+00 -0.45593999997E+02  0.45594000000E+02  0.51100000000E-03 0. -1.
    9900012    2    1    2    0    0  0.24717108985E+02 -0.19719899479E+02  0.29728992957E+02  0.47787274957E+02  0.20000017840E+02 0.  0.
         12    1    1    2    0    0 -0.24717108985E+02  0.19719899479E+02 -0.29728992957E+02  0.43400725043E+02  0.00000000000E+00 0. -1.
         11    1    3    3    0    0  0.11884140912E+01 -0.43959866779E+00  0.11777653526E+02  0.11845619354E+02  0.51100000000E-03 0.  1.
        -11    1    3    3    0    0  0.27359219780E+01 -0.13709449888E+01 -0.15522485911E+00  0.30641237328E+01  0.51100000000E-03 0. -1.
        -12    1    3    3    0    0  0.20792772916E+02 -0.17909355822E+02  0.18106564289E+02  0.32877531870E+02  0.00000000000E+00 0.  1.
</event>
<event>
 7    1  0.1265344E-009  0.4778730E+02  0.7816164E-02  0.1312668E+00
        -11   -1    0    0    0    0  0.00000000000E+00  0.00000000000E+00  0.45593999997E+02  0.45594000000E+02  0.51100000000E-03 0. -1.
         11   -1    0    0    0    0 -0.00000000000E+00 -0.00000000000E+00 -0.45593999997E+02  0.45594000000E+02  0.51100000000E-03 0.  1.
    9900012    2    1    2    0    0  0.75850359424E+00  0.13670443875E+02 -0.41184521705E+02  0.47787295035E+02  0.20000109380E+02 0.  0.
         12    1    1    2    0    0 -0.75850359424E+00 -0.13670443875E+02  0.41184521705E+02  0.43400704965E+02  0.00000000000E+00 0. -1.
         11    1    3    3    0    0 -0.80706384440E+01  0.30680072575E+01 -0.98422354925E+01  0.13092649586E+02  0.51100000000E-03 0. -1.
        -11    1    3    3    0    0  0.34554331275E+01  0.59207735166E+00 -0.79831351040E+01  0.87190033856E+01  0.51100000000E-03 0.  1.
         12    1    3    3    0    0  0.53737089108E+01  0.10010359266E+02 -0.23359151108E+02  0.25975642063E+02  0.00000000000E+00 0. -1.
</event>
<event>
 7    1  0.1628325E-009  0.4778727E+02  0.7816164E-02  0.1312668E+00
        -11   -1    0    0    0    0  0.00000000000E+00  0.00000000000E+00  0.45593999997E+02  0.45594000000E+02  0.51100000000E-03 0. -1.
         11   -1    0    0    0    0 -0.00000000000E+00 -0.00000000000E+00 -0.45593999997E+02  0.45594000000E+02  0.51100000000E-03 0.  1.
    9900012    2    1    2    0    0  0.32259538727E+02 -0.22369773721E+02 -0.18507810578E+02  0.47787266508E+02  0.19999979317E+02 0.  0.
         12    1    1    2    0    0 -0.32259538727E+02  0.22369773721E+02  0.18507810578E+02  0.43400733492E+02  0.00000000000E+00 0. -1.
         11    1    3    3    0    0  0.12514931858E+02 -0.18972047503E+01 -0.26204791571E+01  0.12926322623E+02  0.51100000000E-03 0. -1.
        -11    1    3    3    0    0  0.57233715579E+01 -0.52077804767E+01 -0.11195649476E+02  0.13609574826E+02  0.51100000000E-03 0.  1.
        -12    1    3    3    0    0  0.14021235312E+02 -0.15264788494E+02 -0.46916819446E+01  0.21251369060E+02  0.00000000000E+00 0.  1.
</event>
<event>
 7    1  0.1265344E-009  0.4778727E+02  0.7816164E-02  0.1312668E+00
        -11   -1    0    0    0    0  0.00000000000E+00  0.00000000000E+00  0.45593999997E+02  0.45594000000E+02  0.51100000000E-03 0.  1.
         11   -1    0    0    0    0 -0.00000000000E+00 -0.00000000000E+00 -0.45593999997E+02  0.45594000000E+02  0.51100000000E-03 0. -1.
    9900012    2    1    2    0    0 -0.12267454147E+02  0.14931466908E+02  0.38861088111E+02  0.47787270692E+02  0.19999998393E+02 0.  0.
         12    1    1    2    0    0  0.12267454147E+02 -0.14931466908E+02 -0.38861088111E+02  0.43400729308E+02  0.00000000000E+00 0. -1.
         11    1    3    3    0    0 -0.35645298168E+01 -0.32963531901E+01  0.91401479534E+01  0.10349595260E+02  0.51100000000E-03 0. -1.
        -11    1    3    3    0    0  0.18287466523E+00  0.21366163288E+01  0.10977677904E+02  0.11185168076E+02  0.51100000000E-03 0.  1.
        -12    1    3    3    0    0 -0.88857989958E+01  0.16091203770E+02  0.18743262254E+02  0.26252507356E+02  0.00000000000E+00 0.  1.
</event>
<event>
 7    1  0.1265344E-009  0.4778727E+02  0.7816164E-02  0.1312668E+00
        -11   -1    0    0    0    0  0.00000000000E+00  0.00000000000E+00  0.45593999997E+02  0.45594000000E+02  0.51100000000E-03 0.  1.
         11   -1    0    0    0    0 -0.00000000000E+00 -0.00000000000E+00 -0.45593999997E+02  0.45594000000E+02  0.51100000000E-03 0. -1.
    9900012    2    1    2    0    0  0.70377132507E+01  0.34071055783E+02  0.25947196678E+02  0.47787271142E+02  0.20000000446E+02 0.  0.
         12    1    1    2    0    0 -0.70377132507E+01 -0.34071055783E+02 -0.25947196678E+02  0.43400728858E+02  0.00000000000E+00 0. -1.
         11    1    3    3    0    0  0.64625945501E+01  0.15016870239E+02  0.49504853844E+01  0.17081534647E+02  0.51100000000E-03 0. -1.
        -11    1    3    3    0    0 -0.18422835996E+01 -0.10125583206E+01  0.28604474800E+01  0.35498511604E+01  0.51100000000E-03 0.  1.
         12    1    3    3    0    0  0.24174023002E+01  0.20066743864E+02  0.18136263814E+02  0.27155885335E+02  0.00000000000E+00 0. -1.
</event>
<event>
 7    1  0.1265344E-009  0.4778727E+02  0.7816164E-02  0.1312668E+00
        -11   -1    0    0    0    0  0.00000000000E+00  0.00000000000E+00  0.45593999997E+02  0.45594000000E+02  0.51100000000E-03 0.  1.
         11   -1    0    0    0    0 -0.00000000000E+00 -0.00000000000E+00 -0.45593999997E+02  0.45594000000E+02  0.51100000000E-03 0. -1.
    9900012    2    1    2    0    0  0.34440706578E+02 -0.16699613093E+02  0.20459321700E+02  0.47787271994E+02  0.20000004329E+02 0.  0.
         12    1    1    2    0    0 -0.34440706578E+02  0.16699613093E+02 -0.20459321700E+02  0.43400728006E+02  0.00000000000E+00 0. -1.
         11    1    3    3    0    0 -0.15566902465E+00  0.44168623701E-01 -0.14059291369E+01  0.14152104832E+01  0.51100000000E-03 0. -1.
        -11    1    3    3    0    0  0.14211639633E+02 -0.45194599411E+01  0.16035905644E+02  0.21898549936E+02  0.51100000000E-03 0.  1.
         12    1    3    3    0    0  0.20384735969E+02 -0.12224321776E+02  0.58293451930E+01  0.24473511575E+02  0.00000000000E+00 0. -1.
</event>
<event>
 7    1  0.1265344E-009  0.4778727E+02  0.7816164E-02  0.1312668E+00
        -11   -1    0    0    0    0  0.00000000000E+00  0.00000000000E+00  0.45593999997E+02  0.45594000000E+02  0.51100000000E-03 0.  1.
         11   -1    0    0    0    0 -0.00000000000E+00 -0.00000000000E+00 -0.45593999997E+02  0.45594000000E+02  0.51100000000E-03 0. -1.
    9900012    2    1    2    0    0  0.22360005517E+02 -0.11072217562E+02  0.35511397353E+02  0.47787272005E+02  0.20000004382E+02 0.  0.
         12    1    1    2    0    0 -0.22360005517E+02  0.11072217562E+02 -0.35511397353E+02  0.43400727995E+02  0.00000000000E+00 0. -1.
         11    1    3    3    0    0 -0.16927986664E+01 -0.23360579309E+01  0.74529809465E+01  0.79918495501E+01  0.51100000000E-03 0. -1.
        -11    1    3    3    0    0  0.88833107892E+01 -0.66414388947E+01  0.51226625982E+01  0.12217348056E+02  0.51100000000E-03 0.  1.
         12    1    3    3    0    0  0.15169493394E+02 -0.20947207369E+01  0.22935753809E+02  0.27578074399E+02  0.00000000000E+00 0. -1.
</event>
<event>
 7    1  0.1265344E-009  0.4778727E+02  0.7816164E-02  0.1312668E+00
        -11   -1    0    0    0    0  0.00000000000E+00  0.00000000000E+00  0.45593999997E+02  0.45594000000E+02  0.51100000000E-03 0.  1.
         11   -1    0    0    0    0 -0.00000000000E+00 -0.00000000000E+00 -0.45593999997E+02  0.45594000000E+02  0.51100000000E-03 0. -1.
    9900012    2    1    2    0    0  0.17384267137E+02  0.10442327653E+02  0.38371449906E+02  0.47787272833E+02  0.20000008155E+02 0.  0.
         12    1    1    2    0    0 -0.17384267137E+02 -0.10442327653E+02 -0.38371449906E+02  0.43400727167E+02  0.00000000000E+00 0. -1.
         11    1    3    3    0    0  0.86089330476E+01 -0.36607900351E+01  0.21748315796E+02  0.23674973117E+02  0.51100000000E-03 0. -1.
        -11    1    3    3    0    0  0.19362508467E+01  0.40075345993E+01  0.15247720131E+01  0.47047136851E+01  0.51100000000E-03 0.  1.
         12    1    3    3    0    0  0.68390832429E+01  0.10095583089E+02  0.15098362097E+02  0.19407586031E+02  0.00000000000E+00 0. -1.
</event>
<event>
 7    1  0.1265344E-009  0.4778727E+02  0.7816164E-02  0.1312668E+00
        -11   -1    0    0    0    0  0.00000000000E+00  0.00000000000E+00  0.45593999997E+02  0.45594000000E+02  0.51100000000E-03 0.  1.
         11   -1    0    0    0    0 -0.00000000000E+00 -0.00000000000E+00 -0.45593999997E+02  0.45594000000E+02  0.51100000000E-03 0. -1.
    9900012    2    1    2    0    0 -0.93550080651E+01 -0.27677130436E+02  0.32094910459E+02  0.47787274171E+02  0.20000014257E+02 0.  0.
         12    1    1    2    0    0  0.93550080651E+01  0.27677130436E+02 -0.32094910459E+02  0.43400725829E+02  0.00000000000E+00 0. -1.
         11    1    3    3    0    0 -0.16609319339E+01  0.12884787222E+01 -0.26610218862E+00  0.21188871944E+01  0.51100000000E-03 0. -1.
        -11    1    3    3    0    0 -0.82711935553E+01 -0.13005309339E+02  0.21087372496E+02  0.26119494499E+02  0.51100000000E-03 0.  1.
        -12    1    3    3    0    0  0.57711742411E+00 -0.15960299820E+02  0.11273640151E+02  0.19548892478E+02  0.00000000000E+00 0.  1.
</event>
<event>
 7    1  0.1265344E-009  0.4778727E+02  0.7816164E-02  0.1312668E+00
        -11   -1    0    0    0    0  0.00000000000E+00  0.00000000000E+00  0.45593999997E+02  0.45594000000E+02  0.51100000000E-03 0.  1.
         11   -1    0    0    0    0 -0.00000000000E+00 -0.00000000000E+00 -0.45593999997E+02  0.45594000000E+02  0.51100000000E-03 0. -1.
    9900012    2    1    2    0    0  0.12949338245E+02 -0.37465532624E+02  0.17671222627E+02  0.47787267231E+02  0.19999982614E+02 0.  0.
         12    1    1    2    0    0 -0.12949338245E+02  0.37465532624E+02 -0.17671222627E+02  0.43400732769E+02  0.00000000000E+00 0. -1.
         11    1    3    3    0    0  0.26749527830E+01  0.41441281639E-01  0.30783861900E+01  0.40784251332E+01  0.51100000000E-03 0. -1.
        -11    1    3    3    0    0 -0.13723823090E+01 -0.21711507823E+01  0.44620135404E+01  0.51484846331E+01  0.51100000000E-03 0.  1.
         12    1    3    3    0    0  0.11646767771E+02 -0.35335823123E+02  0.10130822897E+02  0.38560357465E+02  0.00000000000E+00 0. -1.
</event>
<event>
 7    1  0.1265344E-009  0.4778727E+02  0.7816164E-02  0.1312668E+00
        -11   -1    0    0    0    0  0.00000000000E+00  0.00000000000E+00  0.45593999997E+02  0.45594000000E+02  0.51100000000E-03 0. -1.
         11   -1    0    0    0    0 -0.00000000000E+00 -0.00000000000E+00 -0.45593999997E+02  0.45594000000E+02  0.51100000000E-03 0.  1.
    9900012    2    1    2    0    0 -0.44131570040E+01  0.31778274861E+02 -0.29228215923E+02  0.47787270583E+02  0.19999997895E+02 0.  0.
         12    1    1    2    0    0  0.44131570040E+01 -0.31778274861E+02  0.29228215923E+02  0.43400729417E+02  0.00000000000E+00 0. -1.
         11    1    3    3    0    0  0.39802258504E+01  0.80210830863E+01 -0.18683841619E+01  0.91471761400E+01  0.51100000000E-03 0. -1.
        -11    1    3    3    0    0 -0.45896680772E+01  0.21361521336E+02 -0.18198349667E+02  0.28435182041E+02  0.51100000000E-03 0.  1.
        -12    1    3    3    0    0 -0.38037147772E+01  0.23956704390E+01 -0.91614820947E+01  0.10204912402E+02  0.00000000000E+00 0.  1.
</event>
<event>
 7    1  0.1265344E-009  0.4778727E+02  0.7816164E-02  0.1312668E+00
        -11   -1    0    0    0    0  0.00000000000E+00  0.00000000000E+00  0.45593999997E+02  0.45594000000E+02  0.51100000000E-03 0.  1.
         11   -1    0    0    0    0 -0.00000000000E+00 -0.00000000000E+00 -0.45593999997E+02  0.45594000000E+02  0.51100000000E-03 0. -1.
    9900012    2    1    2    0    0  0.27274427325E+02 -0.31978500497E+02  0.10821496730E+02  0.47787266464E+02  0.19999979118E+02 0.  0.
         12    1    1    2    0    0 -0.27274427325E+02  0.31978500497E+02 -0.10821496730E+02  0.43400733536E+02  0.00000000000E+00 0. -1.
         11    1    3    3    0    0  0.78649121332E+01 -0.68443123955E+01 -0.19989375577E+01  0.10615894058E+02  0.51100000000E-03 0. -1.
        -11    1    3    3    0    0  0.21117895090E+02 -0.22364260138E+02  0.13884189880E+02  0.33747538480E+02  0.51100000000E-03 0.  1.
        -12    1    3    3    0    0 -0.17083798973E+01 -0.27699279635E+01 -0.10637555930E+01  0.34238339268E+01  0.00000000000E+00 0.  1.
</event>
<event>
 7    1  0.1265344E-009  0.4778727E+02  0.7816164E-02  0.1312668E+00
        -11   -1    0    0    0    0  0.00000000000E+00  0.00000000000E+00  0.45593999997E+02  0.45594000000E+02  0.51100000000E-03 0. -1.
         11   -1    0    0    0    0 -0.00000000000E+00 -0.00000000000E+00 -0.45593999997E+02  0.45594000000E+02  0.51100000000E-03 0.  1.
    9900012    2    1    2    0    0 -0.32709105009E+02 -0.17201192923E+02  0.22756459156E+02  0.47787273949E+02  0.20000013241E+02 0.  0.
         12    1    1    2    0    0  0.32709105009E+02  0.17201192923E+02 -0.22756459156E+02  0.43400726051E+02  0.00000000000E+00 0. -1.
         11    1    3    3    0    0 -0.10638762019E+02 -0.30406038724E+01  0.53932052694E+01  0.12309150764E+02  0.51100000000E-03 0. -1.
        -11    1    3    3    0    0  0.77408997103E+00 -0.59585228835E+01  0.66031632285E+01  0.89277642846E+01  0.51100000000E-03 0.  1.
        -12    1    3    3    0    0 -0.22844432961E+02 -0.82020661666E+01  0.10760090658E+02  0.26550358900E+02  0.00000000000E+00 0.  1.
</event>
<event>
 7    1  0.1265344E-009  0.4778727E+02  0.7816164E-02  0.1312668E+00
        -11   -1    0    0    0    0  0.00000000000E+00  0.00000000000E+00  0.45593999997E+02  0.45594000000E+02  0.51100000000E-03 0.  1.
         11   -1    0    0    0    0 -0.00000000000E+00 -0.00000000000E+00 -0.45593999997E+02  0.45594000000E+02  0.51100000000E-03 0. -1.
    9900012    2    1    2    0    0 -0.36554606791E+01 -0.35140295265E+02  0.25207543450E+02  0.47787274305E+02  0.20000014866E+02 0.  0.
         12    1    1    2    0    0  0.36554606791E+01  0.35140295265E+02 -0.25207543450E+02  0.43400725695E+02  0.00000000000E+00 0. -1.
         11    1    3    3    0    0  0.56234918408E+01 -0.46705357549E+01  0.34516780158E+00  0.73182447208E+01  0.51100000000E-03 0. -1.
        -11    1    3    3    0    0 -0.41380379019E+01 -0.13087899092E+02  0.12127809078E+02  0.18316664915E+02  0.51100000000E-03 0.  1.
         12    1    3    3    0    0 -0.51409146181E+01 -0.17381860418E+02  0.12734566570E+02  0.22152364669E+02  0.00000000000E+00 0. -1.
</event>
<event>
 7    1  0.1265344E-009  0.4778727E+02  0.7816164E-02  0.1312668E+00
        -11   -1    0    0    0    0  0.00000000000E+00  0.00000000000E+00  0.45593999997E+02  0.45594000000E+02  0.51100000000E-03 0.  1.
         11   -1    0    0    0    0 -0.00000000000E+00 -0.00000000000E+00 -0.45593999997E+02  0.45594000000E+02  0.51100000000E-03 0. -1.
    9900012    2    1    2    0    0  0.31639657656E+02 -0.25541776019E+02  0.15171451721E+02  0.47787271825E+02  0.20000003557E+02 0.  0.
         12    1    1    2    0    0 -0.31639657656E+02  0.25541776019E+02 -0.15171451721E+02  0.43400728175E+02  0.00000000000E+00 0. -1.
         11    1    3    3    0    0 -0.12504601846E+01 -0.33515125453E+01  0.16097955016E+01  0.39227195710E+01  0.51100000000E-03 0. -1.
        -11    1    3    3    0    0  0.52156032045E+01 -0.78954557429E+01  0.76319806984E+01  0.12156803355E+02  0.51100000000E-03 0.  1.
        -12    1    3    3    0    0  0.27674514636E+02 -0.14294807731E+02  0.59296755210E+01  0.31707748899E+02  0.00000000000E+00 0.  1.
</event>
<event>
 7    1  0.1265344E-009  0.4778727E+02  0.7816164E-02  0.1312668E+00
        -11   -1    0    0    0    0  0.00000000000E+00  0.00000000000E+00  0.45593999997E+02  0.45594000000E+02  0.51100000000E-03 0.  1.
         11   -1    0    0    0    0 -0.00000000000E+00 -0.00000000000E+00 -0.45593999997E+02  0.45594000000E+02  0.51100000000E-03 0. -1.
    9900012    2    1    2    0    0  0.67066389815E+01  0.40524995056E+02  0.14013172180E+02  0.47787271604E+02  0.20000002552E+02 0.  0.
         12    1    1    2    0    0 -0.67066389815E+01 -0.40524995056E+02 -0.14013172180E+02  0.43400728396E+02  0.00000000000E+00 0. -1.
         11    1    3    3    0    0  0.39842593712E+01  0.12514513026E+02  0.56095167305E+00  0.13145418443E+02  0.51100000000E-03 0. -1.
        -11    1    3    3    0    0 -0.26952959957E+01  0.24671293853E+02  0.13551811440E+02  0.28277003986E+02  0.51100000000E-03 0.  1.
        -12    1    3    3    0    0  0.54176756059E+01  0.33391881776E+01 -0.99590933065E-01  0.63648491743E+01  0.00000000000E+00 0.  1.
</event>
<event>
 7    1  0.1265344E-009  0.4778727E+02  0.7816164E-02  0.1312668E+00
        -11   -1    0    0    0    0  0.00000000000E+00  0.00000000000E+00  0.45593999997E+02  0.45594000000E+02  0.51100000000E-03 0. -1.
         11   -1    0    0    0    0 -0.00000000000E+00 -0.00000000000E+00 -0.45593999997E+02  0.45594000000E+02  0.51100000000E-03 0.  1.
    9900012    2    1    2    0    0  0.18742600520E+02 -0.22463270857E+02 -0.32058381296E+02  0.47787269324E+02  0.19999992157E+02 0.  0.
         12    1    1    2    0    0 -0.18742600520E+02  0.22463270857E+02  0.32058381296E+02  0.43400730676E+02  0.00000000000E+00 0. -1.
         11    1    3    3    0    0  0.10296868231E+02 -0.16717398352E+02 -0.24961321192E+02  0.31757903882E+02  0.51100000000E-03 0.  1.
        -11    1    3    3    0    0 -0.16528696680E+00  0.11800074050E+01 -0.45304855022E+01  0.46845529567E+01  0.51100000000E-03 0. -1.
        -12    1    3    3    0    0  0.86110192556E+01 -0.69258799106E+01 -0.25665746015E+01  0.11344812486E+02  0.00000000000E+00 0.  1.
</event>
<event>
 7    1  0.1265344E-009  0.4778727E+02  0.7816164E-02  0.1312668E+00
        -11   -1    0    0    0    0  0.00000000000E+00  0.00000000000E+00  0.45593999997E+02  0.45594000000E+02  0.51100000000E-03 0.  1.
         11   -1    0    0    0    0 -0.00000000000E+00 -0.00000000000E+00 -0.45593999997E+02  0.45594000000E+02  0.51100000000E-03 0. -1.
    9900012    2    1    2    0    0 -0.39217523429E+02 -0.14109831567E+02  0.12104627739E+02  0.47787268400E+02  0.19999987943E+02 0.  0.
         12    1    1    2    0    0  0.39217523429E+02  0.14109831567E+02 -0.12104627739E+02  0.43400731600E+02  0.00000000000E+00 0. -1.
         11    1    3    3    0    0 -0.20599269477E+02 -0.53618698214E+01 -0.19357221159E+01  0.21373501616E+02  0.51100000000E-03 0. -1.
        -11    1    3    3    0    0 -0.15605770185E+02 -0.97328490233E+01  0.90401822395E+01  0.20493738272E+02  0.51100000000E-03 0.  1.
        -12    1    3    3    0    0 -0.30124837668E+01  0.98488727812E+00  0.50001676157E+01  0.59200285118E+01  0.00000000000E+00 0.  1.
</event>
<event>
 7    1  0.1265344E-009  0.4778726E+02  0.7816164E-02  0.1312668E+00
        -11   -1    0    0    0    0  0.00000000000E+00  0.00000000000E+00  0.45593999997E+02  0.45594000000E+02  0.51100000000E-03 0.  1.
         11   -1    0    0    0    0 -0.00000000000E+00 -0.00000000000E+00 -0.45593999997E+02  0.45594000000E+02  0.51100000000E-03 0. -1.
    9900012    2    1    2    0    0 -0.47915217507E+01  0.38099811528E+01  0.42966840333E+02  0.47787262618E+02  0.19999961581E+02 0.  0.
         12    1    1    2    0    0  0.47915217507E+01 -0.38099811528E+01 -0.42966840333E+02  0.43400737382E+02  0.00000000000E+00 0. -1.
         11    1    3    3    0    0  0.12329255307E+01 -0.21905192785E+01  0.54340148993E+01  0.59872362790E+01  0.51100000000E-03 0. -1.
        -11    1    3    3    0    0 -0.32516180883E+00 -0.55254582534E+01  0.10806371509E+02  0.12141420204E+02  0.51100000000E-03 0.  1.
        -12    1    3    3    0    0 -0.56992854726E+01  0.11525958685E+02  0.26726453925E+02  0.29658606135E+02  0.00000000000E+00 0.  1.
</event>
<event>
 7    1  0.1265344E-009  0.4778727E+02  0.7816164E-02  0.1312668E+00
        -11   -1    0    0    0    0  0.00000000000E+00  0.00000000000E+00  0.45593999997E+02  0.45594000000E+02  0.51100000000E-03 0.  1.
         11   -1    0    0    0    0 -0.00000000000E+00 -0.00000000000E+00 -0.45593999997E+02  0.45594000000E+02  0.51100000000E-03 0. -1.
    9900012    2    1    2    0    0  0.24409881266E+02 -0.47484113140E+01  0.35570124406E+02  0.47787268858E+02  0.19999990030E+02 0.  0.
         12    1    1    2    0    0 -0.24409881266E+02  0.47484113140E+01 -0.35570124406E+02  0.43400731142E+02  0.00000000000E+00 0. -1.
         11    1    3    3    0    0  0.22338398352E+02 -0.59532121111E+01  0.17290061264E+02  0.28868512157E+02  0.51100000000E-03 0. -1.
        -11    1    3    3    0    0  0.21781874281E+01 -0.29077161077E+00  0.40314750159E+01  0.45914964518E+01  0.51100000000E-03 0.  1.
         12    1    3    3    0    0 -0.10670451361E+00  0.14955724079E+01  0.14248588125E+02  0.14327260249E+02  0.00000000000E+00 0. -1.
</event>
<event>
 7    1  0.1265344E-009  0.4778727E+02  0.7816164E-02  0.1312668E+00
        -11   -1    0    0    0    0  0.00000000000E+00  0.00000000000E+00  0.45593999997E+02  0.45594000000E+02  0.51100000000E-03 0. -1.
         11   -1    0    0    0    0 -0.00000000000E+00 -0.00000000000E+00 -0.45593999997E+02  0.45594000000E+02  0.51100000000E-03 0.  1.
    9900012    2    1    2    0    0 -0.98097699562E+01 -0.56299738267E+01 -0.41901012966E+02  0.47787273284E+02  0.20000010212E+02 0.  0.
         12    1    1    2    0    0  0.98097699562E+01  0.56299738267E+01  0.41901012966E+02  0.43400726716E+02  0.00000000000E+00 0. -1.
         11    1    3    3    0    0  0.11485801472E+01 -0.16805756600E+01 -0.16977509972E+02  0.17099105708E+02  0.51100000000E-03 0.  1.
        -11    1    3    3    0    0 -0.26914513868E+01 -0.60879714494E+01 -0.32790270823E+01  0.74201971539E+01  0.51100000000E-03 0. -1.
         12    1    3    3    0    0 -0.82668987166E+01  0.21385732826E+01 -0.21644475911E+02  0.23267970422E+02  0.00000000000E+00 0. -1.
</event>
<event>
 7    1  0.1265344E-009  0.4778727E+02  0.7816164E-02  0.1312668E+00
        -11   -1    0    0    0    0  0.00000000000E+00  0.00000000000E+00  0.45593999997E+02  0.45594000000E+02  0.51100000000E-03 0.  1.
         11   -1    0    0    0    0 -0.00000000000E+00 -0.00000000000E+00 -0.45593999997E+02  0.45594000000E+02  0.51100000000E-03 0. -1.
    9900012    2    1    2    0    0 -0.17311463533E+02 -0.11895362624E+02  0.37979428351E+02  0.47787269597E+02  0.19999993403E+02 0.  0.
         12    1    1    2    0    0  0.17311463533E+02  0.11895362624E+02 -0.37979428351E+02  0.43400730403E+02  0.00000000000E+00 0. -1.
         11    1    3    3    0    0 -0.80382698614E+01  0.17611235801E+01  0.17389908319E+02  0.19238613522E+02  0.51100000000E-03 0. -1.
        -11    1    3    3    0    0 -0.10237867333E+02 -0.69371272017E+01  0.97022812065E+01  0.15718521629E+02  0.51100000000E-03 0.  1.
        -12    1    3    3    0    0  0.96467366127E+00 -0.67193590019E+01  0.10887238825E+02  0.12830134446E+02  0.00000000000E+00 0.  1.
</event>
<event>
 7    1  0.1265344E-009  0.4778727E+02  0.7816164E-02  0.1312668E+00
        -11   -1    0    0    0    0  0.00000000000E+00  0.00000000000E+00  0.45593999997E+02  0.45594000000E+02  0.51100000000E-03 0.  1.
         11   -1    0    0    0    0 -0.00000000000E+00 -0.00000000000E+00 -0.45593999997E+02  0.45594000000E+02  0.51100000000E-03 0. -1.
    9900012    2    1    2    0    0  0.30787348228E+02  0.13612339148E+02  0.27394647317E+02  0.47787270863E+02  0.19999999173E+02 0.  0.
         12    1    1    2    0    0 -0.30787348228E+02 -0.13612339148E+02 -0.27394647317E+02  0.43400729137E+02  0.00000000000E+00 0. -1.
         11    1    3    3    0    0  0.23825009100E+01 -0.37189810068E+01  0.34216364158E+01  0.55870140807E+01  0.51100000000E-03 0. -1.
        -11    1    3    3    0    0  0.15079676825E+02  0.63381859752E+01  0.16941161085E+02  0.23549356546E+02  0.51100000000E-03 0.  1.
         12    1    3    3    0    0  0.13325170493E+02  0.10993134180E+02  0.70318498169E+01  0.18650900236E+02  0.00000000000E+00 0. -1.
</event>
<event>
 7    1  0.1265344E-009  0.4778727E+02  0.7816164E-02  0.1312668E+00
        -11   -1    0    0    0    0  0.00000000000E+00  0.00000000000E+00  0.45593999997E+02  0.45594000000E+02  0.51100000000E-03 0.  1.
         11   -1    0    0    0    0 -0.00000000000E+00 -0.00000000000E+00 -0.45593999997E+02  0.45594000000E+02  0.51100000000E-03 0. -1.
    9900012    2    1    2    0    0  0.61866288304E+01  0.41996441488E+02  0.90359101899E+01  0.47787272507E+02  0.20000006670E+02 0.  0.
         12    1    1    2    0    0 -0.61866288304E+01 -0.41996441488E+02 -0.90359101899E+01  0.43400727493E+02  0.00000000000E+00 0. -1.
         11    1    3    3    0    0 -0.40658720966E+01  0.12594340226E+02  0.53544688243E+01  0.14276521225E+02  0.51100000000E-03 0. -1.
        -11    1    3    3    0    0  0.52944004373E+01  0.27463644955E+02  0.34608167802E+01  0.28182613847E+02  0.51100000000E-03 0.  1.
         12    1    3    3    0    0  0.49581004897E+01  0.19384563068E+01  0.22062458538E+00  0.53281374351E+01  0.00000000000E+00 0. -1.
</event>
<event>
 7    1  0.1265344E-009  0.4778727E+02  0.7816164E-02  0.1312668E+00
        -11   -1    0    0    0    0  0.00000000000E+00  0.00000000000E+00  0.45593999997E+02  0.45594000000E+02  0.51100000000E-03 0.  1.
         11   -1    0    0    0    0 -0.00000000000E+00 -0.00000000000E+00 -0.45593999997E+02  0.45594000000E+02  0.51100000000E-03 0. -1.
    9900012    2    1    2    0    0 -0.55162488910E+01 -0.62544520228E+01  0.42591970339E+02  0.47787272941E+02  0.20000008647E+02 0.  0.
         12    1    1    2    0    0  0.55162488910E+01  0.62544520228E+01 -0.42591970339E+02  0.43400727059E+02  0.00000000000E+00 0. -1.
         11    1    3    3    0    0 -0.34596887206E+01 -0.15946027481E+01  0.31157883641E+02  0.31389901516E+02  0.51100000000E-03 0. -1.
        -11    1    3    3    0    0 -0.40842655048E+00 -0.44930823083E+01  0.13215724681E+02  0.13964597380E+02  0.51100000000E-03 0.  1.
         12    1    3    3    0    0 -0.16481336199E+01 -0.16676696642E+00 -0.17816379832E+01  0.24327740449E+01  0.00000000000E+00 0. -1.
</event>
<event>
 7    1  0.1265344E-009  0.4778727E+02  0.7816164E-02  0.1312668E+00
        -11   -1    0    0    0    0  0.00000000000E+00  0.00000000000E+00  0.45593999997E+02  0.45594000000E+02  0.51100000000E-03 0.  1.
         11   -1    0    0    0    0 -0.00000000000E+00 -0.00000000000E+00 -0.45593999997E+02  0.45594000000E+02  0.51100000000E-03 0. -1.
    9900012    2    1    2    0    0 -0.38170419627E+02 -0.69955833417E+01  0.19434617184E+02  0.47787268833E+02  0.19999989915E+02 0.  0.
         12    1    1    2    0    0  0.38170419627E+02  0.69955833417E+01 -0.19434617184E+02  0.43400731167E+02  0.00000000000E+00 0. -1.
         11    1    3    3    0    0  0.11373939727E+01 -0.35592607220E-01  0.25581919646E+01  0.27998711170E+01  0.51100000000E-03 0. -1.
        -11    1    3    3    0    0  0.51571893772E+00 -0.44753516987E+00 -0.69572616500E+00  0.97482763029E+00  0.51100000000E-03 0.  1.
        -12    1    3    3    0    0 -0.39823532537E+02 -0.65124555647E+01  0.17572151384E+02  0.44012570085E+02  0.00000000000E+00 0.  1.
</event>
<event>
 7    1  0.1265344E-009  0.4778727E+02  0.7816164E-02  0.1312668E+00
        -11   -1    0    0    0    0  0.00000000000E+00  0.00000000000E+00  0.45593999997E+02  0.45594000000E+02  0.51100000000E-03 0. -1.
         11   -1    0    0    0    0 -0.00000000000E+00 -0.00000000000E+00 -0.45593999997E+02  0.45594000000E+02  0.51100000000E-03 0.  1.
    9900012    2    1    2    0    0 -0.67040198482E+01  0.10115579328E+02 -0.41669586734E+02  0.47787270906E+02  0.19999999370E+02 0.  0.
         12    1    1    2    0    0  0.67040198482E+01 -0.10115579328E+02  0.41669586734E+02  0.43400729094E+02  0.00000000000E+00 0. -1.
         11    1    3    3    0    0  0.51394104214E+01  0.37026649274E+00 -0.14233729384E+02  0.15137691012E+02  0.51100000000E-03 0. -1.
        -11    1    3    3    0    0 -0.62710440699E+01 -0.18684298422E+00 -0.10772294698E+02  0.12466083481E+02  0.51100000000E-03 0.  1.
        -12    1    3    3    0    0 -0.55723861997E+01  0.99321558191E+01 -0.16663562652E+02  0.20183496413E+02  0.00000000000E+00 0.  1.
</event>
<event>
 7    1  0.1265344E-009  0.4778727E+02  0.7816164E-02  0.1312668E+00
        -11   -1    0    0    0    0  0.00000000000E+00  0.00000000000E+00  0.45593999997E+02  0.45594000000E+02  0.51100000000E-03 0.  1.
         11   -1    0    0    0    0 -0.00000000000E+00 -0.00000000000E+00 -0.45593999997E+02  0.45594000000E+02  0.51100000000E-03 0. -1.
    9900012    2    1    2    0    0 -0.58655706079E+01  0.12088034899E+02  0.41268605337E+02  0.47787270827E+02  0.19999999007E+02 0.  0.
         12    1    1    2    0    0  0.58655706079E+01 -0.12088034899E+02 -0.41268605337E+02  0.43400729173E+02  0.00000000000E+00 0. -1.
         11    1    3    3    0    0 -0.25669847593E+01  0.33291792746E+01 -0.10367226723E+01  0.43298544499E+01  0.51100000000E-03 0. -1.
        -11    1    3    3    0    0 -0.22272255868E+01  0.44740800351E+01  0.15363355120E+02  0.16155822690E+02  0.51100000000E-03 0.  1.
         12    1    3    3    0    0 -0.10713602618E+01  0.42847755894E+01  0.26941972889E+02  0.27301593687E+02  0.00000000000E+00 0. -1.
</event>
<event>
 7    1  0.1265344E-009  0.4778727E+02  0.7816164E-02  0.1312668E+00
        -11   -1    0    0    0    0  0.00000000000E+00  0.00000000000E+00  0.45593999997E+02  0.45594000000E+02  0.51100000000E-03 0. -1.
         11   -1    0    0    0    0 -0.00000000000E+00 -0.00000000000E+00 -0.45593999997E+02  0.45594000000E+02  0.51100000000E-03 0.  1.
    9900012    2    1    2    0    0  0.18136407178E+02 -0.21506312280E+02 -0.33048029059E+02  0.47787274685E+02  0.20000016597E+02 0.  0.
         12    1    1    2    0    0 -0.18136407178E+02  0.21506312280E+02  0.33048029059E+02  0.43400725315E+02  0.00000000000E+00 0. -1.
         11    1    3    3    0    0  0.67556900111E+01 -0.87069272278E+01 -0.16976617326E+02  0.20239947267E+02  0.51100000000E-03 0. -1.
        -11    1    3    3    0    0  0.61374423568E+01 -0.13983817261E+02 -0.65572518789E+01  0.16619653918E+02  0.51100000000E-03 0.  1.
        -12    1    3    3    0    0  0.52432748098E+01  0.11844322091E+01 -0.95141598541E+01  0.10927673500E+02  0.00000000000E+00 0.  1.
</event>
<event>
 7    1  0.1265344E-009  0.4778728E+02  0.7816164E-02  0.1312668E+00
        -11   -1    0    0    0    0  0.00000000000E+00  0.00000000000E+00  0.45593999997E+02  0.45594000000E+02  0.51100000000E-03 0.  1.
         11   -1    0    0    0    0 -0.00000000000E+00 -0.00000000000E+00 -0.45593999997E+02  0.45594000000E+02  0.51100000000E-03 0. -1.
    9900012    2    1    2    0    0 -0.28438973492E+02  0.16808887641E+02  0.28147979269E+02  0.47787278186E+02  0.20000032563E+02 0.  0.
         12    1    1    2    0    0  0.28438973492E+02 -0.16808887641E+02 -0.28147979269E+02  0.43400721814E+02  0.00000000000E+00 0. -1.
         11    1    3    3    0    0 -0.55240083775E+00  0.60757434267E+00 -0.21387474401E+01  0.22909679485E+01  0.51100000000E-03 0. -1.
        -11    1    3    3    0    0 -0.62773209180E+01  0.30018878969E+01  0.13283507484E+02  0.14995588024E+02  0.51100000000E-03 0.  1.
         12    1    3    3    0    0 -0.21609251736E+02  0.13199425402E+02  0.17003219225E+02  0.30500722214E+02  0.00000000000E+00 0. -1.
</event>
<event>
 7    1  0.1265344E-009  0.4778727E+02  0.7816164E-02  0.1312668E+00
        -11   -1    0    0    0    0  0.00000000000E+00  0.00000000000E+00  0.45593999997E+02  0.45594000000E+02  0.51100000000E-03 0.  1.
         11   -1    0    0    0    0 -0.00000000000E+00 -0.00000000000E+00 -0.45593999997E+02  0.45594000000E+02  0.51100000000E-03 0. -1.
    9900012    2    1    2    0    0 -0.30904915731E+02 -0.10918756918E+02  0.28448028309E+02  0.47787269780E+02  0.19999994236E+02 0.  0.
         12    1    1    2    0    0  0.30904915731E+02  0.10918756918E+02 -0.28448028309E+02  0.43400730220E+02  0.00000000000E+00 0. -1.
         11    1    3    3    0    0 -0.13146149400E+02 -0.60607738717E+01  0.95601013967E+01  0.17347903705E+02  0.51100000000E-03 0. -1.
        -11    1    3    3    0    0 -0.15432988833E+02 -0.48413884603E+01  0.21523981125E+02  0.26923928953E+02  0.51100000000E-03 0.  1.
        -12    1    3    3    0    0 -0.23257774981E+01 -0.16594585879E-01 -0.26360542128E+01  0.35154371228E+01  0.00000000000E+00 0.  1.
</event>
<event>
 7    1  0.1265344E-009  0.4778727E+02  0.7816164E-02  0.1312668E+00
        -11   -1    0    0    0    0  0.00000000000E+00  0.00000000000E+00  0.45593999997E+02  0.45594000000E+02  0.51100000000E-03 0.  1.
         11   -1    0    0    0    0 -0.00000000000E+00 -0.00000000000E+00 -0.45593999997E+02  0.45594000000E+02  0.51100000000E-03 0. -1.
    9900012    2    1    2    0    0 -0.26289221206E+02 -0.25399599824E+02  0.23395735001E+02  0.47787271445E+02  0.20000001828E+02 0.  0.
         12    1    1    2    0    0  0.26289221206E+02  0.25399599824E+02 -0.23395735001E+02  0.43400728555E+02  0.00000000000E+00 0. -1.
         11    1    3    3    0    0 -0.16196872460E+02 -0.62467147623E+01  0.55075646092E+01  0.18212451537E+02  0.51100000000E-03 0. -1.
        -11    1    3    3    0    0  0.11318115455E+01 -0.37895927455E+01  0.87397530477E+00  0.40504127748E+01  0.51100000000E-03 0.  1.
        -12    1    3    3    0    0 -0.11224160291E+02 -0.15363292316E+02  0.17014195087E+02  0.25524407133E+02  0.00000000000E+00 0.  1.
</event>
<event>
 7    1  0.1265344E-009  0.4778727E+02  0.7816164E-02  0.1312668E+00
        -11   -1    0    0    0    0  0.00000000000E+00  0.00000000000E+00  0.45593999997E+02  0.45594000000E+02  0.51100000000E-03 0.  1.
         11   -1    0    0    0    0 -0.00000000000E+00 -0.00000000000E+00 -0.45593999997E+02  0.45594000000E+02  0.51100000000E-03 0. -1.
    9900012    2    1    2    0    0 -0.15859764896E+01 -0.71858668035E+01  0.42772320674E+02  0.47787269372E+02  0.19999992376E+02 0.  0.
         12    1    1    2    0    0  0.15859764896E+01  0.71858668035E+01 -0.42772320674E+02  0.43400730628E+02  0.00000000000E+00 0. -1.
         11    1    3    3    0    0 -0.45417738850E+01  0.52951868774E+01  0.99437861206E+01  0.12146834845E+02  0.51100000000E-03 0.  1.
        -11    1    3    3    0    0 -0.50372265214E+00 -0.87719423542E+01  0.21652244627E+02  0.23367079553E+02  0.51100000000E-03 0. -1.
        -12    1    3    3    0    0  0.34595200476E+01 -0.37091113268E+01  0.11176289927E+02  0.12273354974E+02  0.00000000000E+00 0.  1.
</event>
<event>
 7    1  0.1265344E-009  0.4778727E+02  0.7816164E-02  0.1312668E+00
        -11   -1    0    0    0    0  0.00000000000E+00  0.00000000000E+00  0.45593999997E+02  0.45594000000E+02  0.51100000000E-03 0.  1.
         11   -1    0    0    0    0 -0.00000000000E+00 -0.00000000000E+00 -0.45593999997E+02  0.45594000000E+02  0.51100000000E-03 0. -1.
    9900012    2    1    2    0    0  0.59056027153E+01 -0.66342031057E+00  0.42991941495E+02  0.47787270704E+02  0.19999998447E+02 0.  0.
         12    1    1    2    0    0 -0.59056027153E+01  0.66342031057E+00 -0.42991941495E+02  0.43400729296E+02  0.00000000000E+00 0. -1.
         11    1    3    3    0    0  0.87961120409E+01 -0.34184994054E+01  0.20344490127E+02  0.22426680628E+02  0.51100000000E-03 0. -1.
        -11    1    3    3    0    0 -0.35743632915E+01 -0.22144573674E+01  0.18125853770E+02  0.18607161781E+02  0.51100000000E-03 0.  1.
         12    1    3    3    0    0  0.68385396582E+00  0.49695364622E+01  0.45215975981E+01  0.67534282949E+01  0.00000000000E+00 0. -1.
</event>
<event>
 7    1  0.1265344E-009  0.4778727E+02  0.7816164E-02  0.1312668E+00
        -11   -1    0    0    0    0  0.00000000000E+00  0.00000000000E+00  0.45593999997E+02  0.45594000000E+02  0.51100000000E-03 0.  1.
         11   -1    0    0    0    0 -0.00000000000E+00 -0.00000000000E+00 -0.45593999997E+02  0.45594000000E+02  0.51100000000E-03 0. -1.
    9900012    2    1    2    0    0  0.11343011656E+02  0.39608154442E+02  0.13643815830E+02  0.47787268184E+02  0.19999986959E+02 0.  0.
         12    1    1    2    0    0 -0.11343011656E+02 -0.39608154442E+02 -0.13643815830E+02  0.43400731816E+02  0.00000000000E+00 0. -1.
         11    1    3    3    0    0 -0.10807904147E+00 -0.91891319931E+00  0.17475876691E+01  0.19774087765E+01  0.51100000000E-03 0. -1.
        -11    1    3    3    0    0  0.90416955453E+01  0.22600593964E+02  0.13171666476E+02  0.27677281367E+02  0.51100000000E-03 0.  1.
        -12    1    3    3    0    0  0.24093951522E+01  0.17926473677E+02 -0.12754383151E+01  0.18132578041E+02  0.00000000000E+00 0.  1.
</event>
<event>
 7    1  0.1265344E-009  0.4778724E+02  0.7816164E-02  0.1312668E+00
        -11   -1    0    0    0    0  0.00000000000E+00  0.00000000000E+00  0.45593999997E+02  0.45594000000E+02  0.51100000000E-03 0. -1.
         11   -1    0    0    0    0 -0.00000000000E+00 -0.00000000000E+00 -0.45593999997E+02  0.45594000000E+02  0.51100000000E-03 0.  1.
    9900012    2    1    2    0    0 -0.38699212948E+02 -0.75420176912E+01 -0.18141524776E+02  0.47787239236E+02  0.19999854974E+02 0.  0.
         12    1    1    2    0    0  0.38699212948E+02  0.75420176912E+01  0.18141524776E+02  0.43400760764E+02  0.00000000000E+00 0. -1.
         11    1    3    3    0    0 -0.22050417977E+02 -0.55290352215E+01 -0.12691663060E+02  0.26035926620E+02  0.51100000000E-03 0. -1.
        -11    1    3    3    0    0 -0.17611919789E+00 -0.43974270750E+01 -0.84037257324E+00  0.44804697494E+01  0.51100000000E-03 0.  1.
         12    1    3    3    0    0 -0.16472675773E+02  0.23844446054E+01 -0.46094891427E+01  0.17270842867E+02  0.00000000000E+00 0. -1.
</event>
<event>
 7    1  0.1265344E-009  0.4778727E+02  0.7816164E-02  0.1312668E+00
        -11   -1    0    0    0    0  0.00000000000E+00  0.00000000000E+00  0.45593999997E+02  0.45594000000E+02  0.51100000000E-03 0.  1.
         11   -1    0    0    0    0 -0.00000000000E+00 -0.00000000000E+00 -0.45593999997E+02  0.45594000000E+02  0.51100000000E-03 0. -1.
    9900012    2    1    2    0    0 -0.76813624875E+00 -0.54627188968E+01  0.43048716305E+02  0.47787270668E+02  0.19999998282E+02 0.  0.
         12    1    1    2    0    0  0.76813624875E+00  0.54627188968E+01 -0.43048716305E+02  0.43400729332E+02  0.00000000000E+00 0. -1.
         11    1    3    3    0    0  0.51573844651E+01 -0.23604372735E+01  0.73548467788E+01  0.92878442087E+01  0.51100000000E-03 0. -1.
        -11    1    3    3    0    0 -0.51543295902E+01 -0.76953913044E+01  0.18543853465E+02  0.20728257583E+02  0.51100000000E-03 0.  1.
        -12    1    3    3    0    0 -0.77119112372E+00  0.45931096810E+01  0.17150016062E+02  0.17771168876E+02  0.00000000000E+00 0.  1.
</event>
<event>
 7    1  0.1265344E-009  0.4778727E+02  0.7816164E-02  0.1312668E+00
        -11   -1    0    0    0    0  0.00000000000E+00  0.00000000000E+00  0.45593999997E+02  0.45594000000E+02  0.51100000000E-03 0.  1.
         11   -1    0    0    0    0 -0.00000000000E+00 -0.00000000000E+00 -0.45593999997E+02  0.45594000000E+02  0.51100000000E-03 0. -1.
    9900012    2    1    2    0    0 -0.14627551438E+02  0.11513349004E+02  0.39205883762E+02  0.47787265123E+02  0.19999973001E+02 0.  0.
         12    1    1    2    0    0  0.14627551438E+02 -0.11513349004E+02 -0.39205883762E+02  0.43400734877E+02  0.00000000000E+00 0. -1.
         11    1    3    3    0    0 -0.32388558427E+01  0.17293680907E+01  0.11174626305E+01  0.38379192481E+01  0.51100000000E-03 0. -1.
        -11    1    3    3    0    0 -0.44125617859E+00 -0.18180486670E+01  0.18917863467E+02  0.19010143776E+02  0.51100000000E-03 0.  1.
        -12    1    3    3    0    0 -0.10947439416E+02  0.11602029580E+02  0.19170557664E+02  0.24939202098E+02  0.00000000000E+00 0.  1.
</event>
<event>
 7    1  0.1265344E-009  0.4778727E+02  0.7816164E-02  0.1312668E+00
        -11   -1    0    0    0    0  0.00000000000E+00  0.00000000000E+00  0.45593999997E+02  0.45594000000E+02  0.51100000000E-03 0.  1.
         11   -1    0    0    0    0 -0.00000000000E+00 -0.00000000000E+00 -0.45593999997E+02  0.45594000000E+02  0.51100000000E-03 0. -1.
    9900012    2    1    2    0    0 -0.33867445178E+02  0.26767616007E+02  0.44848752716E+01  0.47787271714E+02  0.20000003053E+02 0.  0.
         12    1    1    2    0    0  0.33867445178E+02 -0.26767616007E+02 -0.44848752716E+01  0.43400728286E+02  0.00000000000E+00 0. -1.
         11    1    3    3    0    0 -0.82748492028E+01  0.92669122736E+01 -0.20156351010E+01  0.12586166118E+02  0.51100000000E-03 0. -1.
        -11    1    3    3    0    0 -0.16978956308E+02  0.18164779689E+02  0.86012129626E+01  0.26310169956E+02  0.51100000000E-03 0.  1.
         12    1    3    3    0    0 -0.86136396667E+01 -0.66407595536E+00 -0.21007025900E+01  0.88909356400E+01  0.00000000000E+00 0. -1.
</event>
<event>
 7    1  0.1265344E-009  0.4778727E+02  0.7816164E-02  0.1312668E+00
        -11   -1    0    0    0    0  0.00000000000E+00  0.00000000000E+00  0.45593999997E+02  0.45594000000E+02  0.51100000000E-03 0. -1.
         11   -1    0    0    0    0 -0.00000000000E+00 -0.00000000000E+00 -0.45593999997E+02  0.45594000000E+02  0.51100000000E-03 0.  1.
    9900012    2    1    2    0    0 -0.27640897406E+02 -0.11979615862E+02 -0.31242482879E+02  0.47787272563E+02  0.20000006923E+02 0.  0.
         12    1    1    2    0    0  0.27640897406E+02  0.11979615862E+02  0.31242482879E+02  0.43400727437E+02  0.00000000000E+00 0. -1.
         11    1    3    3    0    0  0.30057437020E+00 -0.56048494714E+01 -0.10916949058E+02  0.12275359854E+02  0.51100000000E-03 0. -1.
        -11    1    3    3    0    0 -0.59205019116E+01  0.43366612941E+00 -0.28408439877E+01  0.65810944394E+01  0.51100000000E-03 0.  1.
         12    1    3    3    0    0 -0.22020969865E+02 -0.68084325203E+01 -0.17484689834E+02  0.28930818270E+02  0.00000000000E+00 0. -1.
</event>
<event>
 7    1  0.1265344E-009  0.4778727E+02  0.7816164E-02  0.1312668E+00
        -11   -1    0    0    0    0  0.00000000000E+00  0.00000000000E+00  0.45593999997E+02  0.45594000000E+02  0.51100000000E-03 0.  1.
         11   -1    0    0    0    0 -0.00000000000E+00 -0.00000000000E+00 -0.45593999997E+02  0.45594000000E+02  0.51100000000E-03 0. -1.
    9900012    2    1    2    0    0  0.19992020473E+02 -0.28718773052E+01  0.38414774421E+02  0.47787268950E+02  0.19999990449E+02 0.  0.
         12    1    1    2    0    0 -0.19992020473E+02  0.28718773052E+01 -0.38414774421E+02  0.43400731050E+02  0.00000000000E+00 0. -1.
         11    1    3    3    0    0  0.92718013663E+01 -0.64543737741E+01  0.11950869626E+02  0.16445319288E+02  0.51100000000E-03 0. -1.
        -11    1    3    3    0    0  0.10838141512E+02  0.16725040230E+01  0.27171981073E+02  0.29301521067E+02  0.51100000000E-03 0.  1.
        -12    1    3    3    0    0 -0.11792240546E+00  0.19099924458E+01 -0.70807627740E+00  0.20404285951E+01  0.00000000000E+00 0.  1.
</event>
<event>
 7    1  0.1265344E-009  0.4778727E+02  0.7816164E-02  0.1312668E+00
        -11   -1    0    0    0    0  0.00000000000E+00  0.00000000000E+00  0.45593999997E+02  0.45594000000E+02  0.51100000000E-03 0.  1.
         11   -1    0    0    0    0 -0.00000000000E+00 -0.00000000000E+00 -0.45593999997E+02  0.45594000000E+02  0.51100000000E-03 0. -1.
    9900012    2    1    2    0    0  0.11007572662E+02  0.16883452727E+02  0.38437035677E+02  0.47787270242E+02  0.19999996342E+02 0.  0.
         12    1    1    2    0    0 -0.11007572662E+02 -0.16883452727E+02 -0.38437035677E+02  0.43400729758E+02  0.00000000000E+00 0. -1.
         11    1    3    3    0    0 -0.84139237674E+00 -0.15060674276E+01  0.42963970740E+01  0.46298173081E+01  0.51100000000E-03 0.  1.
        -11    1    3    3    0    0  0.10525175779E+02  0.75730114598E+01  0.90785790929E+01  0.15828784740E+02  0.51100000000E-03 0. -1.
         12    1    3    3    0    0  0.13237892591E+01  0.10816508695E+02  0.25062059510E+02  0.27328668194E+02  0.00000000000E+00 0. -1.
</event>
<event>
 7    1  0.1265344E-009  0.4778727E+02  0.7816164E-02  0.1312668E+00
        -11   -1    0    0    0    0  0.00000000000E+00  0.00000000000E+00  0.45593999997E+02  0.45594000000E+02  0.51100000000E-03 0.  1.
         11   -1    0    0    0    0 -0.00000000000E+00 -0.00000000000E+00 -0.45593999997E+02  0.45594000000E+02  0.51100000000E-03 0. -1.
    9900012    2    1    2    0    0  0.27386187863E+02  0.20202152639E+02  0.26934978802E+02  0.47787270282E+02  0.19999996525E+02 0.  0.
         12    1    1    2    0    0 -0.27386187863E+02 -0.20202152639E+02 -0.26934978802E+02  0.43400729718E+02  0.00000000000E+00 0. -1.
         11    1    3    3    0    0  0.39251245647E+01 -0.64326298683E+00  0.50308987782E+00  0.40091757014E+01  0.51100000000E-03 0. -1.
        -11    1    3    3    0    0  0.17782150359E+02  0.21235715052E+02  0.16248936285E+02  0.32112122256E+02  0.51100000000E-03 0.  1.
        -12    1    3    3    0    0  0.56789129401E+01 -0.39029942557E+00  0.10182952640E+02  0.11665972325E+02  0.00000000000E+00 0.  1.
</event>
<event>
 7    1  0.1265344E-009  0.4778725E+02  0.7816164E-02  0.1312668E+00
        -11   -1    0    0    0    0  0.00000000000E+00  0.00000000000E+00  0.45593999997E+02  0.45594000000E+02  0.51100000000E-03 0.  1.
         11   -1    0    0    0    0 -0.00000000000E+00 -0.00000000000E+00 -0.45593999997E+02  0.45594000000E+02  0.51100000000E-03 0. -1.
    9900012    2    1    2    0    0 -0.30931488129E+02  0.28368673123E+02  0.11049267780E+02  0.47787252413E+02  0.19999915051E+02 0.  0.
         12    1    1    2    0    0  0.30931488129E+02 -0.28368673123E+02 -0.11049267780E+02  0.43400747587E+02  0.00000000000E+00 0. -1.
         11    1    3    3    0    0 -0.95671968502E+01  0.69292252512E+01  0.82618567463E+01  0.14415397855E+02  0.51100000000E-03 0. -1.
        -11    1    3    3    0    0 -0.12152260633E+02  0.82379227761E+01  0.76509830817E+01  0.16555311913E+02  0.51100000000E-03 0.  1.
        -12    1    3    3    0    0 -0.92120306465E+01  0.13201525095E+02 -0.48635720480E+01  0.16816542645E+02  0.00000000000E+00 0.  1.
</event>
<event>
 7    1  0.1265344E-009  0.4778727E+02  0.7816164E-02  0.1312668E+00
        -11   -1    0    0    0    0  0.00000000000E+00  0.00000000000E+00  0.45593999997E+02  0.45594000000E+02  0.51100000000E-03 0.  1.
         11   -1    0    0    0    0 -0.00000000000E+00 -0.00000000000E+00 -0.45593999997E+02  0.45594000000E+02  0.51100000000E-03 0. -1.
    9900012    2    1    2    0    0  0.33037094440E+02 -0.27982871120E+02 -0.30220200593E+01  0.47787270854E+02  0.19999999130E+02 0.  0.
         12    1    1    2    0    0 -0.33037094440E+02  0.27982871120E+02  0.30220200593E+01  0.43400729146E+02  0.00000000000E+00 0. -1.
         11    1    3    3    0    0  0.22238925933E+02 -0.24554839884E+02 -0.96262788073E+01  0.34498916393E+02  0.51100000000E-03 0. -1.
        -11    1    3    3    0    0  0.41277898952E+01 -0.51597025697E+00  0.16065423937E+01  0.44593557212E+01  0.51100000000E-03 0.  1.
         12    1    3    3    0    0  0.66703786121E+01 -0.29120609793E+01  0.49977163543E+01  0.88289987390E+01  0.00000000000E+00 0. -1.
</event>
<event>
 7    1  0.1265344E-009  0.4778728E+02  0.7816164E-02  0.1312668E+00
        -11   -1    0    0    0    0  0.00000000000E+00  0.00000000000E+00  0.45593999997E+02  0.45594000000E+02  0.51100000000E-03 0.  1.
         11   -1    0    0    0    0 -0.00000000000E+00 -0.00000000000E+00 -0.45593999997E+02  0.45594000000E+02  0.51100000000E-03 0. -1.
    9900012    2    1    2    0    0 -0.28228743276E+02  0.60588055040E+01  0.32404493642E+02  0.47787282503E+02  0.20000052244E+02 0.  0.
         12    1    1    2    0    0  0.28228743276E+02 -0.60588055040E+01 -0.32404493642E+02  0.43400717497E+02  0.00000000000E+00 0. -1.
         11    1    3    3    0    0 -0.28643850333E+01  0.74752871518E+01  0.32231616161E+01  0.86297966770E+01  0.51100000000E-03 0. -1.
        -11    1    3    3    0    0 -0.16196722276E+02 -0.18668482553E+01  0.14370798467E+02  0.21733356476E+02  0.51100000000E-03 0.  1.
        -12    1    3    3    0    0 -0.91676359665E+01  0.45036660742E+00  0.14810533559E+02  0.17424129350E+02  0.00000000000E+00 0.  1.
</event>
<event>
 7    1  0.1322884E-009  0.4778732E+02  0.7816164E-02  0.1312668E+00
        -11   -1    0    0    0    0  0.00000000000E+00  0.00000000000E+00  0.45593999997E+02  0.45594000000E+02  0.51100000000E-03 0.  1.
         11   -1    0    0    0    0 -0.00000000000E+00 -0.00000000000E+00 -0.45593999997E+02  0.45594000000E+02  0.51100000000E-03 0. -1.
    9900012    2    1    2    0    0  0.38260837763E+02 -0.12025564528E+02  0.16586535982E+02  0.47787319309E+02  0.20000220058E+02 0.  0.
         12    1    1    2    0    0 -0.38260837763E+02  0.12025564528E+02 -0.16586535982E+02  0.43400680691E+02  0.00000000000E+00 0. -1.
         11    1    3    3    0    0  0.64021829912E+00 -0.13330309093E+01  0.55264048873E+01  0.57208392842E+01  0.51100000000E-03 0. -1.
        -11    1    3    3    0    0  0.18461432376E+02 -0.10264646413E+02  0.83420002590E+01  0.22710711569E+02  0.51100000000E-03 0.  1.
         12    1    3    3    0    0  0.19159187087E+02 -0.42788720590E+00  0.27181308360E+01  0.19355768457E+02  0.00000000000E+00 0. -1.
</event>
<event>
 7    1  0.1265344E-009  0.4778727E+02  0.7816164E-02  0.1312668E+00
        -11   -1    0    0    0    0  0.00000000000E+00  0.00000000000E+00  0.45593999997E+02  0.45594000000E+02  0.51100000000E-03 0.  1.
         11   -1    0    0    0    0 -0.00000000000E+00 -0.00000000000E+00 -0.45593999997E+02  0.45594000000E+02  0.51100000000E-03 0. -1.
    9900012    2    1    2    0    0 -0.63275412667E+01  0.21354737813E+02  0.37249973104E+02  0.47787273026E+02  0.20000009036E+02 0.  0.
         12    1    1    2    0    0  0.63275412667E+01 -0.21354737813E+02 -0.37249973104E+02  0.43400726974E+02  0.00000000000E+00 0. -1.
         11    1    3    3    0    0 -0.53583579651E+01  0.56172497655E+01  0.25460320954E+02  0.26617540051E+02  0.51100000000E-03 0. -1.
        -11    1    3    3    0    0  0.18225391216E+01  0.86521043397E+01  0.99967511359E+01  0.13345995350E+02  0.51100000000E-03 0.  1.
        -12    1    3    3    0    0 -0.27917224232E+01  0.70853837082E+01  0.17929010144E+01  0.78237376252E+01  0.00000000000E+00 0.  1.
</event>
<event>
 7    1  0.1265344E-009  0.4778724E+02  0.7816164E-02  0.1312668E+00
        -11   -1    0    0    0    0  0.00000000000E+00  0.00000000000E+00  0.45593999997E+02  0.45594000000E+02  0.51100000000E-03 0.  1.
         11   -1    0    0    0    0 -0.00000000000E+00 -0.00000000000E+00 -0.45593999997E+02  0.45594000000E+02  0.51100000000E-03 0. -1.
    9900012    2    1    2    0    0 -0.53088537542E+01 -0.16223455353E+02  0.39902898824E+02  0.47787242330E+02  0.19999869080E+02 0.  0.
         12    1    1    2    0    0  0.53088537542E+01  0.16223455353E+02 -0.39902898824E+02  0.43400757670E+02  0.00000000000E+00 0. -1.
         11    1    3    3    0    0  0.19229658553E+01 -0.93707533931E+01  0.17108642162E+02  0.19601389077E+02  0.51100000000E-03 0. -1.
        -11    1    3    3    0    0 -0.13847454518E+01 -0.96460508885E+01  0.10753466036E+02  0.14512093225E+02  0.51100000000E-03 0.  1.
        -12    1    3    3    0    0 -0.58470741576E+01  0.27933489290E+01  0.12040790625E+02  0.13673760029E+02  0.00000000000E+00 0.  1.
</event>
<event>
 7    1  0.1265344E-009  0.4778727E+02  0.7816164E-02  0.1312668E+00
        -11   -1    0    0    0    0  0.00000000000E+00  0.00000000000E+00  0.45593999997E+02  0.45594000000E+02  0.51100000000E-03 0.  1.
         11   -1    0    0    0    0 -0.00000000000E+00 -0.00000000000E+00 -0.45593999997E+02  0.45594000000E+02  0.51100000000E-03 0. -1.
    9900012    2    1    2    0    0  0.27935230522E+02 -0.20183031240E+02  0.26379755987E+02  0.47787269818E+02  0.19999994408E+02 0.  0.
         12    1    1    2    0    0 -0.27935230522E+02  0.20183031240E+02 -0.26379755987E+02  0.43400730182E+02  0.00000000000E+00 0. -1.
         11    1    3    3    0    0  0.25000515311E+02 -0.87729644273E+01  0.15020962926E+02  0.30456854699E+02  0.51100000000E-03 0. -1.
        -11    1    3    3    0    0  0.43883475358E+01 -0.97034689585E+01  0.81230957177E+01  0.13394013149E+02  0.51100000000E-03 0.  1.
        -12    1    3    3    0    0 -0.14536323248E+01 -0.17065978544E+01  0.32356973441E+01  0.39364019707E+01  0.00000000000E+00 0.  1.
</event>
<event>
 7    1  0.1265344E-009  0.4778728E+02  0.7816164E-02  0.1312668E+00
        -11   -1    0    0    0    0  0.00000000000E+00  0.00000000000E+00  0.45593999997E+02  0.45594000000E+02  0.51100000000E-03 0.  1.
         11   -1    0    0    0    0 -0.00000000000E+00 -0.00000000000E+00 -0.45593999997E+02  0.45594000000E+02  0.51100000000E-03 0. -1.
    9900012    2    1    2    0    0  0.37131213948E+02 -0.76478722024E+01  0.21128307649E+02  0.47787281313E+02  0.20000046819E+02 0.  0.
         12    1    1    2    0    0 -0.37131213948E+02  0.76478722024E+01 -0.21128307649E+02  0.43400718687E+02  0.00000000000E+00 0. -1.
         11    1    3    3    0    0  0.59910198416E+01 -0.64113906975E+01 -0.13056034612E+01  0.88714626798E+01  0.51100000000E-03 0. -1.
        -11    1    3    3    0    0  0.60981706016E+01  0.12622073913E+01  0.71078714051E+01  0.94500099660E+01  0.51100000000E-03 0.  1.
        -12    1    3    3    0    0  0.25042023504E+02 -0.24986888962E+01  0.15326039705E+02  0.29465808667E+02  0.00000000000E+00 0.  1.
</event>
<event>
 7    1  0.1265344E-009  0.4778727E+02  0.7816164E-02  0.1312668E+00
        -11   -1    0    0    0    0  0.00000000000E+00  0.00000000000E+00  0.45593999997E+02  0.45594000000E+02  0.51100000000E-03 0.  1.
         11   -1    0    0    0    0 -0.00000000000E+00 -0.00000000000E+00 -0.45593999997E+02  0.45594000000E+02  0.51100000000E-03 0. -1.
    9900012    2    1    2    0    0  0.28130112442E+02  0.51258263943E+01  0.32650360419E+02  0.47787270079E+02  0.19999995597E+02 0.  0.
         12    1    1    2    0    0 -0.28130112442E+02 -0.51258263943E+01 -0.32650360419E+02  0.43400729921E+02  0.00000000000E+00 0. -1.
         11    1    3    3    0    0  0.18272829648E+02 -0.24655419996E+00  0.16607668497E+02  0.24693556761E+02  0.51100000000E-03 0. -1.
        -11    1    3    3    0    0  0.12317022079E+02  0.58307401530E+01  0.15288685458E+02  0.20480489909E+02  0.51100000000E-03 0.  1.
         12    1    3    3    0    0 -0.24597392852E+01 -0.45835955868E+00  0.75400646364E+00  0.26132234087E+01  0.00000000000E+00 0. -1.
</event>
<event>
 7    1  0.1265344E-009  0.4778727E+02  0.7816164E-02  0.1312668E+00
        -11   -1    0    0    0    0  0.00000000000E+00  0.00000000000E+00  0.45593999997E+02  0.45594000000E+02  0.51100000000E-03 0.  1.
         11   -1    0    0    0    0 -0.00000000000E+00 -0.00000000000E+00 -0.45593999997E+02  0.45594000000E+02  0.51100000000E-03 0. -1.
    9900012    2    1    2    0    0 -0.83305660338E+01 -0.22098639590E+02  0.36412568040E+02  0.47787270588E+02  0.19999997921E+02 0.  0.
         12    1    1    2    0    0  0.83305660338E+01  0.22098639590E+02 -0.36412568040E+02  0.43400729412E+02  0.00000000000E+00 0. -1.
         11    1    3    3    0    0 -0.61409903358E+01 -0.21986690295E+02  0.23895518586E+02  0.33047271009E+02  0.51100000000E-03 0. -1.
        -11    1    3    3    0    0 -0.10466569683E+01 -0.20804904875E+01  0.12225242580E+02  0.12445098950E+02  0.51100000000E-03 0.  1.
         12    1    3    3    0    0 -0.11429187298E+01  0.19685411919E+01  0.29180687459E+00  0.22949006294E+01  0.00000000000E+00 0. -1.
</event>
<event>
 7    1  0.1265344E-009  0.4778727E+02  0.7816164E-02  0.1312668E+00
        -11   -1    0    0    0    0  0.00000000000E+00  0.00000000000E+00  0.45593999997E+02  0.45594000000E+02  0.51100000000E-03 0.  1.
         11   -1    0    0    0    0 -0.00000000000E+00 -0.00000000000E+00 -0.45593999997E+02  0.45594000000E+02  0.51100000000E-03 0. -1.
    9900012    2    1    2    0    0  0.26333948006E+02 -0.34413946707E+02 -0.24138610209E+01  0.47787271082E+02  0.20000000173E+02 0.  0.
         12    1    1    2    0    0 -0.26333948006E+02  0.34413946707E+02  0.24138610209E+01  0.43400728918E+02  0.00000000000E+00 0. -1.
         11    1    3    3    0    0  0.19631738694E+02 -0.13973261040E+02 -0.35950216195E+01  0.24363525380E+02  0.51100000000E-03 0. -1.
        -11    1    3    3    0    0  0.73397270283E+01 -0.11919791509E+02 -0.23205311935E+01  0.14189358257E+02  0.51100000000E-03 0.  1.
         12    1    3    3    0    0 -0.63751771563E+00 -0.85208941577E+01  0.35016917921E+01  0.92343874454E+01  0.00000000000E+00 0. -1.
</event>
<event>
 7    1  0.1265344E-009  0.4778728E+02  0.7816164E-02  0.1312668E+00
        -11   -1    0    0    0    0  0.00000000000E+00  0.00000000000E+00  0.45593999997E+02  0.45594000000E+02  0.51100000000E-03 0.  1.
         11   -1    0    0    0    0 -0.00000000000E+00 -0.00000000000E+00 -0.45593999997E+02  0.45594000000E+02  0.51100000000E-03 0. -1.
    9900012    2    1    2    0    0  0.33073691006E+00  0.41453617859E+02  0.12849556710E+02  0.47787275028E+02  0.20000018161E+02 0.  0.
         12    1    1    2    0    0 -0.33073691006E+00 -0.41453617859E+02 -0.12849556710E+02  0.43400724972E+02  0.00000000000E+00 0. -1.
         11    1    3    3    0    0 -0.47766839009E+01  0.20752450524E+01  0.16996022337E+00  0.52107809257E+01  0.51100000000E-03 0. -1.
        -11    1    3    3    0    0 -0.85966951246E+00  0.23450461481E+02  0.92600712474E+01  0.25227209420E+02  0.51100000000E-03 0.  1.
        -12    1    3    3    0    0  0.59670903235E+01  0.15927911325E+02  0.34195252387E+01  0.17349284682E+02  0.00000000000E+00 0.  1.
</event>
<event>
 7    1  0.1265344E-009  0.4778727E+02  0.7816164E-02  0.1312668E+00
        -11   -1    0    0    0    0  0.00000000000E+00  0.00000000000E+00  0.45593999997E+02  0.45594000000E+02  0.51100000000E-03 0.  1.
         11   -1    0    0    0    0 -0.00000000000E+00 -0.00000000000E+00 -0.45593999997E+02  0.45594000000E+02  0.51100000000E-03 0. -1.
    9900012    2    1    2    0    0  0.23858041256E+02 -0.35738563304E+02  0.60969232026E+01  0.47787268299E+02  0.19999987484E+02 0.  0.
         12    1    1    2    0    0 -0.23858041256E+02  0.35738563304E+02 -0.60969232026E+01  0.43400731701E+02  0.00000000000E+00 0. -1.
         11    1    3    3    0    0  0.77545264388E+00 -0.62370281914E+01  0.62309220028E+01  0.88502111122E+01  0.51100000000E-03 0. -1.
        -11    1    3    3    0    0  0.11767506377E+02 -0.68515635662E+01 -0.17883532187E+00  0.13618006902E+02  0.51100000000E-03 0.  1.
        -12    1    3    3    0    0  0.11315082235E+02 -0.22649971546E+02  0.44836521597E-01  0.25319050285E+02  0.00000000000E+00 0.  1.
</event>
<event>
 7    1  0.1265344E-009  0.4778728E+02  0.7816164E-02  0.1312668E+00
        -11   -1    0    0    0    0  0.00000000000E+00  0.00000000000E+00  0.45593999997E+02  0.45594000000E+02  0.51100000000E-03 0. -1.
         11   -1    0    0    0    0 -0.00000000000E+00 -0.00000000000E+00 -0.45593999997E+02  0.45594000000E+02  0.51100000000E-03 0.  1.
    9900012    2    1    2    0    0  0.29243087126E+02 -0.32273298463E+01 -0.31906879104E+02  0.47787277232E+02  0.20000028211E+02 0.  0.
         12    1    1    2    0    0 -0.29243087126E+02  0.32273298463E+01  0.31906879104E+02  0.43400722768E+02  0.00000000000E+00 0. -1.
         11    1    3    3    0    0  0.11405254673E+02  0.10336360556E+01 -0.74794587739E+01  0.13678104454E+02  0.51100000000E-03 0. -1.
        -11    1    3    3    0    0  0.38599413610E+01 -0.76034758635E+01 -0.48090057108E+01  0.97897154558E+01  0.51100000000E-03 0.  1.
        -12    1    3    3    0    0  0.13977891092E+02  0.33425099616E+01 -0.19618414620E+02  0.24319457322E+02  0.00000000000E+00 0.  1.
</event>
<event>
 7    1  0.1265344E-009  0.4778727E+02  0.7816164E-02  0.1312668E+00
        -11   -1    0    0    0    0  0.00000000000E+00  0.00000000000E+00  0.45593999997E+02  0.45594000000E+02  0.51100000000E-03 0. -1.
         11   -1    0    0    0    0 -0.00000000000E+00 -0.00000000000E+00 -0.45593999997E+02  0.45594000000E+02  0.51100000000E-03 0.  1.
    9900012    2    1    2    0    0 -0.13096582888E+02  0.19453807388E+02 -0.36519201764E+02  0.47787271865E+02  0.20000003739E+02 0.  0.
         12    1    1    2    0    0  0.13096582888E+02 -0.19453807388E+02  0.36519201764E+02  0.43400728135E+02  0.00000000000E+00 0. -1.
         11    1    3    3    0    0 -0.20875263505E+01  0.88457724355E+01 -0.18240230961E+02  0.20379192379E+02  0.51100000000E-03 0. -1.
        -11    1    3    3    0    0 -0.43125060121E+01 -0.21663845331E+01 -0.91323969028E+01  0.10329162769E+02  0.51100000000E-03 0.  1.
         12    1    3    3    0    0 -0.66965505251E+01  0.12774419485E+02 -0.91465739004E+01  0.17078916717E+02  0.00000000000E+00 0. -1.
</event>
<event>
 7    1  0.1265344E-009  0.4778727E+02  0.7816164E-02  0.1312668E+00
        -11   -1    0    0    0    0  0.00000000000E+00  0.00000000000E+00  0.45593999997E+02  0.45594000000E+02  0.51100000000E-03 0.  1.
         11   -1    0    0    0    0 -0.00000000000E+00 -0.00000000000E+00 -0.45593999997E+02  0.45594000000E+02  0.51100000000E-03 0. -1.
    9900012    2    1    2    0    0  0.17908004330E+02 -0.18917102905E+02  0.34714114992E+02  0.47787272113E+02  0.20000004872E+02 0.  0.
         12    1    1    2    0    0 -0.17908004330E+02  0.18917102905E+02 -0.34714114992E+02  0.43400727887E+02  0.00000000000E+00 0. -1.
         11    1    3    3    0    0  0.77167425515E+01 -0.57163104961E+01  0.11390747884E+02  0.14898773739E+02  0.51100000000E-03 0. -1.
        -11    1    3    3    0    0  0.10428449453E+02 -0.12513227889E+02  0.25686513475E+02  0.30415956420E+02  0.51100000000E-03 0.  1.
         12    1    3    3    0    0 -0.23718767456E+00 -0.68756452045E+00 -0.23631463670E+01  0.24725419541E+01  0.00000000000E+00 0. -1.
</event>
<event>
 7    1  0.1265344E-009  0.4778726E+02  0.7816164E-02  0.1312668E+00
        -11   -1    0    0    0    0  0.00000000000E+00  0.00000000000E+00  0.45593999997E+02  0.45594000000E+02  0.51100000000E-03 0.  1.
         11   -1    0    0    0    0 -0.00000000000E+00 -0.00000000000E+00 -0.45593999997E+02  0.45594000000E+02  0.51100000000E-03 0. -1.
    9900012    2    1    2    0    0 -0.23276419825E+02 -0.23450136027E+02  0.28141130192E+02  0.47787264891E+02  0.19999971942E+02 0.  0.
         12    1    1    2    0    0  0.23276419825E+02  0.23450136027E+02 -0.28141130192E+02  0.43400735109E+02  0.00000000000E+00 0. -1.
         11    1    3    3    0    0 -0.37408922862E+01 -0.15950314260E+02  0.17832702944E+02  0.24215947115E+02  0.51100000000E-03 0. -1.
        -11    1    3    3    0    0 -0.49051876878E+01 -0.36149154562E+00  0.24474983049E+01  0.54937956463E+01  0.51100000000E-03 0.  1.
         12    1    3    3    0    0 -0.14630339851E+02 -0.71383302214E+01  0.78609289423E+01  0.18077522129E+02  0.00000000000E+00 0. -1.
</event>
<event>
 7    1  0.1265344E-009  0.4778727E+02  0.7816164E-02  0.1312668E+00
        -11   -1    0    0    0    0  0.00000000000E+00  0.00000000000E+00  0.45593999997E+02  0.45594000000E+02  0.51100000000E-03 0.  1.
         11   -1    0    0    0    0 -0.00000000000E+00 -0.00000000000E+00 -0.45593999997E+02  0.45594000000E+02  0.51100000000E-03 0. -1.
    9900012    2    1    2    0    0 -0.35788607575E+02  0.87085991572E+01  0.22955591937E+02  0.47787270368E+02  0.19999996915E+02 0.  0.
         12    1    1    2    0    0  0.35788607575E+02 -0.87085991572E+01 -0.22955591937E+02  0.43400729632E+02  0.00000000000E+00 0. -1.
         11    1    3    3    0    0 -0.16102472500E+02 -0.10708187119E+01  0.95837138279E+01  0.18769225991E+02  0.51100000000E-03 0. -1.
        -11    1    3    3    0    0 -0.19272837943E+02  0.12207720194E+02  0.10169162353E+02  0.24977641561E+02  0.51100000000E-03 0.  1.
         12    1    3    3    0    0 -0.41329713194E+00 -0.24283023245E+01  0.32027157560E+01  0.40404028156E+01  0.00000000000E+00 0. -1.
</event>
<event>
 7    1  0.1265344E-009  0.4778727E+02  0.7816164E-02  0.1312668E+00
        -11   -1    0    0    0    0  0.00000000000E+00  0.00000000000E+00  0.45593999997E+02  0.45594000000E+02  0.51100000000E-03 0.  1.
         11   -1    0    0    0    0 -0.00000000000E+00 -0.00000000000E+00 -0.45593999997E+02  0.45594000000E+02  0.51100000000E-03 0. -1.
    9900012    2    1    2    0    0 -0.23255924695E+01 -0.69157077020E+01  0.42783034054E+02  0.47787269635E+02  0.19999993574E+02 0.  0.
         12    1    1    2    0    0  0.23255924695E+01  0.69157077020E+01 -0.42783034054E+02  0.43400730365E+02  0.00000000000E+00 0. -1.
         11    1    3    3    0    0  0.55415149045E+01 -0.65876848899E+01  0.26483978855E+02  0.27847928395E+02  0.51100000000E-03 0. -1.
        -11    1    3    3    0    0 -0.26624546715E+01 -0.19928818082E+01  0.68338918388E+00  0.33951824424E+01  0.51100000000E-03 0.  1.
        -12    1    3    3    0    0 -0.52046527025E+01  0.16648589961E+01  0.15615666015E+02  0.16544158798E+02  0.00000000000E+00 0.  1.
</event>
<event>
 7    1  0.1265344E-009  0.4778727E+02  0.7816164E-02  0.1312668E+00
        -11   -1    0    0    0    0  0.00000000000E+00  0.00000000000E+00  0.45593999997E+02  0.45594000000E+02  0.51100000000E-03 0.  1.
         11   -1    0    0    0    0 -0.00000000000E+00 -0.00000000000E+00 -0.45593999997E+02  0.45594000000E+02  0.51100000000E-03 0. -1.
    9900012    2    1    2    0    0  0.72377882555E+01  0.42786364064E+02 -0.75151690815E+00  0.47787270670E+02  0.19999998294E+02 0.  0.
         12    1    1    2    0    0 -0.72377882555E+01 -0.42786364064E+02  0.75151690815E+00  0.43400729330E+02  0.00000000000E+00 0. -1.
         11    1    3    3    0    0 -0.40859490415E+01  0.31057459146E+02 -0.30217755215E+00  0.31326539223E+02  0.51100000000E-03 0. -1.
        -11    1    3    3    0    0  0.26320902637E+01  0.14979768317E+01  0.66552070536E-02  0.30285109043E+01  0.51100000000E-03 0.  1.
         12    1    3    3    0    0  0.86916470333E+01  0.10230928087E+02 -0.45599456305E+00  0.13432220543E+02  0.00000000000E+00 0. -1.
</event>
<event>
 7    1  0.1265344E-009  0.4778727E+02  0.7816164E-02  0.1312668E+00
        -11   -1    0    0    0    0  0.00000000000E+00  0.00000000000E+00  0.45593999997E+02  0.45594000000E+02  0.51100000000E-03 0. -1.
         11   -1    0    0    0    0 -0.00000000000E+00 -0.00000000000E+00 -0.45593999997E+02  0.45594000000E+02  0.51100000000E-03 0.  1.
    9900012    2    1    2    0    0  0.29650260939E+02 -0.10474007263E+02  0.29912880782E+02  0.47787271451E+02  0.20000001854E+02 0.  0.
         12    1    1    2    0    0 -0.29650260939E+02  0.10474007263E+02 -0.29912880782E+02  0.43400728549E+02  0.00000000000E+00 0. -1.
         11    1    3    3    0    0  0.76087788068E+00 -0.25299295722E+01 -0.94788542444E+00  0.28067714243E+01  0.51100000000E-03 0. -1.
        -11    1    3    3    0    0  0.24347364036E+02 -0.35005345164E+01  0.17506113253E+02  0.30191255007E+02  0.51100000000E-03 0.  1.
         12    1    3    3    0    0  0.45420190217E+01 -0.44435431748E+01  0.13354652954E+02  0.14789245020E+02  0.00000000000E+00 0. -1.
</event>
<event>
 7    1  0.1265344E-009  0.4778732E+02  0.7816164E-02  0.1312668E+00
        -11   -1    0    0    0    0  0.00000000000E+00  0.00000000000E+00  0.45593999997E+02  0.45594000000E+02  0.51100000000E-03 0.  1.
         11   -1    0    0    0    0 -0.00000000000E+00 -0.00000000000E+00 -0.45593999997E+02  0.45594000000E+02  0.51100000000E-03 0. -1.
    9900012    2    1    2    0    0 -0.36296085276E+01  0.11692885627E+02  0.41637984804E+02  0.47787315549E+02  0.20000202911E+02 0.  0.
         12    1    1    2    0    0  0.36296085276E+01 -0.11692885627E+02 -0.41637984804E+02  0.43400684451E+02  0.00000000000E+00 0. -1.
         11    1    3    3    0    0  0.42743001649E+01  0.25497942442E+01  0.17561559624E+01  0.52778003574E+01  0.51100000000E-03 0. -1.
        -11    1    3    3    0    0 -0.23932693359E+01  0.69278782841E-02  0.18947549169E+01  0.30525206905E+01  0.51100000000E-03 0.  1.
        -12    1    3    3    0    0 -0.55106393566E+01  0.91361635042E+01  0.37987073924E+02  0.39456994501E+02  0.00000000000E+00 0.  1.
</event>
<event>
 7    1  0.1265344E-009  0.4778727E+02  0.7816164E-02  0.1312668E+00
        -11   -1    0    0    0    0  0.00000000000E+00  0.00000000000E+00  0.45593999997E+02  0.45594000000E+02  0.51100000000E-03 0. -1.
         11   -1    0    0    0    0 -0.00000000000E+00 -0.00000000000E+00 -0.45593999997E+02  0.45594000000E+02  0.51100000000E-03 0.  1.
    9900012    2    1    2    0    0  0.10943409694E+01 -0.38840592231E+02 -0.19334791564E+02  0.47787270147E+02  0.19999995907E+02 0.  0.
         12    1    1    2    0    0 -0.10943409694E+01  0.38840592231E+02  0.19334791564E+02  0.43400729853E+02  0.00000000000E+00 0. -1.
         11    1    3    3    0    0 -0.12400094705E+00 -0.20747712762E+01  0.25293583508E+01  0.32737907708E+01  0.51100000000E-03 0. -1.
        -11    1    3    3    0    0 -0.33072691735E+00  0.42339508353E+00  0.77856771651E+00  0.94594484032E+00  0.51100000000E-03 0.  1.
        -12    1    3    3    0    0  0.15490688338E+01 -0.37189216038E+02 -0.22642717631E+02  0.43567534535E+02  0.00000000000E+00 0.  1.
</event>
<event>
 7    1  0.1265344E-009  0.4778729E+02  0.7816164E-02  0.1312668E+00
        -11   -1    0    0    0    0  0.00000000000E+00  0.00000000000E+00  0.45593999997E+02  0.45594000000E+02  0.51100000000E-03 0. -1.
         11   -1    0    0    0    0 -0.00000000000E+00 -0.00000000000E+00 -0.45593999997E+02  0.45594000000E+02  0.51100000000E-03 0.  1.
    9900012    2    1    2    0    0 -0.21854307495E+02 -0.14822459747E+02 -0.34442789450E+02  0.47787287861E+02  0.20000076675E+02 0.  0.
         12    1    1    2    0    0  0.21854307495E+02  0.14822459747E+02  0.34442789450E+02  0.43400712139E+02  0.00000000000E+00 0. -1.
         11    1    3    3    0    0  0.12083207693E+01 -0.42341927204E+01 -0.46184442271E+01  0.63811013481E+01  0.51100000000E-03 0.  1.
        -11    1    3    3    0    0 -0.23517028733E+02 -0.99732010302E+01 -0.22495846804E+02  0.34037898039E+02  0.51100000000E-03 0. -1.
         12    1    3    3    0    0  0.45440046863E+00 -0.61506599663E+00 -0.73284984190E+01  0.73682884745E+01  0.00000000000E+00 0. -1.
</event>
<event>
 7    1  0.1265344E-009  0.4778727E+02  0.7816164E-02  0.1312668E+00
        -11   -1    0    0    0    0  0.00000000000E+00  0.00000000000E+00  0.45593999997E+02  0.45594000000E+02  0.51100000000E-03 0. -1.
         11   -1    0    0    0    0 -0.00000000000E+00 -0.00000000000E+00 -0.45593999997E+02  0.45594000000E+02  0.51100000000E-03 0.  1.
    9900012    2    1    2    0    0  0.25475047439E+02 -0.29040810662E+02 -0.19780710747E+02  0.47787271393E+02  0.20000001590E+02 0.  0.
         12    1    1    2    0    0 -0.25475047439E+02  0.29040810662E+02  0.19780710747E+02  0.43400728607E+02  0.00000000000E+00 0. -1.
         11    1    3    3    0    0  0.58494231027E+01 -0.14378884656E+02 -0.10128192079E+02  0.18535057314E+02  0.51100000000E-03 0. -1.
        -11    1    3    3    0    0  0.68919789463E+00  0.21254921432E+01 -0.22011145573E+00  0.22452527481E+01  0.51100000000E-03 0.  1.
        -12    1    3    3    0    0  0.18936426442E+02 -0.16787418149E+02 -0.94324072123E+01  0.27006961331E+02  0.00000000000E+00 0.  1.
</event>
<event>
 7    1  0.1265344E-009  0.4778727E+02  0.7816164E-02  0.1312668E+00
        -11   -1    0    0    0    0  0.00000000000E+00  0.00000000000E+00  0.45593999997E+02  0.45594000000E+02  0.51100000000E-03 0.  1.
         11   -1    0    0    0    0 -0.00000000000E+00 -0.00000000000E+00 -0.45593999997E+02  0.45594000000E+02  0.51100000000E-03 0. -1.
    9900012    2    1    2    0    0  0.18740085555E+02 -0.93306088774E+01  0.38018050391E+02  0.47787271617E+02  0.20000002611E+02 0.  0.
         12    1    1    2    0    0 -0.18740085555E+02  0.93306088774E+01 -0.38018050391E+02  0.43400728383E+02  0.00000000000E+00 0. -1.
         11    1    3    3    0    0  0.12622954209E+02  0.14418619829E+01  0.18086911276E+02  0.22103264435E+02  0.51100000000E-03 0. -1.
        -11    1    3    3    0    0  0.62975704291E+01 -0.71194387174E+01  0.19869549625E+02  0.22026002895E+02  0.51100000000E-03 0.  1.
        -12    1    3    3    0    0 -0.18043908266E+00 -0.36530321429E+01  0.61589489988E-01  0.36580042871E+01  0.00000000000E+00 0.  1.
</event>
<event>
 7    1  0.1265344E-009  0.4778728E+02  0.7816164E-02  0.1312668E+00
        -11   -1    0    0    0    0  0.00000000000E+00  0.00000000000E+00  0.45593999997E+02  0.45594000000E+02  0.51100000000E-03 0.  1.
         11   -1    0    0    0    0 -0.00000000000E+00 -0.00000000000E+00 -0.45593999997E+02  0.45594000000E+02  0.51100000000E-03 0. -1.
    9900012    2    1    2    0    0  0.14184630102E+02 -0.39037045821E+02  0.12590798992E+02  0.47787275389E+02  0.20000019807E+02 0.  0.
         12    1    1    2    0    0 -0.14184630102E+02  0.39037045821E+02 -0.12590798992E+02  0.43400724611E+02  0.00000000000E+00 0. -1.
         11    1    3    3    0    0  0.78523389822E+01 -0.25329499408E+02  0.84695923121E+01  0.27838404443E+02  0.51100000000E-03 0.  1.
        -11    1    3    3    0    0 -0.27031646936E+01 -0.17183759355E+01  0.37498041494E+01  0.49316271793E+01  0.51100000000E-03 0. -1.
         12    1    3    3    0    0  0.90354558131E+01 -0.11989170477E+02  0.37140253056E+00  0.15017243766E+02  0.00000000000E+00 0. -1.
</event>
<event>
 7    1  0.1265344E-009  0.4778725E+02  0.7816164E-02  0.1312668E+00
        -11   -1    0    0    0    0  0.00000000000E+00  0.00000000000E+00  0.45593999997E+02  0.45594000000E+02  0.51100000000E-03 0.  1.
         11   -1    0    0    0    0 -0.00000000000E+00 -0.00000000000E+00 -0.45593999997E+02  0.45594000000E+02  0.51100000000E-03 0. -1.
    9900012    2    1    2    0    0 -0.27641759556E+02  0.12249444258E+02  0.31136945022E+02  0.47787249991E+02  0.19999904010E+02 0.  0.
         12    1    1    2    0    0  0.27641759556E+02 -0.12249444258E+02 -0.31136945022E+02  0.43400750009E+02  0.00000000000E+00 0. -1.
         11    1    3    3    0    0 -0.42186535870E+01  0.92360986095E+01  0.16632298375E+02  0.19486813621E+02  0.51100000000E-03 0. -1.
        -11    1    3    3    0    0 -0.61025056751E+01 -0.11424801290E+01  0.19469962325E+01  0.65066605067E+01  0.51100000000E-03 0.  1.
         12    1    3    3    0    0 -0.17320600294E+02  0.41558257773E+01  0.12557650415E+02  0.21793775864E+02  0.00000000000E+00 0. -1.
</event>
<event>
 7    1  0.1265344E-009  0.4778727E+02  0.7816164E-02  0.1312668E+00
        -11   -1    0    0    0    0  0.00000000000E+00  0.00000000000E+00  0.45593999997E+02  0.45594000000E+02  0.51100000000E-03 0.  1.
         11   -1    0    0    0    0 -0.00000000000E+00 -0.00000000000E+00 -0.45593999997E+02  0.45594000000E+02  0.51100000000E-03 0. -1.
    9900012    2    1    2    0    0  0.15325330474E+02 -0.40603549241E+02  0.33038458606E+00  0.47787272827E+02  0.20000008129E+02 0.  0.
         12    1    1    2    0    0 -0.15325330474E+02  0.40603549241E+02 -0.33038458606E+00  0.43400727173E+02  0.00000000000E+00 0. -1.
         11    1    3    3    0    0  0.38358492015E+01 -0.25605444904E+01  0.54049599258E+00  0.46435184250E+01  0.51100000000E-03 0. -1.
        -11    1    3    3    0    0  0.84268765185E+01 -0.38378382298E+02 -0.23968368758E+01  0.39365686873E+02  0.51100000000E-03 0.  1.
        -12    1    3    3    0    0  0.30626047544E+01  0.33537754752E+00  0.21867254693E+01  0.37780675297E+01  0.00000000000E+00 0.  1.
</event>
<event>
 7    1  0.1265344E-009  0.4778728E+02  0.7816164E-02  0.1312668E+00
        -11   -1    0    0    0    0  0.00000000000E+00  0.00000000000E+00  0.45593999997E+02  0.45594000000E+02  0.51100000000E-03 0. -1.
         11   -1    0    0    0    0 -0.00000000000E+00 -0.00000000000E+00 -0.45593999997E+02  0.45594000000E+02  0.51100000000E-03 0.  1.
    9900012    2    1    2    0    0  0.35720986222E+02 -0.23677965318E+02 -0.68547326292E+01  0.47787282752E+02  0.20000053378E+02 0.  0.
         12    1    1    2    0    0 -0.35720986222E+02  0.23677965318E+02  0.68547326292E+01  0.43400717248E+02  0.00000000000E+00 0. -1.
         11    1    3    3    0    0  0.12848994906E+02 -0.27941078938E+01 -0.48919898815E+01  0.14029799509E+02  0.51100000000E-03 0.  1.
        -11    1    3    3    0    0  0.16958741464E+02 -0.20695079670E+02  0.16816586173E+01  0.26808827102E+02  0.51100000000E-03 0. -1.
         12    1    3    3    0    0  0.59132498522E+01 -0.18877775393E+00 -0.36444013649E+01  0.69486561409E+01  0.00000000000E+00 0. -1.
</event>
<event>
 7    1  0.1265344E-009  0.4778727E+02  0.7816164E-02  0.1312668E+00
        -11   -1    0    0    0    0  0.00000000000E+00  0.00000000000E+00  0.45593999997E+02  0.45594000000E+02  0.51100000000E-03 0.  1.
         11   -1    0    0    0    0 -0.00000000000E+00 -0.00000000000E+00 -0.45593999997E+02  0.45594000000E+02  0.51100000000E-03 0. -1.
    9900012    2    1    2    0    0  0.31988180442E+02  0.11019476045E+02  0.27183642664E+02  0.47787274559E+02  0.20000016023E+02 0.  0.
         12    1    1    2    0    0 -0.31988180442E+02 -0.11019476045E+02 -0.27183642664E+02  0.43400725441E+02  0.00000000000E+00 0. -1.
         11    1    3    3    0    0  0.13168792150E+02  0.73277646091E+01  0.58634555369E+01  0.16170755454E+02  0.51100000000E-03 0. -1.
        -11    1    3    3    0    0  0.29005173973E+01 -0.83576550791E+00  0.12506862675E+02  0.12865967488E+02  0.51100000000E-03 0.  1.
         12    1    3    3    0    0  0.15918870895E+02  0.45274769442E+01  0.88133244523E+01  0.18750551618E+02  0.00000000000E+00 0. -1.
</event>
<event>
 7    1  0.1265344E-009  0.4778727E+02  0.7816164E-02  0.1312668E+00
        -11   -1    0    0    0    0  0.00000000000E+00  0.00000000000E+00  0.45593999997E+02  0.45594000000E+02  0.51100000000E-03 0.  1.
         11   -1    0    0    0    0 -0.00000000000E+00 -0.00000000000E+00 -0.45593999997E+02  0.45594000000E+02  0.51100000000E-03 0. -1.
    9900012    2    1    2    0    0  0.40230467435E+02  0.12685077371E+02  0.10208880839E+02  0.47787274822E+02  0.20000017226E+02 0.  0.
         12    1    1    2    0    0 -0.40230467435E+02 -0.12685077371E+02 -0.10208880839E+02  0.43400725178E+02  0.00000000000E+00 0. -1.
         11    1    3    3    0    0  0.21697016289E+02  0.56085922841E+01 -0.21645614968E+01  0.22514487558E+02  0.51100000000E-03 0. -1.
        -11    1    3    3    0    0  0.53750541541E+01  0.68251647965E+01  0.33278673564E+01  0.93031598428E+01  0.51100000000E-03 0.  1.
        -12    1    3    3    0    0  0.13158396992E+02  0.25132029023E+00  0.90455749792E+01  0.15969627422E+02  0.00000000000E+00 0.  1.
</event>
<event>
 7    1  0.1265344E-009  0.4778730E+02  0.7816164E-02  0.1312668E+00
        -11   -1    0    0    0    0  0.00000000000E+00  0.00000000000E+00  0.45593999997E+02  0.45594000000E+02  0.51100000000E-03 0.  1.
         11   -1    0    0    0    0 -0.00000000000E+00 -0.00000000000E+00 -0.45593999997E+02  0.45594000000E+02  0.51100000000E-03 0. -1.
    9900012    2    1    2    0    0  0.19694878242E+01  0.32666652951E+01  0.43232752155E+02  0.47787299046E+02  0.20000127668E+02 0.  0.
         12    1    1    2    0    0 -0.19694878242E+01 -0.32666652951E+01 -0.43232752155E+02  0.43400700954E+02  0.00000000000E+00 0. -1.
         11    1    3    3    0    0  0.22348822188E+00 -0.32591148452E+01  0.12386940513E+02  0.12810467287E+02  0.51100000000E-03 0. -1.
        -11    1    3    3    0    0 -0.49368261015E+01  0.74673217779E+01  0.12086699822E+02  0.15040660203E+02  0.51100000000E-03 0.  1.
        -12    1    3    3    0    0  0.66828257038E+01 -0.94154163765E+00  0.18759111820E+02  0.19936171556E+02  0.00000000000E+00 0.  1.
</event>
<event>
 7    1  0.1265344E-009  0.4778725E+02  0.7816164E-02  0.1312668E+00
        -11   -1    0    0    0    0  0.00000000000E+00  0.00000000000E+00  0.45593999997E+02  0.45594000000E+02  0.51100000000E-03 0. -1.
         11   -1    0    0    0    0 -0.00000000000E+00 -0.00000000000E+00 -0.45593999997E+02  0.45594000000E+02  0.51100000000E-03 0.  1.
    9900012    2    1    2    0    0  0.27091937594E+01  0.30831085423E+02 -0.30425796869E+02  0.47787254911E+02  0.19999926440E+02 0.  0.
         12    1    1    2    0    0 -0.27091937594E+01 -0.30831085423E+02  0.30425796869E+02  0.43400745089E+02  0.00000000000E+00 0. -1.
         11    1    3    3    0    0 -0.47375237793E+00  0.57653850473E+01 -0.11572784719E+02  0.12938062161E+02  0.51100000000E-03 0. -1.
        -11    1    3    3    0    0  0.26641343292E+00  0.17037467285E+01 -0.92720589342E+01  0.94310554114E+01  0.51100000000E-03 0.  1.
         12    1    3    3    0    0  0.29165327044E+01  0.23361953647E+02 -0.95809532152E+01  0.25418137338E+02  0.00000000000E+00 0. -1.
</event>
<event>
 7    1  0.1265344E-009  0.4778727E+02  0.7816164E-02  0.1312668E+00
        -11   -1    0    0    0    0  0.00000000000E+00  0.00000000000E+00  0.45593999997E+02  0.45594000000E+02  0.51100000000E-03 0. -1.
         11   -1    0    0    0    0 -0.00000000000E+00 -0.00000000000E+00 -0.45593999997E+02  0.45594000000E+02  0.51100000000E-03 0.  1.
    9900012    2    1    2    0    0 -0.75015008944E+00 -0.17563514532E+02 -0.39681021283E+02  0.47787271689E+02  0.20000002941E+02 0.  0.
         12    1    1    2    0    0  0.75015008944E+00  0.17563514532E+02  0.39681021283E+02  0.43400728311E+02  0.00000000000E+00 0. -1.
         11    1    3    3    0    0  0.16027941492E+01 -0.73471242585E+01 -0.13946703336E+02  0.15844864094E+02  0.51100000000E-03 0. -1.
        -11    1    3    3    0    0  0.51564670310E+00  0.37273767021E+01 -0.10199035056E+02  0.10871041575E+02  0.51100000000E-03 0.  1.
         12    1    3    3    0    0 -0.28685909417E+01 -0.13943766975E+02 -0.15535282891E+02  0.21071366020E+02  0.00000000000E+00 0. -1.
</event>
<event>
 7    1  0.1265344E-009  0.4778727E+02  0.7816164E-02  0.1312668E+00
        -11   -1    0    0    0    0  0.00000000000E+00  0.00000000000E+00  0.45593999997E+02  0.45594000000E+02  0.51100000000E-03 0.  1.
         11   -1    0    0    0    0 -0.00000000000E+00 -0.00000000000E+00 -0.45593999997E+02  0.45594000000E+02  0.51100000000E-03 0. -1.
    9900012    2    1    2    0    0  0.21251249372E+01  0.32041386638E+02  0.29196860152E+02  0.47787271245E+02  0.20000000915E+02 0.  0.
         12    1    1    2    0    0 -0.21251249372E+01 -0.32041386638E+02 -0.29196860152E+02  0.43400728755E+02  0.00000000000E+00 0. -1.
         11    1    3    3    0    0 -0.43842681555E+01  0.90624179465E+00  0.25070284578E+01  0.51311083986E+01  0.51100000000E-03 0. -1.
        -11    1    3    3    0    0 -0.77016348384E+00  0.19671175387E+02  0.16265830081E+02  0.25536748450E+02  0.51100000000E-03 0.  1.
        -12    1    3    3    0    0  0.72795565765E+01  0.11463969456E+02  0.10424001613E+02  0.17119414396E+02  0.00000000000E+00 0.  1.
</event>
<event>
 7    1  0.1265344E-009  0.4778727E+02  0.7816164E-02  0.1312668E+00
        -11   -1    0    0    0    0  0.00000000000E+00  0.00000000000E+00  0.45593999997E+02  0.45594000000E+02  0.51100000000E-03 0.  1.
         11   -1    0    0    0    0 -0.00000000000E+00 -0.00000000000E+00 -0.45593999997E+02  0.45594000000E+02  0.51100000000E-03 0. -1.
    9900012    2    1    2    0    0  0.36972008708E+02  0.48583512986E+01  0.22205642498E+02  0.47787267702E+02  0.19999984762E+02 0.  0.
         12    1    1    2    0    0 -0.36972008708E+02 -0.48583512986E+01 -0.22205642498E+02  0.43400732298E+02  0.00000000000E+00 0. -1.
         11    1    3    3    0    0  0.67751300740E+01 -0.45426478244E+01  0.11867519330E+02  0.14400557353E+02  0.51100000000E-03 0. -1.
        -11    1    3    3    0    0  0.12635937933E+02  0.26028388907E+01  0.46857165266E+01  0.13725801884E+02  0.51100000000E-03 0.  1.
         12    1    3    3    0    0  0.17560940701E+02  0.67981602323E+01  0.56524066418E+01  0.19660908466E+02  0.00000000000E+00 0. -1.
</event>
<event>
 7    1  0.1265344E-009  0.4778727E+02  0.7816164E-02  0.1312668E+00
        -11   -1    0    0    0    0  0.00000000000E+00  0.00000000000E+00  0.45593999997E+02  0.45594000000E+02  0.51100000000E-03 0.  1.
         11   -1    0    0    0    0 -0.00000000000E+00 -0.00000000000E+00 -0.45593999997E+02  0.45594000000E+02  0.51100000000E-03 0. -1.
    9900012    2    1    2    0    0  0.37030948539E+02 -0.16741498153E+02  0.15233335725E+02  0.47787269276E+02  0.19999991937E+02 0.  0.
         12    1    1    2    0    0 -0.37030948539E+02  0.16741498153E+02 -0.15233335725E+02  0.43400730724E+02  0.00000000000E+00 0. -1.
         11    1    3    3    0    0  0.52687344010E+01 -0.10997919665E+02  0.44649978126E+01  0.12986531673E+02  0.51100000000E-03 0. -1.
        -11    1    3    3    0    0  0.15019850259E+02 -0.19865195875E+01  0.88219990735E+01  0.17531965942E+02  0.51100000000E-03 0.  1.
        -12    1    3    3    0    0  0.16742363879E+02 -0.37570588998E+01  0.19463388384E+01  0.17268771662E+02  0.00000000000E+00 0.  1.
</event>
<event>
 7    1  0.1265344E-009  0.4778727E+02  0.7816164E-02  0.1312668E+00
        -11   -1    0    0    0    0  0.00000000000E+00  0.00000000000E+00  0.45593999997E+02  0.45594000000E+02  0.51100000000E-03 0.  1.
         11   -1    0    0    0    0 -0.00000000000E+00 -0.00000000000E+00 -0.45593999997E+02  0.45594000000E+02  0.51100000000E-03 0. -1.
    9900012    2    1    2    0    0  0.13190290069E+02 -0.27927256592E+02  0.30491110624E+02  0.47787271435E+02  0.20000001782E+02 0.  0.
         12    1    1    2    0    0 -0.13190290069E+02  0.27927256592E+02 -0.30491110624E+02  0.43400728565E+02  0.00000000000E+00 0. -1.
         11    1    3    3    0    0 -0.21858670603E+01 -0.56825864656E+01  0.58193427271E+01  0.84222653592E+01  0.51100000000E-03 0. -1.
        -11    1    3    3    0    0  0.95110931882E+01 -0.47856096566E+01  0.32887864627E+01  0.11143566309E+02  0.51100000000E-03 0.  1.
        -12    1    3    3    0    0  0.58650639413E+01 -0.17459060470E+02  0.21382981434E+02  0.28221439767E+02  0.00000000000E+00 0.  1.
</event>
<event>
 7    1  0.1265344E-009  0.4778728E+02  0.7816164E-02  0.1312668E+00
        -11   -1    0    0    0    0  0.00000000000E+00  0.00000000000E+00  0.45593999997E+02  0.45594000000E+02  0.51100000000E-03 0.  1.
         11   -1    0    0    0    0 -0.00000000000E+00 -0.00000000000E+00 -0.45593999997E+02  0.45594000000E+02  0.51100000000E-03 0. -1.
    9900012    2    1    2    0    0  0.29471879774E+02  0.14819549077E+02  0.28203048020E+02  0.47787278233E+02  0.20000032775E+02 0.  0.
         12    1    1    2    0    0 -0.29471879774E+02 -0.14819549077E+02 -0.28203048020E+02  0.43400721767E+02  0.00000000000E+00 0. -1.
         11    1    3    3    0    0  0.81784302069E+01  0.93648436425E+01  0.42699088248E+01  0.13146069326E+02  0.51100000000E-03 0. -1.
        -11    1    3    3    0    0  0.22176812711E+02  0.56032888747E+01  0.19317648013E+02  0.29939595743E+02  0.51100000000E-03 0.  1.
         12    1    3    3    0    0 -0.88336314411E+00 -0.14858343991E+00  0.46154911823E+01  0.47016131633E+01  0.00000000000E+00 0. -1.
</event>
<event>
 7    1  0.1265344E-009  0.4778729E+02  0.7816164E-02  0.1312668E+00
        -11   -1    0    0    0    0  0.00000000000E+00  0.00000000000E+00  0.45593999997E+02  0.45594000000E+02  0.51100000000E-03 0.  1.
         11   -1    0    0    0    0 -0.00000000000E+00 -0.00000000000E+00 -0.45593999997E+02  0.45594000000E+02  0.51100000000E-03 0. -1.
    9900012    2    1    2    0    0 -0.65035998746E+00 -0.32437728166E+02  0.28826946924E+02  0.47787285194E+02  0.20000064515E+02 0.  0.
         12    1    1    2    0    0  0.65035998746E+00  0.32437728166E+02 -0.28826946924E+02  0.43400714806E+02  0.00000000000E+00 0. -1.
         11    1    3    3    0    0 -0.60966734664E+01 -0.13652420633E+02  0.62418674413E+01  0.16202435802E+02  0.51100000000E-03 0. -1.
        -11    1    3    3    0    0  0.53551320295E+01 -0.92984862616E+01  0.55368768845E+01  0.12074613522E+02  0.51100000000E-03 0.  1.
        -12    1    3    3    0    0  0.91181449468E-01 -0.94868212713E+01  0.17048202598E+02  0.19510235870E+02  0.00000000000E+00 0.  1.
</event>
<event>
 7    1  0.1265344E-009  0.4778727E+02  0.7816164E-02  0.1312668E+00
        -11   -1    0    0    0    0  0.00000000000E+00  0.00000000000E+00  0.45593999997E+02  0.45594000000E+02  0.51100000000E-03 0.  1.
         11   -1    0    0    0    0 -0.00000000000E+00 -0.00000000000E+00 -0.45593999997E+02  0.45594000000E+02  0.51100000000E-03 0. -1.
    9900012    2    1    2    0    0 -0.12187158226E+02 -0.44554677916E+01  0.41415521005E+02  0.47787269603E+02  0.19999993426E+02 0.  0.
         12    1    1    2    0    0  0.12187158226E+02  0.44554677916E+01 -0.41415521005E+02  0.43400730397E+02  0.00000000000E+00 0. -1.
         11    1    3    3    0    0 -0.54606939175E+01  0.44491667250E+01  0.52697488539E+01  0.87968469267E+01  0.51100000000E-03 0. -1.
        -11    1    3    3    0    0 -0.83837170174E+01 -0.37215756189E+01  0.23202603122E+02  0.24949902364E+02  0.51100000000E-03 0.  1.
        -12    1    3    3    0    0  0.16572527088E+01 -0.51830588976E+01  0.12943169030E+02  0.14040520311E+02  0.00000000000E+00 0.  1.
</event>
<event>
 7    1  0.1265344E-009  0.4778727E+02  0.7816164E-02  0.1312668E+00
        -11   -1    0    0    0    0  0.00000000000E+00  0.00000000000E+00  0.45593999997E+02  0.45594000000E+02  0.51100000000E-03 0. -1.
         11   -1    0    0    0    0 -0.00000000000E+00 -0.00000000000E+00 -0.45593999997E+02  0.45594000000E+02  0.51100000000E-03 0.  1.
    9900012    2    1    2    0    0 -0.26703567946E+02 -0.33943120467E+02  0.42903350759E+01  0.47787274855E+02  0.20000017373E+02 0.  0.
         12    1    1    2    0    0  0.26703567946E+02  0.33943120467E+02 -0.42903350759E+01  0.43400725145E+02  0.00000000000E+00 0. -1.
         11    1    3    3    0    0 -0.11155999119E+02 -0.25005243380E+02 -0.65444960884E+00  0.27388808251E+02  0.51100000000E-03 0. -1.
        -11    1    3    3    0    0 -0.85249150296E+01 -0.78889086219E+01  0.62333248648E+01  0.13181934404E+02  0.51100000000E-03 0.  1.
        -12    1    3    3    0    0 -0.70226537972E+01 -0.10489684649E+01 -0.12885401800E+01  0.72165321998E+01  0.00000000000E+00 0.  1.
</event>
<event>
 7    1  0.1265344E-009  0.4778728E+02  0.7816164E-02  0.1312668E+00
        -11   -1    0    0    0    0  0.00000000000E+00  0.00000000000E+00  0.45593999997E+02  0.45594000000E+02  0.51100000000E-03 0. -1.
         11   -1    0    0    0    0 -0.00000000000E+00 -0.00000000000E+00 -0.45593999997E+02  0.45594000000E+02  0.51100000000E-03 0.  1.
    9900012    2    1    2    0    0  0.27406756368E+02 -0.11457944668E+02 -0.31641872691E+02  0.47787275375E+02  0.20000019745E+02 0.  0.
         12    1    1    2    0    0 -0.27406756368E+02  0.11457944668E+02  0.31641872691E+02  0.43400724625E+02  0.00000000000E+00 0. -1.
         11    1    3    3    0    0  0.24035426665E+01  0.43207426698E+01 -0.91550562719E+01  0.10404849358E+02  0.51100000000E-03 0. -1.
        -11    1    3    3    0    0  0.10812867780E+02 -0.92713992313E+01 -0.11163688957E+02  0.18097096583E+02  0.51100000000E-03 0.  1.
        -12    1    3    3    0    0  0.14190345921E+02 -0.65072881063E+01 -0.11323127462E+02  0.19285329434E+02  0.00000000000E+00 0.  1.
</event>
<event>
 7    1  0.1287554E-009  0.4778727E+02  0.7816164E-02  0.1312668E+00
        -11   -1    0    0    0    0  0.00000000000E+00  0.00000000000E+00  0.45593999997E+02  0.45594000000E+02  0.51100000000E-03 0.  1.
         11   -1    0    0    0    0 -0.00000000000E+00 -0.00000000000E+00 -0.45593999997E+02  0.45594000000E+02  0.51100000000E-03 0. -1.
    9900012    2    1    2    0    0  0.40468705106E+02 -0.15295860104E+02  0.34559883499E+01  0.47787270919E+02  0.19999999428E+02 0.  0.
         12    1    1    2    0    0 -0.40468705106E+02  0.15295860104E+02 -0.34559883499E+01  0.43400729081E+02  0.00000000000E+00 0. -1.
         11    1    3    3    0    0  0.18354108099E+02 -0.10662487091E+01 -0.27048795226E+00  0.18387042568E+02  0.51100000000E-03 0. -1.
        -11    1    3    3    0    0  0.20007650025E+02 -0.10542340214E+02  0.73895989443E+01  0.23791871921E+02  0.51100000000E-03 0.  1.
         12    1    3    3    0    0  0.21069469827E+01 -0.36872711809E+01 -0.36631226422E+01  0.56083564296E+01  0.00000000000E+00 0. -1.
</event>
<event>
 7    1  0.1265344E-009  0.4778727E+02  0.7816164E-02  0.1312668E+00
        -11   -1    0    0    0    0  0.00000000000E+00  0.00000000000E+00  0.45593999997E+02  0.45594000000E+02  0.51100000000E-03 0.  1.
         11   -1    0    0    0    0 -0.00000000000E+00 -0.00000000000E+00 -0.45593999997E+02  0.45594000000E+02  0.51100000000E-03 0. -1.
    9900012    2    1    2    0    0  0.33948174413E+02  0.12707996426E+02  0.23867369944E+02  0.47787273426E+02  0.20000010858E+02 0.  0.
         12    1    1    2    0    0 -0.33948174413E+02 -0.12707996426E+02 -0.23867369944E+02  0.43400726574E+02  0.00000000000E+00 0. -1.
         11    1    3    3    0    0  0.91359139543E+01  0.67588625754E+01  0.13663895367E+02  0.17772146295E+02  0.51100000000E-03 0. -1.
        -11    1    3    3    0    0  0.20117048394E+02  0.94728308345E+01  0.69138926277E+01  0.23285877086E+02  0.51100000000E-03 0.  1.
         12    1    3    3    0    0  0.46952120645E+01 -0.35236969841E+01  0.32895819494E+01  0.67292500450E+01  0.00000000000E+00 0. -1.
</event>
<event>
 7    1  0.1265344E-009  0.4778727E+02  0.7816164E-02  0.1312668E+00
        -11   -1    0    0    0    0  0.00000000000E+00  0.00000000000E+00  0.45593999997E+02  0.45594000000E+02  0.51100000000E-03 0. -1.
         11   -1    0    0    0    0 -0.00000000000E+00 -0.00000000000E+00 -0.45593999997E+02  0.45594000000E+02  0.51100000000E-03 0.  1.
    9900012    2    1    2    0    0 -0.26857644519E+02 -0.33066972568E+02 -0.82985138726E+01  0.47787273319E+02  0.20000010371E+02 0.  0.
         12    1    1    2    0    0  0.26857644519E+02  0.33066972568E+02  0.82985138726E+01  0.43400726681E+02  0.00000000000E+00 0. -1.
         11    1    3    3    0    0 -0.54201745974E+01  0.14960334169E+01 -0.31777825860E+01  0.64586926754E+01  0.51100000000E-03 0. -1.
        -11    1    3    3    0    0 -0.13406957271E+02 -0.19243623635E+02 -0.52395232022E+01  0.24031565857E+02  0.51100000000E-03 0.  1.
        -12    1    3    3    0    0 -0.80305126506E+01 -0.15319382350E+02  0.11879191561E+00  0.17297014786E+02  0.00000000000E+00 0.  1.
</event>
<event>
 7    1  0.1265344E-009  0.4778725E+02  0.7816164E-02  0.1312668E+00
        -11   -1    0    0    0    0  0.00000000000E+00  0.00000000000E+00  0.45593999997E+02  0.45594000000E+02  0.51100000000E-03 0.  1.
         11   -1    0    0    0    0 -0.00000000000E+00 -0.00000000000E+00 -0.45593999997E+02  0.45594000000E+02  0.51100000000E-03 0. -1.
    9900012    2    1    2    0    0 -0.41414177276E+02  0.77810573498E+01  0.10389708235E+02  0.47787251503E+02  0.19999910901E+02 0.  0.
         12    1    1    2    0    0  0.41414177276E+02 -0.77810573498E+01 -0.10389708235E+02  0.43400748497E+02  0.00000000000E+00 0. -1.
         11    1    3    3    0    0 -0.20853500788E+01  0.26123097960E+01  0.30690201937E+01  0.45378114364E+01  0.51100000000E-03 0. -1.
        -11    1    3    3    0    0 -0.31900681314E+02 -0.23176627852E+01  0.42544417409E+01  0.32266473373E+02  0.51100000000E-03 0.  1.
        -12    1    3    3    0    0 -0.74281458827E+01  0.74864103390E+01  0.30662463002E+01  0.10982966694E+02  0.00000000000E+00 0.  1.
</event>
<event>
 7    1  0.1265344E-009  0.4778727E+02  0.7816164E-02  0.1312668E+00
        -11   -1    0    0    0    0  0.00000000000E+00  0.00000000000E+00  0.45593999997E+02  0.45594000000E+02  0.51100000000E-03 0. -1.
         11   -1    0    0    0    0 -0.00000000000E+00 -0.00000000000E+00 -0.45593999997E+02  0.45594000000E+02  0.51100000000E-03 0.  1.
    9900012    2    1    2    0    0  0.40646295902E+02 -0.11596560399E+02 -0.98499540633E+01  0.47787272141E+02  0.20000005001E+02 0.  0.
         12    1    1    2    0    0 -0.40646295902E+02  0.11596560399E+02  0.98499540633E+01  0.43400727859E+02  0.00000000000E+00 0. -1.
         11    1    3    3    0    0  0.54657387877E+01 -0.12716798383E+01  0.42754085021E+01  0.70548272996E+01  0.51100000000E-03 0. -1.
        -11    1    3    3    0    0  0.11496661102E+02 -0.87081195675E+01 -0.62836662438E+01  0.15731783898E+02  0.51100000000E-03 0.  1.
        -12    1    3    3    0    0  0.23683896012E+02 -0.16167609937E+01 -0.78416963215E+01  0.25000660943E+02  0.00000000000E+00 0.  1.
</event>
<event>
 7    1  0.1265344E-009  0.4778727E+02  0.7816164E-02  0.1312668E+00
        -11   -1    0    0    0    0  0.00000000000E+00  0.00000000000E+00  0.45593999997E+02  0.45594000000E+02  0.51100000000E-03 0.  1.
         11   -1    0    0    0    0 -0.00000000000E+00 -0.00000000000E+00 -0.45593999997E+02  0.45594000000E+02  0.51100000000E-03 0. -1.
    9900012    2    1    2    0    0 -0.41068286828E+01  0.13613724419E+02  0.41005166073E+02  0.47787272137E+02  0.20000004982E+02 0.  0.
         12    1    1    2    0    0  0.41068286828E+01 -0.13613724419E+02 -0.41005166073E+02  0.43400727863E+02  0.00000000000E+00 0. -1.
         11    1    3    3    0    0  0.10582573228E+01  0.60538440916E+01  0.12078916840E+02  0.13552459892E+02  0.51100000000E-03 0. -1.
        -11    1    3    3    0    0 -0.15309634993E+01  0.70707291425E+01  0.26510972595E+01  0.77050228282E+01  0.51100000000E-03 0.  1.
         12    1    3    3    0    0 -0.36341225062E+01  0.48915118458E+00  0.26275151973E+02  0.26529789417E+02  0.00000000000E+00 0. -1.
</event>
<event>
 7    1  0.1265344E-009  0.4778728E+02  0.7816164E-02  0.1312668E+00
        -11   -1    0    0    0    0  0.00000000000E+00  0.00000000000E+00  0.45593999997E+02  0.45594000000E+02  0.51100000000E-03 0. -1.
         11   -1    0    0    0    0 -0.00000000000E+00 -0.00000000000E+00 -0.45593999997E+02  0.45594000000E+02  0.51100000000E-03 0.  1.
    9900012    2    1    2    0    0  0.42771385586E+02  0.73664434761E+00 -0.73272529037E+01  0.47787277599E+02  0.20000029885E+02 0.  0.
         12    1    1    2    0    0 -0.42771385586E+02 -0.73664434761E+00  0.73272529037E+01  0.43400722401E+02  0.00000000000E+00 0. -1.
         11    1    3    3    0    0  0.86382549684E+01  0.88918351859E-01  0.33658816212E+01  0.92712736299E+01  0.51100000000E-03 0. -1.
        -11    1    3    3    0    0  0.21733697589E+02 -0.43999898772E+01 -0.13992578304E+01  0.22218718337E+02  0.51100000000E-03 0.  1.
         12    1    3    3    0    0  0.12399433028E+02  0.50477158730E+01 -0.92938766945E+01  0.16297285632E+02  0.00000000000E+00 0. -1.
</event>
<event>
 7    1  0.1265344E-009  0.4778727E+02  0.7816164E-02  0.1312668E+00
        -11   -1    0    0    0    0  0.00000000000E+00  0.00000000000E+00  0.45593999997E+02  0.45594000000E+02  0.51100000000E-03 0.  1.
         11   -1    0    0    0    0 -0.00000000000E+00 -0.00000000000E+00 -0.45593999997E+02  0.45594000000E+02  0.51100000000E-03 0. -1.
    9900012    2    1    2    0    0  0.19299750864E+02  0.22140243199E+02  0.31952346749E+02  0.47787271722E+02  0.20000003089E+02 0.  0.
         12    1    1    2    0    0 -0.19299750864E+02 -0.22140243199E+02 -0.31952346749E+02  0.43400728278E+02  0.00000000000E+00 0. -1.
         11    1    3    3    0    0  0.12247382226E+02  0.62549887970E+01  0.37017627004E+01  0.14241709996E+02  0.51100000000E-03 0. -1.
        -11    1    3    3    0    0  0.29053186514E+01  0.88141304536E+01  0.10628382964E+02  0.14110006974E+02  0.51100000000E-03 0.  1.
         12    1    3    3    0    0  0.41470499862E+01  0.70711239482E+01  0.17622201084E+02  0.19435554752E+02  0.00000000000E+00 0. -1.
</event>
<event>
 7    1  0.1265344E-009  0.4778727E+02  0.7816164E-02  0.1312668E+00
        -11   -1    0    0    0    0  0.00000000000E+00  0.00000000000E+00  0.45593999997E+02  0.45594000000E+02  0.51100000000E-03 0. -1.
         11   -1    0    0    0    0 -0.00000000000E+00 -0.00000000000E+00 -0.45593999997E+02  0.45594000000E+02  0.51100000000E-03 0.  1.
    9900012    2    1    2    0    0  0.13832305499E+02 -0.70344372051E+01 -0.40531562498E+02  0.47787267970E+02  0.19999985984E+02 0.  0.
         12    1    1    2    0    0 -0.13832305499E+02  0.70344372051E+01  0.40531562498E+02  0.43400732030E+02  0.00000000000E+00 0. -1.
         11    1    3    3    0    0 -0.12777387390E+01  0.19552195614E+01 -0.25935790609E+01  0.34902940313E+01  0.51100000000E-03 0. -1.
        -11    1    3    3    0    0  0.12673841450E+02 -0.12344515088E+02 -0.34993421137E+02  0.39211641549E+02  0.51100000000E-03 0.  1.
        -12    1    3    3    0    0  0.24362027880E+01  0.33548583212E+01 -0.29445623001E+01  0.50853323902E+01  0.00000000000E+00 0.  1.
</event>
<event>
 7    1  0.1265344E-009  0.4778727E+02  0.7816164E-02  0.1312668E+00
        -11   -1    0    0    0    0  0.00000000000E+00  0.00000000000E+00  0.45593999997E+02  0.45594000000E+02  0.51100000000E-03 0. -1.
         11   -1    0    0    0    0 -0.00000000000E+00 -0.00000000000E+00 -0.45593999997E+02  0.45594000000E+02  0.51100000000E-03 0.  1.
    9900012    2    1    2    0    0  0.36559596858E+02  0.20979119243E+02  0.10339041786E+02  0.47787270148E+02  0.19999995914E+02 0.  0.
         12    1    1    2    0    0 -0.36559596858E+02 -0.20979119243E+02 -0.10339041786E+02  0.43400729852E+02  0.00000000000E+00 0. -1.
         11    1    3    3    0    0  0.36027197505E+00  0.15309809845E+01 -0.21453340535E+01  0.26601047222E+01  0.51100000000E-03 0. -1.
        -11    1    3    3    0    0  0.16506192193E+02  0.14735298537E+02  0.11295873156E+02  0.24843110802E+02  0.51100000000E-03 0.  1.
         12    1    3    3    0    0  0.19693132690E+02  0.47128397211E+01  0.11885026837E+01  0.20284054624E+02  0.00000000000E+00 0. -1.
</event>
<event>
 7    1  0.1265344E-009  0.4778727E+02  0.7816164E-02  0.1312668E+00
        -11   -1    0    0    0    0  0.00000000000E+00  0.00000000000E+00  0.45593999997E+02  0.45594000000E+02  0.51100000000E-03 0. -1.
         11   -1    0    0    0    0 -0.00000000000E+00 -0.00000000000E+00 -0.45593999997E+02  0.45594000000E+02  0.51100000000E-03 0.  1.
    9900012    2    1    2    0    0  0.54296551573E+01 -0.40488036825E+02 -0.14658128403E+02  0.47787274092E+02  0.20000013895E+02 0.  0.
         12    1    1    2    0    0 -0.54296551573E+01  0.40488036825E+02  0.14658128403E+02  0.43400725908E+02  0.00000000000E+00 0. -1.
         11    1    3    3    0    0  0.69239298735E+01 -0.16788371342E+02 -0.23290406270E+01  0.18308868007E+02  0.51100000000E-03 0.  1.
        -11    1    3    3    0    0 -0.19233219636E+01 -0.24897684968E+02 -0.12872861798E+02  0.28094562736E+02  0.51100000000E-03 0. -1.
         12    1    3    3    0    0  0.42904724735E+00  0.11980194855E+01  0.54377402213E+00  0.13838433492E+01  0.00000000000E+00 0. -1.
</event>
<event>
 7    1  0.1265344E-009  0.4778727E+02  0.7816164E-02  0.1312668E+00
        -11   -1    0    0    0    0  0.00000000000E+00  0.00000000000E+00  0.45593999997E+02  0.45594000000E+02  0.51100000000E-03 0. -1.
         11   -1    0    0    0    0 -0.00000000000E+00 -0.00000000000E+00 -0.45593999997E+02  0.45594000000E+02  0.51100000000E-03 0.  1.
    9900012    2    1    2    0    0 -0.21241358928E+02  0.37797508511E+02  0.19432743436E+01  0.47787270814E+02  0.19999998949E+02 0.  0.
         12    1    1    2    0    0  0.21241358928E+02 -0.37797508511E+02 -0.19432743436E+01  0.43400729186E+02  0.00000000000E+00 0. -1.
         11    1    3    3    0    0 -0.40166233076E+01 -0.28022341482E+00 -0.34688442571E+01  0.53145713561E+01  0.51100000000E-03 0. -1.
        -11    1    3    3    0    0 -0.12637415675E+02  0.28562617377E+02  0.17123882298E+01  0.31280339833E+02  0.51100000000E-03 0.  1.
        -12    1    3    3    0    0 -0.45873199458E+01  0.95151145479E+01  0.36997303710E+01  0.11192359624E+02  0.00000000000E+00 0.  1.
</event>
<event>
 7    1  0.1265344E-009  0.4778727E+02  0.7816164E-02  0.1312668E+00
        -11   -1    0    0    0    0  0.00000000000E+00  0.00000000000E+00  0.45593999997E+02  0.45594000000E+02  0.51100000000E-03 0. -1.
         11   -1    0    0    0    0 -0.00000000000E+00 -0.00000000000E+00 -0.45593999997E+02  0.45594000000E+02  0.51100000000E-03 0.  1.
    9900012    2    1    2    0    0  0.58550444845E+01 -0.12836360618E+02 -0.41043506391E+02  0.47787272855E+02  0.20000008255E+02 0.  0.
         12    1    1    2    0    0 -0.58550444845E+01  0.12836360618E+02  0.41043506391E+02  0.43400727145E+02  0.00000000000E+00 0. -1.
         11    1    3    3    0    0  0.36225108165E+01 -0.66719445832E+01 -0.26992665937E+02  0.28039997214E+02  0.51100000000E-03 0. -1.
        -11    1    3    3    0    0  0.42730955235E+01 -0.48153827151E+01 -0.15583245208E+02  0.16860746945E+02  0.51100000000E-03 0.  1.
         12    1    3    3    0    0 -0.20405618555E+01 -0.13490333195E+01  0.15324047540E+01  0.28865286961E+01  0.00000000000E+00 0. -1.
</event>
<event>
 7    1  0.1265344E-009  0.4778727E+02  0.7816164E-02  0.1312668E+00
        -11   -1    0    0    0    0  0.00000000000E+00  0.00000000000E+00  0.45593999997E+02  0.45594000000E+02  0.51100000000E-03 0.  1.
         11   -1    0    0    0    0 -0.00000000000E+00 -0.00000000000E+00 -0.45593999997E+02  0.45594000000E+02  0.51100000000E-03 0. -1.
    9900012    2    1    2    0    0  0.14659713024E+02  0.34818598374E+02  0.21363084369E+02  0.47787270139E+02  0.19999995872E+02 0.  0.
         12    1    1    2    0    0 -0.14659713024E+02 -0.34818598374E+02 -0.21363084369E+02  0.43400729861E+02  0.00000000000E+00 0. -1.
         11    1    3    3    0    0  0.12764920351E+01  0.11347751384E+01  0.92016413639E+01  0.93588113872E+01  0.51100000000E-03 0. -1.
        -11    1    3    3    0    0  0.65402165050E+01  0.11412256644E+02  0.45050215418E+01  0.13903569793E+02  0.51100000000E-03 0.  1.
         12    1    3    3    0    0  0.68430044838E+01  0.22271566591E+02  0.76564214638E+01  0.24524888958E+02  0.00000000000E+00 0. -1.
</event>
<event>
 7    1  0.1265344E-009  0.4778727E+02  0.7816164E-02  0.1312668E+00
        -11   -1    0    0    0    0  0.00000000000E+00  0.00000000000E+00  0.45593999997E+02  0.45594000000E+02  0.51100000000E-03 0.  1.
         11   -1    0    0    0    0 -0.00000000000E+00 -0.00000000000E+00 -0.45593999997E+02  0.45594000000E+02  0.51100000000E-03 0. -1.
    9900012    2    1    2    0    0 -0.23121773357E+02 -0.32245966252E+02  0.17584219379E+02  0.47787268280E+02  0.19999987394E+02 0.  0.
         12    1    1    2    0    0  0.23121773357E+02  0.32245966252E+02 -0.17584219379E+02  0.43400731720E+02  0.00000000000E+00 0. -1.
         11    1    3    3    0    0  0.18529348080E+01 -0.70884062891E+01  0.82099086620E+00  0.73724417519E+01  0.51100000000E-03 0.  1.
        -11    1    3    3    0    0 -0.57958779820E+01 -0.44667333551E+01 -0.50909616926E+00  0.73350588013E+01  0.51100000000E-03 0. -1.
        -12    1    3    3    0    0 -0.19178830183E+02 -0.20690826608E+02  0.17272324682E+02  0.33079767726E+02  0.00000000000E+00 0.  1.
</event>
<event>
 7    1  0.1265344E-009  0.4778727E+02  0.7816164E-02  0.1312668E+00
        -11   -1    0    0    0    0  0.00000000000E+00  0.00000000000E+00  0.45593999997E+02  0.45594000000E+02  0.51100000000E-03 0.  1.
         11   -1    0    0    0    0 -0.00000000000E+00 -0.00000000000E+00 -0.45593999997E+02  0.45594000000E+02  0.51100000000E-03 0. -1.
    9900012    2    1    2    0    0 -0.22098904769E+02 -0.20112292933E+02  0.31476298751E+02  0.47787270720E+02  0.19999998519E+02 0.  0.
         12    1    1    2    0    0  0.22098904769E+02  0.20112292933E+02 -0.31476298751E+02  0.43400729280E+02  0.00000000000E+00 0. -1.
         11    1    3    3    0    0 -0.14144740559E+02 -0.39693188396E+01  0.10358464321E+02  0.17975732555E+02  0.51100000000E-03 0. -1.
        -11    1    3    3    0    0 -0.37404389438E+01 -0.54437352082E+01  0.15834424608E+02  0.17156752007E+02  0.51100000000E-03 0.  1.
        -12    1    3    3    0    0 -0.42137252660E+01 -0.10699238885E+02  0.52834098218E+01  0.12654786157E+02  0.00000000000E+00 0.  1.
</event>
<event>
 7    1  0.1265344E-009  0.4778725E+02  0.7816164E-02  0.1312668E+00
        -11   -1    0    0    0    0  0.00000000000E+00  0.00000000000E+00  0.45593999997E+02  0.45594000000E+02  0.51100000000E-03 0.  1.
         11   -1    0    0    0    0 -0.00000000000E+00 -0.00000000000E+00 -0.45593999997E+02  0.45594000000E+02  0.51100000000E-03 0. -1.
    9900012    2    1    2    0    0 -0.11562643333E+01  0.30671046475E+02 -0.30685100496E+02  0.47787246187E+02  0.19999886665E+02 0.  0.
         12    1    1    2    0    0  0.11562643333E+01 -0.30671046475E+02  0.30685100496E+02  0.43400753813E+02  0.00000000000E+00 0. -1.
         11    1    3    3    0    0  0.36040629913E+01  0.40100417784E+01 -0.51710514483E+00  0.54163736117E+01  0.51100000000E-03 0. -1.
        -11    1    3    3    0    0  0.37231554781E+01  0.10367291890E+02 -0.81890564832E+01  0.13726007219E+02  0.51100000000E-03 0.  1.
         12    1    3    3    0    0 -0.84834828027E+01  0.16293712807E+02 -0.21978938868E+02  0.28644865356E+02  0.00000000000E+00 0. -1.
</event>
<event>
 7    1  0.1265344E-009  0.4778732E+02  0.7816164E-02  0.1312668E+00
        -11   -1    0    0    0    0  0.00000000000E+00  0.00000000000E+00  0.45593999997E+02  0.45594000000E+02  0.51100000000E-03 0.  1.
         11   -1    0    0    0    0 -0.00000000000E+00 -0.00000000000E+00 -0.45593999997E+02  0.45594000000E+02  0.51100000000E-03 0. -1.
    9900012    2    1    2    0    0  0.15622198194E+02 -0.35426541012E+02  0.19609328229E+02  0.47787324452E+02  0.20000243503E+02 0.  0.
         12    1    1    2    0    0 -0.15622198194E+02  0.35426541012E+02 -0.19609328229E+02  0.43400675548E+02  0.00000000000E+00 0. -1.
         11    1    3    3    0    0  0.80273883077E+01 -0.17146953984E+02  0.28972372088E+01  0.19153354215E+02  0.51100000000E-03 0. -1.
        -11    1    3    3    0    0 -0.25829002952E+01 -0.86553647133E+01  0.84639152153E+01  0.12378391385E+02  0.51100000000E-03 0.  1.
         12    1    3    3    0    0  0.10177710181E+02 -0.96242223144E+01  0.82481758046E+01  0.16255578851E+02  0.00000000000E+00 0. -1.
</event>
<event>
 7    1  0.1265344E-009  0.4778725E+02  0.7816164E-02  0.1312668E+00
        -11   -1    0    0    0    0  0.00000000000E+00  0.00000000000E+00  0.45593999997E+02  0.45594000000E+02  0.51100000000E-03 0.  1.
         11   -1    0    0    0    0 -0.00000000000E+00 -0.00000000000E+00 -0.45593999997E+02  0.45594000000E+02  0.51100000000E-03 0. -1.
    9900012    2    1    2    0    0 -0.60889402534E+00  0.28264076818E+02  0.32930167512E+02  0.47787254353E+02  0.19999923898E+02 0.  0.
         12    1    1    2    0    0  0.60889402534E+00 -0.28264076818E+02 -0.32930167512E+02  0.43400745647E+02  0.00000000000E+00 0. -1.
         11    1    3    3    0    0 -0.35671172184E+01  0.13130098906E+02  0.18477007850E+02  0.22946102978E+02  0.51100000000E-03 0. -1.
        -11    1    3    3    0    0  0.59236864781E+01  0.54810956252E+01  0.11979597107E+02  0.14444487456E+02  0.51100000000E-03 0.  1.
         12    1    3    3    0    0 -0.29654632850E+01  0.96528822867E+01  0.24735625549E+01  0.10396663919E+02  0.00000000000E+00 0. -1.
</event>
<event>
 7    1  0.1265344E-009  0.4778727E+02  0.7816164E-02  0.1312668E+00
        -11   -1    0    0    0    0  0.00000000000E+00  0.00000000000E+00  0.45593999997E+02  0.45594000000E+02  0.51100000000E-03 0.  1.
         11   -1    0    0    0    0 -0.00000000000E+00 -0.00000000000E+00 -0.45593999997E+02  0.45594000000E+02  0.51100000000E-03 0. -1.
    9900012    2    1    2    0    0 -0.81802457768E+01  0.40977180184E+01  0.42425412008E+02  0.47787270767E+02  0.19999998735E+02 0.  0.
         12    1    1    2    0    0  0.81802457768E+01 -0.40977180184E+01 -0.42425412008E+02  0.43400729233E+02  0.00000000000E+00 0. -1.
         11    1    3    3    0    0  0.12801479835E+01  0.95499040360E+00  0.33943938984E+02  0.33981491721E+02  0.51100000000E-03 0. -1.
        -11    1    3    3    0    0 -0.47620139681E+01  0.23586204145E+01  0.70568014263E+01  0.88339296987E+01  0.51100000000E-03 0.  1.
         12    1    3    3    0    0 -0.46983797922E+01  0.78410720032E+00  0.14246715971E+01  0.49718493474E+01  0.00000000000E+00 0. -1.
</event>
<event>
 7    1  0.1265344E-009  0.4778727E+02  0.7816164E-02  0.1312668E+00
        -11   -1    0    0    0    0  0.00000000000E+00  0.00000000000E+00  0.45593999997E+02  0.45594000000E+02  0.51100000000E-03 0. -1.
         11   -1    0    0    0    0 -0.00000000000E+00 -0.00000000000E+00 -0.45593999997E+02  0.45594000000E+02  0.51100000000E-03 0.  1.
    9900012    2    1    2    0    0  0.25262666605E+02  0.13769291847E+02 -0.32493501276E+02  0.47787270200E+02  0.19999996151E+02 0.  0.
         12    1    1    2    0    0 -0.25262666605E+02 -0.13769291847E+02  0.32493501276E+02  0.43400729800E+02  0.00000000000E+00 0. -1.
         11    1    3    3    0    0  0.89628079408E+01  0.37975827595E+01 -0.45996681882E+01  0.10766174283E+02  0.51100000000E-03 0. -1.
        -11    1    3    3    0    0  0.19166464763E+02  0.81702063223E+01 -0.25177383720E+02  0.32680365574E+02  0.51100000000E-03 0.  1.
         12    1    3    3    0    0 -0.28666060981E+01  0.18015027656E+01 -0.27164493681E+01  0.43407303424E+01  0.00000000000E+00 0. -1.
</event>
<event>
 7    1  0.1265344E-009  0.4778727E+02  0.7816164E-02  0.1312668E+00
        -11   -1    0    0    0    0  0.00000000000E+00  0.00000000000E+00  0.45593999997E+02  0.45594000000E+02  0.51100000000E-03 0. -1.
         11   -1    0    0    0    0 -0.00000000000E+00 -0.00000000000E+00 -0.45593999997E+02  0.45594000000E+02  0.51100000000E-03 0.  1.
    9900012    2    1    2    0    0 -0.38054224316E+02 -0.86918542342E+01 -0.18972372723E+02  0.47787271376E+02  0.20000001512E+02 0.  0.
         12    1    1    2    0    0  0.38054224316E+02  0.86918542342E+01  0.18972372723E+02  0.43400728624E+02  0.00000000000E+00 0. -1.
         11    1    3    3    0    0  0.21257236277E+00 -0.23126928071E+01  0.27070995936E+00  0.23381657710E+01  0.51100000000E-03 0. -1.
        -11    1    3    3    0    0 -0.16165468660E+02  0.34097855881E+01 -0.44514556228E+01  0.17110361544E+02  0.51100000000E-03 0.  1.
        -12    1    3    3    0    0 -0.22101328019E+02 -0.97889470152E+01 -0.14791627059E+02  0.28338744061E+02  0.00000000000E+00 0.  1.
</event>
<event>
 7    1  0.1265344E-009  0.4778727E+02  0.7816164E-02  0.1312668E+00
        -11   -1    0    0    0    0  0.00000000000E+00  0.00000000000E+00  0.45593999997E+02  0.45594000000E+02  0.51100000000E-03 0.  1.
         11   -1    0    0    0    0 -0.00000000000E+00 -0.00000000000E+00 -0.45593999997E+02  0.45594000000E+02  0.51100000000E-03 0. -1.
    9900012    2    1    2    0    0 -0.27421298587E+01  0.30918712011E+02  0.30333764004E+02  0.47787271121E+02  0.20000000348E+02 0.  0.
         12    1    1    2    0    0  0.27421298587E+01 -0.30918712011E+02 -0.30333764004E+02  0.43400728879E+02  0.00000000000E+00 0. -1.
         11    1    3    3    0    0 -0.46617589075E+01  0.70940634670E+01  0.14415419767E+02  0.16729078275E+02  0.51100000000E-03 0. -1.
        -11    1    3    3    0    0 -0.39732269975E+01  0.17529105009E+02  0.96765760552E+01  0.20413039451E+02  0.51100000000E-03 0.  1.
         12    1    3    3    0    0  0.58928560464E+01  0.62955435345E+01  0.62417681816E+01  0.10645153395E+02  0.00000000000E+00 0. -1.
</event>
<event>
 7    1  0.1265344E-009  0.4778728E+02  0.7816164E-02  0.1312668E+00
        -11   -1    0    0    0    0  0.00000000000E+00  0.00000000000E+00  0.45593999997E+02  0.45594000000E+02  0.51100000000E-03 0.  1.
         11   -1    0    0    0    0 -0.00000000000E+00 -0.00000000000E+00 -0.45593999997E+02  0.45594000000E+02  0.51100000000E-03 0. -1.
    9900012    2    1    2    0    0  0.45310310235E+01 -0.34211847310E+02  0.26318084685E+02  0.47787282034E+02  0.20000050105E+02 0.  0.
         12    1    1    2    0    0 -0.45310310235E+01  0.34211847310E+02 -0.26318084685E+02  0.43400717966E+02  0.00000000000E+00 0. -1.
         11    1    3    3    0    0  0.42633861921E+00 -0.14096609466E+01  0.63180050669E+01  0.64873798170E+01  0.51100000000E-03 0. -1.
        -11    1    3    3    0    0  0.73361195032E+01 -0.10303515057E+02  0.11304311268E+02  0.16963741492E+02  0.51100000000E-03 0.  1.
        -12    1    3    3    0    0 -0.32314270989E+01 -0.22498671306E+02  0.86957683500E+01  0.24336160725E+02  0.00000000000E+00 0.  1.
</event>
<event>
 7    1  0.1265344E-009  0.4778727E+02  0.7816164E-02  0.1312668E+00
        -11   -1    0    0    0    0  0.00000000000E+00  0.00000000000E+00  0.45593999997E+02  0.45594000000E+02  0.51100000000E-03 0. -1.
         11   -1    0    0    0    0 -0.00000000000E+00 -0.00000000000E+00 -0.45593999997E+02  0.45594000000E+02  0.51100000000E-03 0.  1.
    9900012    2    1    2    0    0 -0.41528849884E+01  0.16613372739E+02 -0.39879483161E+02  0.47787265160E+02  0.19999973169E+02 0.  0.
         12    1    1    2    0    0  0.41528849884E+01 -0.16613372739E+02  0.39879483161E+02  0.43400734840E+02  0.00000000000E+00 0. -1.
         11    1    3    3    0    0 -0.84920716457E+01  0.91835358762E+01 -0.14096210884E+02  0.18845577029E+02  0.51100000000E-03 0. -1.
        -11    1    3    3    0    0  0.35868869868E+00 -0.15851238162E+01 -0.11345577234E+02  0.11461387269E+02  0.51100000000E-03 0.  1.
        -12    1    3    3    0    0  0.39804979586E+01  0.90149606786E+01 -0.14437695043E+02  0.17480300861E+02  0.00000000000E+00 0.  1.
</event>
<event>
 7    1  0.1265344E-009  0.4778727E+02  0.7816164E-02  0.1312668E+00
        -11   -1    0    0    0    0  0.00000000000E+00  0.00000000000E+00  0.45593999997E+02  0.45594000000E+02  0.51100000000E-03 0. -1.
         11   -1    0    0    0    0 -0.00000000000E+00 -0.00000000000E+00 -0.45593999997E+02  0.45594000000E+02  0.51100000000E-03 0.  1.
    9900012    2    1    2    0    0  0.30084069020E+02 -0.27329817564E+02  0.15220149489E+02  0.47787273193E+02  0.20000009796E+02 0.  0.
         12    1    1    2    0    0 -0.30084069020E+02  0.27329817564E+02 -0.15220149489E+02  0.43400726807E+02  0.00000000000E+00 0. -1.
         11    1    3    3    0    0 -0.20709829767E+01 -0.63456422179E+01  0.38914972867E+01  0.77265708462E+01  0.51100000000E-03 0. -1.
        -11    1    3    3    0    0  0.89026908228E+01 -0.52850974091E+01  0.25370490437E+01  0.10659586137E+02  0.51100000000E-03 0.  1.
         12    1    3    3    0    0  0.23252361174E+02 -0.15699077937E+02  0.87916031590E+01  0.29401116209E+02  0.00000000000E+00 0. -1.
</event>
<event>
 7    1  0.1265344E-009  0.4778727E+02  0.7816164E-02  0.1312668E+00
        -11   -1    0    0    0    0  0.00000000000E+00  0.00000000000E+00  0.45593999997E+02  0.45594000000E+02  0.51100000000E-03 0.  1.
         11   -1    0    0    0    0 -0.00000000000E+00 -0.00000000000E+00 -0.45593999997E+02  0.45594000000E+02  0.51100000000E-03 0. -1.
    9900012    2    1    2    0    0  0.21321754368E+02  0.14543804421E+02  0.34892458001E+02  0.47787273258E+02  0.20000010093E+02 0.  0.
         12    1    1    2    0    0 -0.21321754368E+02 -0.14543804421E+02 -0.34892458001E+02  0.43400726742E+02  0.00000000000E+00 0. -1.
         11    1    3    3    0    0  0.84697617420E+01  0.10481673092E+02  0.92440596545E+01  0.16341816726E+02  0.51100000000E-03 0. -1.
        -11    1    3    3    0    0  0.14911759059E+02  0.19600112131E+01  0.19475333627E+02  0.24606723112E+02  0.51100000000E-03 0.  1.
        -12    1    3    3    0    0 -0.20597664332E+01  0.21021201162E+01  0.61730647201E+01  0.68387334193E+01  0.00000000000E+00 0.  1.
</event>
<event>
 7    1  0.1265344E-009  0.4778727E+02  0.7816164E-02  0.1312668E+00
        -11   -1    0    0    0    0  0.00000000000E+00  0.00000000000E+00  0.45593999997E+02  0.45594000000E+02  0.51100000000E-03 0.  1.
         11   -1    0    0    0    0 -0.00000000000E+00 -0.00000000000E+00 -0.45593999997E+02  0.45594000000E+02  0.51100000000E-03 0. -1.
    9900012    2    1    2    0    0 -0.15516363002E+02  0.40381860455E+02  0.34887792916E+01  0.47787265495E+02  0.19999974698E+02 0.  0.
         12    1    1    2    0    0  0.15516363002E+02 -0.40381860455E+02 -0.34887792916E+01  0.43400734505E+02  0.00000000000E+00 0. -1.
         11    1    3    3    0    0  0.11810336629E+01  0.38380639743E+01  0.24421602361E+01  0.46999704748E+01  0.51100000000E-03 0. -1.
        -11    1    3    3    0    0 -0.13399198257E+02  0.16647375393E+02 -0.51635119615E+01  0.21984892027E+02  0.51100000000E-03 0.  1.
        -12    1    3    3    0    0 -0.32981984079E+01  0.19896421088E+02  0.62101310170E+01  0.21102402993E+02  0.00000000000E+00 0.  1.
</event>
<event>
 7    1  0.1265344E-009  0.4778727E+02  0.7816164E-02  0.1312668E+00
        -11   -1    0    0    0    0  0.00000000000E+00  0.00000000000E+00  0.45593999997E+02  0.45594000000E+02  0.51100000000E-03 0.  1.
         11   -1    0    0    0    0 -0.00000000000E+00 -0.00000000000E+00 -0.45593999997E+02  0.45594000000E+02  0.51100000000E-03 0. -1.
    9900012    2    1    2    0    0 -0.19069567840E+02  0.17783240958E+02  0.34694835130E+02  0.47787266582E+02  0.19999979653E+02 0.  0.
         12    1    1    2    0    0  0.19069567840E+02 -0.17783240958E+02 -0.34694835130E+02  0.43400733418E+02  0.00000000000E+00 0. -1.
         11    1    3    3    0    0 -0.30709392850E+01  0.99830152566E+00  0.13850345936E+02  0.14221791619E+02  0.51100000000E-03 0. -1.
        -11    1    3    3    0    0 -0.18605023779E+01  0.78604594474E+01  0.18994629888E+01  0.82979667226E+01  0.51100000000E-03 0.  1.
         12    1    3    3    0    0 -0.14138126177E+02  0.89244799846E+01  0.18945026205E+02  0.25267508241E+02  0.00000000000E+00 0. -1.
</event>
<event>
 7    1  0.1265344E-009  0.4778727E+02  0.7816164E-02  0.1312668E+00
        -11   -1    0    0    0    0  0.00000000000E+00  0.00000000000E+00  0.45593999997E+02  0.45594000000E+02  0.51100000000E-03 0.  1.
         11   -1    0    0    0    0 -0.00000000000E+00 -0.00000000000E+00 -0.45593999997E+02  0.45594000000E+02  0.51100000000E-03 0. -1.
    9900012    2    1    2    0    0  0.11580576581E+02  0.17567228242E+01  0.41790280991E+02  0.47787269426E+02  0.19999992621E+02 0.  0.
         12    1    1    2    0    0 -0.11580576581E+02 -0.17567228242E+01 -0.41790280991E+02  0.43400730574E+02  0.00000000000E+00 0. -1.
         11    1    3    3    0    0  0.30676827971E+01  0.25260709666E+01  0.27759489469E+02  0.28042485056E+02  0.51100000000E-03 0. -1.
        -11    1    3    3    0    0  0.70023960886E+01 -0.43616129757E+01  0.13487138156E+02  0.15810126965E+02  0.51100000000E-03 0.  1.
         12    1    3    3    0    0  0.15104976952E+01  0.35922648333E+01  0.54365336634E+00  0.39346574060E+01  0.00000000000E+00 0. -1.
</event>
<event>
 7    1  0.1265344E-009  0.4778727E+02  0.7816164E-02  0.1312668E+00
        -11   -1    0    0    0    0  0.00000000000E+00  0.00000000000E+00  0.45593999997E+02  0.45594000000E+02  0.51100000000E-03 0.  1.
         11   -1    0    0    0    0 -0.00000000000E+00 -0.00000000000E+00 -0.45593999997E+02  0.45594000000E+02  0.51100000000E-03 0. -1.
    9900012    2    1    2    0    0  0.41215180486E+02  0.59993236368E+01  0.12204113494E+02  0.47787269905E+02  0.19999994805E+02 0.  0.
         12    1    1    2    0    0 -0.41215180486E+02 -0.59993236368E+01 -0.12204113494E+02  0.43400730095E+02  0.00000000000E+00 0. -1.
         11    1    3    3    0    0 -0.74108945109E+00  0.74612642304E+00 -0.50851048941E+00  0.11681187408E+01  0.51100000000E-03 0. -1.
        -11    1    3    3    0    0  0.37568592042E+02  0.93471629751E+01  0.97307446835E+01  0.39918115637E+02  0.51100000000E-03 0.  1.
        -12    1    3    3    0    0  0.43876778954E+01 -0.40939657614E+01  0.29818793003E+01  0.67010355267E+01  0.00000000000E+00 0.  1.
</event>
<event>
 7    1  0.1436235E-009  0.4778727E+02  0.7816164E-02  0.1312668E+00
        -11   -1    0    0    0    0  0.00000000000E+00  0.00000000000E+00  0.45593999997E+02  0.45594000000E+02  0.51100000000E-03 0.  1.
         11   -1    0    0    0    0 -0.00000000000E+00 -0.00000000000E+00 -0.45593999997E+02  0.45594000000E+02  0.51100000000E-03 0. -1.
    9900012    2    1    2    0    0  0.31916569084E+02  0.29355093910E+02  0.17984990477E+01  0.47787268216E+02  0.19999987106E+02 0.  0.
         12    1    1    2    0    0 -0.31916569084E+02 -0.29355093910E+02 -0.17984990477E+01  0.43400731784E+02  0.00000000000E+00 0. -1.
         11    1    3    3    0    0  0.30887962083E+01  0.24046886640E+01  0.49187432104E+01  0.62862727127E+01  0.51100000000E-03 0. -1.
        -11    1    3    3    0    0  0.24165842880E+02  0.16880335465E+02  0.14185899743E+01  0.29511795697E+02  0.51100000000E-03 0.  1.
         12    1    3    3    0    0  0.46619299958E+01  0.10070069781E+02 -0.45388341369E+01  0.11989199807E+02  0.00000000000E+00 0. -1.
</event>
<event>
 7    1  0.1265344E-009  0.4778728E+02  0.7816164E-02  0.1312668E+00
        -11   -1    0    0    0    0  0.00000000000E+00  0.00000000000E+00  0.45593999997E+02  0.45594000000E+02  0.51100000000E-03 0.  1.
         11   -1    0    0    0    0 -0.00000000000E+00 -0.00000000000E+00 -0.45593999997E+02  0.45594000000E+02  0.51100000000E-03 0. -1.
    9900012    2    1    2    0    0 -0.10573468881E+02 -0.32275040736E+02  0.27021218483E+02  0.47787277115E+02  0.20000027676E+02 0.  0.
         12    1    1    2    0    0  0.10573468881E+02  0.32275040736E+02 -0.27021218483E+02  0.43400722885E+02  0.00000000000E+00 0. -1.
         11    1    3    3    0    0 -0.68396558610E+01 -0.21739762154E+02  0.62798028392E+01  0.23639671630E+02  0.51100000000E-03 0. -1.
        -11    1    3    3    0    0  0.29184460596E+00 -0.29599249846E+01  0.21424309578E+01  0.36655613292E+01  0.51100000000E-03 0.  1.
        -12    1    3    3    0    0 -0.40256576259E+01 -0.75753535975E+01  0.18598984686E+02  0.20482044156E+02  0.00000000000E+00 0.  1.
</event>
<event>
 7    1  0.1265344E-009  0.4778727E+02  0.7816164E-02  0.1312668E+00
        -11   -1    0    0    0    0  0.00000000000E+00  0.00000000000E+00  0.45593999997E+02  0.45594000000E+02  0.51100000000E-03 0.  1.
         11   -1    0    0    0    0 -0.00000000000E+00 -0.00000000000E+00 -0.45593999997E+02  0.45594000000E+02  0.51100000000E-03 0. -1.
    9900012    2    1    2    0    0  0.42863211326E+01  0.38689038308E+02  0.19193981284E+02  0.47787272453E+02  0.20000006422E+02 0.  0.
         12    1    1    2    0    0 -0.42863211326E+01 -0.38689038308E+02 -0.19193981284E+02  0.43400727547E+02  0.00000000000E+00 0. -1.
         11    1    3    3    0    0 -0.33453821843E+01  0.36517859929E+01  0.21972839523E+01  0.54180420749E+01  0.51100000000E-03 0. -1.
        -11    1    3    3    0    0  0.95614973537E+01  0.30309006355E+02  0.92671064489E+01  0.33104944647E+02  0.51100000000E-03 0.  1.
        -12    1    3    3    0    0 -0.19297940368E+01  0.47282459600E+01  0.77295908831E+01  0.92642857308E+01  0.00000000000E+00 0.  1.
</event>
<event>
 7    1  0.1265344E-009  0.4778727E+02  0.7816164E-02  0.1312668E+00
        -11   -1    0    0    0    0  0.00000000000E+00  0.00000000000E+00  0.45593999997E+02  0.45594000000E+02  0.51100000000E-03 0.  1.
         11   -1    0    0    0    0 -0.00000000000E+00 -0.00000000000E+00 -0.45593999997E+02  0.45594000000E+02  0.51100000000E-03 0. -1.
    9900012    2    1    2    0    0 -0.21585837149E+02 -0.37650522249E+02 -0.33642696073E+00  0.47787269889E+02  0.19999994734E+02 0.  0.
         12    1    1    2    0    0  0.21585837149E+02  0.37650522249E+02  0.33642696073E+00  0.43400730111E+02  0.00000000000E+00 0. -1.
         11    1    3    3    0    0 -0.10541113638E+02 -0.85639052162E+01 -0.10950758761E+01  0.13625517998E+02  0.51100000000E-03 0. -1.
        -11    1    3    3    0    0 -0.23870021225E+01 -0.16251508883E+02 -0.56995887845E+01  0.17386622233E+02  0.51100000000E-03 0.  1.
        -12    1    3    3    0    0 -0.86577213885E+01 -0.12835108149E+02  0.64582376999E+01  0.16775129658E+02  0.00000000000E+00 0.  1.
</event>
<event>
 7    1  0.1265344E-009  0.4778727E+02  0.7816164E-02  0.1312668E+00
        -11   -1    0    0    0    0  0.00000000000E+00  0.00000000000E+00  0.45593999997E+02  0.45594000000E+02  0.51100000000E-03 0. -1.
         11   -1    0    0    0    0 -0.00000000000E+00 -0.00000000000E+00 -0.45593999997E+02  0.45594000000E+02  0.51100000000E-03 0.  1.
    9900012    2    1    2    0    0 -0.10801091994E+02  0.40861771215E+02 -0.98628345106E+01  0.47787269134E+02  0.19999991290E+02 0.  0.
         12    1    1    2    0    0  0.10801091994E+02 -0.40861771215E+02  0.98628345106E+01  0.43400730866E+02  0.00000000000E+00 0. -1.
         11    1    3    3    0    0 -0.77491066555E+01  0.91226765559E+01  0.34234225482E+01  0.12449566406E+02  0.51100000000E-03 0. -1.
        -11    1    3    3    0    0 -0.55414900937E+01  0.22991888621E+02 -0.96274430820E+01  0.25534735467E+02  0.51100000000E-03 0.  1.
        -12    1    3    3    0    0  0.24895047547E+01  0.87472060378E+01 -0.36588139768E+01  0.98029672604E+01  0.00000000000E+00 0.  1.
</event>
<event>
 7    1  0.1265344E-009  0.4778727E+02  0.7816164E-02  0.1312668E+00
        -11   -1    0    0    0    0  0.00000000000E+00  0.00000000000E+00  0.45593999997E+02  0.45594000000E+02  0.51100000000E-03 0. -1.
         11   -1    0    0    0    0 -0.00000000000E+00 -0.00000000000E+00 -0.45593999997E+02  0.45594000000E+02  0.51100000000E-03 0.  1.
    9900012    2    1    2    0    0  0.23152601252E+02  0.89058617112E+01 -0.35612721352E+02  0.47787271439E+02  0.20000001799E+02 0.  0.
         12    1    1    2    0    0 -0.23152601252E+02 -0.89058617112E+01  0.35612721352E+02  0.43400728561E+02  0.00000000000E+00 0. -1.
         11    1    3    3    0    0  0.60492421526E+00  0.43866604739E+01 -0.15658120871E+01  0.46968597139E+01  0.51100000000E-03 0. -1.
        -11    1    3    3    0    0 -0.55938259938E+00  0.27721315151E+01 -0.17002304693E+01  0.32997584668E+01  0.51100000000E-03 0.  1.
        -12    1    3    3    0    0  0.23107059636E+02  0.17470697223E+01 -0.32346678795E+02  0.39790653258E+02  0.00000000000E+00 0.  1.
</event>
<event>
 7    1  0.1265344E-009  0.4778728E+02  0.7816164E-02  0.1312668E+00
        -11   -1    0    0    0    0  0.00000000000E+00  0.00000000000E+00  0.45593999997E+02  0.45594000000E+02  0.51100000000E-03 0. -1.
         11   -1    0    0    0    0 -0.00000000000E+00 -0.00000000000E+00 -0.45593999997E+02  0.45594000000E+02  0.51100000000E-03 0.  1.
    9900012    2    1    2    0    0  0.27884338990E+02  0.23332848780E+02 -0.23699465551E+02  0.47787275807E+02  0.20000021714E+02 0.  0.
         12    1    1    2    0    0 -0.27884338990E+02 -0.23332848780E+02  0.23699465551E+02  0.43400724193E+02  0.00000000000E+00 0. -1.
         11    1    3    3    0    0 -0.64553250109E+00  0.45248261309E+01 -0.68598827806E+00  0.46218333920E+01  0.51100000000E-03 0. -1.
        -11    1    3    3    0    0  0.21431704106E+02  0.15912112474E+02 -0.10905861626E+02  0.28834893485E+02  0.51100000000E-03 0.  1.
        -12    1    3    3    0    0  0.70981673853E+01  0.28959101753E+01 -0.12107615647E+02  0.14330548929E+02  0.00000000000E+00 0.  1.
</event>
<event>
 7    1  0.1265344E-009  0.4778727E+02  0.7816164E-02  0.1312668E+00
        -11   -1    0    0    0    0  0.00000000000E+00  0.00000000000E+00  0.45593999997E+02  0.45594000000E+02  0.51100000000E-03 0. -1.
         11   -1    0    0    0    0 -0.00000000000E+00 -0.00000000000E+00 -0.45593999997E+02  0.45594000000E+02  0.51100000000E-03 0.  1.
    9900012    2    1    2    0    0  0.31234349361E+02  0.29784576552E+02 -0.45735636268E+01  0.47787273455E+02  0.20000010989E+02 0.  0.
         12    1    1    2    0    0 -0.31234349361E+02 -0.29784576552E+02  0.45735636268E+01  0.43400726545E+02  0.00000000000E+00 0. -1.
         11    1    3    3    0    0  0.10492990076E+02  0.47851979108E+01  0.61292894858E+01  0.13060212466E+02  0.51100000000E-03 0. -1.
        -11    1    3    3    0    0  0.12831708848E+02  0.16606252887E+02 -0.39253314505E+01  0.21350143188E+02  0.51100000000E-03 0.  1.
         12    1    3    3    0    0  0.79096504372E+01  0.83931257546E+01 -0.67775216621E+01  0.13376917801E+02  0.00000000000E+00 0. -1.
</event>
<event>
 7    1  0.1265344E-009  0.4778727E+02  0.7816164E-02  0.1312668E+00
        -11   -1    0    0    0    0  0.00000000000E+00  0.00000000000E+00  0.45593999997E+02  0.45594000000E+02  0.51100000000E-03 0. -1.
         11   -1    0    0    0    0 -0.00000000000E+00 -0.00000000000E+00 -0.45593999997E+02  0.45594000000E+02  0.51100000000E-03 0.  1.
    9900012    2    1    2    0    0  0.62852455621E+01  0.31119744857E+02 -0.29591897057E+02  0.47787271859E+02  0.20000003714E+02 0.  0.
         12    1    1    2    0    0 -0.62852455621E+01 -0.31119744857E+02  0.29591897057E+02  0.43400728141E+02  0.00000000000E+00 0. -1.
         11    1    3    3    0    0 -0.32858022184E+01 -0.11851578505E+01 -0.12969434476E+01  0.37260109926E+01  0.51100000000E-03 0. -1.
        -11    1    3    3    0    0  0.31575350271E+01  0.99418233229E+01 -0.73845715826E+01  0.12780523313E+02  0.51100000000E-03 0.  1.
         12    1    3    3    0    0  0.64135127534E+01  0.22363079385E+02 -0.20910382027E+02  0.31280737554E+02  0.00000000000E+00 0. -1.
</event>
<event>
 7    1  0.1265344E-009  0.4778728E+02  0.7816164E-02  0.1312668E+00
        -11   -1    0    0    0    0  0.00000000000E+00  0.00000000000E+00  0.45593999997E+02  0.45594000000E+02  0.51100000000E-03 0.  1.
         11   -1    0    0    0    0 -0.00000000000E+00 -0.00000000000E+00 -0.45593999997E+02  0.45594000000E+02  0.51100000000E-03 0. -1.
    9900012    2    1    2    0    0 -0.33469017901E+02 -0.27530416509E+02  0.23502161357E+01  0.47787279864E+02  0.20000040213E+02 0.  0.
         12    1    1    2    0    0  0.33469017901E+02  0.27530416509E+02 -0.23502161357E+01  0.43400720136E+02  0.00000000000E+00 0. -1.
         11    1    3    3    0    0 -0.26930316267E+02 -0.24574737395E+02  0.13941373464E+01  0.36484288008E+02  0.51100000000E-03 0.  1.
        -11    1    3    3    0    0 -0.32172631871E+01 -0.21817034296E+01 -0.38095774978E+01  0.54427468472E+01  0.51100000000E-03 0. -1.
        -12    1    3    3    0    0 -0.33214384470E+01 -0.77397568444E+00  0.47656562872E+01  0.58602450089E+01  0.00000000000E+00 0.  1.
</event>
<event>
 7    1  0.1265344E-009  0.4778727E+02  0.7816164E-02  0.1312668E+00
        -11   -1    0    0    0    0  0.00000000000E+00  0.00000000000E+00  0.45593999997E+02  0.45594000000E+02  0.51100000000E-03 0.  1.
         11   -1    0    0    0    0 -0.00000000000E+00 -0.00000000000E+00 -0.45593999997E+02  0.45594000000E+02  0.51100000000E-03 0. -1.
    9900012    2    1    2    0    0  0.11223055644E+02  0.22171971881E+02  0.35581880459E+02  0.47787268070E+02  0.19999986438E+02 0.  0.
         12    1    1    2    0    0 -0.11223055644E+02 -0.22171971881E+02 -0.35581880459E+02  0.43400731930E+02  0.00000000000E+00 0. -1.
         11    1    3    3    0    0 -0.15591643116E+01  0.24093372929E+01  0.16421532612E+02  0.16670411907E+02  0.51100000000E-03 0. -1.
        -11    1    3    3    0    0  0.37990781744E+01  0.11882983761E+02  0.11141037843E+02  0.16726058188E+02  0.51100000000E-03 0.  1.
         12    1    3    3    0    0  0.89831417815E+01  0.78796508268E+01  0.80193100040E+01  0.14390797975E+02  0.00000000000E+00 0. -1.
</event>
<event>
 7    1  0.1265344E-009  0.4778727E+02  0.7816164E-02  0.1312668E+00
        -11   -1    0    0    0    0  0.00000000000E+00  0.00000000000E+00  0.45593999997E+02  0.45594000000E+02  0.51100000000E-03 0.  1.
         11   -1    0    0    0    0 -0.00000000000E+00 -0.00000000000E+00 -0.45593999997E+02  0.45594000000E+02  0.51100000000E-03 0. -1.
    9900012    2    1    2    0    0 -0.30138619759E+02 -0.29484416920E+02  0.10293506479E+02  0.47787268235E+02  0.19999987191E+02 0.  0.
         12    1    1    2    0    0  0.30138619759E+02  0.29484416920E+02 -0.10293506479E+02  0.43400731765E+02  0.00000000000E+00 0. -1.
         11    1    3    3    0    0 -0.21237281178E+02 -0.95860708886E+01  0.43864332174E+01  0.23709822090E+02  0.51100000000E-03 0.  1.
        -11    1    3    3    0    0 -0.16346768217E+01 -0.71483362648E+01 -0.17294682328E+01  0.75340520502E+01  0.51100000000E-03 0. -1.
        -12    1    3    3    0    0 -0.72666617591E+01 -0.12750009767E+02  0.76365414944E+01  0.16543394095E+02  0.00000000000E+00 0.  1.
</event>
<event>
 7    1  0.1265344E-009  0.4778727E+02  0.7816164E-02  0.1312668E+00
        -11   -1    0    0    0    0  0.00000000000E+00  0.00000000000E+00  0.45593999997E+02  0.45594000000E+02  0.51100000000E-03 0.  1.
         11   -1    0    0    0    0 -0.00000000000E+00 -0.00000000000E+00 -0.45593999997E+02  0.45594000000E+02  0.51100000000E-03 0. -1.
    9900012    2    1    2    0    0  0.19900189765E+02 -0.38517320838E+02 -0.20054422251E+01  0.47787270101E+02  0.19999995700E+02 0.  0.
         12    1    1    2    0    0 -0.19900189765E+02  0.38517320838E+02  0.20054422251E+01  0.43400729899E+02  0.00000000000E+00 0. -1.
         11    1    3    3    0    0 -0.64607985263E+00 -0.19279744465E+01  0.24876640051E+01  0.32129390137E+01  0.51100000000E-03 0. -1.
        -11    1    3    3    0    0  0.92711211569E+01 -0.19779335482E+02  0.46984702897E+01  0.22343934813E+02  0.51100000000E-03 0.  1.
        -12    1    3    3    0    0  0.11275148461E+02 -0.16810010909E+02 -0.91915765199E+01  0.22230396274E+02  0.00000000000E+00 0.  1.
</event>
<event>
 7    1  0.1265344E-009  0.4778726E+02  0.7816164E-02  0.1312668E+00
        -11   -1    0    0    0    0  0.00000000000E+00  0.00000000000E+00  0.45593999997E+02  0.45594000000E+02  0.51100000000E-03 0. -1.
         11   -1    0    0    0    0 -0.00000000000E+00 -0.00000000000E+00 -0.45593999997E+02  0.45594000000E+02  0.51100000000E-03 0.  1.
    9900012    2    1    2    0    0 -0.10364141515E+02  0.37441624756E+02 -0.19347702462E+02  0.47787259405E+02  0.19999946929E+02 0.  0.
         12    1    1    2    0    0  0.10364141515E+02 -0.37441624756E+02  0.19347702462E+02  0.43400740595E+02  0.00000000000E+00 0. -1.
         11    1    3    3    0    0 -0.23865887742E+01  0.17475916343E+02 -0.19316511473E+02  0.26157810951E+02  0.51100000000E-03 0. -1.
        -11    1    3    3    0    0 -0.35952429138E+01  0.62278748688E+01 -0.43112691991E+00  0.72040313487E+01  0.51100000000E-03 0.  1.
         12    1    3    3    0    0 -0.43823098272E+01  0.13737833544E+02  0.39993593092E+00  0.14425417105E+02  0.00000000000E+00 0. -1.
</event>
<event>
 7    1  0.1265344E-009  0.4778725E+02  0.7816164E-02  0.1312668E+00
        -11   -1    0    0    0    0  0.00000000000E+00  0.00000000000E+00  0.45593999997E+02  0.45594000000E+02  0.51100000000E-03 0.  1.
         11   -1    0    0    0    0 -0.00000000000E+00 -0.00000000000E+00 -0.45593999997E+02  0.45594000000E+02  0.51100000000E-03 0. -1.
    9900012    2    1    2    0    0  0.34517591664E+02  0.18608145316E+02  0.18598333474E+02  0.47787248689E+02  0.19999898071E+02 0.  0.
         12    1    1    2    0    0 -0.34517591664E+02 -0.18608145316E+02 -0.18598333474E+02  0.43400751311E+02  0.00000000000E+00 0. -1.
         11    1    3    3    0    0  0.14219311246E+02  0.95107885302E+01  0.13599266740E+02  0.21853694583E+02  0.51100000000E-03 0. -1.
        -11    1    3    3    0    0  0.50075221648E+01  0.86113552248E+01  0.44402737593E+00  0.99713528476E+01  0.51100000000E-03 0.  1.
         12    1    3    3    0    0  0.15290758253E+02  0.48600156138E+00  0.45550393576E+01  0.15962201258E+02  0.00000000000E+00 0. -1.
</event>
<event>
 7    1  0.1265344E-009  0.4778726E+02  0.7816164E-02  0.1312668E+00
        -11   -1    0    0    0    0  0.00000000000E+00  0.00000000000E+00  0.45593999997E+02  0.45594000000E+02  0.51100000000E-03 0.  1.
         11   -1    0    0    0    0 -0.00000000000E+00 -0.00000000000E+00 -0.45593999997E+02  0.45594000000E+02  0.51100000000E-03 0. -1.
    9900012    2    1    2    0    0 -0.35764474192E+02 -0.76047903946E+01  0.23381478448E+02  0.47787262846E+02  0.19999962619E+02 0.  0.
         12    1    1    2    0    0  0.35764474192E+02  0.76047903946E+01 -0.23381478448E+02  0.43400737154E+02  0.00000000000E+00 0. -1.
         11    1    3    3    0    0 -0.27459816185E+02 -0.92792202619E+01  0.20931056634E+02  0.35752686132E+02  0.51100000000E-03 0.  1.
        -11    1    3    3    0    0  0.11397711892E+01 -0.13109204230E+01  0.10532789006E+01  0.20314988119E+01  0.51100000000E-03 0. -1.
         12    1    3    3    0    0 -0.94444291959E+01  0.29853502904E+01  0.13971429134E+01  0.10003077902E+02  0.00000000000E+00 0. -1.
</event>
<event>
 7    1  0.1265344E-009  0.4778727E+02  0.7816164E-02  0.1312668E+00
        -11   -1    0    0    0    0  0.00000000000E+00  0.00000000000E+00  0.45593999997E+02  0.45594000000E+02  0.51100000000E-03 0. -1.
         11   -1    0    0    0    0 -0.00000000000E+00 -0.00000000000E+00 -0.45593999997E+02  0.45594000000E+02  0.51100000000E-03 0.  1.
    9900012    2    1    2    0    0 -0.16590892490E+02  0.40095931781E+02 -0.82579467510E+00  0.47787269639E+02  0.19999993592E+02 0.  0.
         12    1    1    2    0    0  0.16590892490E+02 -0.40095931781E+02  0.82579467510E+00  0.43400730361E+02  0.00000000000E+00 0. -1.
         11    1    3    3    0    0 -0.12407921785E+01  0.17864547400E+02  0.88109135121E+00  0.17929248207E+02  0.51100000000E-03 0. -1.
        -11    1    3    3    0    0 -0.10380270039E+02  0.15300286507E+02 -0.70569436440E+01  0.19790129538E+02  0.51100000000E-03 0.  1.
         12    1    3    3    0    0 -0.49698302723E+01  0.69310978752E+01  0.53500576177E+01  0.10067891895E+02  0.00000000000E+00 0. -1.
</event>
<event>
 7    1  0.1265344E-009  0.4778727E+02  0.7816164E-02  0.1312668E+00
        -11   -1    0    0    0    0  0.00000000000E+00  0.00000000000E+00  0.45593999997E+02  0.45594000000E+02  0.51100000000E-03 0.  1.
         11   -1    0    0    0    0 -0.00000000000E+00 -0.00000000000E+00 -0.45593999997E+02  0.45594000000E+02  0.51100000000E-03 0. -1.
    9900012    2    1    2    0    0 -0.25668338192E+02 -0.20168570958E+01  0.34938403480E+02  0.47787270331E+02  0.19999996746E+02 0.  0.
         12    1    1    2    0    0  0.25668338192E+02  0.20168570958E+01 -0.34938403480E+02  0.43400729669E+02  0.00000000000E+00 0. -1.
         11    1    3    3    0    0  0.31540797099E+01 -0.63421082061E+00  0.29792996208E+01  0.43848225361E+01  0.51100000000E-03 0.  1.
        -11    1    3    3    0    0 -0.88296732934E+01 -0.67513940774E+00  0.13726793526E+02  0.16335354433E+02  0.51100000000E-03 0. -1.
         12    1    3    3    0    0 -0.19992744609E+02 -0.70750686746E+00  0.18232310333E+02  0.27067093362E+02  0.00000000000E+00 0. -1.
</event>
<event>
 7    1  0.1265344E-009  0.4778727E+02  0.7816164E-02  0.1312668E+00
        -11   -1    0    0    0    0  0.00000000000E+00  0.00000000000E+00  0.45593999997E+02  0.45594000000E+02  0.51100000000E-03 0.  1.
         11   -1    0    0    0    0 -0.00000000000E+00 -0.00000000000E+00 -0.45593999997E+02  0.45594000000E+02  0.51100000000E-03 0. -1.
    9900012    2    1    2    0    0 -0.20458781530E+01 -0.41812257886E+02  0.11453067634E+02  0.47787270914E+02  0.19999999407E+02 0.  0.
         12    1    1    2    0    0  0.20458781530E+01  0.41812257886E+02 -0.11453067634E+02  0.43400729086E+02  0.00000000000E+00 0. -1.
         11    1    3    3    0    0  0.18221060775E+01 -0.11786137021E+00  0.14057484045E+01  0.23043634041E+01  0.51100000000E-03 0. -1.
        -11    1    3    3    0    0  0.50352616642E+00 -0.37766533359E+02  0.11399040739E+02  0.39452537441E+02  0.51100000000E-03 0.  1.
         12    1    3    3    0    0 -0.43715103970E+01 -0.39278631572E+01 -0.13517215089E+01  0.60303700691E+01  0.00000000000E+00 0. -1.
</event>
<event>
 7    1  0.1265344E-009  0.4778727E+02  0.7816164E-02  0.1312668E+00
        -11   -1    0    0    0    0  0.00000000000E+00  0.00000000000E+00  0.45593999997E+02  0.45594000000E+02  0.51100000000E-03 0. -1.
         11   -1    0    0    0    0 -0.00000000000E+00 -0.00000000000E+00 -0.45593999997E+02  0.45594000000E+02  0.51100000000E-03 0.  1.
    9900012    2    1    2    0    0  0.38983720134E+00  0.22134682041E+02 -0.37329976533E+02  0.47787271088E+02  0.20000000201E+02 0.  0.
         12    1    1    2    0    0 -0.38983720134E+00 -0.22134682041E+02  0.37329976533E+02  0.43400728912E+02  0.00000000000E+00 0. -1.
         11    1    3    3    0    0 -0.40091456899E+01  0.24916008136E+01 -0.20172594412E+02  0.20717502006E+02  0.51100000000E-03 0. -1.
        -11    1    3    3    0    0 -0.79192338047E+00  0.92244828314E+01 -0.67803815757E+01  0.11475704803E+02  0.51100000000E-03 0.  1.
         12    1    3    3    0    0  0.51909062717E+01  0.10418598396E+02 -0.10377000545E+02  0.15594064280E+02  0.00000000000E+00 0. -1.
</event>
<event>
 7    1  0.1265344E-009  0.4778727E+02  0.7816164E-02  0.1312668E+00
        -11   -1    0    0    0    0  0.00000000000E+00  0.00000000000E+00  0.45593999997E+02  0.45594000000E+02  0.51100000000E-03 0.  1.
         11   -1    0    0    0    0 -0.00000000000E+00 -0.00000000000E+00 -0.45593999997E+02  0.45594000000E+02  0.51100000000E-03 0. -1.
    9900012    2    1    2    0    0 -0.62772901384E+00  0.36366386981E+02  0.23679423709E+02  0.47787271285E+02  0.20000001097E+02 0.  0.
         12    1    1    2    0    0  0.62772901384E+00 -0.36366386981E+02 -0.23679423709E+02  0.43400728715E+02  0.00000000000E+00 0. -1.
         11    1    3    3    0    0 -0.21114108069E+01 -0.12224493515E+01 -0.77758107968E+00  0.25606777636E+01  0.51100000000E-03 0. -1.
        -11    1    3    3    0    0  0.17879528729E+01  0.88936053902E+01  0.82908815082E+01  0.12289495871E+02  0.51100000000E-03 0.  1.
         12    1    3    3    0    0 -0.30427107991E+00  0.28695230942E+02  0.16166123281E+02  0.32937097651E+02  0.00000000000E+00 0. -1.
</event>
<event>
 7    1  0.1265344E-009  0.4778727E+02  0.7816164E-02  0.1312668E+00
        -11   -1    0    0    0    0  0.00000000000E+00  0.00000000000E+00  0.45593999997E+02  0.45594000000E+02  0.51100000000E-03 0.  1.
         11   -1    0    0    0    0 -0.00000000000E+00 -0.00000000000E+00 -0.45593999997E+02  0.45594000000E+02  0.51100000000E-03 0. -1.
    9900012    2    1    2    0    0 -0.12639976009E+01  0.16754016711E+02  0.40016605775E+02  0.47787268397E+02  0.19999987930E+02 0.  0.
         12    1    1    2    0    0  0.12639976009E+01 -0.16754016711E+02 -0.40016605775E+02  0.43400731603E+02  0.00000000000E+00 0. -1.
         11    1    3    3    0    0 -0.66913466233E+01  0.15603244634E+02  0.19393309925E+02  0.25774713051E+02  0.51100000000E-03 0. -1.
        -11    1    3    3    0    0  0.33839819679E+01  0.16941313297E+01  0.51255357532E+01  0.63712268787E+01  0.51100000000E-03 0.  1.
         12    1    3    3    0    0  0.20433670546E+01 -0.54335925325E+00  0.15497760097E+02  0.15641328467E+02  0.00000000000E+00 0. -1.
</event>
<event>
 7    1  0.1265344E-009  0.4778727E+02  0.7816164E-02  0.1312668E+00
        -11   -1    0    0    0    0  0.00000000000E+00  0.00000000000E+00  0.45593999997E+02  0.45594000000E+02  0.51100000000E-03 0. -1.
         11   -1    0    0    0    0 -0.00000000000E+00 -0.00000000000E+00 -0.45593999997E+02  0.45594000000E+02  0.51100000000E-03 0.  1.
    9900012    2    1    2    0    0 -0.41618596785E+02 -0.85399351030E+01  0.88648279637E+01  0.47787271149E+02  0.20000000479E+02 0.  0.
         12    1    1    2    0    0  0.41618596785E+02  0.85399351030E+01 -0.88648279637E+01  0.43400728851E+02  0.00000000000E+00 0. -1.
         11    1    3    3    0    0 -0.82019932410E+01  0.15258210358E+01  0.46068760855E+01  0.95301694888E+01  0.51100000000E-03 0. -1.
        -11    1    3    3    0    0 -0.10219041292E+02 -0.25239253071E+01 -0.56291339976E+01  0.11936756415E+02  0.51100000000E-03 0.  1.
        -12    1    3    3    0    0 -0.23197562253E+02 -0.75418308318E+01  0.98870858759E+01  0.26320345246E+02  0.00000000000E+00 0.  1.
</event>
<event>
 7    1  0.1265344E-009  0.4778728E+02  0.7816164E-02  0.1312668E+00
        -11   -1    0    0    0    0  0.00000000000E+00  0.00000000000E+00  0.45593999997E+02  0.45594000000E+02  0.51100000000E-03 0. -1.
         11   -1    0    0    0    0 -0.00000000000E+00 -0.00000000000E+00 -0.45593999997E+02  0.45594000000E+02  0.51100000000E-03 0.  1.
    9900012    2    1    2    0    0  0.20257154689E+02  0.32327604553E+02 -0.20692894002E+02  0.47787283481E+02  0.20000056702E+02 0.  0.
         12    1    1    2    0    0 -0.20257154689E+02 -0.32327604553E+02  0.20692894002E+02  0.43400716519E+02  0.00000000000E+00 0. -1.
         11    1    3    3    0    0 -0.13885853091E+01  0.38748713813E+01 -0.12339054399E+00  0.41180120046E+01  0.51100000000E-03 0. -1.
        -11    1    3    3    0    0  0.18727840201E+02  0.27148739749E+02 -0.22509317732E+02  0.39930633022E+02  0.51100000000E-03 0.  1.
         12    1    3    3    0    0  0.29178997970E+01  0.13039934225E+01  0.19398142737E+01  0.37386384538E+01  0.00000000000E+00 0. -1.
</event>
<event>
 7    1  0.1265344E-009  0.4778728E+02  0.7816164E-02  0.1312668E+00
        -11   -1    0    0    0    0  0.00000000000E+00  0.00000000000E+00  0.45593999997E+02  0.45594000000E+02  0.51100000000E-03 0.  1.
         11   -1    0    0    0    0 -0.00000000000E+00 -0.00000000000E+00 -0.45593999997E+02  0.45594000000E+02  0.51100000000E-03 0. -1.
    9900012    2    1    2    0    0 -0.37653244987E+02 -0.31920412015E+01  0.21346349553E+02  0.47787278528E+02  0.20000034120E+02 0.  0.
         12    1    1    2    0    0  0.37653244987E+02  0.31920412015E+01 -0.21346349553E+02  0.43400721472E+02  0.00000000000E+00 0. -1.
         11    1    3    3    0    0 -0.70406670878E+01  0.41123822322E+01  0.26970875166E+01  0.85881873523E+01  0.51100000000E-03 0.  1.
        -11    1    3    3    0    0 -0.57764622666E+01  0.19449008188E+01  0.92532282674E+01  0.11080270265E+02  0.51100000000E-03 0. -1.
         12    1    3    3    0    0 -0.24836115632E+02 -0.92493242524E+01  0.93960337686E+01  0.28118820911E+02  0.00000000000E+00 0. -1.
</event>
<event>
 7    1  0.1265344E-009  0.4778727E+02  0.7816164E-02  0.1312668E+00
        -11   -1    0    0    0    0  0.00000000000E+00  0.00000000000E+00  0.45593999997E+02  0.45594000000E+02  0.51100000000E-03 0.  1.
         11   -1    0    0    0    0 -0.00000000000E+00 -0.00000000000E+00 -0.45593999997E+02  0.45594000000E+02  0.51100000000E-03 0. -1.
    9900012    2    1    2    0    0  0.36502792645E+02  0.21287446652E+02  0.99001930876E+01  0.47787273290E+02  0.20000010236E+02 0.  0.
         12    1    1    2    0    0 -0.36502792645E+02 -0.21287446652E+02 -0.99001930876E+01  0.43400726710E+02  0.00000000000E+00 0. -1.
         11    1    3    3    0    0  0.54341493753E+01  0.91130557474E+01 -0.37335505053E+01  0.11247984892E+02  0.51100000000E-03 0. -1.
        -11    1    3    3    0    0  0.19750171822E+02  0.59000421506E+01  0.58054198948E+01  0.21414543768E+02  0.51100000000E-03 0.  1.
         12    1    3    3    0    0  0.11318471447E+02  0.62743487542E+01  0.78283236981E+01  0.15124744629E+02  0.00000000000E+00 0. -1.
</event>
<event>
 7    1  0.1265344E-009  0.4778727E+02  0.7816164E-02  0.1312668E+00
        -11   -1    0    0    0    0  0.00000000000E+00  0.00000000000E+00  0.45593999997E+02  0.45594000000E+02  0.51100000000E-03 0.  1.
         11   -1    0    0    0    0 -0.00000000000E+00 -0.00000000000E+00 -0.45593999997E+02  0.45594000000E+02  0.51100000000E-03 0. -1.
    9900012    2    1    2    0    0 -0.10927074214E+02 -0.41627195218E+02  0.56034638092E+01  0.47787272596E+02  0.20000007073E+02 0.  0.
         12    1    1    2    0    0  0.10927074214E+02  0.41627195218E+02 -0.56034638092E+01  0.43400727404E+02  0.00000000000E+00 0. -1.
         11    1    3    3    0    0 -0.72669185227E+01 -0.30499428809E+02 -0.46393824495E+00  0.31356634090E+02  0.51100000000E-03 0. -1.
        -11    1    3    3    0    0  0.29027356646E+01 -0.67176746235E+01  0.22917828136E+01  0.76684610849E+01  0.51100000000E-03 0.  1.
        -12    1    3    3    0    0 -0.65628913559E+01 -0.44100917847E+01  0.37756192406E+01  0.87621774205E+01  0.00000000000E+00 0.  1.
</event>
<event>
 7    1  0.1265344E-009  0.4778727E+02  0.7816164E-02  0.1312668E+00
        -11   -1    0    0    0    0  0.00000000000E+00  0.00000000000E+00  0.45593999997E+02  0.45594000000E+02  0.51100000000E-03 0.  1.
         11   -1    0    0    0    0 -0.00000000000E+00 -0.00000000000E+00 -0.45593999997E+02  0.45594000000E+02  0.51100000000E-03 0. -1.
    9900012    2    1    2    0    0 -0.43418015394E+01  0.12550281864E+02  0.41319032111E+02  0.47787271549E+02  0.20000002301E+02 0.  0.
         12    1    1    2    0    0  0.43418015394E+01 -0.12550281864E+02 -0.41319032111E+02  0.43400728451E+02  0.00000000000E+00 0. -1.
         11    1    3    3    0    0 -0.50145809821E+01  0.91818948902E+01  0.88615801570E+01  0.13710609736E+02  0.51100000000E-03 0. -1.
        -11    1    3    3    0    0  0.25529398038E+01  0.63490767771E+01  0.20630037334E+02  0.21735379413E+02  0.51100000000E-03 0.  1.
         12    1    3    3    0    0 -0.18801603611E+01 -0.29806898028E+01  0.11827414620E+02  0.12341282400E+02  0.00000000000E+00 0. -1.
</event>
<event>
 7    1  0.1265344E-009  0.4778727E+02  0.7816164E-02  0.1312668E+00
        -11   -1    0    0    0    0  0.00000000000E+00  0.00000000000E+00  0.45593999997E+02  0.45594000000E+02  0.51100000000E-03 0.  1.
         11   -1    0    0    0    0 -0.00000000000E+00 -0.00000000000E+00 -0.45593999997E+02  0.45594000000E+02  0.51100000000E-03 0. -1.
    9900012    2    1    2    0    0  0.18197766687E+02 -0.38907959319E+02 -0.62157137957E+01  0.47787272946E+02  0.20000008672E+02 0.  0.
         12    1    1    2    0    0 -0.18197766687E+02  0.38907959319E+02  0.62157137957E+01  0.43400727054E+02  0.00000000000E+00 0. -1.
         11    1    3    3    0    0  0.92709633314E+01 -0.32608140542E+02 -0.26992937192E+00  0.33901540567E+02  0.51100000000E-03 0.  1.
        -11    1    3    3    0    0  0.69061465193E+01 -0.70815783266E+01 -0.32173310427E+01  0.10401674415E+02  0.51100000000E-03 0. -1.
        -12    1    3    3    0    0  0.20206568359E+01  0.78175954947E+00 -0.27284533811E+01  0.34840579638E+01  0.00000000000E+00 0.  1.
</event>
<event>
 7    1  0.1265344E-009  0.4778728E+02  0.7816164E-02  0.1312668E+00
        -11   -1    0    0    0    0  0.00000000000E+00  0.00000000000E+00  0.45593999997E+02  0.45594000000E+02  0.51100000000E-03 0.  1.
         11   -1    0    0    0    0 -0.00000000000E+00 -0.00000000000E+00 -0.45593999997E+02  0.45594000000E+02  0.51100000000E-03 0. -1.
    9900012    2    1    2    0    0 -0.20897215394E+02 -0.62572142090E+01  0.37520338612E+02  0.47787283987E+02  0.20000059009E+02 0.  0.
         12    1    1    2    0    0  0.20897215394E+02  0.62572142090E+01 -0.37520338612E+02  0.43400716013E+02  0.00000000000E+00 0. -1.
         11    1    3    3    0    0 -0.85867943073E+01 -0.53820067854E+01  0.11388992631E+02  0.15244939715E+02  0.51100000000E-03 0.  1.
        -11    1    3    3    0    0 -0.41157637924E+01  0.43964624961E+01  0.17275571763E+01  0.62652093447E+01  0.51100000000E-03 0. -1.
         12    1    3    3    0    0 -0.81946572945E+01 -0.52716699197E+01  0.24403788805E+02  0.26277134927E+02  0.00000000000E+00 0. -1.
</event>
<event>
 7    1  0.1265344E-009  0.4778727E+02  0.7816164E-02  0.1312668E+00
        -11   -1    0    0    0    0  0.00000000000E+00  0.00000000000E+00  0.45593999997E+02  0.45594000000E+02  0.51100000000E-03 0.  1.
         11   -1    0    0    0    0 -0.00000000000E+00 -0.00000000000E+00 -0.45593999997E+02  0.45594000000E+02  0.51100000000E-03 0. -1.
    9900012    2    1    2    0    0 -0.29593722765E+01  0.43292951256E+02 -0.76532528423E+00  0.47787271487E+02  0.20000002017E+02 0.  0.
         12    1    1    2    0    0  0.29593722765E+01 -0.43292951256E+02  0.76532528423E+00  0.43400728513E+02  0.00000000000E+00 0. -1.
         11    1    3    3    0    0 -0.25495422745E+01  0.32945892836E+00  0.73885504790E+00  0.26748114023E+01  0.51100000000E-03 0. -1.
        -11    1    3    3    0    0 -0.13430215420E+01  0.41734309364E+02 -0.42407601036E+01  0.41970708017E+02  0.51100000000E-03 0.  1.
        -12    1    3    3    0    0  0.93319154003E+00  0.12291829633E+01  0.27365797714E+01  0.31417520674E+01  0.00000000000E+00 0.  1.
</event>
<event>
 7    1  0.1265344E-009  0.4778728E+02  0.7816164E-02  0.1312668E+00
        -11   -1    0    0    0    0  0.00000000000E+00  0.00000000000E+00  0.45593999997E+02  0.45594000000E+02  0.51100000000E-03 0.  1.
         11   -1    0    0    0    0 -0.00000000000E+00 -0.00000000000E+00 -0.45593999997E+02  0.45594000000E+02  0.51100000000E-03 0. -1.
    9900012    2    1    2    0    0  0.13526662677E+02 -0.28896121505E+02  0.29422203029E+02  0.47787280279E+02  0.20000042103E+02 0.  0.
         12    1    1    2    0    0 -0.13526662677E+02  0.28896121505E+02 -0.29422203029E+02  0.43400719721E+02  0.00000000000E+00 0. -1.
         11    1    3    3    0    0 -0.42535184874E+00 -0.53805575440E+01  0.10348668997E+02  0.11671601174E+02  0.51100000000E-03 0. -1.
        -11    1    3    3    0    0  0.24001250421E+01 -0.66240755551E+00  0.77073737240E+01  0.80995675175E+01  0.51100000000E-03 0.  1.
        -12    1    3    3    0    0  0.11551889484E+02 -0.22853156406E+02  0.11366160308E+02  0.28016111588E+02  0.00000000000E+00 0.  1.
</event>
<event>
 7    1  0.1265344E-009  0.4778726E+02  0.7816164E-02  0.1312668E+00
        -11   -1    0    0    0    0  0.00000000000E+00  0.00000000000E+00  0.45593999997E+02  0.45594000000E+02  0.51100000000E-03 0.  1.
         11   -1    0    0    0    0 -0.00000000000E+00 -0.00000000000E+00 -0.45593999997E+02  0.45594000000E+02  0.51100000000E-03 0. -1.
    9900012    2    1    2    0    0  0.14204266526E+02  0.19337955556E+02  0.36164984791E+02  0.47787264551E+02  0.19999970392E+02 0.  0.
         12    1    1    2    0    0 -0.14204266526E+02 -0.19337955556E+02 -0.36164984791E+02  0.43400735449E+02  0.00000000000E+00 0. -1.
         11    1    3    3    0    0  0.11155681806E+02  0.25059227981E+01  0.11531367712E+02  0.16238883188E+02  0.51100000000E-03 0. -1.
        -11    1    3    3    0    0  0.14102714909E+01  0.67596470292E+01  0.18247005526E+02  0.19509866851E+02  0.51100000000E-03 0.  1.
        -12    1    3    3    0    0  0.16383132291E+01  0.10072385728E+02  0.63866115535E+01  0.12038514511E+02  0.00000000000E+00 0.  1.
</event>
<event>
 7    1  0.1265344E-009  0.4778727E+02  0.7816164E-02  0.1312668E+00
        -11   -1    0    0    0    0  0.00000000000E+00  0.00000000000E+00  0.45593999997E+02  0.45594000000E+02  0.51100000000E-03 0.  1.
         11   -1    0    0    0    0 -0.00000000000E+00 -0.00000000000E+00 -0.45593999997E+02  0.45594000000E+02  0.51100000000E-03 0. -1.
    9900012    2    1    2    0    0  0.32272326211E+02 -0.19807448838E+02  0.21208142429E+02  0.47787269893E+02  0.19999994749E+02 0.  0.
         12    1    1    2    0    0 -0.32272326211E+02  0.19807448838E+02 -0.21208142429E+02  0.43400730107E+02  0.00000000000E+00 0. -1.
         11    1    3    3    0    0  0.28554099200E+02 -0.11910554919E+02  0.11649611885E+02  0.33059209865E+02  0.51100000000E-03 0. -1.
        -11    1    3    3    0    0 -0.16442616516E+01 -0.32253436331E+00  0.47411482984E+00  0.17413816145E+01  0.51100000000E-03 0.  1.
        -12    1    3    3    0    0  0.53624886634E+01 -0.75743595556E+01  0.90844157138E+01  0.12986678413E+02  0.00000000000E+00 0.  1.
</event>
<event>
 7    1  0.1265344E-009  0.4778728E+02  0.7816164E-02  0.1312668E+00
        -11   -1    0    0    0    0  0.00000000000E+00  0.00000000000E+00  0.45593999997E+02  0.45594000000E+02  0.51100000000E-03 0.  1.
         11   -1    0    0    0    0 -0.00000000000E+00 -0.00000000000E+00 -0.45593999997E+02  0.45594000000E+02  0.51100000000E-03 0. -1.
    9900012    2    1    2    0    0  0.16773602447E+02 -0.25172719319E+02  0.31122391074E+02  0.47787276929E+02  0.20000026828E+02 0.  0.
         12    1    1    2    0    0 -0.16773602447E+02  0.25172719319E+02 -0.31122391074E+02  0.43400723071E+02  0.00000000000E+00 0. -1.
         11    1    3    3    0    0  0.87656669548E+01 -0.14800206771E+02  0.22492456299E+02  0.28315960663E+02  0.51100000000E-03 0. -1.
        -11    1    3    3    0    0  0.55352697693E+01 -0.12714932444E+02  0.57554827049E+01  0.15014469684E+02  0.51100000000E-03 0.  1.
         12    1    3    3    0    0  0.24726657229E+01  0.23424198961E+01  0.28744520695E+01  0.44568465810E+01  0.00000000000E+00 0. -1.
</event>
<event>
 7    1  0.1265344E-009  0.4778728E+02  0.7816164E-02  0.1312668E+00
        -11   -1    0    0    0    0  0.00000000000E+00  0.00000000000E+00  0.45593999997E+02  0.45594000000E+02  0.51100000000E-03 0. -1.
         11   -1    0    0    0    0 -0.00000000000E+00 -0.00000000000E+00 -0.45593999997E+02  0.45594000000E+02  0.51100000000E-03 0.  1.
    9900012    2    1    2    0    0 -0.39558566824E+01 -0.43189595530E+02 -0.16225808318E+01  0.47787277279E+02  0.20000028426E+02 0.  0.
         12    1    1    2    0    0  0.39558566824E+01  0.43189595530E+02  0.16225808318E+01  0.43400722721E+02  0.00000000000E+00 0. -1.
         11    1    3    3    0    0 -0.76921175274E+01 -0.18567752354E+02  0.31392839484E+01  0.20341710929E+02  0.51100000000E-03 0. -1.
        -11    1    3    3    0    0  0.21996666651E+01 -0.86794498542E-01  0.60590280373E+00  0.22832400643E+01  0.51100000000E-03 0.  1.
         12    1    3    3    0    0  0.15365941799E+01 -0.24535048677E+02 -0.53677675839E+01  0.25162326286E+02  0.00000000000E+00 0. -1.
</event>
<event>
 7    1  0.1265344E-009  0.4778727E+02  0.7816164E-02  0.1312668E+00
        -11   -1    0    0    0    0  0.00000000000E+00  0.00000000000E+00  0.45593999997E+02  0.45594000000E+02  0.51100000000E-03 0.  1.
         11   -1    0    0    0    0 -0.00000000000E+00 -0.00000000000E+00 -0.45593999997E+02  0.45594000000E+02  0.51100000000E-03 0. -1.
    9900012    2    1    2    0    0  0.28075109129E+02  0.59843916604E+01  0.32551476132E+02  0.47787270807E+02  0.19999998916E+02 0.  0.
         12    1    1    2    0    0 -0.28075109129E+02 -0.59843916604E+01 -0.32551476132E+02  0.43400729193E+02  0.00000000000E+00 0. -1.
         11    1    3    3    0    0 -0.24724113244E+00  0.75370005338E-01 -0.85448629891E+00  0.89272387188E+00  0.51100000000E-03 0. -1.
        -11    1    3    3    0    0  0.26060437625E+02  0.78880672908E+00  0.31696229814E+02  0.41041681373E+02  0.51100000000E-03 0.  1.
         12    1    3    3    0    0  0.22619126363E+01  0.51202149259E+01  0.17097326172E+01  0.58528655618E+01  0.00000000000E+00 0. -1.
</event>
<event>
 7    1  0.1265344E-009  0.4778727E+02  0.7816164E-02  0.1312668E+00
        -11   -1    0    0    0    0  0.00000000000E+00  0.00000000000E+00  0.45593999997E+02  0.45594000000E+02  0.51100000000E-03 0.  1.
         11   -1    0    0    0    0 -0.00000000000E+00 -0.00000000000E+00 -0.45593999997E+02  0.45594000000E+02  0.51100000000E-03 0. -1.
    9900012    2    1    2    0    0  0.34803008582E+02  0.19589173379E+01  0.25856073195E+02  0.47787270921E+02  0.19999999438E+02 0.  0.
         12    1    1    2    0    0 -0.34803008582E+02 -0.19589173379E+01 -0.25856073195E+02  0.43400729079E+02  0.00000000000E+00 0. -1.
         11    1    3    3    0    0  0.12691937277E+02 -0.24395325354E+01  0.17886620873E+02  0.22067346858E+02  0.51100000000E-03 0. -1.
        -11    1    3    3    0    0  0.18810179888E+02  0.87427388814E+00  0.88585453335E+01  0.20810118883E+02  0.51100000000E-03 0.  1.
        -12    1    3    3    0    0  0.33008914172E+01  0.35241759852E+01 -0.88909301147E+00  0.49098051801E+01  0.00000000000E+00 0.  1.
</event>
<event>
 7    1  0.1265344E-009  0.4778726E+02  0.7816164E-02  0.1312668E+00
        -11   -1    0    0    0    0  0.00000000000E+00  0.00000000000E+00  0.45593999997E+02  0.45594000000E+02  0.51100000000E-03 0. -1.
         11   -1    0    0    0    0 -0.00000000000E+00 -0.00000000000E+00 -0.45593999997E+02  0.45594000000E+02  0.51100000000E-03 0.  1.
    9900012    2    1    2    0    0  0.42233601806E+02  0.36787991309E+01 -0.92958776948E+01  0.47787262371E+02  0.19999960456E+02 0.  0.
         12    1    1    2    0    0 -0.42233601806E+02 -0.36787991309E+01  0.92958776948E+01  0.43400737629E+02  0.00000000000E+00 0. -1.
         11    1    3    3    0    0  0.97178439924E+01 -0.13550527448E+01 -0.89269923752E+01  0.13265136748E+02  0.51100000000E-03 0. -1.
        -11    1    3    3    0    0  0.20320513245E+02 -0.20263189981E+01  0.13246185368E+00  0.20421723081E+02  0.51100000000E-03 0.  1.
        -12    1    3    3    0    0  0.12195244569E+02  0.70601708738E+01 -0.50134717326E+00  0.14100402543E+02  0.00000000000E+00 0.  1.
</event>
<event>
 7    1  0.1265344E-009  0.4778727E+02  0.7816164E-02  0.1312668E+00
        -11   -1    0    0    0    0  0.00000000000E+00  0.00000000000E+00  0.45593999997E+02  0.45594000000E+02  0.51100000000E-03 0. -1.
         11   -1    0    0    0    0 -0.00000000000E+00 -0.00000000000E+00 -0.45593999997E+02  0.45594000000E+02  0.51100000000E-03 0.  1.
    9900012    2    1    2    0    0  0.10100688750E+02  0.32891839203E+02 -0.26452338841E+02  0.47787271556E+02  0.20000002331E+02 0.  0.
         12    1    1    2    0    0 -0.10100688750E+02 -0.32891839203E+02  0.26452338841E+02  0.43400728444E+02  0.00000000000E+00 0. -1.
         11    1    3    3    0    0  0.22674591899E+01  0.23833665196E+02 -0.14729728183E+02  0.28109604416E+02  0.51100000000E-03 0. -1.
        -11    1    3    3    0    0  0.77667385109E+00  0.82589319546E+01 -0.85066423915E+01  0.11881756787E+02  0.51100000000E-03 0.  1.
        -12    1    3    3    0    0  0.70565557091E+01  0.79924205238E+00 -0.32159682660E+01  0.77959103523E+01  0.00000000000E+00 0.  1.
</event>
<event>
 7    1  0.1265344E-009  0.4778726E+02  0.7816164E-02  0.1312668E+00
        -11   -1    0    0    0    0  0.00000000000E+00  0.00000000000E+00  0.45593999997E+02  0.45594000000E+02  0.51100000000E-03 0.  1.
         11   -1    0    0    0    0 -0.00000000000E+00 -0.00000000000E+00 -0.45593999997E+02  0.45594000000E+02  0.51100000000E-03 0. -1.
    9900012    2    1    2    0    0  0.24599822816E+02 -0.85023497637E+01  0.34730143737E+02  0.47787261319E+02  0.19999955658E+02 0.  0.
         12    1    1    2    0    0 -0.24599822816E+02  0.85023497637E+01 -0.34730143737E+02  0.43400738681E+02  0.00000000000E+00 0. -1.
         11    1    3    3    0    0  0.83808699237E+01  0.37350863733E+01  0.12271826026E+02  0.15322779290E+02  0.51100000000E-03 0. -1.
        -11    1    3    3    0    0  0.24084157346E+01 -0.10461817462E+01  0.11015542061E+02  0.11324183403E+02  0.51100000000E-03 0.  1.
        -12    1    3    3    0    0  0.13810537157E+02 -0.11191254391E+02  0.11442775650E+02  0.21140298626E+02  0.00000000000E+00 0.  1.
</event>
<event>
 7    1  0.1265344E-009  0.4778727E+02  0.7816164E-02  0.1312668E+00
        -11   -1    0    0    0    0  0.00000000000E+00  0.00000000000E+00  0.45593999997E+02  0.45594000000E+02  0.51100000000E-03 0.  1.
         11   -1    0    0    0    0 -0.00000000000E+00 -0.00000000000E+00 -0.45593999997E+02  0.45594000000E+02  0.51100000000E-03 0. -1.
    9900012    2    1    2    0    0  0.15083648626E+02 -0.38684026735E+02  0.12635370559E+02  0.47787274551E+02  0.20000015987E+02 0.  0.
         12    1    1    2    0    0 -0.15083648626E+02  0.38684026735E+02 -0.12635370559E+02  0.43400725449E+02  0.00000000000E+00 0. -1.
         11    1    3    3    0    0  0.18396145866E+01 -0.61185774345E+01 -0.38306898317E+01  0.74495205548E+01  0.51100000000E-03 0. -1.
        -11    1    3    3    0    0  0.38017410824E+00 -0.68722554318E+01  0.76312612927E+01  0.10276603342E+02  0.51100000000E-03 0.  1.
        -12    1    3    3    0    0  0.12863859931E+02 -0.25693193869E+02  0.88347990985E+01  0.30061150654E+02  0.00000000000E+00 0.  1.
</event>
<event>
 7    1  0.1265344E-009  0.4778727E+02  0.7816164E-02  0.1312668E+00
        -11   -1    0    0    0    0  0.00000000000E+00  0.00000000000E+00  0.45593999997E+02  0.45594000000E+02  0.51100000000E-03 0. -1.
         11   -1    0    0    0    0 -0.00000000000E+00 -0.00000000000E+00 -0.45593999997E+02  0.45594000000E+02  0.51100000000E-03 0.  1.
    9900012    2    1    2    0    0 -0.33117225601E+02 -0.20138104584E+02 -0.19527660272E+02  0.47787269552E+02  0.19999993195E+02 0.  0.
         12    1    1    2    0    0  0.33117225601E+02  0.20138104584E+02  0.19527660272E+02  0.43400730448E+02  0.00000000000E+00 0. -1.
         11    1    3    3    0    0 -0.70411666115E+01 -0.11058296581E+02 -0.14426471030E+01  0.13188827903E+02  0.51100000000E-03 0. -1.
        -11    1    3    3    0    0 -0.48486082166E+01  0.86774343147E+00 -0.72695791691E+01  0.87811594825E+01  0.51100000000E-03 0.  1.
        -12    1    3    3    0    0 -0.21227450773E+02 -0.99475514343E+01 -0.10815434000E+02  0.25817282166E+02  0.00000000000E+00 0.  1.
</event>
<event>
 7    1  0.1265344E-009  0.4778727E+02  0.7816164E-02  0.1312668E+00
        -11   -1    0    0    0    0  0.00000000000E+00  0.00000000000E+00  0.45593999997E+02  0.45594000000E+02  0.51100000000E-03 0. -1.
         11   -1    0    0    0    0 -0.00000000000E+00 -0.00000000000E+00 -0.45593999997E+02  0.45594000000E+02  0.51100000000E-03 0.  1.
    9900012    2    1    2    0    0  0.35140817157E+02 -0.18113209989E+02 -0.17906926155E+02  0.47787269466E+02  0.19999992805E+02 0.  0.
         12    1    1    2    0    0 -0.35140817157E+02  0.18113209989E+02  0.17906926155E+02  0.43400730534E+02  0.00000000000E+00 0. -1.
         11    1    3    3    0    0  0.35536160739E+01 -0.64679380348E+01 -0.84779105805E+00  0.74284022214E+01  0.51100000000E-03 0. -1.
        -11    1    3    3    0    0  0.52785249595E+01 -0.34809587052E+01  0.22583197263E+01  0.67141572444E+01  0.51100000000E-03 0.  1.
        -12    1    3    3    0    0  0.26308676123E+02 -0.81643132486E+01 -0.19317454823E+02  0.33644710001E+02  0.00000000000E+00 0.  1.
</event>
<event>
 7    1  0.1265344E-009  0.4778727E+02  0.7816164E-02  0.1312668E+00
        -11   -1    0    0    0    0  0.00000000000E+00  0.00000000000E+00  0.45593999997E+02  0.45594000000E+02  0.51100000000E-03 0. -1.
         11   -1    0    0    0    0 -0.00000000000E+00 -0.00000000000E+00 -0.45593999997E+02  0.45594000000E+02  0.51100000000E-03 0.  1.
    9900012    2    1    2    0    0 -0.24365050201E+02 -0.18288563527E+02 -0.30911098294E+02  0.47787271608E+02  0.20000002570E+02 0.  0.
         12    1    1    2    0    0  0.24365050201E+02  0.18288563527E+02  0.30911098294E+02  0.43400728392E+02  0.00000000000E+00 0. -1.
         11    1    3    3    0    0 -0.13434096217E+02 -0.18093194662E+02 -0.28142438727E+02  0.36053231367E+02  0.51100000000E-03 0. -1.
        -11    1    3    3    0    0 -0.18400904663E+01  0.66385560332E+00  0.52735129647E+00  0.20260150141E+01  0.51100000000E-03 0.  1.
         12    1    3    3    0    0 -0.90908635180E+01 -0.85922446838E+00 -0.32960108631E+01  0.97080252266E+01  0.00000000000E+00 0. -1.
</event>
<event>
 7    1  0.1265344E-009  0.4778727E+02  0.7816164E-02  0.1312668E+00
        -11   -1    0    0    0    0  0.00000000000E+00  0.00000000000E+00  0.45593999997E+02  0.45594000000E+02  0.51100000000E-03 0. -1.
         11   -1    0    0    0    0 -0.00000000000E+00 -0.00000000000E+00 -0.45593999997E+02  0.45594000000E+02  0.51100000000E-03 0.  1.
    9900012    2    1    2    0    0 -0.18915391017E+02 -0.23182560573E+02 -0.31438836826E+02  0.47787267367E+02  0.19999983235E+02 0.  0.
         12    1    1    2    0    0  0.18915391017E+02  0.23182560573E+02  0.31438836826E+02  0.43400732633E+02  0.00000000000E+00 0. -1.
         11    1    3    3    0    0  0.20181031744E+00  0.91610359771E+00 -0.34531553170E+01  0.35783033844E+01  0.51100000000E-03 0. -1.
        -11    1    3    3    0    0 -0.10457315003E+02 -0.18262613808E+02 -0.97471174148E+01  0.23192343529E+02  0.51100000000E-03 0.  1.
        -12    1    3    3    0    0 -0.86598863314E+01 -0.58360503626E+01 -0.18238564094E+02  0.21016620455E+02  0.00000000000E+00 0.  1.
</event>
<event>
 7    1  0.1265344E-009  0.4778727E+02  0.7816164E-02  0.1312668E+00
        -11   -1    0    0    0    0  0.00000000000E+00  0.00000000000E+00  0.45593999997E+02  0.45594000000E+02  0.51100000000E-03 0.  1.
         11   -1    0    0    0    0 -0.00000000000E+00 -0.00000000000E+00 -0.45593999997E+02  0.45594000000E+02  0.51100000000E-03 0. -1.
    9900012    2    1    2    0    0  0.12995578533E+02 -0.36229149199E+02  0.20054603803E+02  0.47787269052E+02  0.19999990916E+02 0.  0.
         12    1    1    2    0    0 -0.12995578533E+02  0.36229149199E+02 -0.20054603803E+02  0.43400730948E+02  0.00000000000E+00 0. -1.
         11    1    3    3    0    0 -0.21085286188E+01 -0.54958176476E+01  0.17228403883E+01  0.61333582821E+01  0.51100000000E-03 0. -1.
        -11    1    3    3    0    0  0.12534408543E+02 -0.16496847035E+02  0.36410923228E+01  0.21036038439E+02  0.51100000000E-03 0.  1.
        -12    1    3    3    0    0  0.25696986088E+01 -0.14236484516E+02  0.14690671092E+02  0.20617872331E+02  0.00000000000E+00 0.  1.
</event>
<event>
 7    1  0.1265344E-009  0.4778727E+02  0.7816164E-02  0.1312668E+00
        -11   -1    0    0    0    0  0.00000000000E+00  0.00000000000E+00  0.45593999997E+02  0.45594000000E+02  0.51100000000E-03 0.  1.
         11   -1    0    0    0    0 -0.00000000000E+00 -0.00000000000E+00 -0.45593999997E+02  0.45594000000E+02  0.51100000000E-03 0. -1.
    9900012    2    1    2    0    0 -0.21347882923E+02  0.84585996101E+01  0.36828561574E+02  0.47787274657E+02  0.20000016473E+02 0.  0.
         12    1    1    2    0    0  0.21347882923E+02 -0.84585996101E+01 -0.36828561574E+02  0.43400725343E+02  0.00000000000E+00 0. -1.
         11    1    3    3    0    0 -0.62208956964E+01  0.91830990972E+01  0.79099824306E+01  0.13623387046E+02  0.51100000000E-03 0.  1.
        -11    1    3    3    0    0 -0.30568497052E+01  0.76048109889E+00  0.16441742733E+02  0.16740775549E+02  0.51100000000E-03 0. -1.
        -12    1    3    3    0    0 -0.12070137522E+02 -0.14849805860E+01  0.12476836410E+02  0.17423112062E+02  0.00000000000E+00 0.  1.
</event>
<event>
 7    1  0.1265344E-009  0.4778727E+02  0.7816164E-02  0.1312668E+00
        -11   -1    0    0    0    0  0.00000000000E+00  0.00000000000E+00  0.45593999997E+02  0.45594000000E+02  0.51100000000E-03 0.  1.
         11   -1    0    0    0    0 -0.00000000000E+00 -0.00000000000E+00 -0.45593999997E+02  0.45594000000E+02  0.51100000000E-03 0. -1.
    9900012    2    1    2    0    0  0.18000453430E+02  0.38461520230E+02  0.89620676865E+01  0.47787268217E+02  0.19999987109E+02 0.  0.
         12    1    1    2    0    0 -0.18000453430E+02 -0.38461520230E+02 -0.89620676865E+01  0.43400731783E+02  0.00000000000E+00 0. -1.
         11    1    3    3    0    0 -0.12695824191E+01  0.79615990038E+00  0.26865643056E+01  0.30762539127E+01  0.51100000000E-03 0. -1.
        -11    1    3    3    0    0  0.75200296257E+01  0.26415862332E+02  0.72775483524E+01  0.28413224713E+02  0.51100000000E-03 0.  1.
        -12    1    3    3    0    0  0.11750006223E+02  0.11249497998E+02 -0.10020449716E+01  0.16297789591E+02  0.00000000000E+00 0.  1.
</event>
<event>
 7    1  0.1265344E-009  0.4778727E+02  0.7816164E-02  0.1312668E+00
        -11   -1    0    0    0    0  0.00000000000E+00  0.00000000000E+00  0.45593999997E+02  0.45594000000E+02  0.51100000000E-03 0. -1.
         11   -1    0    0    0    0 -0.00000000000E+00 -0.00000000000E+00 -0.45593999997E+02  0.45594000000E+02  0.51100000000E-03 0.  1.
    9900012    2    1    2    0    0 -0.38692743630E+02 -0.16935155452E+02 -0.99847421061E+01  0.47787274491E+02  0.20000015714E+02 0.  0.
         12    1    1    2    0    0  0.38692743630E+02  0.16935155452E+02  0.99847421061E+01  0.43400725509E+02  0.00000000000E+00 0. -1.
         11    1    3    3    0    0 -0.92356999677E+01 -0.39286223111E+01 -0.36506776828E+01  0.10679872423E+02  0.51100000000E-03 0. -1.
        -11    1    3    3    0    0 -0.31151149245E+02 -0.14285112645E+02 -0.67899743209E+01  0.34936546682E+02  0.51100000000E-03 0.  1.
         12    1    3    3    0    0  0.16941055827E+01  0.12785795040E+01  0.45590989754E+00  0.21708553862E+01  0.00000000000E+00 0. -1.
</event>
<event>
 7    1  0.1265344E-009  0.4778726E+02  0.7816164E-02  0.1312668E+00
        -11   -1    0    0    0    0  0.00000000000E+00  0.00000000000E+00  0.45593999997E+02  0.45594000000E+02  0.51100000000E-03 0. -1.
         11   -1    0    0    0    0 -0.00000000000E+00 -0.00000000000E+00 -0.45593999997E+02  0.45594000000E+02  0.51100000000E-03 0.  1.
    9900012    2    1    2    0    0 -0.12536451978E+02 -0.32566066337E+02 -0.25805286939E+02  0.47787261079E+02  0.19999954564E+02 0.  0.
         12    1    1    2    0    0  0.12536451978E+02  0.32566066337E+02  0.25805286939E+02  0.43400738921E+02  0.00000000000E+00 0. -1.
         11    1    3    3    0    0 -0.63672044964E+00 -0.18593516722E+02 -0.16517157316E+02  0.24878520114E+02  0.51100000000E-03 0.  1.
        -11    1    3    3    0    0 -0.34462591027E+00  0.15226205521E+01 -0.29062228397E+00  0.15879552691E+01  0.51100000000E-03 0. -1.
        -12    1    3    3    0    0 -0.11555105618E+02 -0.15495170168E+02 -0.89975073392E+01  0.21320785696E+02  0.00000000000E+00 0.  1.
</event>
<event>
 7    1  0.1265344E-009  0.4778727E+02  0.7816164E-02  0.1312668E+00
        -11   -1    0    0    0    0  0.00000000000E+00  0.00000000000E+00  0.45593999997E+02  0.45594000000E+02  0.51100000000E-03 0.  1.
         11   -1    0    0    0    0 -0.00000000000E+00 -0.00000000000E+00 -0.45593999997E+02  0.45594000000E+02  0.51100000000E-03 0. -1.
    9900012    2    1    2    0    0  0.28049255416E+01  0.14462670066E+01  0.43285839117E+02  0.47787272315E+02  0.20000005792E+02 0.  0.
         12    1    1    2    0    0 -0.28049255416E+01 -0.14462670066E+01 -0.43285839117E+02  0.43400727685E+02  0.00000000000E+00 0. -1.
         11    1    3    3    0    0  0.44796634428E+01  0.64495090195E+01  0.10749316248E+02  0.13312075391E+02  0.51100000000E-03 0. -1.
        -11    1    3    3    0    0 -0.51535343913E+01 -0.20518004030E+01  0.95822901032E+01  0.11071995552E+02  0.51100000000E-03 0.  1.
        -12    1    3    3    0    0  0.34787964900E+01 -0.29514416100E+01  0.22954232766E+02  0.23403201372E+02  0.00000000000E+00 0.  1.
</event>
<event>
 7    1  0.1265344E-009  0.4778728E+02  0.7816164E-02  0.1312668E+00
        -11   -1    0    0    0    0  0.00000000000E+00  0.00000000000E+00  0.45593999997E+02  0.45594000000E+02  0.51100000000E-03 0.  1.
         11   -1    0    0    0    0 -0.00000000000E+00 -0.00000000000E+00 -0.45593999997E+02  0.45594000000E+02  0.51100000000E-03 0. -1.
    9900012    2    1    2    0    0  0.69293030233E+01  0.42811922371E+02  0.16574041668E+01  0.47787275052E+02  0.20000018270E+02 0.  0.
         12    1    1    2    0    0 -0.69293030233E+01 -0.42811922371E+02 -0.16574041668E+01  0.43400724948E+02  0.00000000000E+00 0. -1.
         11    1    3    3    0    0  0.46103907455E-01 -0.74914243518E+00  0.53728750174E+00  0.92304825395E+00  0.51100000000E-03 0. -1.
        -11    1    3    3    0    0  0.36634585631E+01  0.66846020168E+00  0.97993044197E+00  0.38507183248E+01  0.51100000000E-03 0.  1.
         12    1    3    3    0    0  0.32197405528E+01  0.42892604604E+02  0.14018622304E+00  0.43013508473E+02  0.00000000000E+00 0. -1.
</event>
<event>
 7    1  0.1265344E-009  0.4778732E+02  0.7816164E-02  0.1312668E+00
        -11   -1    0    0    0    0  0.00000000000E+00  0.00000000000E+00  0.45593999997E+02  0.45594000000E+02  0.51100000000E-03 0.  1.
         11   -1    0    0    0    0 -0.00000000000E+00 -0.00000000000E+00 -0.45593999997E+02  0.45594000000E+02  0.51100000000E-03 0. -1.
    9900012    2    1    2    0    0 -0.23806885947E+01  0.36349290486E+02  0.23594073836E+02  0.47787321236E+02  0.20000228842E+02 0.  0.
         12    1    1    2    0    0  0.23806885947E+01 -0.36349290486E+02 -0.23594073836E+02  0.43400678764E+02  0.00000000000E+00 0. -1.
         11    1    3    3    0    0 -0.26647092772E+01 -0.61157903177E+00  0.82190910518E+00  0.28548623929E+01  0.51100000000E-03 0. -1.
        -11    1    3    3    0    0 -0.43307424343E+01  0.21117016107E+02  0.16988045418E+02  0.27445899269E+02  0.51100000000E-03 0.  1.
         12    1    3    3    0    0  0.46147631168E+01  0.15843853411E+02  0.57841193134E+01  0.17486559575E+02  0.00000000000E+00 0. -1.
</event>
<event>
 7    1  0.1265344E-009  0.4778727E+02  0.7816164E-02  0.1312668E+00
        -11   -1    0    0    0    0  0.00000000000E+00  0.00000000000E+00  0.45593999997E+02  0.45594000000E+02  0.51100000000E-03 0.  1.
         11   -1    0    0    0    0 -0.00000000000E+00 -0.00000000000E+00 -0.45593999997E+02  0.45594000000E+02  0.51100000000E-03 0. -1.
    9900012    2    1    2    0    0 -0.80633187358E+01  0.42634558996E+02  0.94907119804E+00  0.47787268831E+02  0.19999989910E+02 0.  0.
         12    1    1    2    0    0  0.80633187358E+01 -0.42634558996E+02 -0.94907119804E+00  0.43400731169E+02  0.00000000000E+00 0. -1.
         11    1    3    3    0    0 -0.26399541904E+01  0.15439919549E+02  0.54965210373E+01  0.16600367996E+02  0.51100000000E-03 0.  1.
        -11    1    3    3    0    0  0.25077556529E+01  0.43386851778E+01 -0.48756160772E+01  0.69917565662E+01  0.51100000000E-03 0. -1.
         12    1    3    3    0    0 -0.79311201984E+01  0.22855954269E+02  0.32816623797E+00  0.24195144270E+02  0.00000000000E+00 0. -1.
</event>
<event>
 7    1  0.1265344E-009  0.4778727E+02  0.7816164E-02  0.1312668E+00
        -11   -1    0    0    0    0  0.00000000000E+00  0.00000000000E+00  0.45593999997E+02  0.45594000000E+02  0.51100000000E-03 0.  1.
         11   -1    0    0    0    0 -0.00000000000E+00 -0.00000000000E+00 -0.45593999997E+02  0.45594000000E+02  0.51100000000E-03 0. -1.
    9900012    2    1    2    0    0  0.15717618072E+02 -0.74909106879E+01  0.39755071296E+02  0.47787274723E+02  0.20000016773E+02 0.  0.
         12    1    1    2    0    0 -0.15717618072E+02  0.74909106879E+01 -0.39755071296E+02  0.43400725277E+02  0.00000000000E+00 0. -1.
         11    1    3    3    0    0  0.50942028195E+01 -0.49657432540E+01  0.19887444903E+01  0.73867864014E+01  0.51100000000E-03 0. -1.
        -11    1    3    3    0    0  0.99898188605E+00 -0.36335979964E+01  0.51882120497E+01  0.64123742672E+01  0.51100000000E-03 0.  1.
        -12    1    3    3    0    0  0.96244333662E+01  0.11084305624E+01  0.32578114756E+02  0.33988114055E+02  0.00000000000E+00 0.  1.
</event>
<event>
 7    1  0.1265344E-009  0.4778727E+02  0.7816164E-02  0.1312668E+00
        -11   -1    0    0    0    0  0.00000000000E+00  0.00000000000E+00  0.45593999997E+02  0.45594000000E+02  0.51100000000E-03 0.  1.
         11   -1    0    0    0    0 -0.00000000000E+00 -0.00000000000E+00 -0.45593999997E+02  0.45594000000E+02  0.51100000000E-03 0. -1.
    9900012    2    1    2    0    0 -0.37816323258E+02  0.12372725190E+02  0.17333919154E+02  0.47787269745E+02  0.19999994077E+02 0.  0.
         12    1    1    2    0    0  0.37816323258E+02 -0.12372725190E+02 -0.17333919154E+02  0.43400730255E+02  0.00000000000E+00 0. -1.
         11    1    3    3    0    0 -0.17834442286E+02  0.16753640061E+01  0.54296044488E+01  0.18717766452E+02  0.51100000000E-03 0.  1.
        -11    1    3    3    0    0 -0.96097393398E+01  0.58610038779E+01  0.13430828453E+02  0.17523858303E+02  0.51100000000E-03 0. -1.
        -12    1    3    3    0    0 -0.10372141632E+02  0.48363573060E+01 -0.15265137476E+01  0.11545644991E+02  0.00000000000E+00 0.  1.
</event>
<event>
 7    1  0.1265344E-009  0.4778727E+02  0.7816164E-02  0.1312668E+00
        -11   -1    0    0    0    0  0.00000000000E+00  0.00000000000E+00  0.45593999997E+02  0.45594000000E+02  0.51100000000E-03 0.  1.
         11   -1    0    0    0    0 -0.00000000000E+00 -0.00000000000E+00 -0.45593999997E+02  0.45594000000E+02  0.51100000000E-03 0. -1.
    9900012    2    1    2    0    0 -0.33363791880E+02  0.26589598338E+02  0.79670823854E+01  0.47787265558E+02  0.19999974985E+02 0.  0.
         12    1    1    2    0    0  0.33363791880E+02 -0.26589598338E+02 -0.79670823854E+01  0.43400734442E+02  0.00000000000E+00 0. -1.
         11    1    3    3    0    0  0.41580808568E+00  0.29333475952E+01  0.52874290661E+00  0.30094839758E+01  0.51100000000E-03 0. -1.
        -11    1    3    3    0    0 -0.28950729743E+02  0.12942834304E+02  0.88960420104E+01  0.32936321533E+02  0.51100000000E-03 0.  1.
        -12    1    3    3    0    0 -0.48288702231E+01  0.10713416439E+02 -0.14577025316E+01  0.11841460049E+02  0.00000000000E+00 0.  1.
</event>
<event>
 7    1  0.1265344E-009  0.4778728E+02  0.7816164E-02  0.1312668E+00
        -11   -1    0    0    0    0  0.00000000000E+00  0.00000000000E+00  0.45593999997E+02  0.45594000000E+02  0.51100000000E-03 0. -1.
         11   -1    0    0    0    0 -0.00000000000E+00 -0.00000000000E+00 -0.45593999997E+02  0.45594000000E+02  0.51100000000E-03 0.  1.
    9900012    2    1    2    0    0 -0.15889487860E+02  0.39942046577E+02 -0.59816402568E+01  0.47787275013E+02  0.20000018095E+02 0.  0.
         12    1    1    2    0    0  0.15889487860E+02 -0.39942046577E+02  0.59816402568E+01  0.43400724987E+02  0.00000000000E+00 0. -1.
         11    1    3    3    0    0 -0.34454734973E+01  0.14362457681E+02  0.24000241987E+01  0.14963675841E+02  0.51100000000E-03 0.  1.
        -11    1    3    3    0    0 -0.79677277344E+01  0.16716727620E+02  0.17953992904E+01  0.18605298344E+02  0.51100000000E-03 0. -1.
        -12    1    3    3    0    0 -0.44762866279E+01  0.88628612762E+01 -0.10177063746E+02  0.14218300829E+02  0.00000000000E+00 0.  1.
</event>
<event>
 7    1  0.1265344E-009  0.4778727E+02  0.7816164E-02  0.1312668E+00
        -11   -1    0    0    0    0  0.00000000000E+00  0.00000000000E+00  0.45593999997E+02  0.45594000000E+02  0.51100000000E-03 0.  1.
         11   -1    0    0    0    0 -0.00000000000E+00 -0.00000000000E+00 -0.45593999997E+02  0.45594000000E+02  0.51100000000E-03 0. -1.
    9900012    2    1    2    0    0  0.28879697497E+02  0.27175219280E+02  0.17637846523E+02  0.47787273043E+02  0.20000009112E+02 0.  0.
         12    1    1    2    0    0 -0.28879697497E+02 -0.27175219280E+02 -0.17637846523E+02  0.43400726957E+02  0.00000000000E+00 0. -1.
         11    1    3    3    0    0  0.68606413332E+01  0.45885172740E+00  0.29375840931E+01  0.74771883068E+01  0.51100000000E-03 0. -1.
        -11    1    3    3    0    0  0.45269873696E+01  0.13233618490E+02  0.38616555122E+00  0.13991833228E+02  0.51100000000E-03 0.  1.
        -12    1    3    3    0    0  0.17492068795E+02  0.13482749062E+02  0.14314096879E+02  0.26318251508E+02  0.00000000000E+00 0.  1.
</event>
<event>
 7    1  0.1265344E-009  0.4778727E+02  0.7816164E-02  0.1312668E+00
        -11   -1    0    0    0    0  0.00000000000E+00  0.00000000000E+00  0.45593999997E+02  0.45594000000E+02  0.51100000000E-03 0.  1.
         11   -1    0    0    0    0 -0.00000000000E+00 -0.00000000000E+00 -0.45593999997E+02  0.45594000000E+02  0.51100000000E-03 0. -1.
    9900012    2    1    2    0    0 -0.58590310374E+01  0.35668805677E+02  0.24021479211E+02  0.47787269516E+02  0.19999993030E+02 0.  0.
         12    1    1    2    0    0  0.58590310374E+01 -0.35668805677E+02 -0.24021479211E+02  0.43400730484E+02  0.00000000000E+00 0. -1.
         11    1    3    3    0    0  0.39305628520E+01  0.12992845553E+02  0.12701053262E+01  0.13633654232E+02  0.51100000000E-03 0. -1.
        -11    1    3    3    0    0 -0.38553933407E+01  0.15718892722E+02  0.12762821859E+02  0.20611580926E+02  0.51100000000E-03 0.  1.
        -12    1    3    3    0    0 -0.59342005487E+01  0.69570674014E+01  0.99885520261E+01  0.13542034358E+02  0.00000000000E+00 0.  1.
</event>
<event>
 7    1  0.1265344E-009  0.4778728E+02  0.7816164E-02  0.1312668E+00
        -11   -1    0    0    0    0  0.00000000000E+00  0.00000000000E+00  0.45593999997E+02  0.45594000000E+02  0.51100000000E-03 0. -1.
         11   -1    0    0    0    0 -0.00000000000E+00 -0.00000000000E+00 -0.45593999997E+02  0.45594000000E+02  0.51100000000E-03 0.  1.
    9900012    2    1    2    0    0  0.59929164265E+01 -0.31666490604E+02 -0.29067868705E+02  0.47787278053E+02  0.20000031957E+02 0.  0.
         12    1    1    2    0    0 -0.59929164265E+01  0.31666490604E+02  0.29067868705E+02  0.43400721947E+02  0.00000000000E+00 0. -1.
         11    1    3    3    0    0  0.86488495232E+00 -0.53899314948E+01  0.24201423517E+01  0.59713044440E+01  0.51100000000E-03 0. -1.
        -11    1    3    3    0    0  0.21588565151E+01 -0.16530140362E+02 -0.14954182371E+02  0.22394949709E+02  0.51100000000E-03 0.  1.
        -12    1    3    3    0    0  0.29691749591E+01 -0.97464187475E+01 -0.16533828686E+02  0.19421023900E+02  0.00000000000E+00 0.  1.
</event>
<event>
 7    1  0.1265344E-009  0.4778727E+02  0.7816164E-02  0.1312668E+00
        -11   -1    0    0    0    0  0.00000000000E+00  0.00000000000E+00  0.45593999997E+02  0.45594000000E+02  0.51100000000E-03 0. -1.
         11   -1    0    0    0    0 -0.00000000000E+00 -0.00000000000E+00 -0.45593999997E+02  0.45594000000E+02  0.51100000000E-03 0.  1.
    9900012    2    1    2    0    0  0.41927898903E+02  0.11208146878E+02 -0.22842226537E+00  0.47787269135E+02  0.19999991295E+02 0.  0.
         12    1    1    2    0    0 -0.41927898903E+02 -0.11208146878E+02  0.22842226537E+00  0.43400730865E+02  0.00000000000E+00 0. -1.
         11    1    3    3    0    0  0.18436739926E+02  0.94716748021E+01 -0.49087305064E+01  0.21300742665E+02  0.51100000000E-03 0. -1.
        -11    1    3    3    0    0  0.16910398050E+02  0.55168946124E+01  0.60224153481E+01  0.18779434902E+02  0.51100000000E-03 0.  1.
        -12    1    3    3    0    0  0.65807609276E+01 -0.37804225366E+01 -0.13421071071E+01  0.77070915674E+01  0.00000000000E+00 0.  1.
</event>
<event>
 7    1  0.1265344E-009  0.4778727E+02  0.7816164E-02  0.1312668E+00
        -11   -1    0    0    0    0  0.00000000000E+00  0.00000000000E+00  0.45593999997E+02  0.45594000000E+02  0.51100000000E-03 0.  1.
         11   -1    0    0    0    0 -0.00000000000E+00 -0.00000000000E+00 -0.45593999997E+02  0.45594000000E+02  0.51100000000E-03 0. -1.
    9900012    2    1    2    0    0 -0.38247037324E+00 -0.22485765376E+02  0.37119637102E+02  0.47787269744E+02  0.19999994073E+02 0.  0.
         12    1    1    2    0    0  0.38247037324E+00  0.22485765376E+02 -0.37119637102E+02  0.43400730256E+02  0.00000000000E+00 0. -1.
         11    1    3    3    0    0  0.59671017429E+01 -0.13386287842E+02  0.18072516659E+02  0.23268323190E+02  0.51100000000E-03 0. -1.
        -11    1    3    3    0    0 -0.27352336921E+00  0.27287010402E+00  0.10364266800E+02  0.10371465648E+02  0.51100000000E-03 0.  1.
        -12    1    3    3    0    0 -0.60760487469E+01 -0.93723476383E+01  0.86828536430E+01  0.14147480907E+02  0.00000000000E+00 0.  1.
</event>
<event>
 7    1  0.1265344E-009  0.4778727E+02  0.7816164E-02  0.1312668E+00
        -11   -1    0    0    0    0  0.00000000000E+00  0.00000000000E+00  0.45593999997E+02  0.45594000000E+02  0.51100000000E-03 0. -1.
         11   -1    0    0    0    0 -0.00000000000E+00 -0.00000000000E+00 -0.45593999997E+02  0.45594000000E+02  0.51100000000E-03 0.  1.
    9900012    2    1    2    0    0  0.28335205166E+02 -0.32650158170E+02 -0.38348917518E+01  0.47787273334E+02  0.20000010440E+02 0.  0.
         12    1    1    2    0    0 -0.28335205166E+02  0.32650158170E+02  0.38348917518E+01  0.43400726666E+02  0.00000000000E+00 0. -1.
         11    1    3    3    0    0  0.91904025753E+01 -0.19103827446E+02 -0.31712081261E+01  0.21435397916E+02  0.51100000000E-03 0. -1.
        -11    1    3    3    0    0  0.10060959244E+02 -0.90700491192E+01  0.53613700062E+01  0.14568218167E+02  0.51100000000E-03 0.  1.
        -12    1    3    3    0    0  0.90838433467E+01 -0.44762816052E+01 -0.60250536318E+01  0.11783657252E+02  0.00000000000E+00 0.  1.
</event>
<event>
 7    1  0.1265344E-009  0.4778727E+02  0.7816164E-02  0.1312668E+00
        -11   -1    0    0    0    0  0.00000000000E+00  0.00000000000E+00  0.45593999997E+02  0.45594000000E+02  0.51100000000E-03 0.  1.
         11   -1    0    0    0    0 -0.00000000000E+00 -0.00000000000E+00 -0.45593999997E+02  0.45594000000E+02  0.51100000000E-03 0. -1.
    9900012    2    1    2    0    0 -0.46321154957E+01 -0.23438136154E+02  0.36232866387E+02  0.47787270433E+02  0.19999997211E+02 0.  0.
         12    1    1    2    0    0  0.46321154957E+01  0.23438136154E+02 -0.36232866387E+02  0.43400729567E+02  0.00000000000E+00 0. -1.
         11    1    3    3    0    0 -0.42385837509E+00 -0.42215508798E+01 -0.20540787984E+00  0.42477453326E+01  0.51100000000E-03 0. -1.
        -11    1    3    3    0    0  0.31895937629E+01 -0.37328805724E+01  0.16591468812E+02  0.17302738030E+02  0.51100000000E-03 0.  1.
         12    1    3    3    0    0 -0.73978508835E+01 -0.15483704702E+02  0.19846805455E+02  0.26236787070E+02  0.00000000000E+00 0. -1.
</event>
<event>
 7    1  0.1265344E-009  0.4778727E+02  0.7816164E-02  0.1312668E+00
        -11   -1    0    0    0    0  0.00000000000E+00  0.00000000000E+00  0.45593999997E+02  0.45594000000E+02  0.51100000000E-03 0. -1.
         11   -1    0    0    0    0 -0.00000000000E+00 -0.00000000000E+00 -0.45593999997E+02  0.45594000000E+02  0.51100000000E-03 0.  1.
    9900012    2    1    2    0    0  0.71718281488E+01  0.22029759402E+02 -0.36699837882E+02  0.47787268222E+02  0.19999987131E+02 0.  0.
         12    1    1    2    0    0 -0.71718281488E+01 -0.22029759402E+02  0.36699837882E+02  0.43400731778E+02  0.00000000000E+00 0. -1.
         11    1    3    3    0    0  0.51641070516E+01  0.13352507747E+02 -0.18166268981E+02  0.23129435655E+02  0.51100000000E-03 0. -1.
        -11    1    3    3    0    0 -0.79794573970E+00  0.11763337180E+02 -0.11435562626E+02  0.16425130497E+02  0.51100000000E-03 0.  1.
         12    1    3    3    0    0  0.28056668368E+01 -0.30860855262E+01 -0.70980062751E+01  0.82327020689E+01  0.00000000000E+00 0. -1.
</event>
<event>
 7    1  0.1265344E-009  0.4778727E+02  0.7816164E-02  0.1312668E+00
        -11   -1    0    0    0    0  0.00000000000E+00  0.00000000000E+00  0.45593999997E+02  0.45594000000E+02  0.51100000000E-03 0. -1.
         11   -1    0    0    0    0 -0.00000000000E+00 -0.00000000000E+00 -0.45593999997E+02  0.45594000000E+02  0.51100000000E-03 0.  1.
    9900012    2    1    2    0    0  0.32360084362E+02  0.23619297584E+01 -0.28824810836E+02  0.47787268533E+02  0.19999988549E+02 0.  0.
         12    1    1    2    0    0 -0.32360084362E+02 -0.23619297584E+01  0.28824810836E+02  0.43400731467E+02  0.00000000000E+00 0. -1.
         11    1    3    3    0    0  0.26047631983E+00 -0.25208281798E+01  0.91512154807E+00  0.26944146552E+01  0.51100000000E-03 0. -1.
        -11    1    3    3    0    0  0.86215561581E+01  0.46582095862E+01 -0.12895464520E+02  0.16196393197E+02  0.51100000000E-03 0.  1.
         12    1    3    3    0    0  0.23478051884E+02  0.22454835193E+00 -0.16844467865E+02  0.28896460681E+02  0.00000000000E+00 0. -1.
</event>
<event>
 7    1  0.1265344E-009  0.4778727E+02  0.7816164E-02  0.1312668E+00
        -11   -1    0    0    0    0  0.00000000000E+00  0.00000000000E+00  0.45593999997E+02  0.45594000000E+02  0.51100000000E-03 0.  1.
         11   -1    0    0    0    0 -0.00000000000E+00 -0.00000000000E+00 -0.45593999997E+02  0.45594000000E+02  0.51100000000E-03 0. -1.
    9900012    2    1    2    0    0 -0.43354575648E+02  0.18085478455E+00  0.19928636853E+01  0.47787269088E+02  0.19999991079E+02 0.  0.
         12    1    1    2    0    0  0.43354575648E+02 -0.18085478455E+00 -0.19928636853E+01  0.43400730912E+02  0.00000000000E+00 0. -1.
         11    1    3    3    0    0 -0.55777637109E+01 -0.59982730880E-01 -0.63654856627E+01  0.84637139558E+01  0.51100000000E-03 0. -1.
        -11    1    3    3    0    0 -0.86891334891E+01  0.23266594676E+01  0.39719503477E+01  0.98331467443E+01  0.51100000000E-03 0.  1.
         12    1    3    3    0    0 -0.29087678448E+02 -0.20858219521E+01  0.43863990003E+01  0.29490408388E+02  0.00000000000E+00 0. -1.
</event>
<event>
 7    1  0.1265344E-009  0.4778727E+02  0.7816164E-02  0.1312668E+00
        -11   -1    0    0    0    0  0.00000000000E+00  0.00000000000E+00  0.45593999997E+02  0.45594000000E+02  0.51100000000E-03 0.  1.
         11   -1    0    0    0    0 -0.00000000000E+00 -0.00000000000E+00 -0.45593999997E+02  0.45594000000E+02  0.51100000000E-03 0. -1.
    9900012    2    1    2    0    0  0.11001677972E+02 -0.91424630222E+01  0.40975624378E+02  0.47787270266E+02  0.19999996449E+02 0.  0.
         12    1    1    2    0    0 -0.11001677972E+02  0.91424630222E+01 -0.40975624378E+02  0.43400729734E+02  0.00000000000E+00 0. -1.
         11    1    3    3    0    0  0.55246567943E+01 -0.82640941365E+01  0.10778313214E+02  0.14662507310E+02  0.51100000000E-03 0. -1.
        -11    1    3    3    0    0  0.80965194305E+01  0.15934362111E+01  0.11929934050E+02  0.14505722751E+02  0.51100000000E-03 0.  1.
        -12    1    3    3    0    0 -0.26194982528E+01 -0.24718050968E+01  0.18267377114E+02  0.18619040205E+02  0.00000000000E+00 0.  1.
</event>
<event>
 7    1  0.1265344E-009  0.4778727E+02  0.7816164E-02  0.1312668E+00
        -11   -1    0    0    0    0  0.00000000000E+00  0.00000000000E+00  0.45593999997E+02  0.45594000000E+02  0.51100000000E-03 0. -1.
         11   -1    0    0    0    0 -0.00000000000E+00 -0.00000000000E+00 -0.45593999997E+02  0.45594000000E+02  0.51100000000E-03 0.  1.
    9900012    2    1    2    0    0  0.13707027336E+02 -0.40793919173E+02  0.56211432008E+01  0.47787266241E+02  0.19999978100E+02 0.  0.
         12    1    1    2    0    0 -0.13707027336E+02  0.40793919173E+02 -0.56211432008E+01  0.43400733759E+02  0.00000000000E+00 0. -1.
         11    1    3    3    0    0 -0.19231081552E+01 -0.74236066700E+01 -0.43272919112E+00  0.76808551465E+01  0.51100000000E-03 0. -1.
        -11    1    3    3    0    0 -0.16414322097E+01 -0.68015605790E+01  0.46205514765E+01  0.83848090149E+01  0.51100000000E-03 0.  1.
        -12    1    3    3    0    0  0.17271567701E+02 -0.26568751924E+02  0.14333209155E+01  0.31721602080E+02  0.00000000000E+00 0.  1.
</event>
<event>
 7    1  0.1265344E-009  0.4778727E+02  0.7816164E-02  0.1312668E+00
        -11   -1    0    0    0    0  0.00000000000E+00  0.00000000000E+00  0.45593999997E+02  0.45594000000E+02  0.51100000000E-03 0. -1.
         11   -1    0    0    0    0 -0.00000000000E+00 -0.00000000000E+00 -0.45593999997E+02  0.45594000000E+02  0.51100000000E-03 0.  1.
    9900012    2    1    2    0    0 -0.17606178550E+02  0.37662842359E+02 -0.12456178065E+02  0.47787267406E+02  0.19999983412E+02 0.  0.
         12    1    1    2    0    0  0.17606178550E+02 -0.37662842359E+02  0.12456178065E+02  0.43400732594E+02  0.00000000000E+00 0. -1.
         11    1    3    3    0    0 -0.15186071718E+02  0.13760591137E+02 -0.54746387508E+01  0.21211843682E+02  0.51100000000E-03 0. -1.
        -11    1    3    3    0    0  0.16879336335E+01  0.80060734871E+00  0.52384001937E+00  0.19402321265E+01  0.51100000000E-03 0.  1.
        -12    1    3    3    0    0 -0.41080404647E+01  0.23101643874E+02 -0.75053793336E+01  0.24635191598E+02  0.00000000000E+00 0.  1.
</event>
<event>
 7    1  0.1265344E-009  0.4778727E+02  0.7816164E-02  0.1312668E+00
        -11   -1    0    0    0    0  0.00000000000E+00  0.00000000000E+00  0.45593999997E+02  0.45594000000E+02  0.51100000000E-03 0.  1.
         11   -1    0    0    0    0 -0.00000000000E+00 -0.00000000000E+00 -0.45593999997E+02  0.45594000000E+02  0.51100000000E-03 0. -1.
    9900012    2    1    2    0    0  0.17956053534E+02  0.32939828762E+02  0.21821343148E+02  0.47787271963E+02  0.20000004186E+02 0.  0.
         12    1    1    2    0    0 -0.17956053534E+02 -0.32939828762E+02 -0.21821343148E+02  0.43400728037E+02  0.00000000000E+00 0. -1.
         11    1    3    3    0    0  0.34719681109E+01 -0.50627016272E+00 -0.14494233047E+00  0.35116777445E+01  0.51100000000E-03 0. -1.
        -11    1    3    3    0    0  0.12755192306E+01  0.55141036206E+00 -0.12769442811E+01  0.18872174367E+01  0.51100000000E-03 0.  1.
        -12    1    3    3    0    0  0.13208566192E+02  0.32894688563E+02  0.23243229760E+02  0.42388376781E+02  0.00000000000E+00 0.  1.
</event>
<event>
 7    1  0.1265344E-009  0.4778727E+02  0.7816164E-02  0.1312668E+00
        -11   -1    0    0    0    0  0.00000000000E+00  0.00000000000E+00  0.45593999997E+02  0.45594000000E+02  0.51100000000E-03 0. -1.
         11   -1    0    0    0    0 -0.00000000000E+00 -0.00000000000E+00 -0.45593999997E+02  0.45594000000E+02  0.51100000000E-03 0.  1.
    9900012    2    1    2    0    0 -0.21568058819E+02 -0.20474980669E+02  0.31610394370E+02  0.47787273890E+02  0.20000012975E+02 0.  0.
         12    1    1    2    0    0  0.21568058819E+02  0.20474980669E+02 -0.31610394370E+02  0.43400726110E+02  0.00000000000E+00 0. -1.
         11    1    3    3    0    0  0.14829704294E+01 -0.45546604354E+01  0.43427424264E+01  0.64655661020E+01  0.51100000000E-03 0. -1.
        -11    1    3    3    0    0 -0.12506907209E+02 -0.69367313342E+01  0.51038641967E+01  0.15185203309E+02  0.51100000000E-03 0.  1.
        -12    1    3    3    0    0 -0.10544122040E+02 -0.89835888993E+01  0.22163787747E+02  0.26136504479E+02  0.00000000000E+00 0.  1.
</event>
<event>
 7    1  0.1265344E-009  0.4778727E+02  0.7816164E-02  0.1312668E+00
        -11   -1    0    0    0    0  0.00000000000E+00  0.00000000000E+00  0.45593999997E+02  0.45594000000E+02  0.51100000000E-03 0. -1.
         11   -1    0    0    0    0 -0.00000000000E+00 -0.00000000000E+00 -0.45593999997E+02  0.45594000000E+02  0.51100000000E-03 0.  1.
    9900012    2    1    2    0    0 -0.17796299938E+02  0.35208869250E+02 -0.18090061195E+02  0.47787273285E+02  0.20000010217E+02 0.  0.
         12    1    1    2    0    0  0.17796299938E+02 -0.35208869250E+02  0.18090061195E+02  0.43400726715E+02  0.00000000000E+00 0. -1.
         11    1    3    3    0    0 -0.88564199532E+01  0.12731055830E+02 -0.37108578243E+01  0.15946360807E+02  0.51100000000E-03 0. -1.
        -11    1    3    3    0    0 -0.46108631470E+01  0.40699630171E+01 -0.11041177839E+02  0.12638523104E+02  0.51100000000E-03 0.  1.
        -12    1    3    3    0    0 -0.43290168378E+01  0.18407850403E+02 -0.33380255317E+01  0.19202389374E+02  0.00000000000E+00 0.  1.
</event>
<event>
 7    1  0.1265344E-009  0.4778727E+02  0.7816164E-02  0.1312668E+00
        -11   -1    0    0    0    0  0.00000000000E+00  0.00000000000E+00  0.45593999997E+02  0.45594000000E+02  0.51100000000E-03 0. -1.
         11   -1    0    0    0    0 -0.00000000000E+00 -0.00000000000E+00 -0.45593999997E+02  0.45594000000E+02  0.51100000000E-03 0.  1.
    9900012    2    1    2    0    0 -0.29020958157E+02 -0.27655620898E+02  0.16630501307E+02  0.47787274738E+02  0.20000016840E+02 0.  0.
         12    1    1    2    0    0  0.29020958157E+02  0.27655620898E+02 -0.16630501307E+02  0.43400725262E+02  0.00000000000E+00 0. -1.
         11    1    3    3    0    0 -0.13775333639E+01 -0.60722331658E+00  0.13955895100E+01  0.20528002013E+01  0.51100000000E-03 0. -1.
        -11    1    3    3    0    0 -0.29841431878E+02 -0.20474509637E+02  0.12685973436E+02  0.38349061575E+02  0.51100000000E-03 0.  1.
        -12    1    3    3    0    0  0.21980070852E+01 -0.65738879439E+01  0.25489383607E+01  0.73854129615E+01  0.00000000000E+00 0.  1.
</event>
<event>
 7    1  0.1265344E-009  0.4778727E+02  0.7816164E-02  0.1312668E+00
        -11   -1    0    0    0    0  0.00000000000E+00  0.00000000000E+00  0.45593999997E+02  0.45594000000E+02  0.51100000000E-03 0.  1.
         11   -1    0    0    0    0 -0.00000000000E+00 -0.00000000000E+00 -0.45593999997E+02  0.45594000000E+02  0.51100000000E-03 0. -1.
    9900012    2    1    2    0    0 -0.25957129853E+02 -0.22885638355E+02  0.26193481519E+02  0.47787268356E+02  0.19999987743E+02 0.  0.
         12    1    1    2    0    0  0.25957129853E+02  0.22885638355E+02 -0.26193481519E+02  0.43400731644E+02  0.00000000000E+00 0. -1.
         11    1    3    3    0    0  0.23844253978E+01 -0.51604149427E+01  0.19205629090E+01  0.60003274083E+01  0.51100000000E-03 0.  1.
        -11    1    3    3    0    0 -0.58343674310E-02  0.35128526494E+00  0.53051553277E+00  0.63630367659E+00  0.51100000000E-03 0. -1.
        -12    1    3    3    0    0 -0.28335720884E+02 -0.18076508677E+02  0.23742403077E+02  0.41150637271E+02  0.00000000000E+00 0.  1.
</event>
<event>
 7    1  0.1265344E-009  0.4778727E+02  0.7816164E-02  0.1312668E+00
        -11   -1    0    0    0    0  0.00000000000E+00  0.00000000000E+00  0.45593999997E+02  0.45594000000E+02  0.51100000000E-03 0.  1.
         11   -1    0    0    0    0 -0.00000000000E+00 -0.00000000000E+00 -0.45593999997E+02  0.45594000000E+02  0.51100000000E-03 0. -1.
    9900012    2    1    2    0    0  0.49241975129E+01 -0.38718665363E+02  0.18979997919E+02  0.47787273167E+02  0.20000009678E+02 0.  0.
         12    1    1    2    0    0 -0.49241975129E+01  0.38718665363E+02 -0.18979997919E+02  0.43400726833E+02  0.00000000000E+00 0. -1.
         11    1    3    3    0    0  0.69430011749E+01 -0.14991089229E+02  0.26323148973E+01  0.16729229019E+02  0.51100000000E-03 0. -1.
        -11    1    3    3    0    0  0.11615275168E+00 -0.24157108638E+02  0.14321726119E+02  0.28083646994E+02  0.51100000000E-03 0.  1.
        -12    1    3    3    0    0 -0.21349564137E+01  0.42953250384E+00  0.20259569024E+01  0.29743971541E+01  0.00000000000E+00 0.  1.
</event>
<event>
 7    1  0.1265344E-009  0.4778727E+02  0.7816164E-02  0.1312668E+00
        -11   -1    0    0    0    0  0.00000000000E+00  0.00000000000E+00  0.45593999997E+02  0.45594000000E+02  0.51100000000E-03 0. -1.
         11   -1    0    0    0    0 -0.00000000000E+00 -0.00000000000E+00 -0.45593999997E+02  0.45594000000E+02  0.51100000000E-03 0.  1.
    9900012    2    1    2    0    0  0.42929646067E+02  0.63645196082E+01 -0.40170814465E+00  0.47787274307E+02  0.20000014874E+02 0.  0.
         12    1    1    2    0    0 -0.42929646067E+02 -0.63645196082E+01  0.40170814465E+00  0.43400725693E+02  0.00000000000E+00 0. -1.
         11    1    3    3    0    0  0.11400662642E+02 -0.24504677332E+01  0.35871799287E+01  0.12200318065E+02  0.51100000000E-03 0. -1.
        -11    1    3    3    0    0  0.31083754647E+02  0.89305690744E+01 -0.78555397710E+00  0.32350764478E+02  0.51100000000E-03 0.  1.
        -12    1    3    3    0    0  0.44522877750E+00 -0.11558173306E+00 -0.32033340962E+01  0.32361917640E+01  0.00000000000E+00 0.  1.
</event>
<event>
 7    1  0.1265344E-009  0.4778727E+02  0.7816164E-02  0.1312668E+00
        -11   -1    0    0    0    0  0.00000000000E+00  0.00000000000E+00  0.45593999997E+02  0.45594000000E+02  0.51100000000E-03 0.  1.
         11   -1    0    0    0    0 -0.00000000000E+00 -0.00000000000E+00 -0.45593999997E+02  0.45594000000E+02  0.51100000000E-03 0. -1.
    9900012    2    1    2    0    0  0.11552924374E+02 -0.85539374543E+01  0.40950992219E+02  0.47787266466E+02  0.19999979124E+02 0.  0.
         12    1    1    2    0    0 -0.11552924374E+02  0.85539374543E+01 -0.40950992219E+02  0.43400733534E+02  0.00000000000E+00 0. -1.
         11    1    3    3    0    0 -0.12583823156E+00 -0.90759509115E+01  0.14250537040E+02  0.16895754685E+02  0.51100000000E-03 0. -1.
        -11    1    3    3    0    0  0.89429978671E+01 -0.43433540508E+01  0.17686650340E+02  0.20289394663E+02  0.51100000000E-03 0.  1.
        -12    1    3    3    0    0  0.27357647385E+01  0.48653675080E+01  0.90138048396E+01  0.10602117118E+02  0.00000000000E+00 0.  1.
</event>
<event>
 7    1  0.1265344E-009  0.4778727E+02  0.7816164E-02  0.1312668E+00
        -11   -1    0    0    0    0  0.00000000000E+00  0.00000000000E+00  0.45593999997E+02  0.45594000000E+02  0.51100000000E-03 0.  1.
         11   -1    0    0    0    0 -0.00000000000E+00 -0.00000000000E+00 -0.45593999997E+02  0.45594000000E+02  0.51100000000E-03 0. -1.
    9900012    2    1    2    0    0  0.54003889300E+01  0.40925810331E+02  0.13399152140E+02  0.47787269247E+02  0.19999991805E+02 0.  0.
         12    1    1    2    0    0 -0.54003889300E+01 -0.40925810331E+02 -0.13399152140E+02  0.43400730753E+02  0.00000000000E+00 0. -1.
         11    1    3    3    0    0  0.18405183519E+01  0.41814342064E+01  0.75163106348E+01  0.87958413836E+01  0.51100000000E-03 0. -1.
        -11    1    3    3    0    0  0.14482201243E+00  0.27018695933E+02  0.85581645877E+01  0.28342072696E+02  0.51100000000E-03 0.  1.
         12    1    3    3    0    0  0.34150485657E+01  0.97256801910E+01 -0.26753230824E+01  0.10649355167E+02  0.00000000000E+00 0. -1.
</event>
<event>
 7    1  0.1265344E-009  0.4778727E+02  0.7816164E-02  0.1312668E+00
        -11   -1    0    0    0    0  0.00000000000E+00  0.00000000000E+00  0.45593999997E+02  0.45594000000E+02  0.51100000000E-03 0.  1.
         11   -1    0    0    0    0 -0.00000000000E+00 -0.00000000000E+00 -0.45593999997E+02  0.45594000000E+02  0.51100000000E-03 0. -1.
    9900012    2    1    2    0    0 -0.37859075396E+02 -0.19691080670E+02  0.79104576786E+01  0.47787267420E+02  0.19999983476E+02 0.  0.
         12    1    1    2    0    0  0.37859075396E+02  0.19691080670E+02 -0.79104576786E+01  0.43400732580E+02  0.00000000000E+00 0. -1.
         11    1    3    3    0    0 -0.13655927864E+02 -0.72838909431E+01  0.76067784169E+01  0.17245362021E+02  0.51100000000E-03 0. -1.
        -11    1    3    3    0    0 -0.79633817465E+01 -0.73590433190E+00  0.57085296746E+01  0.98256966843E+01  0.51100000000E-03 0.  1.
         12    1    3    3    0    0 -0.16239765785E+02 -0.11671285395E+02 -0.54048504129E+01  0.20716208715E+02  0.00000000000E+00 0. -1.
</event>
<event>
 7    1  0.1265344E-009  0.4778727E+02  0.7816164E-02  0.1312668E+00
        -11   -1    0    0    0    0  0.00000000000E+00  0.00000000000E+00  0.45593999997E+02  0.45594000000E+02  0.51100000000E-03 0. -1.
         11   -1    0    0    0    0 -0.00000000000E+00 -0.00000000000E+00 -0.45593999997E+02  0.45594000000E+02  0.51100000000E-03 0.  1.
    9900012    2    1    2    0    0  0.24482148880E+02  0.33086253485E+02 -0.13767621073E+02  0.47787272201E+02  0.20000005274E+02 0.  0.
         12    1    1    2    0    0 -0.24482148880E+02 -0.33086253485E+02  0.13767621073E+02  0.43400727799E+02  0.00000000000E+00 0. -1.
         11    1    3    3    0    0  0.56122968112E+01  0.12995029826E+02  0.11871941227E+01  0.14204862049E+02  0.51100000000E-03 0. -1.
        -11    1    3    3    0    0  0.70358735541E+00  0.79618669695E+01 -0.22100153401E+01  0.82927998210E+01  0.51100000000E-03 0.  1.
         12    1    3    3    0    0  0.18166264714E+02  0.12129356689E+02 -0.12744799856E+02  0.25289610331E+02  0.00000000000E+00 0. -1.
</event>
<event>
 7    1  0.1265344E-009  0.4778728E+02  0.7816164E-02  0.1312668E+00
        -11   -1    0    0    0    0  0.00000000000E+00  0.00000000000E+00  0.45593999997E+02  0.45594000000E+02  0.51100000000E-03 0.  1.
         11   -1    0    0    0    0 -0.00000000000E+00 -0.00000000000E+00 -0.45593999997E+02  0.45594000000E+02  0.51100000000E-03 0. -1.
    9900012    2    1    2    0    0  0.12575824130E+02  0.16330157727E+02  0.38194207414E+02  0.47787275537E+02  0.20000020482E+02 0.  0.
         12    1    1    2    0    0 -0.12575824130E+02 -0.16330157727E+02 -0.38194207414E+02  0.43400724463E+02  0.00000000000E+00 0. -1.
         11    1    3    3    0    0 -0.20816724625E+01  0.27973275615E+01 -0.74908587629E-01  0.34876945516E+01  0.51100000000E-03 0. -1.
        -11    1    3    3    0    0  0.71949538120E+01  0.96573444805E+01  0.13249887766E+02  0.17905060426E+02  0.51100000000E-03 0.  1.
         12    1    3    3    0    0  0.74625427801E+01  0.38754856846E+01  0.25019228236E+02  0.26394520560E+02  0.00000000000E+00 0. -1.
</event>
<event>
 7    1  0.1265344E-009  0.4778727E+02  0.7816164E-02  0.1312668E+00
        -11   -1    0    0    0    0  0.00000000000E+00  0.00000000000E+00  0.45593999997E+02  0.45594000000E+02  0.51100000000E-03 0.  1.
         11   -1    0    0    0    0 -0.00000000000E+00 -0.00000000000E+00 -0.45593999997E+02  0.45594000000E+02  0.51100000000E-03 0. -1.
    9900012    2    1    2    0    0  0.44011028765E+01  0.29167400565E+02  0.31835771627E+02  0.47787270543E+02  0.19999997716E+02 0.  0.
         12    1    1    2    0    0 -0.44011028765E+01 -0.29167400565E+02 -0.31835771627E+02  0.43400729457E+02  0.00000000000E+00 0. -1.
         11    1    3    3    0    0  0.28808762636E+01 -0.11974125746E+01  0.14637443803E+01  0.34461272164E+01  0.51100000000E-03 0. -1.
        -11    1    3    3    0    0 -0.18862548607E+01  0.29129083477E+00  0.28679775994E+01  0.34450113965E+01  0.51100000000E-03 0.  1.
        -12    1    3    3    0    0  0.34064814736E+01  0.30073522305E+02  0.27504049647E+02  0.40896131931E+02  0.00000000000E+00 0.  1.
</event>
<event>
 7    1  0.1265344E-009  0.4778727E+02  0.7816164E-02  0.1312668E+00
        -11   -1    0    0    0    0  0.00000000000E+00  0.00000000000E+00  0.45593999997E+02  0.45594000000E+02  0.51100000000E-03 0. -1.
         11   -1    0    0    0    0 -0.00000000000E+00 -0.00000000000E+00 -0.45593999997E+02  0.45594000000E+02  0.51100000000E-03 0.  1.
    9900012    2    1    2    0    0  0.30732734366E+02 -0.53788642360E+01 -0.30169358020E+02  0.47787270681E+02  0.19999998344E+02 0.  0.
         12    1    1    2    0    0 -0.30732734366E+02  0.53788642360E+01  0.30169358020E+02  0.43400729319E+02  0.00000000000E+00 0. -1.
         11    1    3    3    0    0  0.13379944872E+01  0.19879484204E+01 -0.84821300429E+00  0.25419743767E+01  0.51100000000E-03 0. -1.
        -11    1    3    3    0    0  0.19860885398E+02 -0.12317947670E+02 -0.17006806843E+02  0.28903599825E+02  0.51100000000E-03 0.  1.
        -12    1    3    3    0    0  0.95338544807E+01  0.49511350141E+01 -0.12314338173E+02  0.16341696479E+02  0.00000000000E+00 0.  1.
</event>
<event>
 7    1  0.1265344E-009  0.4778727E+02  0.7816164E-02  0.1312668E+00
        -11   -1    0    0    0    0  0.00000000000E+00  0.00000000000E+00  0.45593999997E+02  0.45594000000E+02  0.51100000000E-03 0. -1.
         11   -1    0    0    0    0 -0.00000000000E+00 -0.00000000000E+00 -0.45593999997E+02  0.45594000000E+02  0.51100000000E-03 0.  1.
    9900012    2    1    2    0    0  0.29230377890E+02 -0.29116443663E+02 -0.13470003393E+02  0.47787271036E+02  0.19999999964E+02 0.  0.
         12    1    1    2    0    0 -0.29230377890E+02  0.29116443663E+02  0.13470003393E+02  0.43400728964E+02  0.00000000000E+00 0. -1.
         11    1    3    3    0    0  0.11884251021E+02 -0.15335886095E+02 -0.10778525774E+02  0.22194626439E+02  0.51100000000E-03 0. -1.
        -11    1    3    3    0    0  0.15587230505E+02 -0.99002776709E+01 -0.67963180327E+01  0.19676564534E+02  0.51100000000E-03 0.  1.
         12    1    3    3    0    0  0.17588963639E+01 -0.38802798970E+01  0.41048404138E+01  0.59160800637E+01  0.00000000000E+00 0. -1.
</event>
<event>
 7    1  0.1265344E-009  0.4778727E+02  0.7816164E-02  0.1312668E+00
        -11   -1    0    0    0    0  0.00000000000E+00  0.00000000000E+00  0.45593999997E+02  0.45594000000E+02  0.51100000000E-03 0.  1.
         11   -1    0    0    0    0 -0.00000000000E+00 -0.00000000000E+00 -0.45593999997E+02  0.45594000000E+02  0.51100000000E-03 0. -1.
    9900012    2    1    2    0    0  0.13238467793E+02  0.26678125981E+02  0.31569666480E+02  0.47787271008E+02  0.19999999832E+02 0.  0.
         12    1    1    2    0    0 -0.13238467793E+02 -0.26678125981E+02 -0.31569666480E+02  0.43400728992E+02  0.00000000000E+00 0. -1.
         11    1    3    3    0    0 -0.15255830667E+01  0.41155226376E+01  0.15203523992E+02  0.15824413807E+02  0.51100000000E-03 0. -1.
        -11    1    3    3    0    0  0.48407587552E+01  0.10330759170E+02  0.92114588271E+01  0.14663168291E+02  0.51100000000E-03 0.  1.
         12    1    3    3    0    0  0.99232921047E+01  0.12231844174E+02  0.71546836608E+01  0.17299688910E+02  0.00000000000E+00 0. -1.
</event>
<event>
 7    1  0.1265344E-009  0.4778727E+02  0.7816164E-02  0.1312668E+00
        -11   -1    0    0    0    0  0.00000000000E+00  0.00000000000E+00  0.45593999997E+02  0.45594000000E+02  0.51100000000E-03 0.  1.
         11   -1    0    0    0    0 -0.00000000000E+00 -0.00000000000E+00 -0.45593999997E+02  0.45594000000E+02  0.51100000000E-03 0. -1.
    9900012    2    1    2    0    0  0.93311769047E+01  0.16854711586E+02  0.38890499120E+02  0.47787273199E+02  0.20000009822E+02 0.  0.
         12    1    1    2    0    0 -0.93311769047E+01 -0.16854711586E+02 -0.38890499120E+02  0.43400726801E+02  0.00000000000E+00 0. -1.
         11    1    3    3    0    0  0.78549432873E+01  0.18755159570E+02  0.25691035424E+02  0.32764087748E+02  0.51100000000E-03 0. -1.
        -11    1    3    3    0    0  0.37200826939E+01  0.54986593051E-01  0.99186709999E+01  0.10593492032E+02  0.51100000000E-03 0.  1.
         12    1    3    3    0    0 -0.22438490765E+01 -0.19554345773E+01  0.32807926965E+01  0.44296934185E+01  0.00000000000E+00 0. -1.
</event>
<event>
 7    1  0.1265344E-009  0.4778727E+02  0.7816164E-02  0.1312668E+00
        -11   -1    0    0    0    0  0.00000000000E+00  0.00000000000E+00  0.45593999997E+02  0.45594000000E+02  0.51100000000E-03 0.  1.
         11   -1    0    0    0    0 -0.00000000000E+00 -0.00000000000E+00 -0.45593999997E+02  0.45594000000E+02  0.51100000000E-03 0. -1.
    9900012    2    1    2    0    0 -0.23087755220E+02  0.33985134339E+02 -0.13985324187E+02  0.47787273166E+02  0.20000009673E+02 0.  0.
         12    1    1    2    0    0  0.23087755220E+02 -0.33985134339E+02  0.13985324187E+02  0.43400726834E+02  0.00000000000E+00 0. -1.
         11    1    3    3    0    0 -0.50893887020E+01  0.77020837948E+01  0.17812933064E+01  0.94019667222E+01  0.51100000000E-03 0. -1.
        -11    1    3    3    0    0 -0.42381507349E+01  0.42349226534E+01  0.26303379900E+01  0.65433301716E+01  0.51100000000E-03 0.  1.
        -12    1    3    3    0    0 -0.13760215783E+02  0.22048127891E+02 -0.18396955483E+02  0.31841976272E+02  0.00000000000E+00 0.  1.
</event>
<event>
 7    1  0.1265344E-009  0.4778727E+02  0.7816164E-02  0.1312668E+00
        -11   -1    0    0    0    0  0.00000000000E+00  0.00000000000E+00  0.45593999997E+02  0.45594000000E+02  0.51100000000E-03 0. -1.
         11   -1    0    0    0    0 -0.00000000000E+00 -0.00000000000E+00 -0.45593999997E+02  0.45594000000E+02  0.51100000000E-03 0.  1.
    9900012    2    1    2    0    0  0.80164977455E+01 -0.37610703100E+02 -0.20119493784E+02  0.47787271275E+02  0.20000001051E+02 0.  0.
         12    1    1    2    0    0 -0.80164977455E+01  0.37610703100E+02  0.20119493784E+02  0.43400728725E+02  0.00000000000E+00 0. -1.
         11    1    3    3    0    0 -0.33253064699E+01 -0.23707756591E+01 -0.24419842865E+01  0.47583114507E+01  0.51100000000E-03 0. -1.
        -11    1    3    3    0    0  0.34829731586E+01 -0.28922811716E+02 -0.12604221777E+02  0.31741558664E+02  0.51100000000E-03 0.  1.
         12    1    3    3    0    0  0.78588310568E+01 -0.63171157246E+01 -0.50732877202E+01  0.11287401160E+02  0.00000000000E+00 0. -1.
</event>
<event>
 7    1  0.1265344E-009  0.4778726E+02  0.7816164E-02  0.1312668E+00
        -11   -1    0    0    0    0  0.00000000000E+00  0.00000000000E+00  0.45593999997E+02  0.45594000000E+02  0.51100000000E-03 0. -1.
         11   -1    0    0    0    0 -0.00000000000E+00 -0.00000000000E+00 -0.45593999997E+02  0.45594000000E+02  0.51100000000E-03 0.  1.
    9900012    2    1    2    0    0 -0.41050060903E+02  0.10908452591E+01 -0.14047320688E+02  0.47787255052E+02  0.19999927086E+02 0.  0.
         12    1    1    2    0    0  0.41050060903E+02 -0.10908452591E+01  0.14047320688E+02  0.43400744948E+02  0.00000000000E+00 0. -1.
         11    1    3    3    0    0 -0.86709071815E+01  0.55684041462E+01  0.11099950557E+01  0.10364547524E+02  0.51100000000E-03 0. -1.
        -11    1    3    3    0    0 -0.60148052548E+01  0.18485159399E+01  0.13656389173E+00  0.62939290901E+01  0.51100000000E-03 0.  1.
        -12    1    3    3    0    0 -0.26364348467E+02 -0.63260748270E+01 -0.15293879635E+02  0.31128778439E+02  0.00000000000E+00 0.  1.
</event>
<event>
 7    1  0.1265344E-009  0.4778727E+02  0.7816164E-02  0.1312668E+00
        -11   -1    0    0    0    0  0.00000000000E+00  0.00000000000E+00  0.45593999997E+02  0.45594000000E+02  0.51100000000E-03 0.  1.
         11   -1    0    0    0    0 -0.00000000000E+00 -0.00000000000E+00 -0.45593999997E+02  0.45594000000E+02  0.51100000000E-03 0. -1.
    9900012    2    1    2    0    0  0.24855738146E+02  0.35547764374E+02  0.14737652874E+01  0.47787271263E+02  0.20000000995E+02 0.  0.
         12    1    1    2    0    0 -0.24855738146E+02 -0.35547764374E+02 -0.14737652874E+01  0.43400728737E+02  0.00000000000E+00 0. -1.
         11    1    3    3    0    0  0.51186504529E+01  0.12999264759E+02 -0.39011062046E+01  0.14505174822E+02  0.51100000000E-03 0. -1.
        -11    1    3    3    0    0  0.14091881856E+02  0.20685653288E+02 -0.34586869775E+00  0.25031919855E+02  0.51100000000E-03 0.  1.
        -12    1    3    3    0    0  0.56452058371E+01  0.18628463273E+01  0.57207401897E+01  0.82501765860E+01  0.00000000000E+00 0.  1.
</event>
<event>
 7    1  0.1265344E-009  0.4778725E+02  0.7816164E-02  0.1312668E+00
        -11   -1    0    0    0    0  0.00000000000E+00  0.00000000000E+00  0.45593999997E+02  0.45594000000E+02  0.51100000000E-03 0. -1.
         11   -1    0    0    0    0 -0.00000000000E+00 -0.00000000000E+00 -0.45593999997E+02  0.45594000000E+02  0.51100000000E-03 0.  1.
    9900012    2    1    2    0    0  0.34598779345E+02 -0.16193613929E+01 -0.26152007157E+02  0.47787247220E+02  0.19999891376E+02 0.  0.
         12    1    1    2    0    0 -0.34598779345E+02  0.16193613929E+01  0.26152007157E+02  0.43400752780E+02  0.00000000000E+00 0. -1.
         11    1    3    3    0    0  0.43191815847E+01  0.40656003193E+01 -0.41174389352E+00  0.59459203503E+01  0.51100000000E-03 0. -1.
        -11    1    3    3    0    0  0.27278093408E+02 -0.85489898864E+00 -0.21660565160E+02  0.34842579060E+02  0.51100000000E-03 0.  1.
         12    1    3    3    0    0  0.30015043530E+01 -0.48300627235E+01 -0.40796981033E+01  0.69987478100E+01  0.00000000000E+00 0. -1.
</event>
<event>
 7    1  0.1265344E-009  0.4778727E+02  0.7816164E-02  0.1312668E+00
        -11   -1    0    0    0    0  0.00000000000E+00  0.00000000000E+00  0.45593999997E+02  0.45594000000E+02  0.51100000000E-03 0. -1.
         11   -1    0    0    0    0 -0.00000000000E+00 -0.00000000000E+00 -0.45593999997E+02  0.45594000000E+02  0.51100000000E-03 0.  1.
    9900012    2    1    2    0    0 -0.13413104038E+02  0.14699449269E+02 -0.38569911985E+02  0.47787270982E+02  0.19999999715E+02 0.  0.
         12    1    1    2    0    0  0.13413104038E+02 -0.14699449269E+02  0.38569911985E+02  0.43400729018E+02  0.00000000000E+00 0. -1.
         11    1    3    3    0    0  0.11911706992E+01 -0.66707452139E+00 -0.76008003928E+00  0.15625613520E+01  0.51100000000E-03 0. -1.
        -11    1    3    3    0    0  0.19439005812E+01  0.71855227695E+01 -0.65208755311E+01  0.98960752267E+01  0.51100000000E-03 0.  1.
        -12    1    3    3    0    0 -0.16548175318E+02  0.81810010210E+01 -0.31288956415E+02  0.36328634403E+02  0.00000000000E+00 0.  1.
</event>
<event>
 7    1  0.1265344E-009  0.4778728E+02  0.7816164E-02  0.1312668E+00
        -11   -1    0    0    0    0  0.00000000000E+00  0.00000000000E+00  0.45593999997E+02  0.45594000000E+02  0.51100000000E-03 0. -1.
         11   -1    0    0    0    0 -0.00000000000E+00 -0.00000000000E+00 -0.45593999997E+02  0.45594000000E+02  0.51100000000E-03 0.  1.
    9900012    2    1    2    0    0  0.16705981349E+02  0.36810238175E+02  0.15796815085E+02  0.47787276341E+02  0.20000024149E+02 0.  0.
         12    1    1    2    0    0 -0.16705981349E+02 -0.36810238175E+02 -0.15796815085E+02  0.43400723659E+02  0.00000000000E+00 0. -1.
         11    1    3    3    0    0 -0.18597614013E+01  0.90677438792E+01  0.43706646743E+01  0.10236474075E+02  0.51100000000E-03 0.  1.
        -11    1    3    3    0    0  0.81765323305E+01  0.40856416376E+01 -0.36962517766E+00  0.91479381052E+01  0.51100000000E-03 0. -1.
         12    1    3    3    0    0  0.10389210419E+02  0.23656852658E+02  0.11795775589E+02  0.28402864161E+02  0.00000000000E+00 0. -1.
</event>
<event>
 7    1  0.1265344E-009  0.4778727E+02  0.7816164E-02  0.1312668E+00
        -11   -1    0    0    0    0  0.00000000000E+00  0.00000000000E+00  0.45593999997E+02  0.45594000000E+02  0.51100000000E-03 0.  1.
         11   -1    0    0    0    0 -0.00000000000E+00 -0.00000000000E+00 -0.45593999997E+02  0.45594000000E+02  0.51100000000E-03 0. -1.
    9900012    2    1    2    0    0  0.83277137756E-02 -0.36395954647E+01  0.43247852033E+02  0.47787269246E+02  0.19999991799E+02 0.  0.
         12    1    1    2    0    0 -0.83277137756E-02  0.36395954647E+01 -0.43247852033E+02  0.43400730754E+02  0.00000000000E+00 0. -1.
         11    1    3    3    0    0 -0.48039466804E+01 -0.57945760668E+01  0.10184686975E+02  0.12664235648E+02  0.51100000000E-03 0. -1.
        -11    1    3    3    0    0 -0.84364752956E+00  0.50232418167E+01  0.10264722901E+02  0.11459024217E+02  0.51100000000E-03 0.  1.
        -12    1    3    3    0    0  0.56559219237E+01 -0.28682612147E+01  0.22798442157E+02  0.23664009381E+02  0.00000000000E+00 0.  1.
</event>
<event>
 7    1  0.1265344E-009  0.4778727E+02  0.7816164E-02  0.1312668E+00
        -11   -1    0    0    0    0  0.00000000000E+00  0.00000000000E+00  0.45593999997E+02  0.45594000000E+02  0.51100000000E-03 0.  1.
         11   -1    0    0    0    0 -0.00000000000E+00 -0.00000000000E+00 -0.45593999997E+02  0.45594000000E+02  0.51100000000E-03 0. -1.
    9900012    2    1    2    0    0  0.56366878964E+01 -0.13542660833E+02  0.40846631584E+02  0.47787271612E+02  0.20000002587E+02 0.  0.
         12    1    1    2    0    0 -0.56366878964E+01  0.13542660833E+02 -0.40846631584E+02  0.43400728388E+02  0.00000000000E+00 0. -1.
         11    1    3    3    0    0  0.42060980075E+01  0.78074984365E+00  0.16722467726E+02  0.17260989482E+02  0.51100000000E-03 0. -1.
        -11    1    3    3    0    0  0.25958057840E+01 -0.59304929885E+01  0.19079696385E+01  0.67490223853E+01  0.51100000000E-03 0.  1.
        -12    1    3    3    0    0 -0.11652158951E+01 -0.83929176879E+01  0.22216194219E+02  0.23777259745E+02  0.00000000000E+00 0.  1.
</event>
<event>
 7    1  0.1265344E-009  0.4778727E+02  0.7816164E-02  0.1312668E+00
        -11   -1    0    0    0    0  0.00000000000E+00  0.00000000000E+00  0.45593999997E+02  0.45594000000E+02  0.51100000000E-03 0. -1.
         11   -1    0    0    0    0 -0.00000000000E+00 -0.00000000000E+00 -0.45593999997E+02  0.45594000000E+02  0.51100000000E-03 0.  1.
    9900012    2    1    2    0    0 -0.41046203343E+02  0.30509928450E+01 -0.13766755902E+02  0.47787274957E+02  0.20000017839E+02 0.  0.
         12    1    1    2    0    0  0.41046203343E+02 -0.30509928450E+01  0.13766755902E+02  0.43400725043E+02  0.00000000000E+00 0. -1.
         11    1    3    3    0    0 -0.21929168211E+02  0.10449069476E+02 -0.35500949697E+01  0.24549432700E+02  0.51100000000E-03 0. -1.
        -11    1    3    3    0    0 -0.13378127047E+02 -0.50662941966E+01 -0.50469145911E+01  0.15169474853E+02  0.51100000000E-03 0.  1.
         12    1    3    3    0    0 -0.57389080848E+01 -0.23317824344E+01 -0.51697463414E+01  0.80683674037E+01  0.00000000000E+00 0. -1.
</event>
<event>
 7    1  0.1265344E-009  0.4778727E+02  0.7816164E-02  0.1312668E+00
        -11   -1    0    0    0    0  0.00000000000E+00  0.00000000000E+00  0.45593999997E+02  0.45594000000E+02  0.51100000000E-03 0.  1.
         11   -1    0    0    0    0 -0.00000000000E+00 -0.00000000000E+00 -0.45593999997E+02  0.45594000000E+02  0.51100000000E-03 0. -1.
    9900012    2    1    2    0    0 -0.28078302172E+02 -0.18504127308E+02  0.27437741400E+02  0.47787269207E+02  0.19999991622E+02 0.  0.
         12    1    1    2    0    0  0.28078302172E+02  0.18504127308E+02 -0.27437741400E+02  0.43400730793E+02  0.00000000000E+00 0. -1.
         11    1    3    3    0    0 -0.17507671316E+02 -0.75509948738E+01  0.17626428194E+02  0.25965882416E+02  0.51100000000E-03 0. -1.
        -11    1    3    3    0    0  0.14635893118E+01 -0.28394120542E+01  0.60285297334E+01  0.68225746969E+01  0.51100000000E-03 0.  1.
         12    1    3    3    0    0 -0.12034220168E+02 -0.81137203799E+01  0.37827834720E+01  0.14998812094E+02  0.00000000000E+00 0. -1.
</event>
<event>
 7    1  0.1265344E-009  0.4778728E+02  0.7816164E-02  0.1312668E+00
        -11   -1    0    0    0    0  0.00000000000E+00  0.00000000000E+00  0.45593999997E+02  0.45594000000E+02  0.51100000000E-03 0.  1.
         11   -1    0    0    0    0 -0.00000000000E+00 -0.00000000000E+00 -0.45593999997E+02  0.45594000000E+02  0.51100000000E-03 0. -1.
    9900012    2    1    2    0    0 -0.58877968795E+01 -0.50452823446E+01  0.42702480194E+02  0.47787276035E+02  0.20000022752E+02 0.  0.
         12    1    1    2    0    0  0.58877968795E+01  0.50452823446E+01 -0.42702480194E+02  0.43400723965E+02  0.00000000000E+00 0. -1.
         11    1    3    3    0    0 -0.35918694694E+01  0.25368073818E+01  0.23036433548E+02  0.23452381304E+02  0.51100000000E-03 0. -1.
        -11    1    3    3    0    0 -0.67718978220E+01 -0.64919133520E+01  0.15531901292E+02  0.18145068120E+02  0.51100000000E-03 0.  1.
        -12    1    3    3    0    0  0.44759704119E+01 -0.10901763745E+01  0.41341453534E+01  0.61898266097E+01  0.00000000000E+00 0.  1.
</event>
<event>
 7    1  0.1265344E-009  0.4778727E+02  0.7816164E-02  0.1312668E+00
        -11   -1    0    0    0    0  0.00000000000E+00  0.00000000000E+00  0.45593999997E+02  0.45594000000E+02  0.51100000000E-03 0. -1.
         11   -1    0    0    0    0 -0.00000000000E+00 -0.00000000000E+00 -0.45593999997E+02  0.45594000000E+02  0.51100000000E-03 0.  1.
    9900012    2    1    2    0    0 -0.36700838165E+02  0.21571996323E+02  0.84451557391E+01  0.47787271863E+02  0.20000003731E+02 0.  0.
         12    1    1    2    0    0  0.36700838165E+02 -0.21571996323E+02 -0.84451557391E+01  0.43400728137E+02  0.00000000000E+00 0. -1.
         11    1    3    3    0    0 -0.14722545207E+02  0.13029734626E+02  0.65715588391E+01  0.20729512962E+02  0.51100000000E-03 0.  1.
        -11    1    3    3    0    0 -0.79316764755E+01  0.77964644788E+01 -0.39930694388E+01  0.11816977358E+02  0.51100000000E-03 0. -1.
         12    1    3    3    0    0 -0.14046616483E+02  0.74579721800E+00  0.58666663387E+01  0.15240781543E+02  0.00000000000E+00 0. -1.
</event>
<event>
 7    1  0.1265344E-009  0.4778727E+02  0.7816164E-02  0.1312668E+00
        -11   -1    0    0    0    0  0.00000000000E+00  0.00000000000E+00  0.45593999997E+02  0.45594000000E+02  0.51100000000E-03 0.  1.
         11   -1    0    0    0    0 -0.00000000000E+00 -0.00000000000E+00 -0.45593999997E+02  0.45594000000E+02  0.51100000000E-03 0. -1.
    9900012    2    1    2    0    0 -0.16577217594E+01  0.24352401421E+02  0.35886424909E+02  0.47787274325E+02  0.20000014956E+02 0.  0.
         12    1    1    2    0    0  0.16577217594E+01 -0.24352401421E+02 -0.35886424909E+02  0.43400725675E+02  0.00000000000E+00 0. -1.
         11    1    3    3    0    0 -0.57162148889E+01  0.19972810290E+01  0.72145699156E+01  0.94188249529E+01  0.51100000000E-03 0. -1.
        -11    1    3    3    0    0  0.15218285759E+01  0.14751172189E+02  0.25976728223E+02  0.29911593950E+02  0.51100000000E-03 0.  1.
         12    1    3    3    0    0  0.25366645536E+01  0.76039482027E+01  0.26951267704E+01  0.84568554224E+01  0.00000000000E+00 0. -1.
</event>
<event>
 7    1  0.1265344E-009  0.4778728E+02  0.7816164E-02  0.1312668E+00
        -11   -1    0    0    0    0  0.00000000000E+00  0.00000000000E+00  0.45593999997E+02  0.45594000000E+02  0.51100000000E-03 0. -1.
         11   -1    0    0    0    0 -0.00000000000E+00 -0.00000000000E+00 -0.45593999997E+02  0.45594000000E+02  0.51100000000E-03 0.  1.
    9900012    2    1    2    0    0 -0.10948856322E+02  0.41689730553E+02 -0.50706661316E+01  0.47787277156E+02  0.20000027865E+02 0.  0.
         12    1    1    2    0    0  0.10948856322E+02 -0.41689730553E+02  0.50706661316E+01  0.43400722844E+02  0.00000000000E+00 0. -1.
         11    1    3    3    0    0 -0.20702249782E+00  0.45136185258E+01  0.56025618515E+01  0.71975211060E+01  0.51100000000E-03 0. -1.
        -11    1    3    3    0    0 -0.69264284326E+01  0.13825132912E+02 -0.50892576494E+01  0.16279135559E+02  0.51100000000E-03 0.  1.
         12    1    3    3    0    0 -0.38154053911E+01  0.23350979116E+02 -0.55839703337E+01  0.24310620491E+02  0.00000000000E+00 0. -1.
</event>
<event>
 7    1  0.1265344E-009  0.4778727E+02  0.7816164E-02  0.1312668E+00
        -11   -1    0    0    0    0  0.00000000000E+00  0.00000000000E+00  0.45593999997E+02  0.45594000000E+02  0.51100000000E-03 0.  1.
         11   -1    0    0    0    0 -0.00000000000E+00 -0.00000000000E+00 -0.45593999997E+02  0.45594000000E+02  0.51100000000E-03 0. -1.
    9900012    2    1    2    0    0  0.44879677602E+01  0.15359758419E+01  0.43140724411E+02  0.47787272136E+02  0.20000004978E+02 0.  0.
         12    1    1    2    0    0 -0.44879677602E+01 -0.15359758419E+01 -0.43140724411E+02  0.43400727864E+02  0.00000000000E+00 0. -1.
         11    1    3    3    0    0 -0.43154573614E+00  0.21415303312E+01  0.10664150521E+01  0.24309720703E+01  0.51100000000E-03 0. -1.
        -11    1    3    3    0    0  0.85957319370E+01 -0.15035980715E+01  0.40194465035E+02  0.41130796666E+02  0.51100000000E-03 0.  1.
        -12    1    3    3    0    0 -0.36762184406E+01  0.89804358221E+00  0.18798443236E+01  0.42255033995E+01  0.00000000000E+00 0.  1.
</event>
<event>
 7    1  0.1453593E-009  0.4778727E+02  0.7816164E-02  0.1312668E+00
        -11   -1    0    0    0    0  0.00000000000E+00  0.00000000000E+00  0.45593999997E+02  0.45594000000E+02  0.51100000000E-03 0.  1.
         11   -1    0    0    0    0 -0.00000000000E+00 -0.00000000000E+00 -0.45593999997E+02  0.45594000000E+02  0.51100000000E-03 0. -1.
    9900012    2    1    2    0    0 -0.34552614708E+02  0.55599106529E+01  0.25667636959E+02  0.47787269860E+02  0.19999994600E+02 0.  0.
         12    1    1    2    0    0  0.34552614708E+02 -0.55599106529E+01 -0.25667636959E+02  0.43400730140E+02  0.00000000000E+00 0. -1.
         11    1    3    3    0    0 -0.13854107467E+02 -0.33488260739E+01  0.11617911685E+02  0.18388224546E+02  0.51100000000E-03 0. -1.
        -11    1    3    3    0    0 -0.18641978709E+02  0.83646009785E+01  0.16421044106E+02  0.26213367001E+02  0.51100000000E-03 0.  1.
         12    1    3    3    0    0 -0.20565285321E+01  0.54413574836E+00 -0.23713188316E+01  0.31856783135E+01  0.00000000000E+00 0. -1.
</event>
<event>
 7    1  0.1265344E-009  0.4778727E+02  0.7816164E-02  0.1312668E+00
        -11   -1    0    0    0    0  0.00000000000E+00  0.00000000000E+00  0.45593999997E+02  0.45594000000E+02  0.51100000000E-03 0.  1.
         11   -1    0    0    0    0 -0.00000000000E+00 -0.00000000000E+00 -0.45593999997E+02  0.45594000000E+02  0.51100000000E-03 0. -1.
    9900012    2    1    2    0    0 -0.29835044652E+01 -0.22347742425E+02  0.37085044093E+02  0.47787269756E+02  0.19999994124E+02 0.  0.
         12    1    1    2    0    0  0.29835044652E+01  0.22347742425E+02 -0.37085044093E+02  0.43400730244E+02  0.00000000000E+00 0. -1.
         11    1    3    3    0    0 -0.38502821897E+01 -0.74561581986E+01  0.64274161036E+01  0.10570271806E+02  0.51100000000E-03 0. -1.
        -11    1    3    3    0    0  0.45252898107E+01 -0.15663739679E+02  0.28671536114E+02  0.32983146788E+02  0.51100000000E-03 0.  1.
         12    1    3    3    0    0 -0.36585120861E+01  0.77215545250E+00  0.19860918749E+01  0.42338511621E+01  0.00000000000E+00 0. -1.
</event>
<event>
 7    1  0.1265344E-009  0.4778726E+02  0.7816164E-02  0.1312668E+00
        -11   -1    0    0    0    0  0.00000000000E+00  0.00000000000E+00  0.45593999997E+02  0.45594000000E+02  0.51100000000E-03 0.  1.
         11   -1    0    0    0    0 -0.00000000000E+00 -0.00000000000E+00 -0.45593999997E+02  0.45594000000E+02  0.51100000000E-03 0. -1.
    9900012    2    1    2    0    0  0.33055403476E+02 -0.27366370741E+02  0.64842908691E+01  0.47787262972E+02  0.19999963196E+02 0.  0.
         12    1    1    2    0    0 -0.33055403476E+02  0.27366370741E+02 -0.64842908691E+01  0.43400737028E+02  0.00000000000E+00 0. -1.
         11    1    3    3    0    0  0.13529860705E+02 -0.70569244513E+01 -0.32526739722E+01  0.15602474215E+02  0.51100000000E-03 0. -1.
        -11    1    3    3    0    0  0.19326783647E+02 -0.15529118964E+02  0.46936285681E+01  0.25233078515E+02  0.51100000000E-03 0.  1.
         12    1    3    3    0    0  0.19875912397E+00 -0.47803273258E+01  0.50433362732E+01  0.69517102425E+01  0.00000000000E+00 0. -1.
</event>
<event>
 7    1  0.1265344E-009  0.4778727E+02  0.7816164E-02  0.1312668E+00
        -11   -1    0    0    0    0  0.00000000000E+00  0.00000000000E+00  0.45593999997E+02  0.45594000000E+02  0.51100000000E-03 0.  1.
         11   -1    0    0    0    0 -0.00000000000E+00 -0.00000000000E+00 -0.45593999997E+02  0.45594000000E+02  0.51100000000E-03 0. -1.
    9900012    2    1    2    0    0  0.40008532769E+02 -0.25089671587E+01  0.16632665143E+02  0.47787272353E+02  0.20000005965E+02 0.  0.
         12    1    1    2    0    0 -0.40008532769E+02  0.25089671587E+01 -0.16632665143E+02  0.43400727647E+02  0.00000000000E+00 0. -1.
         11    1    3    3    0    0  0.86907341267E+01 -0.34438477169E+01  0.31092467308E+01  0.98517187461E+01  0.51100000000E-03 0.  1.
        -11    1    3    3    0    0  0.94755029653E+01  0.79073820554E+01  0.29625450954E+01  0.12692065282E+02  0.51100000000E-03 0. -1.
        -12    1    3    3    0    0  0.21842295677E+02 -0.69725014973E+01  0.10560873317E+02  0.25243488325E+02  0.00000000000E+00 0.  1.
</event>
<event>
 7    1  0.1265344E-009  0.4778727E+02  0.7816164E-02  0.1312668E+00
        -11   -1    0    0    0    0  0.00000000000E+00  0.00000000000E+00  0.45593999997E+02  0.45594000000E+02  0.51100000000E-03 0.  1.
         11   -1    0    0    0    0 -0.00000000000E+00 -0.00000000000E+00 -0.45593999997E+02  0.45594000000E+02  0.51100000000E-03 0. -1.
    9900012    2    1    2    0    0  0.21468912394E+02  0.20708350375E+02  0.31525752730E+02  0.47787273510E+02  0.20000011242E+02 0.  0.
         12    1    1    2    0    0 -0.21468912394E+02 -0.20708350375E+02 -0.31525752730E+02  0.43400726490E+02  0.00000000000E+00 0. -1.
         11    1    3    3    0    0 -0.25418935594E+01  0.33867114159E+01  0.10805374562E+01  0.43701943363E+01  0.51100000000E-03 0. -1.
        -11    1    3    3    0    0  0.17303846007E+01  0.29829343336E+01  0.58707935964E+00  0.34981124253E+01  0.51100000000E-03 0.  1.
        -12    1    3    3    0    0  0.22280421353E+02  0.14338704626E+02  0.29858135914E+02  0.39918966749E+02  0.00000000000E+00 0.  1.
</event>
<event>
 7    1  0.1265344E-009  0.4778731E+02  0.7816164E-02  0.1312668E+00
        -11   -1    0    0    0    0  0.00000000000E+00  0.00000000000E+00  0.45593999997E+02  0.45594000000E+02  0.51100000000E-03 0.  1.
         11   -1    0    0    0    0 -0.00000000000E+00 -0.00000000000E+00 -0.45593999997E+02  0.45594000000E+02  0.51100000000E-03 0. -1.
    9900012    2    1    2    0    0 -0.15869622359E+02  0.23451101118E+02  0.32891043010E+02  0.47787311437E+02  0.20000184166E+02 0.  0.
         12    1    1    2    0    0  0.15869622359E+02 -0.23451101118E+02 -0.32891043010E+02  0.43400688563E+02  0.00000000000E+00 0. -1.
         11    1    3    3    0    0 -0.11506262027E+00  0.59563277568E+01  0.82220130378E+01  0.10153451551E+02  0.51100000000E-03 0. -1.
        -11    1    3    3    0    0 -0.15722175644E+02  0.14327047228E+02  0.11685333690E+02  0.24269283322E+02  0.51100000000E-03 0.  1.
         12    1    3    3    0    0 -0.32384094532E-01  0.31677261335E+01  0.12983696282E+02  0.13364576564E+02  0.00000000000E+00 0. -1.
</event>
<event>
 7    1  0.1265344E-009  0.4778727E+02  0.7816164E-02  0.1312668E+00
        -11   -1    0    0    0    0  0.00000000000E+00  0.00000000000E+00  0.45593999997E+02  0.45594000000E+02  0.51100000000E-03 0.  1.
         11   -1    0    0    0    0 -0.00000000000E+00 -0.00000000000E+00 -0.45593999997E+02  0.45594000000E+02  0.51100000000E-03 0. -1.
    9900012    2    1    2    0    0 -0.29799300812E+02 -0.30311649410E+02  0.87652121909E+01  0.47787270011E+02  0.19999995286E+02 0.  0.
         12    1    1    2    0    0  0.29799300812E+02  0.30311649410E+02 -0.87652121909E+01  0.43400729989E+02  0.00000000000E+00 0. -1.
         11    1    3    3    0    0 -0.13429797929E+02 -0.60529089021E+01 -0.27646461872E+01  0.14988010121E+02  0.51100000000E-03 0. -1.
        -11    1    3    3    0    0 -0.11072067949E+02 -0.16679581520E+02  0.30465711421E+01  0.20250449979E+02  0.51100000000E-03 0.  1.
         12    1    3    3    0    0 -0.52974349334E+01 -0.75791589884E+01  0.84832872359E+01  0.12548809911E+02  0.00000000000E+00 0. -1.
</event>
<event>
 7    1  0.1265344E-009  0.4778727E+02  0.7816164E-02  0.1312668E+00
        -11   -1    0    0    0    0  0.00000000000E+00  0.00000000000E+00  0.45593999997E+02  0.45594000000E+02  0.51100000000E-03 0. -1.
         11   -1    0    0    0    0 -0.00000000000E+00 -0.00000000000E+00 -0.45593999997E+02  0.45594000000E+02  0.51100000000E-03 0.  1.
    9900012    2    1    2    0    0  0.21512514187E+02  0.37141511287E+02  0.64298852969E+01  0.47787267838E+02  0.19999985379E+02 0.  0.
         12    1    1    2    0    0 -0.21512514187E+02 -0.37141511287E+02 -0.64298852969E+01  0.43400732162E+02  0.00000000000E+00 0. -1.
         11    1    3    3    0    0  0.62252780778E+00  0.46633630433E+01 -0.40245093228E+01  0.61912172709E+01  0.51100000000E-03 0. -1.
        -11    1    3    3    0    0  0.12355053440E+02  0.90456100029E+01  0.35291520024E+01  0.15713857577E+02  0.51100000000E-03 0.  1.
        -12    1    3    3    0    0  0.85349329390E+01  0.23432538240E+02  0.69252426173E+01  0.25882192990E+02  0.00000000000E+00 0.  1.
</event>
<event>
 7    1  0.1265344E-009  0.4778727E+02  0.7816164E-02  0.1312668E+00
        -11   -1    0    0    0    0  0.00000000000E+00  0.00000000000E+00  0.45593999997E+02  0.45594000000E+02  0.51100000000E-03 0.  1.
         11   -1    0    0    0    0 -0.00000000000E+00 -0.00000000000E+00 -0.45593999997E+02  0.45594000000E+02  0.51100000000E-03 0. -1.
    9900012    2    1    2    0    0  0.43256029793E+02 -0.35047669806E+01  0.50567834946E+00  0.47787271715E+02  0.20000003059E+02 0.  0.
         12    1    1    2    0    0 -0.43256029793E+02  0.35047669806E+01 -0.50567834946E+00  0.43400728285E+02  0.00000000000E+00 0. -1.
         11    1    3    3    0    0  0.24892565732E+02 -0.78163864631E+00 -0.57911929137E+01  0.25569292195E+02  0.51100000000E-03 0. -1.
        -11    1    3    3    0    0  0.18813179951E+02 -0.46079371142E+01  0.57213439369E+01  0.20196598749E+02  0.51100000000E-03 0.  1.
         12    1    3    3    0    0 -0.44971589061E+00  0.18848087800E+01  0.57552732634E+00  0.20213807713E+01  0.00000000000E+00 0. -1.
</event>
<event>
 7    1  0.1265344E-009  0.4778727E+02  0.7816164E-02  0.1312668E+00
        -11   -1    0    0    0    0  0.00000000000E+00  0.00000000000E+00  0.45593999997E+02  0.45594000000E+02  0.51100000000E-03 0. -1.
         11   -1    0    0    0    0 -0.00000000000E+00 -0.00000000000E+00 -0.45593999997E+02  0.45594000000E+02  0.51100000000E-03 0.  1.
    9900012    2    1    2    0    0 -0.33167145721E+02  0.17909658211E+02 -0.21512976091E+02  0.47787267831E+02  0.19999985351E+02 0.  0.
         12    1    1    2    0    0  0.33167145721E+02 -0.17909658211E+02  0.21512976091E+02  0.43400732169E+02  0.00000000000E+00 0. -1.
         11    1    3    3    0    0 -0.26127744878E+02  0.80084227072E+01 -0.11248370869E+02  0.29551983591E+02  0.51100000000E-03 0. -1.
        -11    1    3    3    0    0 -0.58529782627E+01  0.84944757994E+01 -0.30026817590E+01  0.10743815507E+02  0.51100000000E-03 0.  1.
        -12    1    3    3    0    0 -0.11864225797E+01  0.14067597040E+01 -0.72619234627E+01  0.74914687332E+01  0.00000000000E+00 0.  1.
</event>
<event>
 7    1  0.1265344E-009  0.4778727E+02  0.7816164E-02  0.1312668E+00
        -11   -1    0    0    0    0  0.00000000000E+00  0.00000000000E+00  0.45593999997E+02  0.45594000000E+02  0.51100000000E-03 0.  1.
         11   -1    0    0    0    0 -0.00000000000E+00 -0.00000000000E+00 -0.45593999997E+02  0.45594000000E+02  0.51100000000E-03 0. -1.
    9900012    2    1    2    0    0 -0.35893825846E+02  0.15188799309E+02  0.19093371120E+02  0.47787272137E+02  0.20000004979E+02 0.  0.
         12    1    1    2    0    0  0.35893825846E+02 -0.15188799309E+02 -0.19093371120E+02  0.43400727863E+02  0.00000000000E+00 0. -1.
         11    1    3    3    0    0 -0.57128740086E+01  0.84344667823E+00  0.15205256837E+01  0.59716271110E+01  0.51100000000E-03 0. -1.
        -11    1    3    3    0    0 -0.21334258456E+02  0.60649936521E+01  0.19516262268E+02  0.29543514094E+02  0.51100000000E-03 0.  1.
         12    1    3    3    0    0 -0.88466933823E+01  0.82803589787E+01 -0.19434168315E+01  0.12272130931E+02  0.00000000000E+00 0. -1.
</event>
<event>
 7    1  0.1265344E-009  0.4778727E+02  0.7816164E-02  0.1312668E+00
        -11   -1    0    0    0    0  0.00000000000E+00  0.00000000000E+00  0.45593999997E+02  0.45594000000E+02  0.51100000000E-03 0.  1.
         11   -1    0    0    0    0 -0.00000000000E+00 -0.00000000000E+00 -0.45593999997E+02  0.45594000000E+02  0.51100000000E-03 0. -1.
    9900012    2    1    2    0    0 -0.13701612569E+02  0.29891652966E+02  0.28326278237E+02  0.47787272555E+02  0.20000006886E+02 0.  0.
         12    1    1    2    0    0  0.13701612569E+02 -0.29891652966E+02 -0.28326278237E+02  0.43400727445E+02  0.00000000000E+00 0. -1.
         11    1    3    3    0    0 -0.98121503696E+01  0.84504432931E+01  0.91725420528E+01  0.15868957581E+02  0.51100000000E-03 0. -1.
        -11    1    3    3    0    0 -0.80133357193E+01  0.13867476992E+02  0.16256626971E+02  0.22821007608E+02  0.51100000000E-03 0.  1.
         12    1    3    3    0    0  0.41238735202E+01  0.75737326804E+01  0.28971092133E+01  0.90973073664E+01  0.00000000000E+00 0. -1.
</event>
<event>
 7    1  0.1265344E-009  0.4778727E+02  0.7816164E-02  0.1312668E+00
        -11   -1    0    0    0    0  0.00000000000E+00  0.00000000000E+00  0.45593999997E+02  0.45594000000E+02  0.51100000000E-03 0.  1.
         11   -1    0    0    0    0 -0.00000000000E+00 -0.00000000000E+00 -0.45593999997E+02  0.45594000000E+02  0.51100000000E-03 0. -1.
    9900012    2    1    2    0    0  0.33027788768E+02  0.10850852083E+02  0.25981677852E+02  0.47787269524E+02  0.19999993068E+02 0.  0.
         12    1    1    2    0    0 -0.33027788768E+02 -0.10850852083E+02 -0.25981677852E+02  0.43400730476E+02  0.00000000000E+00 0. -1.
         11    1    3    3    0    0  0.78825228437E+00 -0.36466733631E+00  0.66031771809E+01  0.66600505309E+01  0.51100000000E-03 0. -1.
        -11    1    3    3    0    0  0.15939387471E+02  0.11971296735E+02  0.11393875998E+02  0.22960758458E+02  0.51100000000E-03 0.  1.
        -12    1    3    3    0    0  0.16300149012E+02 -0.75577731554E+00  0.79846246739E+01  0.18166460535E+02  0.00000000000E+00 0.  1.
</event>
<event>
 7    1  0.1265344E-009  0.4778725E+02  0.7816164E-02  0.1312668E+00
        -11   -1    0    0    0    0  0.00000000000E+00  0.00000000000E+00  0.45593999997E+02  0.45594000000E+02  0.51100000000E-03 0.  1.
         11   -1    0    0    0    0 -0.00000000000E+00 -0.00000000000E+00 -0.45593999997E+02  0.45594000000E+02  0.51100000000E-03 0. -1.
    9900012    2    1    2    0    0  0.11089333043E+02 -0.40916022578E+02  0.93022042121E+01  0.47787248691E+02  0.19999898082E+02 0.  0.
         12    1    1    2    0    0 -0.11089333043E+02  0.40916022578E+02 -0.93022042121E+01  0.43400751309E+02  0.00000000000E+00 0. -1.
         11    1    3    3    0    0 -0.43689527749E+00 -0.98212856930E+00 -0.39553094847E+01  0.40987714490E+01  0.51100000000E-03 0. -1.
        -11    1    3    3    0    0  0.43704998329E+01 -0.14801778925E+02  0.37589904423E+01  0.15884707663E+02  0.51100000000E-03 0.  1.
         12    1    3    3    0    0  0.71557284878E+01 -0.25132115085E+02  0.94985232545E+01  0.27803769580E+02  0.00000000000E+00 0. -1.
</event>
<event>
 7    1  0.1265344E-009  0.4778727E+02  0.7816164E-02  0.1312668E+00
        -11   -1    0    0    0    0  0.00000000000E+00  0.00000000000E+00  0.45593999997E+02  0.45594000000E+02  0.51100000000E-03 0.  1.
         11   -1    0    0    0    0 -0.00000000000E+00 -0.00000000000E+00 -0.45593999997E+02  0.45594000000E+02  0.51100000000E-03 0. -1.
    9900012    2    1    2    0    0  0.21923282981E+02  0.28267089792E+02  0.24575688060E+02  0.47787272523E+02  0.20000006739E+02 0.  0.
         12    1    1    2    0    0 -0.21923282981E+02 -0.28267089792E+02 -0.24575688060E+02  0.43400727477E+02  0.00000000000E+00 0. -1.
         11    1    3    3    0    0 -0.22248402732E+01 -0.71148449024E+00  0.31938523861E+01  0.39568696903E+01  0.51100000000E-03 0. -1.
        -11    1    3    3    0    0  0.10066787714E+02  0.74109346858E+01  0.67181601527E+01  0.14191400350E+02  0.51100000000E-03 0.  1.
         12    1    3    3    0    0  0.14081335540E+02  0.21567639596E+02  0.14663675521E+02  0.29639002482E+02  0.00000000000E+00 0. -1.
</event>
<event>
 7    1  0.1265344E-009  0.4778728E+02  0.7816164E-02  0.1312668E+00
        -11   -1    0    0    0    0  0.00000000000E+00  0.00000000000E+00  0.45593999997E+02  0.45594000000E+02  0.51100000000E-03 0.  1.
         11   -1    0    0    0    0 -0.00000000000E+00 -0.00000000000E+00 -0.45593999997E+02  0.45594000000E+02  0.51100000000E-03 0. -1.
    9900012    2    1    2    0    0 -0.32924790467E+02  0.28259039936E+02 -0.10036414115E+01  0.47787280404E+02  0.20000042674E+02 0.  0.
         12    1    1    2    0    0  0.32924790467E+02 -0.28259039936E+02  0.10036414115E+01  0.43400719596E+02  0.00000000000E+00 0. -1.
         11    1    3    3    0    0 -0.19947168007E+02  0.20434544833E+02 -0.40347309050E+01  0.28839888831E+02  0.51100000000E-03 0. -1.
        -11    1    3    3    0    0 -0.12473420921E+02  0.99357600208E+01  0.41879677426E+01  0.16487711507E+02  0.51100000000E-03 0.  1.
         12    1    3    3    0    0 -0.50420153870E+00 -0.21112649180E+01 -0.11568782491E+01  0.24596800663E+01  0.00000000000E+00 0. -1.
</event>
<event>
 7    1  0.1265344E-009  0.4778727E+02  0.7816164E-02  0.1312668E+00
        -11   -1    0    0    0    0  0.00000000000E+00  0.00000000000E+00  0.45593999997E+02  0.45594000000E+02  0.51100000000E-03 0.  1.
         11   -1    0    0    0    0 -0.00000000000E+00 -0.00000000000E+00 -0.45593999997E+02  0.45594000000E+02  0.51100000000E-03 0. -1.
    9900012    2    1    2    0    0 -0.14975588240E+01  0.15346920414E+02  0.40569106987E+02  0.47787273158E+02  0.20000009638E+02 0.  0.
         12    1    1    2    0    0  0.14975588240E+01 -0.15346920414E+02 -0.40569106987E+02  0.43400726842E+02  0.00000000000E+00 0. -1.
         11    1    3    3    0    0 -0.41400843275E+01  0.20298066193E+00  0.15412200107E+02  0.15959868790E+02  0.51100000000E-03 0.  1.
        -11    1    3    3    0    0 -0.46971187515E+01  0.49568518748E+01  0.72775283970E+01  0.99797657740E+01  0.51100000000E-03 0. -1.
        -12    1    3    3    0    0  0.73396442550E+01  0.10187087877E+02  0.17879378484E+02  0.21847638595E+02  0.00000000000E+00 0.  1.
</event>
<event>
 7    1  0.1265344E-009  0.4778728E+02  0.7816164E-02  0.1312668E+00
        -11   -1    0    0    0    0  0.00000000000E+00  0.00000000000E+00  0.45593999997E+02  0.45594000000E+02  0.51100000000E-03 0.  1.
         11   -1    0    0    0    0 -0.00000000000E+00 -0.00000000000E+00 -0.45593999997E+02  0.45594000000E+02  0.51100000000E-03 0. -1.
    9900012    2    1    2    0    0  0.29420602412E+02  0.11292974192E+02  0.29841576205E+02  0.47787276702E+02  0.20000025795E+02 0.  0.
         12    1    1    2    0    0 -0.29420602412E+02 -0.11292974192E+02 -0.29841576205E+02  0.43400723298E+02  0.00000000000E+00 0. -1.
         11    1    3    3    0    0  0.37132450356E+01  0.56521879835E+01  0.18440322779E+01  0.70096984955E+01  0.51100000000E-03 0. -1.
        -11    1    3    3    0    0  0.20661684465E+01  0.45711535393E+00 -0.15204747305E+01  0.26057340930E+01  0.51100000000E-03 0.  1.
        -12    1    3    3    0    0  0.23641188930E+02  0.51836708549E+01  0.29518018658E+02  0.38171844113E+02  0.00000000000E+00 0.  1.
</event>
<event>
 7    1  0.1265344E-009  0.4778728E+02  0.7816164E-02  0.1312668E+00
        -11   -1    0    0    0    0  0.00000000000E+00  0.00000000000E+00  0.45593999997E+02  0.45594000000E+02  0.51100000000E-03 0.  1.
         11   -1    0    0    0    0 -0.00000000000E+00 -0.00000000000E+00 -0.45593999997E+02  0.45594000000E+02  0.51100000000E-03 0. -1.
    9900012    2    1    2    0    0 -0.70582675770E+01  0.41123759785E+00  0.42820959085E+02  0.47787276567E+02  0.20000025180E+02 0.  0.
         12    1    1    2    0    0  0.70582675770E+01 -0.41123759785E+00 -0.42820959085E+02  0.43400723433E+02  0.00000000000E+00 0. -1.
         11    1    3    3    0    0  0.31374626587E+01 -0.42826307065E+01  0.63262293581E+01  0.82586788203E+01  0.51100000000E-03 0. -1.
        -11    1    3    3    0    0  0.13719722337E+01  0.24252910058E+01  0.12343101992E+02  0.12653715317E+02  0.51100000000E-03 0.  1.
         12    1    3    3    0    0 -0.11567702469E+02  0.22685772985E+01  0.24151627735E+02  0.26874882430E+02  0.00000000000E+00 0. -1.
</event>
<event>
 7    1  0.1265344E-009  0.4778728E+02  0.7816164E-02  0.1312668E+00
        -11   -1    0    0    0    0  0.00000000000E+00  0.00000000000E+00  0.45593999997E+02  0.45594000000E+02  0.51100000000E-03 0. -1.
         11   -1    0    0    0    0 -0.00000000000E+00 -0.00000000000E+00 -0.45593999997E+02  0.45594000000E+02  0.51100000000E-03 0.  1.
    9900012    2    1    2    0    0 -0.27729922506E+02 -0.26406209135E+02 -0.20430023775E+02  0.47787281636E+02  0.20000048289E+02 0.  0.
         12    1    1    2    0    0  0.27729922506E+02  0.26406209135E+02  0.20430023775E+02  0.43400718364E+02  0.00000000000E+00 0. -1.
         11    1    3    3    0    0 -0.56615288296E+00 -0.79367393886E+01 -0.65108440255E+01  0.10281218381E+02  0.51100000000E-03 0. -1.
        -11    1    3    3    0    0 -0.14692555881E+02 -0.35853074546E+01 -0.37298817935E+01  0.15576830433E+02  0.51100000000E-03 0.  1.
         12    1    3    3    0    0 -0.12471213742E+02 -0.14884162292E+02 -0.10189297956E+02  0.21929232822E+02  0.00000000000E+00 0. -1.
</event>
<event>
 7    1  0.1265344E-009  0.4778728E+02  0.7816164E-02  0.1312668E+00
        -11   -1    0    0    0    0  0.00000000000E+00  0.00000000000E+00  0.45593999997E+02  0.45594000000E+02  0.51100000000E-03 0. -1.
         11   -1    0    0    0    0 -0.00000000000E+00 -0.00000000000E+00 -0.45593999997E+02  0.45594000000E+02  0.51100000000E-03 0.  1.
    9900012    2    1    2    0    0  0.56370559650E+01  0.40789883168E+02 -0.13712461351E+02  0.47787279210E+02  0.20000037228E+02 0.  0.
         12    1    1    2    0    0 -0.56370559650E+01 -0.40789883168E+02  0.13712461351E+02  0.43400720790E+02  0.00000000000E+00 0. -1.
         11    1    3    3    0    0  0.65167599922E+01  0.31135469421E+02 -0.13650323373E+02  0.34615270407E+02  0.51100000000E-03 0.  1.
        -11    1    3    3    0    0 -0.75257927024E+00  0.78290503451E+00 -0.34940897654E+01  0.36589587864E+01  0.51100000000E-03 0. -1.
        -12    1    3    3    0    0 -0.12712475695E+00  0.88715087128E+01  0.34319517880E+01  0.95130500167E+01  0.00000000000E+00 0.  1.
</event>
<event>
 7    1  0.1265344E-009  0.4778725E+02  0.7816164E-02  0.1312668E+00
        -11   -1    0    0    0    0  0.00000000000E+00  0.00000000000E+00  0.45593999997E+02  0.45594000000E+02  0.51100000000E-03 0.  1.
         11   -1    0    0    0    0 -0.00000000000E+00 -0.00000000000E+00 -0.45593999997E+02  0.45594000000E+02  0.51100000000E-03 0. -1.
    9900012    2    1    2    0    0 -0.94044912167E+01  0.83125120422E+01  0.41546155379E+02  0.47787247262E+02  0.19999891565E+02 0.  0.
         12    1    1    2    0    0  0.94044912167E+01 -0.83125120422E+01 -0.41546155379E+02  0.43400752738E+02  0.00000000000E+00 0. -1.
         11    1    3    3    0    0 -0.76648834918E+01  0.11865860078E+02  0.24497897796E+02  0.28278897981E+02  0.51100000000E-03 0. -1.
        -11    1    3    3    0    0 -0.50759537900E+01 -0.29430611755E+01  0.86618602323E+01  0.10462061886E+02  0.51100000000E-03 0.  1.
        -12    1    3    3    0    0  0.33363460652E+01 -0.61028685981E+00  0.83863973501E+01  0.90462873949E+01  0.00000000000E+00 0.  1.
</event>
<event>
 7    1  0.1265344E-009  0.4778727E+02  0.7816164E-02  0.1312668E+00
        -11   -1    0    0    0    0  0.00000000000E+00  0.00000000000E+00  0.45593999997E+02  0.45594000000E+02  0.51100000000E-03 0.  1.
         11   -1    0    0    0    0 -0.00000000000E+00 -0.00000000000E+00 -0.45593999997E+02  0.45594000000E+02  0.51100000000E-03 0. -1.
    9900012    2    1    2    0    0 -0.58259205853E+01 -0.42942043493E+02  0.23796570958E+01  0.47787271690E+02  0.20000002942E+02 0.  0.
         12    1    1    2    0    0  0.58259205853E+01  0.42942043493E+02 -0.23796570958E+01  0.43400728310E+02  0.00000000000E+00 0. -1.
         11    1    3    3    0    0 -0.61253639351E+01 -0.67520798415E+01  0.11808058160E+01  0.91926583837E+01  0.51100000000E-03 0. -1.
        -11    1    3    3    0    0 -0.59872172182E+01 -0.20368233236E+02  0.31339188938E+01  0.21460035952E+02  0.51100000000E-03 0.  1.
         12    1    3    3    0    0  0.62866605679E+01 -0.15821730415E+02 -0.19350676140E+01  0.17134577354E+02  0.00000000000E+00 0. -1.
</event>
<event>
 7    1  0.1265344E-009  0.4778727E+02  0.7816164E-02  0.1312668E+00
        -11   -1    0    0    0    0  0.00000000000E+00  0.00000000000E+00  0.45593999997E+02  0.45594000000E+02  0.51100000000E-03 0.  1.
         11   -1    0    0    0    0 -0.00000000000E+00 -0.00000000000E+00 -0.45593999997E+02  0.45594000000E+02  0.51100000000E-03 0. -1.
    9900012    2    1    2    0    0  0.18219917121E+02  0.34521947519E+02  0.18970847896E+02  0.47787270625E+02  0.19999998087E+02 0.  0.
         12    1    1    2    0    0 -0.18219917121E+02 -0.34521947519E+02 -0.18970847896E+02  0.43400729375E+02  0.00000000000E+00 0. -1.
         11    1    3    3    0    0 -0.10200325032E+01  0.32037713784E+01  0.24598037134E+01  0.41659635047E+01  0.51100000000E-03 0. -1.
        -11    1    3    3    0    0  0.22283139099E+02  0.26011315067E+02  0.13708413827E+02  0.36892376035E+02  0.51100000000E-03 0.  1.
        -12    1    3    3    0    0 -0.30431894750E+01  0.53068610736E+01  0.28026303559E+01  0.67289310850E+01  0.00000000000E+00 0.  1.
</event>
<event>
 7    1  0.1265344E-009  0.4778727E+02  0.7816164E-02  0.1312668E+00
        -11   -1    0    0    0    0  0.00000000000E+00  0.00000000000E+00  0.45593999997E+02  0.45594000000E+02  0.51100000000E-03 0.  1.
         11   -1    0    0    0    0 -0.00000000000E+00 -0.00000000000E+00 -0.45593999997E+02  0.45594000000E+02  0.51100000000E-03 0. -1.
    9900012    2    1    2    0    0 -0.44794466602E+01  0.13408291281E+02  0.41033836417E+02  0.47787269032E+02  0.19999990823E+02 0.  0.
         12    1    1    2    0    0  0.44794466602E+01 -0.13408291281E+02 -0.41033836417E+02  0.43400730968E+02  0.00000000000E+00 0. -1.
         11    1    3    3    0    0 -0.53084006941E+01  0.10638139746E+02  0.97462729252E+01  0.15373320116E+02  0.51100000000E-03 0. -1.
        -11    1    3    3    0    0  0.54269320683E+00  0.55755015811E+01  0.19109116035E+02  0.19913288269E+02  0.51100000000E-03 0.  1.
         12    1    3    3    0    0  0.28626082711E+00 -0.28053500461E+01  0.12178447457E+02  0.12500660647E+02  0.00000000000E+00 0. -1.
</event>
<event>
 7    1  0.1265344E-009  0.4778727E+02  0.7816164E-02  0.1312668E+00
        -11   -1    0    0    0    0  0.00000000000E+00  0.00000000000E+00  0.45593999997E+02  0.45594000000E+02  0.51100000000E-03 0.  1.
         11   -1    0    0    0    0 -0.00000000000E+00 -0.00000000000E+00 -0.45593999997E+02  0.45594000000E+02  0.51100000000E-03 0. -1.
    9900012    2    1    2    0    0  0.23419367301E+02 -0.36076370199E+02  0.58010579764E+01  0.47787268150E+02  0.19999986802E+02 0.  0.
         12    1    1    2    0    0 -0.23419367301E+02  0.36076370199E+02 -0.58010579764E+01  0.43400731850E+02  0.00000000000E+00 0. -1.
         11    1    3    3    0    0  0.10302346076E+02 -0.13129046189E+02 -0.56797073166E+01  0.17628648955E+02  0.51100000000E-03 0. -1.
        -11    1    3    3    0    0  0.38550239197E+01 -0.79770642324E+01 -0.48519462801E+00  0.88730027205E+01  0.51100000000E-03 0.  1.
        -12    1    3    3    0    0  0.92619973053E+01 -0.14970259777E+02  0.11965959921E+02  0.21285616475E+02  0.00000000000E+00 0.  1.
</event>
<event>
 7    1  0.1265344E-009  0.4778727E+02  0.7816164E-02  0.1312668E+00
        -11   -1    0    0    0    0  0.00000000000E+00  0.00000000000E+00  0.45593999997E+02  0.45594000000E+02  0.51100000000E-03 0.  1.
         11   -1    0    0    0    0 -0.00000000000E+00 -0.00000000000E+00 -0.45593999997E+02  0.45594000000E+02  0.51100000000E-03 0. -1.
    9900012    2    1    2    0    0 -0.22740508245E+02 -0.18287973091E+02  0.32125424262E+02  0.47787267759E+02  0.19999985020E+02 0.  0.
         12    1    1    2    0    0  0.22740508245E+02  0.18287973091E+02 -0.32125424262E+02  0.43400732241E+02  0.00000000000E+00 0. -1.
         11    1    3    3    0    0  0.95825744284E+00 -0.82249737280E+01  0.48205643354E+01  0.95815599422E+01  0.51100000000E-03 0. -1.
        -11    1    3    3    0    0 -0.21628853569E+01 -0.28267794120E+01  0.16077603207E+01  0.39055919425E+01  0.51100000000E-03 0.  1.
        -12    1    3    3    0    0 -0.21535880331E+02 -0.72362199511E+01  0.25697099606E+02  0.34300115874E+02  0.00000000000E+00 0.  1.
</event>
<event>
 7    1  0.1265344E-009  0.4778727E+02  0.7816164E-02  0.1312668E+00
        -11   -1    0    0    0    0  0.00000000000E+00  0.00000000000E+00  0.45593999997E+02  0.45594000000E+02  0.51100000000E-03 0. -1.
         11   -1    0    0    0    0 -0.00000000000E+00 -0.00000000000E+00 -0.45593999997E+02  0.45594000000E+02  0.51100000000E-03 0.  1.
    9900012    2    1    2    0    0 -0.20012201962E+02  0.58180484382E+01 -0.38069479966E+02  0.47787271666E+02  0.20000002835E+02 0.  0.
         12    1    1    2    0    0  0.20012201962E+02 -0.58180484382E+01  0.38069479966E+02  0.43400728334E+02  0.00000000000E+00 0. -1.
         11    1    3    3    0    0 -0.13277916551E+02 -0.33588026082E+01 -0.13261607140E+02  0.19064491787E+02  0.51100000000E-03 0. -1.
        -11    1    3    3    0    0  0.36289062189E+00  0.40336138416E+00 -0.10435516834E+02  0.10449612522E+02  0.51100000000E-03 0.  1.
        -12    1    3    3    0    0 -0.70971760327E+01  0.87734896623E+01 -0.14372355992E+02  0.18273167357E+02  0.00000000000E+00 0.  1.
</event>
<event>
 7    1  0.1265344E-009  0.4778728E+02  0.7816164E-02  0.1312668E+00
        -11   -1    0    0    0    0  0.00000000000E+00  0.00000000000E+00  0.45593999997E+02  0.45594000000E+02  0.51100000000E-03 0.  1.
         11   -1    0    0    0    0 -0.00000000000E+00 -0.00000000000E+00 -0.45593999997E+02  0.45594000000E+02  0.51100000000E-03 0. -1.
    9900012    2    1    2    0    0  0.26985557873E+01  0.32498872139E+02  0.28638506100E+02  0.47787275061E+02  0.20000018312E+02 0.  0.
         12    1    1    2    0    0 -0.26985557873E+01 -0.32498872139E+02 -0.28638506100E+02  0.43400724939E+02  0.00000000000E+00 0. -1.
         11    1    3    3    0    0  0.26054748151E+01  0.14637200588E+02  0.20458671106E+02  0.25290183150E+02  0.51100000000E-03 0. -1.
        -11    1    3    3    0    0  0.42636696476E+01  0.15592994183E+02  0.69258178201E+01  0.17586565873E+02  0.51100000000E-03 0.  1.
        -12    1    3    3    0    0 -0.41705886755E+01  0.22686773670E+01  0.12540171734E+01  0.49105260377E+01  0.00000000000E+00 0.  1.
</event>
<event>
 7    1  0.1265344E-009  0.4778726E+02  0.7816164E-02  0.1312668E+00
        -11   -1    0    0    0    0  0.00000000000E+00  0.00000000000E+00  0.45593999997E+02  0.45594000000E+02  0.51100000000E-03 0.  1.
         11   -1    0    0    0    0 -0.00000000000E+00 -0.00000000000E+00 -0.45593999997E+02  0.45594000000E+02  0.51100000000E-03 0. -1.
    9900012    2    1    2    0    0 -0.11738140738E+02 -0.95333705998E+01  0.40681135719E+02  0.47787263758E+02  0.19999966777E+02 0.  0.
         12    1    1    2    0    0  0.11738140738E+02  0.95333705998E+01 -0.40681135719E+02  0.43400736242E+02  0.00000000000E+00 0. -1.
         11    1    3    3    0    0 -0.15162228953E+02 -0.61912715706E+01  0.33317866203E+02  0.37125533519E+02  0.51100000000E-03 0.  1.
        -11    1    3    3    0    0 -0.17356081778E+00 -0.22312079601E+01 -0.16535602903E+00  0.22440488400E+01  0.51100000000E-03 0. -1.
         12    1    3    3    0    0  0.35976490332E+01 -0.11108910691E+01  0.75286255451E+01  0.84176813988E+01  0.00000000000E+00 0. -1.
</event>
<event>
 7    1  0.1265344E-009  0.4778727E+02  0.7816164E-02  0.1312668E+00
        -11   -1    0    0    0    0  0.00000000000E+00  0.00000000000E+00  0.45593999997E+02  0.45594000000E+02  0.51100000000E-03 0. -1.
         11   -1    0    0    0    0 -0.00000000000E+00 -0.00000000000E+00 -0.45593999997E+02  0.45594000000E+02  0.51100000000E-03 0.  1.
    9900012    2    1    2    0    0 -0.32880444912E+02 -0.26876580904E+02 -0.89526023241E+01  0.47787270201E+02  0.19999996156E+02 0.  0.
         12    1    1    2    0    0  0.32880444912E+02  0.26876580904E+02  0.89526023241E+01  0.43400729799E+02  0.00000000000E+00 0. -1.
         11    1    3    3    0    0  0.30781468607E+00 -0.30633764656E+01 -0.36959176284E+00  0.31009068969E+01  0.51100000000E-03 0. -1.
        -11    1    3    3    0    0 -0.28481208246E+02 -0.22275758633E+02 -0.12620635107E+02  0.38297115774E+02  0.51100000000E-03 0.  1.
         12    1    3    3    0    0 -0.47070513518E+01 -0.15374458047E+01  0.40376245457E+01  0.63892475303E+01  0.00000000000E+00 0. -1.
</event>
<event>
 7    1  0.1818297E-009  0.4778727E+02  0.7816164E-02  0.1312668E+00
        -11   -1    0    0    0    0  0.00000000000E+00  0.00000000000E+00  0.45593999997E+02  0.45594000000E+02  0.51100000000E-03 0. -1.
         11   -1    0    0    0    0 -0.00000000000E+00 -0.00000000000E+00 -0.45593999997E+02  0.45594000000E+02  0.51100000000E-03 0.  1.
    9900012    2    1    2    0    0 -0.17282258467E+02 -0.93762783347E+00 -0.39800348792E+02  0.47787269964E+02  0.19999995074E+02 0.  0.
         12    1    1    2    0    0  0.17282258467E+02  0.93762783347E+00  0.39800348792E+02  0.43400730036E+02  0.00000000000E+00 0. -1.
         11    1    3    3    0    0 -0.59293211967E+01 -0.44455620992E+01 -0.10187934167E+02  0.12598169513E+02  0.51100000000E-03 0. -1.
        -11    1    3    3    0    0 -0.11118760957E+02  0.54501618753E+01 -0.30590690030E+02  0.33001839744E+02  0.51100000000E-03 0.  1.
         12    1    3    3    0    0 -0.23417631342E+00 -0.19422276095E+01  0.97827540487E+00  0.21872607071E+01  0.00000000000E+00 0. -1.
</event>
<event>
 7    1  0.1265344E-009  0.4778727E+02  0.7816164E-02  0.1312668E+00
        -11   -1    0    0    0    0  0.00000000000E+00  0.00000000000E+00  0.45593999997E+02  0.45594000000E+02  0.51100000000E-03 0. -1.
         11   -1    0    0    0    0 -0.00000000000E+00 -0.00000000000E+00 -0.45593999997E+02  0.45594000000E+02  0.51100000000E-03 0.  1.
    9900012    2    1    2    0    0  0.19183861614E+02  0.36016403107E+02 -0.14779080022E+02  0.47787273675E+02  0.20000011995E+02 0.  0.
         12    1    1    2    0    0 -0.19183861614E+02 -0.36016403107E+02  0.14779080022E+02  0.43400726325E+02  0.00000000000E+00 0. -1.
         11    1    3    3    0    0  0.15400926886E+02  0.24404230811E+02 -0.25075754696E+01  0.28966238372E+02  0.51100000000E-03 0.  1.
        -11    1    3    3    0    0  0.88949982484E+00 -0.82020843770E+00 -0.23890125457E+01  0.26779344698E+01  0.51100000000E-03 0. -1.
        -12    1    3    3    0    0  0.28934349026E+01  0.12432380734E+02 -0.98824920070E+01  0.16143100833E+02  0.00000000000E+00 0.  1.
</event>
<event>
 7    1  0.1265344E-009  0.4778727E+02  0.7816164E-02  0.1312668E+00
        -11   -1    0    0    0    0  0.00000000000E+00  0.00000000000E+00  0.45593999997E+02  0.45594000000E+02  0.51100000000E-03 0.  1.
         11   -1    0    0    0    0 -0.00000000000E+00 -0.00000000000E+00 -0.45593999997E+02  0.45594000000E+02  0.51100000000E-03 0. -1.
    9900012    2    1    2    0    0  0.65718122203E+00 -0.41840794410E+02  0.11512562879E+02  0.47787273416E+02  0.20000010811E+02 0.  0.
         12    1    1    2    0    0 -0.65718122203E+00  0.41840794410E+02 -0.11512562879E+02  0.43400726584E+02  0.00000000000E+00 0. -1.
         11    1    3    3    0    0 -0.94712943766E+00 -0.50311573423E+01  0.68977512109E+01  0.85900273808E+01  0.51100000000E-03 0. -1.
        -11    1    3    3    0    0  0.54112692770E+01 -0.13790843617E+02 -0.19933722880E+01  0.14948001077E+02  0.51100000000E-03 0.  1.
         12    1    3    3    0    0 -0.38069586173E+01 -0.23018793451E+02  0.66081839560E+01  0.24249244958E+02  0.00000000000E+00 0. -1.
</event>
<event>
 7    1  0.1265344E-009  0.4778727E+02  0.7816164E-02  0.1312668E+00
        -11   -1    0    0    0    0  0.00000000000E+00  0.00000000000E+00  0.45593999997E+02  0.45594000000E+02  0.51100000000E-03 0.  1.
         11   -1    0    0    0    0 -0.00000000000E+00 -0.00000000000E+00 -0.45593999997E+02  0.45594000000E+02  0.51100000000E-03 0. -1.
    9900012    2    1    2    0    0  0.29093546259E+02 -0.19939532852E+02  0.25290388002E+02  0.47787272707E+02  0.20000007579E+02 0.  0.
         12    1    1    2    0    0 -0.29093546259E+02  0.19939532852E+02 -0.25290388002E+02  0.43400727293E+02  0.00000000000E+00 0. -1.
         11    1    3    3    0    0  0.13250197496E+01 -0.25454682372E+01  0.10177403423E+02  0.10574243546E+02  0.51100000000E-03 0.  1.
        -11    1    3    3    0    0 -0.20207986976E+00 -0.16398534607E+01 -0.16545773509E+00  0.16605216559E+01  0.51100000000E-03 0. -1.
        -12    1    3    3    0    0  0.27970606379E+02 -0.15754211154E+02  0.15278442314E+02  0.35552507505E+02  0.00000000000E+00 0.  1.
</event>
<event>
 7    1  0.1265344E-009  0.4778727E+02  0.7816164E-02  0.1312668E+00
        -11   -1    0    0    0    0  0.00000000000E+00  0.00000000000E+00  0.45593999997E+02  0.45594000000E+02  0.51100000000E-03 0.  1.
         11   -1    0    0    0    0 -0.00000000000E+00 -0.00000000000E+00 -0.45593999997E+02  0.45594000000E+02  0.51100000000E-03 0. -1.
    9900012    2    1    2    0    0  0.18292237819E+02 -0.39216270543E+02  0.33318843999E+01  0.47787270820E+02  0.19999998975E+02 0.  0.
         12    1    1    2    0    0 -0.18292237819E+02  0.39216270543E+02 -0.33318843999E+01  0.43400729180E+02  0.00000000000E+00 0. -1.
         11    1    3    3    0    0  0.86979955039E+01 -0.29998223921E+02  0.80891010303E+01  0.32264254523E+02  0.51100000000E-03 0.  1.
        -11    1    3    3    0    0  0.46277640881E+00 -0.55833402752E+00 -0.26696114330E+01  0.27663557897E+01  0.51100000000E-03 0. -1.
        -12    1    3    3    0    0  0.91314659065E+01 -0.86597125949E+01 -0.20876051973E+01  0.12756660507E+02  0.00000000000E+00 0.  1.
</event>
<event>
 7    1  0.1265344E-009  0.4778727E+02  0.7816164E-02  0.1312668E+00
        -11   -1    0    0    0    0  0.00000000000E+00  0.00000000000E+00  0.45593999997E+02  0.45594000000E+02  0.51100000000E-03 0. -1.
         11   -1    0    0    0    0 -0.00000000000E+00 -0.00000000000E+00 -0.45593999997E+02  0.45594000000E+02  0.51100000000E-03 0.  1.
    9900012    2    1    2    0    0  0.28749777046E+02 -0.18975459173E+02 -0.26400865867E+02  0.47787269021E+02  0.19999990774E+02 0.  0.
         12    1    1    2    0    0 -0.28749777046E+02  0.18975459173E+02  0.26400865867E+02  0.43400730979E+02  0.00000000000E+00 0. -1.
         11    1    3    3    0    0  0.85419625047E+01 -0.17001951640E+01 -0.12701479412E+02  0.15400758636E+02  0.51100000000E-03 0.  1.
        -11    1    3    3    0    0  0.25029144426E+01 -0.30179893248E-01  0.19151986596E+01  0.31517420104E+01  0.51100000000E-03 0. -1.
        -12    1    3    3    0    0  0.17704900098E+02 -0.17245084115E+02 -0.15614585114E+02  0.29234768375E+02  0.00000000000E+00 0.  1.
</event>
<event>
 7    1  0.1265344E-009  0.4778727E+02  0.7816164E-02  0.1312668E+00
        -11   -1    0    0    0    0  0.00000000000E+00  0.00000000000E+00  0.45593999997E+02  0.45594000000E+02  0.51100000000E-03 0. -1.
         11   -1    0    0    0    0 -0.00000000000E+00 -0.00000000000E+00 -0.45593999997E+02  0.45594000000E+02  0.51100000000E-03 0.  1.
    9900012    2    1    2    0    0 -0.37346422493E+02  0.22097181378E+02 -0.76337461429E+00  0.47787269145E+02  0.19999991341E+02 0.  0.
         12    1    1    2    0    0  0.37346422493E+02 -0.22097181378E+02  0.76337461429E+00  0.43400730855E+02  0.00000000000E+00 0. -1.
         11    1    3    3    0    0 -0.11984995698E+02  0.16236802743E+01  0.24568999870E+01  0.12341507903E+02  0.51100000000E-03 0. -1.
        -11    1    3    3    0    0 -0.10196098616E+02  0.14632029351E+02  0.29226908409E+01  0.18072045593E+02  0.51100000000E-03 0.  1.
         12    1    3    3    0    0 -0.15165328180E+02  0.58414717533E+01 -0.61429654423E+01  0.17373715649E+02  0.00000000000E+00 0. -1.
</event>
<event>
 7    1  0.1265344E-009  0.4778727E+02  0.7816164E-02  0.1312668E+00
        -11   -1    0    0    0    0  0.00000000000E+00  0.00000000000E+00  0.45593999997E+02  0.45594000000E+02  0.51100000000E-03 0. -1.
         11   -1    0    0    0    0 -0.00000000000E+00 -0.00000000000E+00 -0.45593999997E+02  0.45594000000E+02  0.51100000000E-03 0.  1.
    9900012    2    1    2    0    0 -0.22373891042E+02 -0.35738627453E+02  0.10285081182E+02  0.47787269735E+02  0.19999994032E+02 0.  0.
         12    1    1    2    0    0  0.22373891042E+02  0.35738627453E+02 -0.10285081182E+02  0.43400730265E+02  0.00000000000E+00 0. -1.
         11    1    3    3    0    0 -0.15591984757E+01 -0.26660213195E+01  0.78470169819E+01  0.84329381201E+01  0.51100000000E-03 0. -1.
        -11    1    3    3    0    0 -0.50921598395E+01 -0.67165854622E+01 -0.93392930064E+00  0.84802615704E+01  0.51100000000E-03 0.  1.
         12    1    3    3    0    0 -0.15722532727E+02 -0.26356020671E+02  0.33719935004E+01  0.30874070045E+02  0.00000000000E+00 0. -1.
</event>
<event>
 7    1  0.1265344E-009  0.4778727E+02  0.7816164E-02  0.1312668E+00
        -11   -1    0    0    0    0  0.00000000000E+00  0.00000000000E+00  0.45593999997E+02  0.45594000000E+02  0.51100000000E-03 0.  1.
         11   -1    0    0    0    0 -0.00000000000E+00 -0.00000000000E+00 -0.45593999997E+02  0.45594000000E+02  0.51100000000E-03 0. -1.
    9900012    2    1    2    0    0 -0.36407326856E+02 -0.20491645970E+02 -0.11756800641E+02  0.47787269999E+02  0.19999995231E+02 0.  0.
         12    1    1    2    0    0  0.36407326856E+02  0.20491645970E+02  0.11756800641E+02  0.43400730001E+02  0.00000000000E+00 0. -1.
         11    1    3    3    0    0 -0.15383240335E+02 -0.14878716307E+02 -0.12223617775E+02  0.24646239347E+02  0.51100000000E-03 0. -1.
        -11    1    3    3    0    0 -0.32632680673E+01 -0.31162333966E+01 -0.21802173082E+01  0.50113049032E+01  0.51100000000E-03 0.  1.
        -12    1    3    3    0    0 -0.17760818453E+02 -0.24966962655E+01  0.26470344419E+01  0.18129725749E+02  0.00000000000E+00 0.  1.
</event>
<event>
 7    1  0.1265344E-009  0.4778727E+02  0.7816164E-02  0.1312668E+00
        -11   -1    0    0    0    0  0.00000000000E+00  0.00000000000E+00  0.45593999997E+02  0.45594000000E+02  0.51100000000E-03 0. -1.
         11   -1    0    0    0    0 -0.00000000000E+00 -0.00000000000E+00 -0.45593999997E+02  0.45594000000E+02  0.51100000000E-03 0.  1.
    9900012    2    1    2    0    0 -0.13051248501E+02  0.50243210334E+01 -0.41085817353E+02  0.47787271011E+02  0.19999999846E+02 0.  0.
         12    1    1    2    0    0  0.13051248501E+02 -0.50243210334E+01  0.41085817353E+02  0.43400728989E+02  0.00000000000E+00 0. -1.
         11    1    3    3    0    0  0.17798903552E+01  0.56824170224E+01 -0.47912073227E+01  0.76428751634E+01  0.51100000000E-03 0. -1.
        -11    1    3    3    0    0 -0.44699833696E+01 -0.31952157142E+01 -0.65763110128E+01  0.85695986827E+01  0.51100000000E-03 0.  1.
        -12    1    3    3    0    0 -0.10361155486E+02  0.25371197251E+01 -0.29718299017E+02  0.31574797165E+02  0.00000000000E+00 0.  1.
</event>
<event>
 7    1  0.1265344E-009  0.4778728E+02  0.7816164E-02  0.1312668E+00
        -11   -1    0    0    0    0  0.00000000000E+00  0.00000000000E+00  0.45593999997E+02  0.45594000000E+02  0.51100000000E-03 0.  1.
         11   -1    0    0    0    0 -0.00000000000E+00 -0.00000000000E+00 -0.45593999997E+02  0.45594000000E+02  0.51100000000E-03 0. -1.
    9900012    2    1    2    0    0  0.12318568061E+02  0.17624623794E+02  0.37699446533E+02  0.47787277059E+02  0.20000027421E+02 0.  0.
         12    1    1    2    0    0 -0.12318568061E+02 -0.17624623794E+02 -0.37699446533E+02  0.43400722941E+02  0.00000000000E+00 0. -1.
         11    1    3    3    0    0 -0.27678503780E+01  0.38852352459E+01  0.51393145977E+01  0.70120327599E+01  0.51100000000E-03 0. -1.
        -11    1    3    3    0    0  0.12510340318E+02  0.23305688239E+01  0.18999617509E+02  0.22867567244E+02  0.51100000000E-03 0.  1.
        -12    1    3    3    0    0  0.25760781217E+01  0.11408819725E+02  0.13560514426E+02  0.17907677055E+02  0.00000000000E+00 0.  1.
</event>
<event>
 7    1  0.1265344E-009  0.4778727E+02  0.7816164E-02  0.1312668E+00
        -11   -1    0    0    0    0  0.00000000000E+00  0.00000000000E+00  0.45593999997E+02  0.45594000000E+02  0.51100000000E-03 0.  1.
         11   -1    0    0    0    0 -0.00000000000E+00 -0.00000000000E+00 -0.45593999997E+02  0.45594000000E+02  0.51100000000E-03 0. -1.
    9900012    2    1    2    0    0 -0.14168969371E+02 -0.34579588006E+02  0.22070701380E+02  0.47787268910E+02  0.19999990270E+02 0.  0.
         12    1    1    2    0    0  0.14168969371E+02  0.34579588006E+02 -0.22070701380E+02  0.43400731090E+02  0.00000000000E+00 0. -1.
         11    1    3    3    0    0 -0.99686003919E+01 -0.18828286776E+02  0.54704103914E+01  0.21995516971E+02  0.51100000000E-03 0. -1.
        -11    1    3    3    0    0 -0.28146793671E+01  0.95563720004E+00  0.23509627627E+01  0.37898137910E+01  0.51100000000E-03 0.  1.
        -12    1    3    3    0    0 -0.13856896123E+01 -0.16706938430E+02  0.14249328226E+02  0.22001938149E+02  0.00000000000E+00 0.  1.
</event>
<event>
 7    1  0.1265344E-009  0.4778727E+02  0.7816164E-02  0.1312668E+00
        -11   -1    0    0    0    0  0.00000000000E+00  0.00000000000E+00  0.45593999997E+02  0.45594000000E+02  0.51100000000E-03 0.  1.
         11   -1    0    0    0    0 -0.00000000000E+00 -0.00000000000E+00 -0.45593999997E+02  0.45594000000E+02  0.51100000000E-03 0. -1.
    9900012    2    1    2    0    0 -0.15299667336E+02  0.70907500202E+01  0.39990804141E+02  0.47787274519E+02  0.20000015840E+02 0.  0.
         12    1    1    2    0    0  0.15299667336E+02 -0.70907500202E+01 -0.39990804141E+02  0.43400725481E+02  0.00000000000E+00 0. -1.
         11    1    3    3    0    0  0.67702127044E+00  0.23421390950E+01  0.69753108408E-01  0.24390242102E+01  0.51100000000E-03 0. -1.
        -11    1    3    3    0    0  0.12559181242E+01 -0.14620857128E+00 -0.31616009201E+00  0.13033283339E+01  0.51100000000E-03 0.  1.
        -12    1    3    3    0    0 -0.17232606731E+02  0.48948194965E+01  0.40237211125E+02  0.44044921975E+02  0.00000000000E+00 0.  1.
</event>
<event>
 7    1  0.1265344E-009  0.4778727E+02  0.7816164E-02  0.1312668E+00
        -11   -1    0    0    0    0  0.00000000000E+00  0.00000000000E+00  0.45593999997E+02  0.45594000000E+02  0.51100000000E-03 0.  1.
         11   -1    0    0    0    0 -0.00000000000E+00 -0.00000000000E+00 -0.45593999997E+02  0.45594000000E+02  0.51100000000E-03 0. -1.
    9900012    2    1    2    0    0 -0.19400030440E+02  0.20738282216E+02  0.32820509549E+02  0.47787269851E+02  0.19999994560E+02 0.  0.
         12    1    1    2    0    0  0.19400030440E+02 -0.20738282216E+02 -0.32820509549E+02  0.43400730149E+02  0.00000000000E+00 0. -1.
         11    1    3    3    0    0 -0.64755952642E+01  0.37683956672E-01  0.93808004294E+01  0.11398867096E+02  0.51100000000E-03 0. -1.
        -11    1    3    3    0    0  0.19969774918E+01  0.38358517927E+01  0.79724863999E+01  0.90698521342E+01  0.51100000000E-03 0.  1.
        -12    1    3    3    0    0 -0.14921412668E+02  0.16864746467E+02  0.15467222720E+02  0.27318550622E+02  0.00000000000E+00 0.  1.
</event>
<event>
 7    1  0.1265344E-009  0.4778727E+02  0.7816164E-02  0.1312668E+00
        -11   -1    0    0    0    0  0.00000000000E+00  0.00000000000E+00  0.45593999997E+02  0.45594000000E+02  0.51100000000E-03 0. -1.
         11   -1    0    0    0    0 -0.00000000000E+00 -0.00000000000E+00 -0.45593999997E+02  0.45594000000E+02  0.51100000000E-03 0.  1.
    9900012    2    1    2    0    0  0.73128010901E+01  0.25269107311E+02 -0.34519825153E+02  0.47787272211E+02  0.20000005317E+02 0.  0.
         12    1    1    2    0    0 -0.73128010901E+01 -0.25269107311E+02  0.34519825153E+02  0.43400727789E+02  0.00000000000E+00 0. -1.
         11    1    3    3    0    0  0.61789900109E+00  0.64477735318E+01  0.13882883939E+01  0.66244190401E+01  0.51100000000E-03 0. -1.
        -11    1    3    3    0    0  0.21165265778E+01  0.93200070201E+01 -0.16153202018E+02  0.18768807935E+02  0.51100000000E-03 0.  1.
         12    1    3    3    0    0  0.45783755113E+01  0.95013267587E+01 -0.19754911529E+02  0.22394045236E+02  0.00000000000E+00 0. -1.
</event>
<event>
 7    1  0.1510055E-009  0.4778728E+02  0.7816164E-02  0.1312668E+00
        -11   -1    0    0    0    0  0.00000000000E+00  0.00000000000E+00  0.45593999997E+02  0.45594000000E+02  0.51100000000E-03 0. -1.
         11   -1    0    0    0    0 -0.00000000000E+00 -0.00000000000E+00 -0.45593999997E+02  0.45594000000E+02  0.51100000000E-03 0.  1.
    9900012    2    1    2    0    0 -0.28263796003E+02  0.30336010849E+02 -0.12826008536E+02  0.47787283259E+02  0.20000055689E+02 0.  0.
         12    1    1    2    0    0  0.28263796003E+02 -0.30336010849E+02  0.12826008536E+02  0.43400716741E+02  0.00000000000E+00 0. -1.
         11    1    3    3    0    0 -0.24562563092E+01  0.99846514357E+01  0.25965844931E+01  0.10605126621E+02  0.51100000000E-03 0. -1.
        -11    1    3    3    0    0 -0.12040696078E+02  0.13122365776E+02 -0.11313187226E+02  0.21098887437E+02  0.51100000000E-03 0.  1.
        -12    1    3    3    0    0 -0.13766843616E+02  0.72289936369E+01 -0.41094058031E+01  0.16083269201E+02  0.00000000000E+00 0.  1.
</event>
<event>
 7    1  0.1265344E-009  0.4778727E+02  0.7816164E-02  0.1312668E+00
        -11   -1    0    0    0    0  0.00000000000E+00  0.00000000000E+00  0.45593999997E+02  0.45594000000E+02  0.51100000000E-03 0. -1.
         11   -1    0    0    0    0 -0.00000000000E+00 -0.00000000000E+00 -0.45593999997E+02  0.45594000000E+02  0.51100000000E-03 0.  1.
    9900012    2    1    2    0    0  0.19479317021E+02 -0.29859220742E+02 -0.24750890868E+02  0.47787268973E+02  0.19999990556E+02 0.  0.
         12    1    1    2    0    0 -0.19479317021E+02  0.29859220742E+02  0.24750890868E+02  0.43400731027E+02  0.00000000000E+00 0. -1.
         11    1    3    3    0    0  0.47909200442E+01 -0.18531151281E+00 -0.33442753749E+01  0.58456336928E+01  0.51100000000E-03 0. -1.
        -11    1    3    3    0    0  0.38925221556E+01 -0.91778885760E-01 -0.52845461002E+01  0.65640368556E+01  0.51100000000E-03 0.  1.
         12    1    3    3    0    0  0.10795874821E+02 -0.29582130343E+02 -0.16122069393E+02  0.35377598425E+02  0.00000000000E+00 0. -1.
</event>
<event>
 7    1  0.1265344E-009  0.4778728E+02  0.7816164E-02  0.1312668E+00
        -11   -1    0    0    0    0  0.00000000000E+00  0.00000000000E+00  0.45593999997E+02  0.45594000000E+02  0.51100000000E-03 0.  1.
         11   -1    0    0    0    0 -0.00000000000E+00 -0.00000000000E+00 -0.45593999997E+02  0.45594000000E+02  0.51100000000E-03 0. -1.
    9900012    2    1    2    0    0 -0.26843643399E+02  0.19957620703E+02  0.27653841891E+02  0.47787276660E+02  0.20000025605E+02 0.  0.
         12    1    1    2    0    0  0.26843643399E+02 -0.19957620703E+02 -0.27653841891E+02  0.43400723340E+02  0.00000000000E+00 0. -1.
         11    1    3    3    0    0 -0.89328764731E+00  0.76187216602E+00  0.69009561590E+01  0.70001148697E+01  0.51100000000E-03 0. -1.
        -11    1    3    3    0    0 -0.25660001958E+02  0.17675030978E+02  0.22514848982E+02  0.38441655083E+02  0.51100000000E-03 0.  1.
         12    1    3    3    0    0 -0.29035379366E+00  0.15207175592E+01 -0.17619632501E+01  0.23455067076E+01  0.00000000000E+00 0. -1.
</event>
<event>
 7    1  0.1265344E-009  0.4778729E+02  0.7816164E-02  0.1312668E+00
        -11   -1    0    0    0    0  0.00000000000E+00  0.00000000000E+00  0.45593999997E+02  0.45594000000E+02  0.51100000000E-03 0.  1.
         11   -1    0    0    0    0 -0.00000000000E+00 -0.00000000000E+00 -0.45593999997E+02  0.45594000000E+02  0.51100000000E-03 0. -1.
    9900012    2    1    2    0    0  0.39219511629E+02 -0.18206300173E+02 -0.37392356575E+01  0.47787293304E+02  0.20000101489E+02 0.  0.
         12    1    1    2    0    0 -0.39219511629E+02  0.18206300173E+02  0.37392356575E+01  0.43400706696E+02  0.00000000000E+00 0. -1.
         11    1    3    3    0    0  0.23947780403E+02 -0.40648129274E+01 -0.70915959702E+01  0.25304340024E+02  0.51100000000E-03 0. -1.
        -11    1    3    3    0    0  0.50535372026E+01 -0.37725196250E+01  0.46969187819E+01  0.78632810508E+01  0.51100000000E-03 0.  1.
        -12    1    3    3    0    0  0.10218194024E+02 -0.10368967620E+02 -0.13445584692E+01  0.14619672229E+02  0.00000000000E+00 0.  1.
</event>
<event>
 7    1  0.1265344E-009  0.4778727E+02  0.7816164E-02  0.1312668E+00
        -11   -1    0    0    0    0  0.00000000000E+00  0.00000000000E+00  0.45593999997E+02  0.45594000000E+02  0.51100000000E-03 0. -1.
         11   -1    0    0    0    0 -0.00000000000E+00 -0.00000000000E+00 -0.45593999997E+02  0.45594000000E+02  0.51100000000E-03 0.  1.
    9900012    2    1    2    0    0  0.28936472853E+02  0.28329816313E+02  0.15611702963E+02  0.47787271631E+02  0.20000002676E+02 0.  0.
         12    1    1    2    0    0 -0.28936472853E+02 -0.28329816313E+02 -0.15611702963E+02  0.43400728369E+02  0.00000000000E+00 0. -1.
         11    1    3    3    0    0  0.99417878425E+01  0.31306667267E+01  0.14541121224E+01  0.10524004085E+02  0.51100000000E-03 0. -1.
        -11    1    3    3    0    0  0.18403852397E+02  0.24704845536E+02  0.90644958721E+01  0.32112244732E+02  0.51100000000E-03 0.  1.
         12    1    3    3    0    0  0.59083261381E+00  0.49430404971E+00  0.50930949690E+01  0.51510228144E+01  0.00000000000E+00 0. -1.
</event>
<event>
 7    1  0.1265344E-009  0.4778727E+02  0.7816164E-02  0.1312668E+00
        -11   -1    0    0    0    0  0.00000000000E+00  0.00000000000E+00  0.45593999997E+02  0.45594000000E+02  0.51100000000E-03 0.  1.
         11   -1    0    0    0    0 -0.00000000000E+00 -0.00000000000E+00 -0.45593999997E+02  0.45594000000E+02  0.51100000000E-03 0. -1.
    9900012    2    1    2    0    0 -0.35188119950E+02 -0.23463371082E+02  0.97411344520E+01  0.47787271106E+02  0.20000000282E+02 0.  0.
         12    1    1    2    0    0  0.35188119950E+02  0.23463371082E+02 -0.97411344520E+01  0.43400728894E+02  0.00000000000E+00 0. -1.
         11    1    3    3    0    0  0.19058304298E+01 -0.36455379803E+01  0.11914729950E+01  0.42827263456E+01  0.51100000000E-03 0. -1.
        -11    1    3    3    0    0 -0.19131721281E+02 -0.96755498899E+01  0.75292940657E+00  0.21452410769E+02  0.51100000000E-03 0.  1.
        -12    1    3    3    0    0 -0.17962229099E+02 -0.10142283211E+02  0.77967320505E+01  0.22052133992E+02  0.00000000000E+00 0.  1.
</event>
<event>
 7    1  0.1265344E-009  0.4778727E+02  0.7816164E-02  0.1312668E+00
        -11   -1    0    0    0    0  0.00000000000E+00  0.00000000000E+00  0.45593999997E+02  0.45594000000E+02  0.51100000000E-03 0.  1.
         11   -1    0    0    0    0 -0.00000000000E+00 -0.00000000000E+00 -0.45593999997E+02  0.45594000000E+02  0.51100000000E-03 0. -1.
    9900012    2    1    2    0    0  0.31407180285E+02  0.25145128092E+02  0.16276826139E+02  0.47787268332E+02  0.19999987631E+02 0.  0.
         12    1    1    2    0    0 -0.31407180285E+02 -0.25145128092E+02 -0.16276826139E+02  0.43400731668E+02  0.00000000000E+00 0. -1.
         11    1    3    3    0    0  0.70764294478E+00  0.44555217126E+01  0.56413053927E+00  0.45465014896E+01  0.51100000000E-03 0. -1.
        -11    1    3    3    0    0  0.24485494819E+01  0.75877397886E+01  0.77022733665E+01  0.11085765871E+02  0.51100000000E-03 0.  1.
        -12    1    3    3    0    0  0.28250987858E+02  0.13101866590E+02  0.80104222331E+01  0.32155000971E+02  0.00000000000E+00 0.  1.
</event>
<event>
 7    1  0.1265344E-009  0.4778727E+02  0.7816164E-02  0.1312668E+00
        -11   -1    0    0    0    0  0.00000000000E+00  0.00000000000E+00  0.45593999997E+02  0.45594000000E+02  0.51100000000E-03 0.  1.
         11   -1    0    0    0    0 -0.00000000000E+00 -0.00000000000E+00 -0.45593999997E+02  0.45594000000E+02  0.51100000000E-03 0. -1.
    9900012    2    1    2    0    0 -0.15265648230E+02 -0.19094758467E+02  0.35860477601E+02  0.47787266474E+02  0.19999979163E+02 0.  0.
         12    1    1    2    0    0  0.15265648230E+02  0.19094758467E+02 -0.35860477601E+02  0.43400733526E+02  0.00000000000E+00 0. -1.
         11    1    3    3    0    0  0.19171543912E+01 -0.60998952817E+01  0.17862891546E+02  0.18972798899E+02  0.51100000000E-03 0. -1.
        -11    1    3    3    0    0 -0.48790573977E+01 -0.28967794779E+01  0.14550450651E+01  0.58577887327E+01  0.51100000000E-03 0.  1.
        -12    1    3    3    0    0 -0.12303745223E+02 -0.10098083707E+02  0.16542540990E+02  0.22956678843E+02  0.00000000000E+00 0.  1.
</event>
<event>
 7    1  0.1265344E-009  0.4778727E+02  0.7816164E-02  0.1312668E+00
        -11   -1    0    0    0    0  0.00000000000E+00  0.00000000000E+00  0.45593999997E+02  0.45594000000E+02  0.51100000000E-03 0.  1.
         11   -1    0    0    0    0 -0.00000000000E+00 -0.00000000000E+00 -0.45593999997E+02  0.45594000000E+02  0.51100000000E-03 0. -1.
    9900012    2    1    2    0    0 -0.20808793874E+02 -0.28081059749E+02  0.25730745912E+02  0.47787272998E+02  0.20000008907E+02 0.  0.
         12    1    1    2    0    0  0.20808793874E+02  0.28081059749E+02 -0.25730745912E+02  0.43400727002E+02  0.00000000000E+00 0. -1.
         11    1    3    3    0    0 -0.19189888721E+02 -0.13752110625E+02  0.12676320771E+02  0.26796669277E+02  0.51100000000E-03 0. -1.
        -11    1    3    3    0    0 -0.32596782679E+01 -0.77599662724E+01  0.11125117822E+02  0.13950298412E+02  0.51100000000E-03 0.  1.
        -12    1    3    3    0    0  0.16407731156E+01 -0.65689828511E+01  0.19293073196E+01  0.70403053093E+01  0.00000000000E+00 0.  1.
</event>
<event>
 7    1  0.1265344E-009  0.4778727E+02  0.7816164E-02  0.1312668E+00
        -11   -1    0    0    0    0  0.00000000000E+00  0.00000000000E+00  0.45593999997E+02  0.45594000000E+02  0.51100000000E-03 0. -1.
         11   -1    0    0    0    0 -0.00000000000E+00 -0.00000000000E+00 -0.45593999997E+02  0.45594000000E+02  0.51100000000E-03 0.  1.
    9900012    2    1    2    0    0  0.32244062923E+02 -0.28952472999E+02  0.23870610133E+01  0.47787270204E+02  0.19999996167E+02 0.  0.
         12    1    1    2    0    0 -0.32244062923E+02  0.28952472999E+02 -0.23870610133E+01  0.43400729796E+02  0.00000000000E+00 0. -1.
         11    1    3    3    0    0  0.20756975832E+01  0.23448776974E+01  0.10287606465E+01  0.32962585763E+01  0.51100000000E-03 0. -1.
        -11    1    3    3    0    0  0.13190819669E+02 -0.14950890260E+02  0.52170992913E+01  0.20609341775E+02  0.51100000000E-03 0.  1.
        -12    1    3    3    0    0  0.16977545671E+02 -0.16346460437E+02 -0.38587989245E+01  0.23881669853E+02  0.00000000000E+00 0.  1.
</event>
<event>
 7    1  0.1265344E-009  0.4778727E+02  0.7816164E-02  0.1312668E+00
        -11   -1    0    0    0    0  0.00000000000E+00  0.00000000000E+00  0.45593999997E+02  0.45594000000E+02  0.51100000000E-03 0. -1.
         11   -1    0    0    0    0 -0.00000000000E+00 -0.00000000000E+00 -0.45593999997E+02  0.45594000000E+02  0.51100000000E-03 0.  1.
    9900012    2    1    2    0    0 -0.18571701337E+02 -0.82108828649E+01 -0.38357482598E+02  0.47787272365E+02  0.20000006022E+02 0.  0.
         12    1    1    2    0    0  0.18571701337E+02  0.82108828649E+01  0.38357482598E+02  0.43400727635E+02  0.00000000000E+00 0. -1.
         11    1    3    3    0    0 -0.11829810729E+02 -0.92974521723E+01 -0.16931222124E+02  0.22650680379E+02  0.51100000000E-03 0. -1.
        -11    1    3    3    0    0 -0.94842327038E+01 -0.82151958530E+00 -0.13349760059E+02  0.16396391625E+02  0.51100000000E-03 0.  1.
        -12    1    3    3    0    0  0.27423420963E+01  0.19080888927E+01 -0.80765004153E+01  0.87402003612E+01  0.00000000000E+00 0.  1.
</event>
<event>
 7    1  0.1265344E-009  0.4778727E+02  0.7816164E-02  0.1312668E+00
        -11   -1    0    0    0    0  0.00000000000E+00  0.00000000000E+00  0.45593999997E+02  0.45594000000E+02  0.51100000000E-03 0.  1.
         11   -1    0    0    0    0 -0.00000000000E+00 -0.00000000000E+00 -0.45593999997E+02  0.45594000000E+02  0.51100000000E-03 0. -1.
    9900012    2    1    2    0    0  0.33149294491E+02  0.31764870045E+01  0.27832668040E+02  0.47787271836E+02  0.20000003609E+02 0.  0.
         12    1    1    2    0    0 -0.33149294491E+02 -0.31764870045E+01 -0.27832668040E+02  0.43400728164E+02  0.00000000000E+00 0. -1.
         11    1    3    3    0    0  0.12587326990E+02  0.40586549461E+01  0.16905803078E+02  0.21464381162E+02  0.51100000000E-03 0. -1.
        -11    1    3    3    0    0  0.22209028950E+02 -0.59830959379E+00  0.10615017374E+02  0.24622703657E+02  0.51100000000E-03 0.  1.
         12    1    3    3    0    0 -0.16470614480E+01 -0.28385834781E+00  0.31184758771E+00  0.17001870171E+01  0.00000000000E+00 0. -1.
</event>
<event>
 7    1  0.1265344E-009  0.4778727E+02  0.7816164E-02  0.1312668E+00
        -11   -1    0    0    0    0  0.00000000000E+00  0.00000000000E+00  0.45593999997E+02  0.45594000000E+02  0.51100000000E-03 0.  1.
         11   -1    0    0    0    0 -0.00000000000E+00 -0.00000000000E+00 -0.45593999997E+02  0.45594000000E+02  0.51100000000E-03 0. -1.
    9900012    2    1    2    0    0  0.41016181901E+01  0.30144953065E+02  0.30952899146E+02  0.47787269215E+02  0.19999991660E+02 0.  0.
         12    1    1    2    0    0 -0.41016181901E+01 -0.30144953065E+02 -0.30952899146E+02  0.43400730785E+02  0.00000000000E+00 0. -1.
         11    1    3    3    0    0 -0.34757079166E+01  0.14513625998E+02  0.17101034307E+02  0.22697384425E+02  0.51100000000E-03 0. -1.
        -11    1    3    3    0    0  0.35956095839E+01  0.14604824834E+02  0.14541077403E+02  0.20920617797E+02  0.51100000000E-03 0.  1.
         12    1    3    3    0    0  0.39817165228E+01  0.10265022339E+01 -0.68921256329E+00  0.41692669933E+01  0.00000000000E+00 0. -1.
</event>
<event>
 7    1  0.1265344E-009  0.4778727E+02  0.7816164E-02  0.1312668E+00
        -11   -1    0    0    0    0  0.00000000000E+00  0.00000000000E+00  0.45593999997E+02  0.45594000000E+02  0.51100000000E-03 0.  1.
         11   -1    0    0    0    0 -0.00000000000E+00 -0.00000000000E+00 -0.45593999997E+02  0.45594000000E+02  0.51100000000E-03 0. -1.
    9900012    2    1    2    0    0 -0.79096419947E+01  0.21586894684E+02  0.36811239297E+02  0.47787265016E+02  0.19999972515E+02 0.  0.
         12    1    1    2    0    0  0.79096419947E+01 -0.21586894684E+02 -0.36811239297E+02  0.43400734984E+02  0.00000000000E+00 0. -1.
         11    1    3    3    0    0 -0.29513869862E+01  0.23056325466E-01  0.12766942748E+01  0.32157682238E+01  0.51100000000E-03 0. -1.
        -11    1    3    3    0    0  0.45871866340E+01  0.12684153045E+02  0.21795038844E+02  0.25631108797E+02  0.51100000000E-03 0.  1.
        -12    1    3    3    0    0 -0.95454416425E+01  0.88796853130E+01  0.13739506177E+02  0.18940387995E+02  0.00000000000E+00 0.  1.
</event>
<event>
 7    1  0.1265344E-009  0.4778727E+02  0.7816164E-02  0.1312668E+00
        -11   -1    0    0    0    0  0.00000000000E+00  0.00000000000E+00  0.45593999997E+02  0.45594000000E+02  0.51100000000E-03 0.  1.
         11   -1    0    0    0    0 -0.00000000000E+00 -0.00000000000E+00 -0.45593999997E+02  0.45594000000E+02  0.51100000000E-03 0. -1.
    9900012    2    1    2    0    0  0.43283535873E+02  0.16698253759E+01  0.27148375425E+01  0.47787272618E+02  0.20000007173E+02 0.  0.
         12    1    1    2    0    0 -0.43283535873E+02 -0.16698253759E+01 -0.27148375425E+01  0.43400727382E+02  0.00000000000E+00 0. -1.
         11    1    3    3    0    0  0.47370878974E+00  0.89514534837E+00 -0.38676568875E-01  0.10134995561E+01  0.51100000000E-03 0. -1.
        -11    1    3    3    0    0  0.37605741002E+02  0.54229054289E+01  0.69589154071E+01  0.38626754504E+02  0.51100000000E-03 0.  1.
         12    1    3    3    0    0  0.52040860812E+01 -0.46482254014E+01 -0.42054012958E+01  0.81470185578E+01  0.00000000000E+00 0. -1.
</event>
<event>
 7    1  0.1265344E-009  0.4778728E+02  0.7816164E-02  0.1312668E+00
        -11   -1    0    0    0    0  0.00000000000E+00  0.00000000000E+00  0.45593999997E+02  0.45594000000E+02  0.51100000000E-03 0.  1.
         11   -1    0    0    0    0 -0.00000000000E+00 -0.00000000000E+00 -0.45593999997E+02  0.45594000000E+02  0.51100000000E-03 0. -1.
    9900012    2    1    2    0    0  0.14572609373E+02  0.14666742104E+02  0.38159513983E+02  0.47787276788E+02  0.20000026188E+02 0.  0.
         12    1    1    2    0    0 -0.14572609373E+02 -0.14666742104E+02 -0.38159513983E+02  0.43400723212E+02  0.00000000000E+00 0. -1.
         11    1    3    3    0    0  0.11258396412E+02  0.27643067895E+01  0.12598485685E+02  0.17120593554E+02  0.51100000000E-03 0.  1.
        -11    1    3    3    0    0  0.37814243925E+01  0.74497666303E+01  0.24743063250E+02  0.26115462327E+02  0.51100000000E-03 0. -1.
         12    1    3    3    0    0 -0.46721143168E+00  0.44526686840E+01  0.81796504754E+00  0.45512209077E+01  0.00000000000E+00 0. -1.
</event>
<event>
 7    1  0.1265344E-009  0.4778727E+02  0.7816164E-02  0.1312668E+00
        -11   -1    0    0    0    0  0.00000000000E+00  0.00000000000E+00  0.45593999997E+02  0.45594000000E+02  0.51100000000E-03 0.  1.
         11   -1    0    0    0    0 -0.00000000000E+00 -0.00000000000E+00 -0.45593999997E+02  0.45594000000E+02  0.51100000000E-03 0. -1.
    9900012    2    1    2    0    0 -0.42193140981E+02 -0.26252848074E+01  0.98219126093E+01  0.47787271510E+02  0.20000002122E+02 0.  0.
         12    1    1    2    0    0  0.42193140981E+02  0.26252848074E+01 -0.98219126093E+01  0.43400728490E+02  0.00000000000E+00 0. -1.
         11    1    3    3    0    0 -0.25022631434E+02  0.23250640863E-01 -0.39662695884E+01  0.25335033435E+02  0.51100000000E-03 0. -1.
        -11    1    3    3    0    0 -0.48496242144E+01 -0.23647454535E+01  0.41584224253E+01  0.68120006906E+01  0.51100000000E-03 0.  1.
         12    1    3    3    0    0 -0.12320885333E+02 -0.28378999474E+00  0.96297597724E+01  0.15640237384E+02  0.00000000000E+00 0. -1.
</event>
<event>
 7    1  0.1265344E-009  0.4778727E+02  0.7816164E-02  0.1312668E+00
        -11   -1    0    0    0    0  0.00000000000E+00  0.00000000000E+00  0.45593999997E+02  0.45594000000E+02  0.51100000000E-03 0.  1.
         11   -1    0    0    0    0 -0.00000000000E+00 -0.00000000000E+00 -0.45593999997E+02  0.45594000000E+02  0.51100000000E-03 0. -1.
    9900012    2    1    2    0    0 -0.46504427558E+01  0.34976476086E+02  0.25271379356E+02  0.47787272912E+02  0.20000008516E+02 0.  0.
         12    1    1    2    0    0  0.46504427558E+01 -0.34976476086E+02 -0.25271379356E+02  0.43400727088E+02  0.00000000000E+00 0. -1.
         11    1    3    3    0    0  0.42145507860E+01  0.13427886524E+02  0.15216247436E+02  0.20726909107E+02  0.51100000000E-03 0.  1.
        -11    1    3    3    0    0 -0.72270866158E+00  0.64992629796E+01 -0.11046380664E+01  0.66319644606E+01  0.51100000000E-03 0. -1.
        -12    1    3    3    0    0 -0.81422848801E+01  0.15049326582E+02  0.11159769986E+02  0.20428399345E+02  0.00000000000E+00 0.  1.
</event>
<event>
 7    1  0.1265344E-009  0.4778727E+02  0.7816164E-02  0.1312668E+00
        -11   -1    0    0    0    0  0.00000000000E+00  0.00000000000E+00  0.45593999997E+02  0.45594000000E+02  0.51100000000E-03 0. -1.
         11   -1    0    0    0    0 -0.00000000000E+00 -0.00000000000E+00 -0.45593999997E+02  0.45594000000E+02  0.51100000000E-03 0.  1.
    9900012    2    1    2    0    0  0.17192746343E+02  0.93460423576E+01 -0.38738664501E+02  0.47787272334E+02  0.20000005881E+02 0.  0.
         12    1    1    2    0    0 -0.17192746343E+02 -0.93460423576E+01  0.38738664501E+02  0.43400727666E+02  0.00000000000E+00 0. -1.
         11    1    3    3    0    0 -0.11590109360E+01  0.40325624869E+01 -0.48706426758E+01  0.64286878052E+01  0.51100000000E-03 0. -1.
        -11    1    3    3    0    0  0.71170703009E+01  0.80958657766E+01 -0.94452219966E+01  0.14332060255E+02  0.51100000000E-03 0.  1.
        -12    1    3    3    0    0  0.11234686978E+02 -0.27823859058E+01 -0.24422799829E+02  0.27026524274E+02  0.00000000000E+00 0.  1.
</event>
<event>
 7    1  0.1891838E-009  0.4778726E+02  0.7816164E-02  0.1312668E+00
        -11   -1    0    0    0    0  0.00000000000E+00  0.00000000000E+00  0.45593999997E+02  0.45594000000E+02  0.51100000000E-03 0. -1.
         11   -1    0    0    0    0 -0.00000000000E+00 -0.00000000000E+00 -0.45593999997E+02  0.45594000000E+02  0.51100000000E-03 0.  1.
    9900012    2    1    2    0    0 -0.55773569171E+01  0.15644761338E+02 -0.40096862138E+02  0.47787264743E+02  0.19999971270E+02 0.  0.
         12    1    1    2    0    0  0.55773569171E+01 -0.15644761338E+02  0.40096862138E+02  0.43400735257E+02  0.00000000000E+00 0. -1.
         11    1    3    3    0    0  0.22381659363E+00 -0.14922284334E+01  0.50149145629E+00  0.15900734282E+01  0.51100000000E-03 0. -1.
        -11    1    3    3    0    0 -0.30820407696E+01  0.38443380771E+01 -0.25186606029E+02  0.25664041655E+02  0.51100000000E-03 0.  1.
        -12    1    3    3    0    0 -0.27191327412E+01  0.13292651695E+02 -0.15411747565E+02  0.20533149660E+02  0.00000000000E+00 0.  1.
</event>
<event>
 7    1  0.1265344E-009  0.4778723E+02  0.7816164E-02  0.1312668E+00
        -11   -1    0    0    0    0  0.00000000000E+00  0.00000000000E+00  0.45593999997E+02  0.45594000000E+02  0.51100000000E-03 0.  1.
         11   -1    0    0    0    0 -0.00000000000E+00 -0.00000000000E+00 -0.45593999997E+02  0.45594000000E+02  0.51100000000E-03 0. -1.
    9900012    2    1    2    0    0 -0.15405736849E+02 -0.13971466543E+02  0.38093153439E+02  0.47787228761E+02  0.19999807212E+02 0.  0.
         12    1    1    2    0    0  0.15405736849E+02  0.13971466543E+02 -0.38093153439E+02  0.43400771239E+02  0.00000000000E+00 0. -1.
         11    1    3    3    0    0 -0.65831808431E+01 -0.38840592567E+01  0.29081959761E+01  0.81781287847E+01  0.51100000000E-03 0. -1.
        -11    1    3    3    0    0 -0.80961352029E+01 -0.12806402345E+02  0.31659335328E+02  0.35097932416E+02  0.51100000000E-03 0.  1.
         12    1    3    3    0    0 -0.72642080298E+00  0.27189950593E+01  0.35256221351E+01  0.45111675600E+01  0.00000000000E+00 0. -1.
</event>
<event>
 7    1  0.1265344E-009  0.4778727E+02  0.7816164E-02  0.1312668E+00
        -11   -1    0    0    0    0  0.00000000000E+00  0.00000000000E+00  0.45593999997E+02  0.45594000000E+02  0.51100000000E-03 0.  1.
         11   -1    0    0    0    0 -0.00000000000E+00 -0.00000000000E+00 -0.45593999997E+02  0.45594000000E+02  0.51100000000E-03 0. -1.
    9900012    2    1    2    0    0  0.10266775868E+02 -0.34937132212E+02 -0.23613833919E+02  0.47787273666E+02  0.20000011953E+02 0.  0.
         12    1    1    2    0    0 -0.10266775868E+02  0.34937132212E+02  0.23613833919E+02  0.43400726334E+02  0.00000000000E+00 0. -1.
         11    1    3    3    0    0  0.46047641426E+01 -0.79495926316E+01 -0.97249112179E+01  0.13378108023E+02  0.51100000000E-03 0. -1.
        -11    1    3    3    0    0 -0.34868948844E+01 -0.19055845162E+02 -0.86719346895E+01  0.21224658355E+02  0.51100000000E-03 0.  1.
        -12    1    3    3    0    0  0.91489066100E+01 -0.79316944191E+01 -0.52169880119E+01  0.13184507288E+02  0.00000000000E+00 0.  1.
</event>
<event>
 7    1  0.1265344E-009  0.4778726E+02  0.7816164E-02  0.1312668E+00
        -11   -1    0    0    0    0  0.00000000000E+00  0.00000000000E+00  0.45593999997E+02  0.45594000000E+02  0.51100000000E-03 0.  1.
         11   -1    0    0    0    0 -0.00000000000E+00 -0.00000000000E+00 -0.45593999997E+02  0.45594000000E+02  0.51100000000E-03 0. -1.
    9900012    2    1    2    0    0  0.42701642942E+02  0.57242509001E+01  0.52370783314E+01  0.47787258673E+02  0.19999943593E+02 0.  0.
         12    1    1    2    0    0 -0.42701642942E+02 -0.57242509001E+01 -0.52370783314E+01  0.43400741327E+02  0.00000000000E+00 0. -1.
         11    1    3    3    0    0  0.31104093158E+02  0.51336389728E+01 -0.18571743590E+01  0.31579549667E+02  0.51100000000E-03 0. -1.
        -11    1    3    3    0    0  0.76747045620E+01  0.45694744274E+01  0.50309966651E+01  0.10251444501E+02  0.51100000000E-03 0.  1.
        -12    1    3    3    0    0  0.39228452217E+01 -0.39788625001E+01  0.20632560253E+01  0.59562645050E+01  0.00000000000E+00 0.  1.
</event>
<event>
 7    1  0.1265344E-009  0.4778728E+02  0.7816164E-02  0.1312668E+00
        -11   -1    0    0    0    0  0.00000000000E+00  0.00000000000E+00  0.45593999997E+02  0.45594000000E+02  0.51100000000E-03 0.  1.
         11   -1    0    0    0    0 -0.00000000000E+00 -0.00000000000E+00 -0.45593999997E+02  0.45594000000E+02  0.51100000000E-03 0. -1.
    9900012    2    1    2    0    0 -0.19799170321E+02  0.38092131776E+02  0.63721816841E+01  0.47787281711E+02  0.20000048631E+02 0.  0.
         12    1    1    2    0    0  0.19799170321E+02 -0.38092131776E+02 -0.63721816841E+01  0.43400718289E+02  0.00000000000E+00 0. -1.
         11    1    3    3    0    0 -0.15233775671E+02  0.16341291205E+02  0.30111784122E+01  0.22542690947E+02  0.51100000000E-03 0. -1.
        -11    1    3    3    0    0 -0.11667637226E+01  0.11547123357E+02  0.73909771936E+01  0.13759503608E+02  0.51100000000E-03 0.  1.
         12    1    3    3    0    0 -0.33986309273E+01  0.10203717214E+02 -0.40299739217E+01  0.11485087155E+02  0.00000000000E+00 0. -1.
</event>
<event>
 7    1  0.1265344E-009  0.4778726E+02  0.7816164E-02  0.1312668E+00
        -11   -1    0    0    0    0  0.00000000000E+00  0.00000000000E+00  0.45593999997E+02  0.45594000000E+02  0.51100000000E-03 0.  1.
         11   -1    0    0    0    0 -0.00000000000E+00 -0.00000000000E+00 -0.45593999997E+02  0.45594000000E+02  0.51100000000E-03 0. -1.
    9900012    2    1    2    0    0  0.17341947843E+02 -0.31126206686E+01  0.39663495312E+02  0.47787257808E+02  0.19999939650E+02 0.  0.
         12    1    1    2    0    0 -0.17341947843E+02  0.31126206686E+01 -0.39663495312E+02  0.43400742192E+02  0.00000000000E+00 0. -1.
         11    1    3    3    0    0 -0.29081161763E+01 -0.26349517959E+00  0.31521297759E+00  0.29369931711E+01  0.51100000000E-03 0. -1.
        -11    1    3    3    0    0  0.61957514347E+01 -0.40645848498E+01  0.14085259289E+02  0.15915486651E+02  0.51100000000E-03 0.  1.
         12    1    3    3    0    0  0.14054312585E+02  0.12154593608E+01  0.25263023046E+02  0.28934777986E+02  0.00000000000E+00 0. -1.
</event>
<event>
 7    1  0.1265344E-009  0.4778727E+02  0.7816164E-02  0.1312668E+00
        -11   -1    0    0    0    0  0.00000000000E+00  0.00000000000E+00  0.45593999997E+02  0.45594000000E+02  0.51100000000E-03 0. -1.
         11   -1    0    0    0    0 -0.00000000000E+00 -0.00000000000E+00 -0.45593999997E+02  0.45594000000E+02  0.51100000000E-03 0.  1.
    9900012    2    1    2    0    0 -0.36696359257E+02  0.21905677460E+02 -0.75592297618E+01  0.47787269104E+02  0.19999991153E+02 0.  0.
         12    1    1    2    0    0  0.36696359257E+02 -0.21905677460E+02  0.75592297618E+01  0.43400730896E+02  0.00000000000E+00 0. -1.
         11    1    3    3    0    0 -0.11926226993E+02 -0.15344794992E+01 -0.12728968260E+01  0.12091723790E+02  0.51100000000E-03 0. -1.
        -11    1    3    3    0    0 -0.79251311978E+01  0.79347284223E+01  0.19133792225E+01  0.11376670864E+02  0.51100000000E-03 0.  1.
        -12    1    3    3    0    0 -0.16845001067E+02  0.15505428537E+02 -0.81997121583E+01  0.24318874450E+02  0.00000000000E+00 0.  1.
</event>
<event>
 7    1  0.1265344E-009  0.4778727E+02  0.7816164E-02  0.1312668E+00
        -11   -1    0    0    0    0  0.00000000000E+00  0.00000000000E+00  0.45593999997E+02  0.45594000000E+02  0.51100000000E-03 0. -1.
         11   -1    0    0    0    0 -0.00000000000E+00 -0.00000000000E+00 -0.45593999997E+02  0.45594000000E+02  0.51100000000E-03 0.  1.
    9900012    2    1    2    0    0 -0.20993324974E+02  0.37667934711E+02  0.49020619433E+01  0.47787271779E+02  0.20000003348E+02 0.  0.
         12    1    1    2    0    0  0.20993324974E+02 -0.37667934711E+02 -0.49020619433E+01  0.43400728221E+02  0.00000000000E+00 0. -1.
         11    1    3    3    0    0 -0.54206622457E+01  0.96103191595E+01  0.84886298848E+01  0.13921158397E+02  0.51100000000E-03 0. -1.
        -11    1    3    3    0    0 -0.80134705376E+01  0.22916711447E+02 -0.72938500423E+00  0.24288338279E+02  0.51100000000E-03 0.  1.
        -12    1    3    3    0    0 -0.75591921907E+01  0.51409041039E+01 -0.28571829373E+01  0.95777751027E+01  0.00000000000E+00 0.  1.
</event>
<event>
 7    1  0.1265344E-009  0.4778728E+02  0.7816164E-02  0.1312668E+00
        -11   -1    0    0    0    0  0.00000000000E+00  0.00000000000E+00  0.45593999997E+02  0.45594000000E+02  0.51100000000E-03 0.  1.
         11   -1    0    0    0    0 -0.00000000000E+00 -0.00000000000E+00 -0.45593999997E+02  0.45594000000E+02  0.51100000000E-03 0. -1.
    9900012    2    1    2    0    0 -0.34192985592E+02 -0.37681512578E+01  0.26462485948E+02  0.47787281226E+02  0.20000046420E+02 0.  0.
         12    1    1    2    0    0  0.34192985592E+02  0.37681512578E+01 -0.26462485948E+02  0.43400718774E+02  0.00000000000E+00 0. -1.
         11    1    3    3    0    0 -0.17481613167E+01  0.16689902446E+01  0.41267031175E+01  0.47823922159E+01  0.51100000000E-03 0. -1.
        -11    1    3    3    0    0 -0.29948691366E+02 -0.96221705105E+01  0.21392806773E+02  0.38041588581E+02  0.51100000000E-03 0.  1.
        -12    1    3    3    0    0 -0.24961329093E+01  0.41850290081E+01  0.94297605716E+00  0.49633004285E+01  0.00000000000E+00 0.  1.
</event>
<event>
 7    1  0.1265344E-009  0.4778727E+02  0.7816164E-02  0.1312668E+00
        -11   -1    0    0    0    0  0.00000000000E+00  0.00000000000E+00  0.45593999997E+02  0.45594000000E+02  0.51100000000E-03 0.  1.
         11   -1    0    0    0    0 -0.00000000000E+00 -0.00000000000E+00 -0.45593999997E+02  0.45594000000E+02  0.51100000000E-03 0. -1.
    9900012    2    1    2    0    0  0.92761562190E+01  0.13414245274E+02  0.40219822312E+02  0.47787272388E+02  0.20000006126E+02 0.  0.
         12    1    1    2    0    0 -0.92761562190E+01 -0.13414245274E+02 -0.40219822312E+02  0.43400727612E+02  0.00000000000E+00 0. -1.
         11    1    3    3    0    0 -0.17308330696E+01  0.10102761230E+01  0.29780413796E+01  0.35895921327E+01  0.51100000000E-03 0. -1.
        -11    1    3    3    0    0  0.66913850190E+01  0.15566284659E+02  0.20357854632E+02  0.26486337932E+02  0.51100000000E-03 0.  1.
         12    1    3    3    0    0  0.43156042696E+01 -0.31623155084E+01  0.16883926300E+02  0.17711342323E+02  0.00000000000E+00 0. -1.
</event>
<event>
 7    1  0.1265344E-009  0.4778727E+02  0.7816164E-02  0.1312668E+00
        -11   -1    0    0    0    0  0.00000000000E+00  0.00000000000E+00  0.45593999997E+02  0.45594000000E+02  0.51100000000E-03 0.  1.
         11   -1    0    0    0    0 -0.00000000000E+00 -0.00000000000E+00 -0.45593999997E+02  0.45594000000E+02  0.51100000000E-03 0. -1.
    9900012    2    1    2    0    0  0.39390101625E+02  0.17818636974E+02  0.38130111501E+01  0.47787274388E+02  0.20000015243E+02 0.  0.
         12    1    1    2    0    0 -0.39390101625E+02 -0.17818636974E+02 -0.38130111501E+01  0.43400725612E+02  0.00000000000E+00 0. -1.
         11    1    3    3    0    0  0.22291013652E+02  0.12033807965E+02  0.18134764131E+01  0.25396663575E+02  0.51100000000E-03 0.  1.
        -11    1    3    3    0    0  0.10081152525E+02 -0.25602378855E+00 -0.45351343415E+01  0.11057243244E+02  0.51100000000E-03 0. -1.
         12    1    3    3    0    0  0.70179354486E+01  0.60408527978E+01  0.65346690785E+01  0.11333367569E+02  0.00000000000E+00 0. -1.
</event>
<event>
 7    1  0.1440535E-009  0.4778728E+02  0.7816164E-02  0.1312668E+00
        -11   -1    0    0    0    0  0.00000000000E+00  0.00000000000E+00  0.45593999997E+02  0.45594000000E+02  0.51100000000E-03 0.  1.
         11   -1    0    0    0    0 -0.00000000000E+00 -0.00000000000E+00 -0.45593999997E+02  0.45594000000E+02  0.51100000000E-03 0. -1.
    9900012    2    1    2    0    0 -0.36717115324E+02 -0.89702275324E+01  0.21330987161E+02  0.47787279349E+02  0.20000037865E+02 0.  0.
         12    1    1    2    0    0  0.36717115324E+02  0.89702275324E+01 -0.21330987161E+02  0.43400720651E+02  0.00000000000E+00 0. -1.
         11    1    3    3    0    0 -0.19835802295E+01  0.27260105689E+01  0.45575393089E+01  0.56689407267E+01  0.51100000000E-03 0. -1.
        -11    1    3    3    0    0 -0.93589676216E+01 -0.64962495582E+01  0.25097618259E+00  0.11395372858E+02  0.51100000000E-03 0.  1.
        -12    1    3    3    0    0 -0.25374567473E+02 -0.51999885431E+01  0.16522471670E+02  0.30722965765E+02  0.00000000000E+00 0.  1.
</event>
<event>
 7    1  0.1265344E-009  0.4778728E+02  0.7816164E-02  0.1312668E+00
        -11   -1    0    0    0    0  0.00000000000E+00  0.00000000000E+00  0.45593999997E+02  0.45594000000E+02  0.51100000000E-03 0.  1.
         11   -1    0    0    0    0 -0.00000000000E+00 -0.00000000000E+00 -0.45593999997E+02  0.45594000000E+02  0.51100000000E-03 0. -1.
    9900012    2    1    2    0    0  0.21174858628E+02  0.30029026391E+02  0.23097737040E+02  0.47787279726E+02  0.20000039583E+02 0.  0.
         12    1    1    2    0    0 -0.21174858628E+02 -0.30029026391E+02 -0.23097737040E+02  0.43400720274E+02  0.00000000000E+00 0. -1.
         11    1    3    3    0    0  0.11184250209E+01 -0.27645595184E+01  0.11542711637E+01  0.31978126960E+01  0.51100000000E-03 0. -1.
        -11    1    3    3    0    0  0.81008701302E+01  0.11759054920E+02  0.53379483420E+01  0.15244446931E+02  0.51100000000E-03 0.  1.
        -12    1    3    3    0    0  0.11955563477E+02  0.21034530990E+02  0.16605517534E+02  0.29345020099E+02  0.00000000000E+00 0.  1.
</event>
<event>
 7    1  0.1265344E-009  0.4778728E+02  0.7816164E-02  0.1312668E+00
        -11   -1    0    0    0    0  0.00000000000E+00  0.00000000000E+00  0.45593999997E+02  0.45594000000E+02  0.51100000000E-03 0. -1.
         11   -1    0    0    0    0 -0.00000000000E+00 -0.00000000000E+00 -0.45593999997E+02  0.45594000000E+02  0.51100000000E-03 0.  1.
    9900012    2    1    2    0    0  0.55232694870E+01  0.43045753519E+02 -0.42351217926E+00  0.47787276914E+02  0.20000026762E+02 0.  0.
         12    1    1    2    0    0 -0.55232694870E+01 -0.43045753519E+02  0.42351217926E+00  0.43400723086E+02  0.00000000000E+00 0. -1.
         11    1    3    3    0    0  0.52895354086E+01  0.20696514982E+01  0.31777009717E+01  0.65084887562E+01  0.51100000000E-03 0. -1.
        -11    1    3    3    0    0 -0.11718565296E+01  0.11976686304E+02 -0.93870149600E-01  0.12034245902E+02  0.51100000000E-03 0.  1.
         12    1    3    3    0    0  0.14055906079E+01  0.28999415716E+02 -0.35073430013E+01  0.29244542256E+02  0.00000000000E+00 0. -1.
</event>
<event>
 7    1  0.1265344E-009  0.4778727E+02  0.7816164E-02  0.1312668E+00
        -11   -1    0    0    0    0  0.00000000000E+00  0.00000000000E+00  0.45593999997E+02  0.45594000000E+02  0.51100000000E-03 0. -1.
         11   -1    0    0    0    0 -0.00000000000E+00 -0.00000000000E+00 -0.45593999997E+02  0.45594000000E+02  0.51100000000E-03 0.  1.
    9900012    2    1    2    0    0 -0.44013296143E+01  0.24906182124E+02 -0.35269441611E+02  0.47787272795E+02  0.20000007980E+02 0.  0.
         12    1    1    2    0    0  0.44013296143E+01 -0.24906182124E+02  0.35269441611E+02  0.43400727205E+02  0.00000000000E+00 0. -1.
         11    1    3    3    0    0 -0.24690083438E+01  0.15656039400E+02 -0.20868597315E+02  0.26205074433E+02  0.51100000000E-03 0.  1.
        -11    1    3    3    0    0  0.15544688960E+01  0.56729660395E+00 -0.11737736575E+02  0.11853803573E+02  0.51100000000E-03 0. -1.
         12    1    3    3    0    0 -0.34867901665E+01  0.86828461206E+01 -0.26631077208E+01  0.97283947880E+01  0.00000000000E+00 0. -1.
</event>
<event>
 7    1  0.1265344E-009  0.4778727E+02  0.7816164E-02  0.1312668E+00
        -11   -1    0    0    0    0  0.00000000000E+00  0.00000000000E+00  0.45593999997E+02  0.45594000000E+02  0.51100000000E-03 0.  1.
         11   -1    0    0    0    0 -0.00000000000E+00 -0.00000000000E+00 -0.45593999997E+02  0.45594000000E+02  0.51100000000E-03 0. -1.
    9900012    2    1    2    0    0  0.17457315495E+02  0.12697142891E+01  0.39714652151E+02  0.47787266894E+02  0.19999981076E+02 0.  0.
         12    1    1    2    0    0 -0.17457315495E+02 -0.12697142891E+01 -0.39714652151E+02  0.43400733106E+02  0.00000000000E+00 0. -1.
         11    1    3    3    0    0  0.14093418983E+01  0.51751110084E+01  0.12847063190E+02  0.13921747427E+02  0.51100000000E-03 0. -1.
        -11    1    3    3    0    0  0.92505336468E+01  0.23690489307E+01  0.20559376022E+02  0.22668760625E+02  0.51100000000E-03 0.  1.
         12    1    3    3    0    0  0.67974399505E+01 -0.62744456500E+01  0.63082129384E+01  0.11196758842E+02  0.00000000000E+00 0. -1.
</event>
<event>
 7    1  0.1265344E-009  0.4778727E+02  0.7816164E-02  0.1312668E+00
        -11   -1    0    0    0    0  0.00000000000E+00  0.00000000000E+00  0.45593999997E+02  0.45594000000E+02  0.51100000000E-03 0.  1.
         11   -1    0    0    0    0 -0.00000000000E+00 -0.00000000000E+00 -0.45593999997E+02  0.45594000000E+02  0.51100000000E-03 0. -1.
    9900012    2    1    2    0    0 -0.74293140965E+01  0.31876139005E+02  0.28501584886E+02  0.47787270895E+02  0.19999999321E+02 0.  0.
         12    1    1    2    0    0  0.74293140965E+01 -0.31876139005E+02 -0.28501584886E+02  0.43400729105E+02  0.00000000000E+00 0. -1.
         11    1    3    3    0    0 -0.58094206730E+01  0.14141312075E+01  0.40903436484E+01  0.72443113579E+01  0.51100000000E-03 0.  1.
        -11    1    3    3    0    0  0.17416919669E+01  0.10490447029E+02  0.14537663610E+02  0.18011847025E+02  0.51100000000E-03 0. -1.
         12    1    3    3    0    0 -0.33615853904E+01  0.19971560769E+02  0.98735776276E+01  0.22531112512E+02  0.00000000000E+00 0. -1.
</event>
<event>
 7    1  0.1265344E-009  0.4778727E+02  0.7816164E-02  0.1312668E+00
        -11   -1    0    0    0    0  0.00000000000E+00  0.00000000000E+00  0.45593999997E+02  0.45594000000E+02  0.51100000000E-03 0.  1.
         11   -1    0    0    0    0 -0.00000000000E+00 -0.00000000000E+00 -0.45593999997E+02  0.45594000000E+02  0.51100000000E-03 0. -1.
    9900012    2    1    2    0    0  0.42844775604E+02 -0.61765567085E+01  0.31302722940E+01  0.47787271274E+02  0.20000001048E+02 0.  0.
         12    1    1    2    0    0 -0.42844775604E+02  0.61765567085E+01 -0.31302722940E+01  0.43400728726E+02  0.00000000000E+00 0. -1.
         11    1    3    3    0    0  0.64625399977E+01  0.29724602454E+01  0.49897973467E+01  0.86889597165E+01  0.51100000000E-03 0. -1.
        -11    1    3    3    0    0  0.32956776722E+02 -0.10398057328E+02 -0.41284338810E+01  0.34803917807E+02  0.51100000000E-03 0.  1.
        -12    1    3    3    0    0  0.34254588836E+01  0.12490403741E+01  0.22689088283E+01  0.42943937512E+01  0.00000000000E+00 0.  1.
</event>
<event>
 7    1  0.1265344E-009  0.4778727E+02  0.7816164E-02  0.1312668E+00
        -11   -1    0    0    0    0  0.00000000000E+00  0.00000000000E+00  0.45593999997E+02  0.45594000000E+02  0.51100000000E-03 0.  1.
         11   -1    0    0    0    0 -0.00000000000E+00 -0.00000000000E+00 -0.45593999997E+02  0.45594000000E+02  0.51100000000E-03 0. -1.
    9900012    2    1    2    0    0 -0.38008213791E+02  0.20856913262E+02 -0.19971049724E+01  0.47787267579E+02  0.19999984202E+02 0.  0.
         12    1    1    2    0    0  0.38008213791E+02 -0.20856913262E+02  0.19971049724E+01  0.43400732421E+02  0.00000000000E+00 0. -1.
         11    1    3    3    0    0 -0.25318461822E+02  0.21817433158E+02 -0.61808538418E+01  0.33988643002E+02  0.51100000000E-03 0. -1.
        -11    1    3    3    0    0 -0.17281575998E+01  0.81605729229E+00  0.13447187598E+01  0.23368241265E+01  0.51100000000E-03 0.  1.
         12    1    3    3    0    0 -0.10961594369E+02 -0.17765771885E+01  0.28390301096E+01  0.11461800451E+02  0.00000000000E+00 0. -1.
</event>
<event>
 7    1  0.1265344E-009  0.4778726E+02  0.7816164E-02  0.1312668E+00
        -11   -1    0    0    0    0  0.00000000000E+00  0.00000000000E+00  0.45593999997E+02  0.45594000000E+02  0.51100000000E-03 0.  1.
         11   -1    0    0    0    0 -0.00000000000E+00 -0.00000000000E+00 -0.45593999997E+02  0.45594000000E+02  0.51100000000E-03 0. -1.
    9900012    2    1    2    0    0 -0.16628663073E+01  0.43060345712E+02 -0.51638489353E+01  0.47787264603E+02  0.19999970631E+02 0.  0.
         12    1    1    2    0    0  0.16628663073E+01 -0.43060345712E+02  0.51638489353E+01  0.43400735397E+02  0.00000000000E+00 0. -1.
         11    1    3    3    0    0 -0.32608137899E+00 -0.18798500656E+01  0.85894447914E-01  0.19098543013E+01  0.51100000000E-03 0. -1.
        -11    1    3    3    0    0 -0.40496332173E+01  0.16296329038E+02 -0.24440298693E+01  0.16968887753E+02  0.51100000000E-03 0.  1.
        -12    1    3    3    0    0  0.27128482890E+01  0.28643866740E+02 -0.28057135139E+01  0.28908522549E+02  0.00000000000E+00 0.  1.
</event>
<event>
 7    1  0.1265344E-009  0.4778727E+02  0.7816164E-02  0.1312668E+00
        -11   -1    0    0    0    0  0.00000000000E+00  0.00000000000E+00  0.45593999997E+02  0.45594000000E+02  0.51100000000E-03 0.  1.
         11   -1    0    0    0    0 -0.00000000000E+00 -0.00000000000E+00 -0.45593999997E+02  0.45594000000E+02  0.51100000000E-03 0. -1.
    9900012    2    1    2    0    0 -0.19003028956E+02  0.13836441805E+02  0.36483707085E+02  0.47787272887E+02  0.20000008399E+02 0.  0.
         12    1    1    2    0    0  0.19003028956E+02 -0.13836441805E+02 -0.36483707085E+02  0.43400727113E+02  0.00000000000E+00 0. -1.
         11    1    3    3    0    0 -0.64955104977E+01  0.45761783607E+01  0.18141848163E+02  0.19805547708E+02  0.51100000000E-03 0. -1.
        -11    1    3    3    0    0 -0.13264866928E+02  0.11877306962E+02  0.13206459544E+02  0.22168393925E+02  0.51100000000E-03 0.  1.
         12    1    3    3    0    0  0.75734846930E+00 -0.26170435181E+01  0.51353993781E+01  0.58133312526E+01  0.00000000000E+00 0. -1.
</event>
<event>
 7    1  0.1265344E-009  0.4778727E+02  0.7816164E-02  0.1312668E+00
        -11   -1    0    0    0    0  0.00000000000E+00  0.00000000000E+00  0.45593999997E+02  0.45594000000E+02  0.51100000000E-03 0.  1.
         11   -1    0    0    0    0 -0.00000000000E+00 -0.00000000000E+00 -0.45593999997E+02  0.45594000000E+02  0.51100000000E-03 0. -1.
    9900012    2    1    2    0    0  0.13608899353E+02 -0.18199837341E+02  0.36975494595E+02  0.47787269345E+02  0.19999992250E+02 0.  0.
         12    1    1    2    0    0 -0.13608899353E+02  0.18199837341E+02 -0.36975494595E+02  0.43400730655E+02  0.00000000000E+00 0. -1.
         11    1    3    3    0    0 -0.12736390163E+01 -0.80855857178E+01  0.16053679701E+02  0.18019974610E+02  0.51100000000E-03 0. -1.
        -11    1    3    3    0    0  0.50688888226E+01  0.17117097976E+01  0.83287306730E+01  0.98990574910E+01  0.51100000000E-03 0.  1.
        -12    1    3    3    0    0  0.98136495467E+01 -0.11825961421E+02  0.12593084221E+02  0.19868237243E+02  0.00000000000E+00 0.  1.
</event>
<event>
 7    1  0.1265344E-009  0.4778727E+02  0.7816164E-02  0.1312668E+00
        -11   -1    0    0    0    0  0.00000000000E+00  0.00000000000E+00  0.45593999997E+02  0.45594000000E+02  0.51100000000E-03 0.  1.
         11   -1    0    0    0    0 -0.00000000000E+00 -0.00000000000E+00 -0.45593999997E+02  0.45594000000E+02  0.51100000000E-03 0. -1.
    9900012    2    1    2    0    0 -0.45289420755E+01  0.26943461211E+02  0.33721833320E+02  0.47787268891E+02  0.19999990182E+02 0.  0.
         12    1    1    2    0    0  0.45289420755E+01 -0.26943461211E+02 -0.33721833320E+02  0.43400731109E+02  0.00000000000E+00 0. -1.
         11    1    3    3    0    0 -0.37534623001E+01  0.15199956953E+02  0.12365878496E+02  0.19950993004E+02  0.51100000000E-03 0.  1.
        -11    1    3    3    0    0  0.63073725966E+01  0.55955397231E+01  0.91392839657E+01  0.12434609987E+02  0.51100000000E-03 0. -1.
         12    1    3    3    0    0 -0.70828523720E+01  0.61479645354E+01  0.12216670858E+02  0.15401665900E+02  0.00000000000E+00 0. -1.
</event>
<event>
 7    1  0.1265344E-009  0.4778727E+02  0.7816164E-02  0.1312668E+00
        -11   -1    0    0    0    0  0.00000000000E+00  0.00000000000E+00  0.45593999997E+02  0.45594000000E+02  0.51100000000E-03 0.  1.
         11   -1    0    0    0    0 -0.00000000000E+00 -0.00000000000E+00 -0.45593999997E+02  0.45594000000E+02  0.51100000000E-03 0. -1.
    9900012    2    1    2    0    0  0.26613970744E+02 -0.28269255223E+02  0.19395085862E+02  0.47787267457E+02  0.19999983646E+02 0.  0.
         12    1    1    2    0    0 -0.26613970744E+02  0.28269255223E+02 -0.19395085862E+02  0.43400732543E+02  0.00000000000E+00 0. -1.
         11    1    3    3    0    0  0.53339990565E+01 -0.17288089459E+02  0.11608599519E+02  0.21496259352E+02  0.51100000000E-03 0. -1.
        -11    1    3    3    0    0  0.48303270121E+01  0.75543380254E+00  0.11588741355E+01  0.50245127920E+01  0.51100000000E-03 0.  1.
        -12    1    3    3    0    0  0.16449644676E+02 -0.11736599566E+02  0.66276122073E+01  0.21266495313E+02  0.00000000000E+00 0.  1.
</event>
<event>
 7    1  0.1265344E-009  0.4778728E+02  0.7816164E-02  0.1312668E+00
        -11   -1    0    0    0    0  0.00000000000E+00  0.00000000000E+00  0.45593999997E+02  0.45594000000E+02  0.51100000000E-03 0. -1.
         11   -1    0    0    0    0 -0.00000000000E+00 -0.00000000000E+00 -0.45593999997E+02  0.45594000000E+02  0.51100000000E-03 0.  1.
    9900012    2    1    2    0    0  0.30774188725E+00 -0.21601441563E+02 -0.37641810601E+02  0.47787275490E+02  0.20000020268E+02 0.  0.
         12    1    1    2    0    0 -0.30774188725E+00  0.21601441563E+02  0.37641810601E+02  0.43400724510E+02  0.00000000000E+00 0. -1.
         11    1    3    3    0    0  0.23494537772E+00  0.27785422586E+01 -0.21584969743E+01  0.35262736511E+01  0.51100000000E-03 0. -1.
        -11    1    3    3    0    0 -0.24273991334E+00  0.10034481185E+01 -0.19055435264E+01  0.21672395309E+01  0.51100000000E-03 0.  1.
        -12    1    3    3    0    0  0.31553642287E+00 -0.25383431941E+02 -0.33577770100E+02  0.42093762308E+02  0.00000000000E+00 0.  1.
</event>
<event>
 7    1  0.1265344E-009  0.4778726E+02  0.7816164E-02  0.1312668E+00
        -11   -1    0    0    0    0  0.00000000000E+00  0.00000000000E+00  0.45593999997E+02  0.45594000000E+02  0.51100000000E-03 0. -1.
         11   -1    0    0    0    0 -0.00000000000E+00 -0.00000000000E+00 -0.45593999997E+02  0.45594000000E+02  0.51100000000E-03 0.  1.
    9900012    2    1    2    0    0 -0.57173369781E-01 -0.43351144257E+02 -0.20735131010E+01  0.47787257682E+02  0.19999939073E+02 0.  0.
         12    1    1    2    0    0  0.57173369781E-01  0.43351144257E+02  0.20735131010E+01  0.43400742318E+02  0.00000000000E+00 0. -1.
         11    1    3    3    0    0  0.15740785639E+01  0.14100623961E+00 -0.48210060965E+00  0.16522794388E+01  0.51100000000E-03 0. -1.
        -11    1    3    3    0    0 -0.45010212923E+01 -0.31057682324E+02 -0.71968789858E+01  0.32196799397E+02  0.51100000000E-03 0.  1.
         12    1    3    3    0    0  0.28697693586E+01 -0.12434468173E+02  0.56054664944E+01  0.13938178846E+02  0.00000000000E+00 0. -1.
</event>
<event>
 7    1  0.1265344E-009  0.4778727E+02  0.7816164E-02  0.1312668E+00
        -11   -1    0    0    0    0  0.00000000000E+00  0.00000000000E+00  0.45593999997E+02  0.45594000000E+02  0.51100000000E-03 0.  1.
         11   -1    0    0    0    0 -0.00000000000E+00 -0.00000000000E+00 -0.45593999997E+02  0.45594000000E+02  0.51100000000E-03 0. -1.
    9900012    2    1    2    0    0 -0.48006644623E+00  0.28423596699E+02  0.32794692154E+02  0.47787272511E+02  0.20000006685E+02 0.  0.
         12    1    1    2    0    0  0.48006644623E+00 -0.28423596699E+02 -0.32794692154E+02  0.43400727489E+02  0.00000000000E+00 0. -1.
         11    1    3    3    0    0 -0.59676570437E+01  0.45089228096E+01  0.96964477749E+01  0.12245995885E+02  0.51100000000E-03 0. -1.
        -11    1    3    3    0    0 -0.15931858446E+01  0.66293633481E+01  0.14910769846E+01  0.69792557176E+01  0.51100000000E-03 0.  1.
        -12    1    3    3    0    0  0.70807764420E+01  0.17285310541E+02  0.21607167395E+02  0.28562020908E+02  0.00000000000E+00 0.  1.
</event>
<event>
 7    1  0.1265344E-009  0.4778727E+02  0.7816164E-02  0.1312668E+00
        -11   -1    0    0    0    0  0.00000000000E+00  0.00000000000E+00  0.45593999997E+02  0.45594000000E+02  0.51100000000E-03 0.  1.
         11   -1    0    0    0    0 -0.00000000000E+00 -0.00000000000E+00 -0.45593999997E+02  0.45594000000E+02  0.51100000000E-03 0. -1.
    9900012    2    1    2    0    0  0.87547588923E-01 -0.89433947822E+01  0.42469181337E+02  0.47787270302E+02  0.19999996617E+02 0.  0.
         12    1    1    2    0    0 -0.87547588923E-01  0.89433947822E+01 -0.42469181337E+02  0.43400729698E+02  0.00000000000E+00 0. -1.
         11    1    3    3    0    0 -0.10795959442E+01 -0.20702436740E+01 -0.13958126852E+01  0.27202443982E+01  0.51100000000E-03 0. -1.
        -11    1    3    3    0    0  0.33511292403E+01 -0.24719128659E+00  0.14713461060E+02  0.15092286352E+02  0.51100000000E-03 0.  1.
        -12    1    3    3    0    0 -0.21839857072E+01 -0.66259598216E+01  0.29151532963E+02  0.29974739552E+02  0.00000000000E+00 0.  1.
</event>
<event>
 7    1  0.1265344E-009  0.4778728E+02  0.7816164E-02  0.1312668E+00
        -11   -1    0    0    0    0  0.00000000000E+00  0.00000000000E+00  0.45593999997E+02  0.45594000000E+02  0.51100000000E-03 0. -1.
         11   -1    0    0    0    0 -0.00000000000E+00 -0.00000000000E+00 -0.45593999997E+02  0.45594000000E+02  0.51100000000E-03 0.  1.
    9900012    2    1    2    0    0 -0.29697334430E+02  0.21014149799E+02 -0.23666352369E+02  0.47787281129E+02  0.20000045981E+02 0.  0.
         12    1    1    2    0    0  0.29697334430E+02 -0.21014149799E+02  0.23666352369E+02  0.43400718871E+02  0.00000000000E+00 0. -1.
         11    1    3    3    0    0 -0.91164049589E+01  0.78349909252E+00 -0.59553244257E+00  0.91693712628E+01  0.51100000000E-03 0.  1.
        -11    1    3    3    0    0 -0.13012188643E+02  0.14737173043E+02 -0.87618551361E+01  0.21523741038E+02  0.51100000000E-03 0. -1.
         12    1    3    3    0    0 -0.75687408275E+01  0.54934776640E+01 -0.14308964791E+02  0.17094168829E+02  0.00000000000E+00 0. -1.
</event>
<event>
 7    1  0.1265344E-009  0.4778726E+02  0.7816164E-02  0.1312668E+00
        -11   -1    0    0    0    0  0.00000000000E+00  0.00000000000E+00  0.45593999997E+02  0.45594000000E+02  0.51100000000E-03 0.  1.
         11   -1    0    0    0    0 -0.00000000000E+00 -0.00000000000E+00 -0.45593999997E+02  0.45594000000E+02  0.51100000000E-03 0. -1.
    9900012    2    1    2    0    0  0.36975690749E+02 -0.18274128030E+01  0.22651340737E+02  0.47787258289E+02  0.19999941843E+02 0.  0.
         12    1    1    2    0    0 -0.36975690749E+02  0.18274128030E+01 -0.22651340737E+02  0.43400741711E+02  0.00000000000E+00 0. -1.
         11    1    3    3    0    0  0.18954690856E+02 -0.39576004817E+01  0.65465842556E+01  0.20440173010E+02  0.51100000000E-03 0. -1.
        -11    1    3    3    0    0  0.11144307473E+02 -0.34731249265E+01  0.14004346983E+02  0.18231289601E+02  0.51100000000E-03 0.  1.
        -12    1    3    3    0    0  0.68766924198E+01  0.56033126052E+01  0.21004094975E+01  0.91157956782E+01  0.00000000000E+00 0.  1.
</event>
<event>
 7    1  0.1265344E-009  0.4778727E+02  0.7816164E-02  0.1312668E+00
        -11   -1    0    0    0    0  0.00000000000E+00  0.00000000000E+00  0.45593999997E+02  0.45594000000E+02  0.51100000000E-03 0.  1.
         11   -1    0    0    0    0 -0.00000000000E+00 -0.00000000000E+00 -0.45593999997E+02  0.45594000000E+02  0.51100000000E-03 0. -1.
    9900012    2    1    2    0    0  0.18002206535E+02  0.36457554787E+02  0.15178622076E+02  0.47787270637E+02  0.19999998140E+02 0.  0.
         12    1    1    2    0    0 -0.18002206535E+02 -0.36457554787E+02 -0.15178622076E+02  0.43400729363E+02  0.00000000000E+00 0. -1.
         11    1    3    3    0    0  0.20996066266E+02  0.23698605040E+02  0.92640266154E+01  0.32989102275E+02  0.51100000000E-03 0. -1.
        -11    1    3    3    0    0 -0.51382150261E+00  0.71103111388E+01  0.17057080154E+01  0.73300734731E+01  0.51100000000E-03 0.  1.
        -12    1    3    3    0    0 -0.24800382289E+01  0.56486386078E+01  0.42088874450E+01  0.74680948884E+01  0.00000000000E+00 0.  1.
</event>
<event>
 7    1  0.1265344E-009  0.4778727E+02  0.7816164E-02  0.1312668E+00
        -11   -1    0    0    0    0  0.00000000000E+00  0.00000000000E+00  0.45593999997E+02  0.45594000000E+02  0.51100000000E-03 0.  1.
         11   -1    0    0    0    0 -0.00000000000E+00 -0.00000000000E+00 -0.45593999997E+02  0.45594000000E+02  0.51100000000E-03 0. -1.
    9900012    2    1    2    0    0 -0.31567522928E+02 -0.57362114256E+00  0.29778953449E+02  0.47787267132E+02  0.19999982160E+02 0.  0.
         12    1    1    2    0    0  0.31567522928E+02  0.57362114256E+00 -0.29778953449E+02  0.43400732868E+02  0.00000000000E+00 0. -1.
         11    1    3    3    0    0 -0.10225695410E+02 -0.12959991258E+01  0.18887066166E+01  0.10479106513E+02  0.51100000000E-03 0. -1.
        -11    1    3    3    0    0 -0.22968963632E+02  0.14050482884E+01  0.25745394458E+02  0.34530751325E+02  0.51100000000E-03 0.  1.
         12    1    3    3    0    0  0.16271361141E+01 -0.68267030515E+00  0.21448523739E+01  0.27774092938E+01  0.00000000000E+00 0. -1.
</event>
<event>
 7    1  0.1265344E-009  0.4778727E+02  0.7816164E-02  0.1312668E+00
        -11   -1    0    0    0    0  0.00000000000E+00  0.00000000000E+00  0.45593999997E+02  0.45594000000E+02  0.51100000000E-03 0. -1.
         11   -1    0    0    0    0 -0.00000000000E+00 -0.00000000000E+00 -0.45593999997E+02  0.45594000000E+02  0.51100000000E-03 0.  1.
    9900012    2    1    2    0    0 -0.39356491804E+02  0.13684137063E+02 -0.12142240286E+02  0.47787273584E+02  0.20000011581E+02 0.  0.
         12    1    1    2    0    0  0.39356491804E+02 -0.13684137063E+02  0.12142240286E+02  0.43400726416E+02  0.00000000000E+00 0. -1.
         11    1    3    3    0    0 -0.11398942914E+01  0.38371441490E+00 -0.50230218909E+00  0.13034199239E+01  0.51100000000E-03 0.  1.
        -11    1    3    3    0    0 -0.13738976525E+00 -0.24705071163E+01  0.18796138401E+01  0.31072865668E+01  0.51100000000E-03 0. -1.
         12    1    3    3    0    0 -0.38079207747E+02  0.15770929764E+02 -0.13519551937E+02  0.43376567094E+02  0.00000000000E+00 0. -1.
</event>
<event>
 7    1  0.1265344E-009  0.4778727E+02  0.7816164E-02  0.1312668E+00
        -11   -1    0    0    0    0  0.00000000000E+00  0.00000000000E+00  0.45593999997E+02  0.45594000000E+02  0.51100000000E-03 0. -1.
         11   -1    0    0    0    0 -0.00000000000E+00 -0.00000000000E+00 -0.45593999997E+02  0.45594000000E+02  0.51100000000E-03 0.  1.
    9900012    2    1    2    0    0  0.28170433675E+02 -0.32949085442E+02 -0.20994627286E+01  0.47787270643E+02  0.19999998172E+02 0.  0.
         12    1    1    2    0    0 -0.28170433675E+02  0.32949085442E+02  0.20994627286E+01  0.43400729357E+02  0.00000000000E+00 0. -1.
         11    1    3    3    0    0 -0.23880535908E+00 -0.14630405199E+01  0.19227622464E+01  0.24278654163E+01  0.51100000000E-03 0. -1.
        -11    1    3    3    0    0  0.27488462431E+02 -0.23300679816E+02 -0.67909619633E+01  0.36669529740E+02  0.51100000000E-03 0.  1.
        -12    1    3    3    0    0  0.92077660359E+00 -0.81853651061E+01  0.27687369883E+01  0.86898754873E+01  0.00000000000E+00 0.  1.
</event>
<event>
 7    1  0.1265344E-009  0.4778727E+02  0.7816164E-02  0.1312668E+00
        -11   -1    0    0    0    0  0.00000000000E+00  0.00000000000E+00  0.45593999997E+02  0.45594000000E+02  0.51100000000E-03 0. -1.
         11   -1    0    0    0    0 -0.00000000000E+00 -0.00000000000E+00 -0.45593999997E+02  0.45594000000E+02  0.51100000000E-03 0.  1.
    9900012    2    1    2    0    0  0.32476321386E+02  0.33969521669E+01 -0.28589726898E+02  0.47787271678E+02  0.20000002887E+02 0.  0.
         12    1    1    2    0    0 -0.32476321386E+02 -0.33969521669E+01  0.28589726898E+02  0.43400728322E+02  0.00000000000E+00 0. -1.
         11    1    3    3    0    0  0.23419810189E+01  0.37442894817E+01 -0.94461845067E+01  0.10427606667E+02  0.51100000000E-03 0. -1.
        -11    1    3    3    0    0  0.15398832524E+02  0.40862854078E+01 -0.56826456235E+01  0.16914911560E+02  0.51100000000E-03 0.  1.
        -12    1    3    3    0    0  0.14735507844E+02 -0.44336227227E+01 -0.13460896768E+02  0.20444753451E+02  0.00000000000E+00 0.  1.
</event>
<event>
 7    1  0.1265344E-009  0.4778727E+02  0.7816164E-02  0.1312668E+00
        -11   -1    0    0    0    0  0.00000000000E+00  0.00000000000E+00  0.45593999997E+02  0.45594000000E+02  0.51100000000E-03 0.  1.
         11   -1    0    0    0    0 -0.00000000000E+00 -0.00000000000E+00 -0.45593999997E+02  0.45594000000E+02  0.51100000000E-03 0. -1.
    9900012    2    1    2    0    0 -0.21913720375E+02  0.17833732039E+02  0.32944957893E+02  0.47787269711E+02  0.19999993919E+02 0.  0.
         12    1    1    2    0    0  0.21913720375E+02 -0.17833732039E+02 -0.32944957893E+02  0.43400730289E+02  0.00000000000E+00 0. -1.
         11    1    3    3    0    0 -0.12880750255E+02  0.10928768665E+02  0.17084296434E+02  0.24025505126E+02  0.51100000000E-03 0.  1.
        -11    1    3    3    0    0 -0.44130217918E+01  0.63987746639E+01  0.17242105823E+02  0.18913204170E+02  0.51100000000E-03 0. -1.
         12    1    3    3    0    0 -0.46199483276E+01  0.50618871013E+00 -0.13814443634E+01  0.48485604141E+01  0.00000000000E+00 0. -1.
</event>
<event>
 7    1  0.1265344E-009  0.4778728E+02  0.7816164E-02  0.1312668E+00
        -11   -1    0    0    0    0  0.00000000000E+00  0.00000000000E+00  0.45593999997E+02  0.45594000000E+02  0.51100000000E-03 0.  1.
         11   -1    0    0    0    0 -0.00000000000E+00 -0.00000000000E+00 -0.45593999997E+02  0.45594000000E+02  0.51100000000E-03 0. -1.
    9900012    2    1    2    0    0 -0.16494145361E+02  0.24009711624E+02  0.32172967298E+02  0.47787275257E+02  0.20000019207E+02 0.  0.
         12    1    1    2    0    0  0.16494145361E+02 -0.24009711624E+02 -0.32172967298E+02  0.43400724743E+02  0.00000000000E+00 0. -1.
         11    1    3    3    0    0 -0.89685108861E+01  0.10001912728E+02  0.10879724834E+02  0.17287014157E+02  0.51100000000E-03 0.  1.
        -11    1    3    3    0    0  0.42056475307E+01  0.11599706558E+01  0.53371590594E+01  0.68933497054E+01  0.51100000000E-03 0. -1.
         12    1    3    3    0    0 -0.11731282006E+02  0.12847828240E+02  0.15956083405E+02  0.23606911395E+02  0.00000000000E+00 0. -1.
</event>
<event>
 7    1  0.1265344E-009  0.4778727E+02  0.7816164E-02  0.1312668E+00
        -11   -1    0    0    0    0  0.00000000000E+00  0.00000000000E+00  0.45593999997E+02  0.45594000000E+02  0.51100000000E-03 0. -1.
         11   -1    0    0    0    0 -0.00000000000E+00 -0.00000000000E+00 -0.45593999997E+02  0.45594000000E+02  0.51100000000E-03 0.  1.
    9900012    2    1    2    0    0  0.15028719753E+02 -0.38674128676E+02 -0.12730772512E+02  0.47787271723E+02  0.20000003092E+02 0.  0.
         12    1    1    2    0    0 -0.15028719753E+02  0.38674128676E+02  0.12730772512E+02  0.43400728277E+02  0.00000000000E+00 0. -1.
         11    1    3    3    0    0  0.21774784578E+00 -0.35043431712E+01  0.31166240993E+01  0.46948036406E+01  0.51100000000E-03 0. -1.
        -11    1    3    3    0    0  0.14799665998E+02 -0.23271778349E+02 -0.75724072215E+01  0.28599775044E+02  0.51100000000E-03 0.  1.
        -12    1    3    3    0    0  0.11305909500E-01 -0.11898007155E+02 -0.82749893900E+01  0.14492693038E+02  0.00000000000E+00 0.  1.
</event>
<event>
 7    1  0.1265344E-009  0.4778727E+02  0.7816164E-02  0.1312668E+00
        -11   -1    0    0    0    0  0.00000000000E+00  0.00000000000E+00  0.45593999997E+02  0.45594000000E+02  0.51100000000E-03 0.  1.
         11   -1    0    0    0    0 -0.00000000000E+00 -0.00000000000E+00 -0.45593999997E+02  0.45594000000E+02  0.51100000000E-03 0. -1.
    9900012    2    1    2    0    0 -0.69975577748E+01  0.63924220481E+01  0.42353209660E+02  0.47787271400E+02  0.20000001622E+02 0.  0.
         12    1    1    2    0    0  0.69975577748E+01 -0.63924220481E+01 -0.42353209660E+02  0.43400728600E+02  0.00000000000E+00 0. -1.
         11    1    3    3    0    0  0.85363059429E+00  0.31241780002E+01  0.28009592555E+01  0.42818858440E+01  0.51100000000E-03 0. -1.
        -11    1    3    3    0    0 -0.40234566903E+01  0.22335347370E+01  0.94854138897E+00  0.46985755488E+01  0.51100000000E-03 0.  1.
        -12    1    3    3    0    0 -0.38277316788E+01  0.10347093109E+01  0.38603709016E+02  0.38806810007E+02  0.00000000000E+00 0.  1.
</event>
<event>
 7    1  0.1265344E-009  0.4778731E+02  0.7816164E-02  0.1312668E+00
        -11   -1    0    0    0    0  0.00000000000E+00  0.00000000000E+00  0.45593999997E+02  0.45594000000E+02  0.51100000000E-03 0. -1.
         11   -1    0    0    0    0 -0.00000000000E+00 -0.00000000000E+00 -0.45593999997E+02  0.45594000000E+02  0.51100000000E-03 0.  1.
    9900012    2    1    2    0    0  0.83897453618E+01  0.38419138370E+02 -0.18363057386E+02  0.47787309949E+02  0.20000177380E+02 0.  0.
         12    1    1    2    0    0 -0.83897453618E+01 -0.38419138370E+02  0.18363057386E+02  0.43400690051E+02  0.00000000000E+00 0. -1.
         11    1    3    3    0    0 -0.23813445154E+01  0.95665995466E+00 -0.50926021988E+00  0.26163612523E+01  0.51100000000E-03 0. -1.
        -11    1    3    3    0    0  0.10076771763E+02  0.10784250701E+02 -0.73834064516E+01  0.16503214337E+02  0.51100000000E-03 0.  1.
        -12    1    3    3    0    0  0.69431811424E+00  0.26678227714E+02 -0.10470390715E+02  0.28667734360E+02  0.00000000000E+00 0.  1.
</event>
<event>
 7    1  0.1265344E-009  0.4778727E+02  0.7816164E-02  0.1312668E+00
        -11   -1    0    0    0    0  0.00000000000E+00  0.00000000000E+00  0.45593999997E+02  0.45594000000E+02  0.51100000000E-03 0. -1.
         11   -1    0    0    0    0 -0.00000000000E+00 -0.00000000000E+00 -0.45593999997E+02  0.45594000000E+02  0.51100000000E-03 0.  1.
    9900012    2    1    2    0    0 -0.14004785728E+01  0.28057058533E+02 -0.33082674479E+02  0.47787271614E+02  0.20000002597E+02 0.  0.
         12    1    1    2    0    0  0.14004785728E+01 -0.28057058533E+02  0.33082674479E+02  0.43400728386E+02  0.00000000000E+00 0. -1.
         11    1    3    3    0    0 -0.26744835481E+01  0.14654231110E+00 -0.92174331391E+01  0.95987192288E+01  0.51100000000E-03 0. -1.
        -11    1    3    3    0    0  0.42005476619E+01  0.12254741039E+02 -0.15492009952E+02  0.20194693640E+02  0.51100000000E-03 0.  1.
        -12    1    3    3    0    0 -0.29265426866E+01  0.15655775183E+02 -0.83732313879E+01  0.17993858746E+02  0.00000000000E+00 0.  1.
</event>
<event>
 7    1  0.1265344E-009  0.4778727E+02  0.7816164E-02  0.1312668E+00
        -11   -1    0    0    0    0  0.00000000000E+00  0.00000000000E+00  0.45593999997E+02  0.45594000000E+02  0.51100000000E-03 0. -1.
         11   -1    0    0    0    0 -0.00000000000E+00 -0.00000000000E+00 -0.45593999997E+02  0.45594000000E+02  0.51100000000E-03 0.  1.
    9900012    2    1    2    0    0 -0.28467473161E+02  0.76763348916E+01 -0.31848081756E+02  0.47787268934E+02  0.19999990377E+02 0.  0.
         12    1    1    2    0    0  0.28467473161E+02 -0.76763348916E+01  0.31848081756E+02  0.43400731066E+02  0.00000000000E+00 0. -1.
         11    1    3    3    0    0 -0.18326009682E+02  0.52282367702E+01 -0.69026829005E+01  0.20268796760E+02  0.51100000000E-03 0. -1.
        -11    1    3    3    0    0 -0.68449674806E+01 -0.58097488254E+00 -0.12083534830E+02  0.13899745533E+02  0.51100000000E-03 0.  1.
         12    1    3    3    0    0 -0.32964959985E+01  0.30290730039E+01 -0.12861864025E+02  0.13618726642E+02  0.00000000000E+00 0. -1.
</event>
<event>
 7    1  0.1579755E-009  0.4778727E+02  0.7816164E-02  0.1312668E+00
        -11   -1    0    0    0    0  0.00000000000E+00  0.00000000000E+00  0.45593999997E+02  0.45594000000E+02  0.51100000000E-03 0.  1.
         11   -1    0    0    0    0 -0.00000000000E+00 -0.00000000000E+00 -0.45593999997E+02  0.45594000000E+02  0.51100000000E-03 0. -1.
    9900012    2    1    2    0    0  0.43276468399E+02 -0.12526065557E+01  0.30333690783E+01  0.47787273414E+02  0.20000010802E+02 0.  0.
         12    1    1    2    0    0 -0.43276468399E+02  0.12526065557E+01 -0.30333690783E+01  0.43400726586E+02  0.00000000000E+00 0. -1.
         11    1    3    3    0    0  0.65277605523E+01 -0.86912376400E+00  0.42486401082E+01  0.78369622287E+01  0.51100000000E-03 0. -1.
        -11    1    3    3    0    0  0.14483896398E+02 -0.31334665473E+01 -0.75605525889E+01  0.16636220220E+02  0.51100000000E-03 0.  1.
        -12    1    3    3    0    0  0.22264811448E+02  0.27499837556E+01  0.63452815590E+01  0.23314090965E+02  0.00000000000E+00 0.  1.
</event>
<event>
 7    1  0.1265344E-009  0.4778727E+02  0.7816164E-02  0.1312668E+00
        -11   -1    0    0    0    0  0.00000000000E+00  0.00000000000E+00  0.45593999997E+02  0.45594000000E+02  0.51100000000E-03 0.  1.
         11   -1    0    0    0    0 -0.00000000000E+00 -0.00000000000E+00 -0.45593999997E+02  0.45594000000E+02  0.51100000000E-03 0. -1.
    9900012    2    1    2    0    0 -0.15463871880E+02 -0.21587001715E+01  0.40494837430E+02  0.47787272144E+02  0.20000005011E+02 0.  0.
         12    1    1    2    0    0  0.15463871880E+02  0.21587001715E+01 -0.40494837430E+02  0.43400727856E+02  0.00000000000E+00 0. -1.
         11    1    3    3    0    0 -0.12368960823E+02  0.57319920238E+01  0.13466349031E+02  0.19162188833E+02  0.51100000000E-03 0. -1.
        -11    1    3    3    0    0 -0.26676065547E+01 -0.35289377376E+01  0.18674147449E+02  0.19190969478E+02  0.51100000000E-03 0.  1.
         12    1    3    3    0    0 -0.42730450261E+00 -0.43617544578E+01  0.83543409502E+01  0.94341138323E+01  0.00000000000E+00 0. -1.
</event>
<event>
 7    1  0.1265344E-009  0.4778727E+02  0.7816164E-02  0.1312668E+00
        -11   -1    0    0    0    0  0.00000000000E+00  0.00000000000E+00  0.45593999997E+02  0.45594000000E+02  0.51100000000E-03 0.  1.
         11   -1    0    0    0    0 -0.00000000000E+00 -0.00000000000E+00 -0.45593999997E+02  0.45594000000E+02  0.51100000000E-03 0. -1.
    9900012    2    1    2    0    0  0.23298968038E+02  0.30200147474E+02  0.20705852904E+02  0.47787272316E+02  0.20000005797E+02 0.  0.
         12    1    1    2    0    0 -0.23298968038E+02 -0.30200147474E+02 -0.20705852904E+02  0.43400727684E+02  0.00000000000E+00 0. -1.
         11    1    3    3    0    0  0.84195625826E+00  0.82162488471E+01  0.12981011135E+02  0.15385781937E+02  0.51100000000E-03 0.  1.
        -11    1    3    3    0    0  0.95355693606E+01  0.98886475003E+01  0.40874912065E+01  0.14332481189E+02  0.51100000000E-03 0. -1.
        -12    1    3    3    0    0  0.12921442419E+02  0.12095251126E+02  0.36373505621E+01  0.18069009190E+02  0.00000000000E+00 0.  1.
</event>
<event>
 7    1  0.1265344E-009  0.4778727E+02  0.7816164E-02  0.1312668E+00
        -11   -1    0    0    0    0  0.00000000000E+00  0.00000000000E+00  0.45593999997E+02  0.45594000000E+02  0.51100000000E-03 0. -1.
         11   -1    0    0    0    0 -0.00000000000E+00 -0.00000000000E+00 -0.45593999997E+02  0.45594000000E+02  0.51100000000E-03 0.  1.
    9900012    2    1    2    0    0  0.35229342465E+02  0.67835325711E+01 -0.24423358632E+02  0.47787270381E+02  0.19999996974E+02 0.  0.
         12    1    1    2    0    0 -0.35229342465E+02 -0.67835325711E+01  0.24423358632E+02  0.43400729619E+02  0.00000000000E+00 0. -1.
         11    1    3    3    0    0  0.22788678442E+02  0.61284890760E+01 -0.11772231910E+02  0.26371721368E+02  0.51100000000E-03 0.  1.
        -11    1    3    3    0    0  0.12861407344E+01  0.40881957041E+01 -0.11444644078E+00  0.42872602385E+01  0.51100000000E-03 0. -1.
         12    1    3    3    0    0  0.11154523288E+02 -0.34331522090E+01 -0.12536680281E+02  0.17128288775E+02  0.00000000000E+00 0. -1.
</event>
<event>
 7    1  0.1265344E-009  0.4778725E+02  0.7816164E-02  0.1312668E+00
        -11   -1    0    0    0    0  0.00000000000E+00  0.00000000000E+00  0.45593999997E+02  0.45594000000E+02  0.51100000000E-03 0.  1.
         11   -1    0    0    0    0 -0.00000000000E+00 -0.00000000000E+00 -0.45593999997E+02  0.45594000000E+02  0.51100000000E-03 0. -1.
    9900012    2    1    2    0    0 -0.32170943612E+02 -0.20251782351E+01  0.29061219717E+02  0.47787245961E+02  0.19999885633E+02 0.  0.
         12    1    1    2    0    0  0.32170943612E+02  0.20251782351E+01 -0.29061219717E+02  0.43400754039E+02  0.00000000000E+00 0. -1.
         11    1    3    3    0    0 -0.83942218456E+00 -0.19380843389E+01 -0.16039486184E+01  0.26520655988E+01  0.51100000000E-03 0. -1.
        -11    1    3    3    0    0 -0.24966737676E+02 -0.44889179292E+01  0.22960823479E+02  0.34215315131E+02  0.51100000000E-03 0.  1.
         12    1    3    3    0    0 -0.63647837512E+01  0.44018240330E+01  0.77043448555E+01  0.10919865231E+02  0.00000000000E+00 0. -1.
</event>
<event>
 7    1  0.1265344E-009  0.4778726E+02  0.7816164E-02  0.1312668E+00
        -11   -1    0    0    0    0  0.00000000000E+00  0.00000000000E+00  0.45593999997E+02  0.45594000000E+02  0.51100000000E-03 0. -1.
         11   -1    0    0    0    0 -0.00000000000E+00 -0.00000000000E+00 -0.45593999997E+02  0.45594000000E+02  0.51100000000E-03 0.  1.
    9900012    2    1    2    0    0 -0.27467075290E+02  0.31650358710E+02 -0.11288861080E+02  0.47787264799E+02  0.19999971526E+02 0.  0.
         12    1    1    2    0    0  0.27467075290E+02 -0.31650358710E+02  0.11288861080E+02  0.43400735201E+02  0.00000000000E+00 0. -1.
         11    1    3    3    0    0 -0.97834497396E+01  0.78682978755E+01 -0.62747843676E+01  0.14035630352E+02  0.51100000000E-03 0. -1.
        -11    1    3    3    0    0  0.27000395414E+01  0.45167105000E+01 -0.14226471388E-01  0.52622324084E+01  0.51100000000E-03 0.  1.
        -12    1    3    3    0    0 -0.20383665091E+02  0.19265350335E+02 -0.49998502413E+01  0.28489402039E+02  0.00000000000E+00 0.  1.
</event>
<event>
 7    1  0.1265344E-009  0.4778725E+02  0.7816164E-02  0.1312668E+00
        -11   -1    0    0    0    0  0.00000000000E+00  0.00000000000E+00  0.45593999997E+02  0.45594000000E+02  0.51100000000E-03 0. -1.
         11   -1    0    0    0    0 -0.00000000000E+00 -0.00000000000E+00 -0.45593999997E+02  0.45594000000E+02  0.51100000000E-03 0.  1.
    9900012    2    1    2    0    0  0.50451098067E+01  0.39373425055E+02  0.17547234838E+02  0.47787249039E+02  0.19999899669E+02 0.  0.
         12    1    1    2    0    0 -0.50451098067E+01 -0.39373425055E+02 -0.17547234838E+02  0.43400750961E+02  0.00000000000E+00 0. -1.
         11    1    3    3    0    0  0.53477503842E+00  0.16610883449E+02  0.33284394765E+01  0.16949511583E+02  0.51100000000E-03 0. -1.
        -11    1    3    3    0    0 -0.34287349917E+01  0.12548525106E+02  0.22264344706E+01  0.13197678458E+02  0.51100000000E-03 0.  1.
         12    1    3    3    0    0  0.79390697600E+01  0.10214016500E+02  0.11992360891E+02  0.17640058998E+02  0.00000000000E+00 0. -1.
</event>
<event>
 7    1  0.1265344E-009  0.4778727E+02  0.7816164E-02  0.1312668E+00
        -11   -1    0    0    0    0  0.00000000000E+00  0.00000000000E+00  0.45593999997E+02  0.45594000000E+02  0.51100000000E-03 0.  1.
         11   -1    0    0    0    0 -0.00000000000E+00 -0.00000000000E+00 -0.45593999997E+02  0.45594000000E+02  0.51100000000E-03 0. -1.
    9900012    2    1    2    0    0 -0.99787507989E+01  0.27092200752E+02  0.32404637263E+02  0.47787270453E+02  0.19999997302E+02 0.  0.
         12    1    1    2    0    0  0.99787507989E+01 -0.27092200752E+02 -0.32404637263E+02  0.43400729547E+02  0.00000000000E+00 0. -1.
         11    1    3    3    0    0 -0.38060147004E+01  0.12012442493E+02  0.16027824036E+02  0.20388125617E+02  0.51100000000E-03 0. -1.
        -11    1    3    3    0    0 -0.46350780672E+01  0.17256549932E+02  0.16998869096E+02  0.24662400837E+02  0.51100000000E-03 0.  1.
         12    1    3    3    0    0 -0.15376580313E+01 -0.21767916732E+01 -0.62205587002E+00  0.27367439988E+01  0.00000000000E+00 0. -1.
</event>
<event>
 7    1  0.1265344E-009  0.4778727E+02  0.7816164E-02  0.1312668E+00
        -11   -1    0    0    0    0  0.00000000000E+00  0.00000000000E+00  0.45593999997E+02  0.45594000000E+02  0.51100000000E-03 0.  1.
         11   -1    0    0    0    0 -0.00000000000E+00 -0.00000000000E+00 -0.45593999997E+02  0.45594000000E+02  0.51100000000E-03 0. -1.
    9900012    2    1    2    0    0 -0.16890660038E+02 -0.36893809671E+02  0.15400517430E+02  0.47787268143E+02  0.19999986772E+02 0.  0.
         12    1    1    2    0    0  0.16890660038E+02  0.36893809671E+02 -0.15400517430E+02  0.43400731857E+02  0.00000000000E+00 0. -1.
         11    1    3    3    0    0 -0.43361924635E+01 -0.61546789923E+01  0.54392334352E+01  0.92880514212E+01  0.51100000000E-03 0. -1.
        -11    1    3    3    0    0 -0.91756966051E+01 -0.50105493002E+01  0.65236274069E+01  0.12323016160E+02  0.51100000000E-03 0.  1.
         12    1    3    3    0    0 -0.33787709697E+01 -0.25728581379E+02  0.34376565878E+01  0.26176200562E+02  0.00000000000E+00 0. -1.
</event>
<event>
 7    1  0.1265344E-009  0.4778727E+02  0.7816164E-02  0.1312668E+00
        -11   -1    0    0    0    0  0.00000000000E+00  0.00000000000E+00  0.45593999997E+02  0.45594000000E+02  0.51100000000E-03 0. -1.
         11   -1    0    0    0    0 -0.00000000000E+00 -0.00000000000E+00 -0.45593999997E+02  0.45594000000E+02  0.51100000000E-03 0.  1.
    9900012    2    1    2    0    0 -0.17137041888E+02  0.38485048860E+02 -0.10432936056E+02  0.47787270223E+02  0.19999996255E+02 0.  0.
         12    1    1    2    0    0  0.17137041888E+02 -0.38485048860E+02  0.10432936056E+02  0.43400729777E+02  0.00000000000E+00 0. -1.
         11    1    3    3    0    0 -0.39311601067E+01  0.16022181582E+01  0.31502301428E+01  0.52863099630E+01  0.51100000000E-03 0. -1.
        -11    1    3    3    0    0 -0.15390623778E+01  0.12549944062E+02 -0.79451396825E+01  0.14933018911E+02  0.51100000000E-03 0.  1.
        -12    1    3    3    0    0 -0.11666819404E+02  0.24332886640E+02 -0.56380265166E+01  0.27567941349E+02  0.00000000000E+00 0.  1.
</event>
<event>
 7    1  0.1265344E-009  0.4778727E+02  0.7816164E-02  0.1312668E+00
        -11   -1    0    0    0    0  0.00000000000E+00  0.00000000000E+00  0.45593999997E+02  0.45594000000E+02  0.51100000000E-03 0.  1.
         11   -1    0    0    0    0 -0.00000000000E+00 -0.00000000000E+00 -0.45593999997E+02  0.45594000000E+02  0.51100000000E-03 0. -1.
    9900012    2    1    2    0    0 -0.77792437300E+01  0.13904921906E+02  0.40370282774E+02  0.47787271694E+02  0.20000002963E+02 0.  0.
         12    1    1    2    0    0  0.77792437300E+01 -0.13904921906E+02 -0.40370282774E+02  0.43400728306E+02  0.00000000000E+00 0. -1.
         11    1    3    3    0    0 -0.22053518494E+01  0.11533483003E+02  0.36311467038E+02  0.38162906673E+02  0.51100000000E-03 0. -1.
        -11    1    3    3    0    0  0.52017330067E+00  0.79296395256E+00  0.31183013531E+01  0.32593213531E+01  0.51100000000E-03 0.  1.
        -12    1    3    3    0    0 -0.60940651812E+01  0.15784749500E+01  0.94051438241E+00  0.63650436687E+01  0.00000000000E+00 0.  1.
</event>
<event>
 7    1  0.1265344E-009  0.4778728E+02  0.7816164E-02  0.1312668E+00
        -11   -1    0    0    0    0  0.00000000000E+00  0.00000000000E+00  0.45593999997E+02  0.45594000000E+02  0.51100000000E-03 0. -1.
         11   -1    0    0    0    0 -0.00000000000E+00 -0.00000000000E+00 -0.45593999997E+02  0.45594000000E+02  0.51100000000E-03 0.  1.
    9900012    2    1    2    0    0 -0.20937175191E+02 -0.23426559851E+02 -0.29940833036E+02  0.47787280025E+02  0.20000040948E+02 0.  0.
         12    1    1    2    0    0  0.20937175191E+02  0.23426559851E+02  0.29940833036E+02  0.43400719975E+02  0.00000000000E+00 0. -1.
         11    1    3    3    0    0 -0.13491668599E+02 -0.84611727317E+01 -0.41997079068E+01  0.16469793938E+02  0.51100000000E-03 0. -1.
        -11    1    3    3    0    0 -0.73954888100E+01 -0.10333332922E+02 -0.15257524090E+02  0.19856058663E+02  0.51100000000E-03 0.  1.
         12    1    3    3    0    0 -0.50017782215E-01 -0.46320541969E+01 -0.10483601039E+02  0.11461427425E+02  0.00000000000E+00 0. -1.
</event>
<event>
 7    1  0.1265344E-009  0.4778727E+02  0.7816164E-02  0.1312668E+00
        -11   -1    0    0    0    0  0.00000000000E+00  0.00000000000E+00  0.45593999997E+02  0.45594000000E+02  0.51100000000E-03 0. -1.
         11   -1    0    0    0    0 -0.00000000000E+00 -0.00000000000E+00 -0.45593999997E+02  0.45594000000E+02  0.51100000000E-03 0.  1.
    9900012    2    1    2    0    0 -0.18156083757E+02  0.29921259847E+02 -0.25665117335E+02  0.47787269406E+02  0.19999992530E+02 0.  0.
         12    1    1    2    0    0  0.18156083757E+02 -0.29921259847E+02  0.25665117335E+02  0.43400730594E+02  0.00000000000E+00 0. -1.
         11    1    3    3    0    0 -0.68945275258E+01  0.17988048813E+02 -0.47141932485E+01  0.19832499292E+02  0.51100000000E-03 0.  1.
        -11    1    3    3    0    0  0.70114896706E+00 -0.13690072795E+00 -0.35916489832E+01  0.36620068764E+01  0.51100000000E-03 0. -1.
         12    1    3    3    0    0 -0.11962705199E+02  0.12070111762E+02 -0.17359275104E+02  0.24292763238E+02  0.00000000000E+00 0. -1.
</event>
<event>
 7    1  0.1265344E-009  0.4778727E+02  0.7816164E-02  0.1312668E+00
        -11   -1    0    0    0    0  0.00000000000E+00  0.00000000000E+00  0.45593999997E+02  0.45594000000E+02  0.51100000000E-03 0.  1.
         11   -1    0    0    0    0 -0.00000000000E+00 -0.00000000000E+00 -0.45593999997E+02  0.45594000000E+02  0.51100000000E-03 0. -1.
    9900012    2    1    2    0    0  0.43079763252E+02 -0.45379707705E+01  0.26765572434E+01  0.47787272595E+02  0.20000007070E+02 0.  0.
         12    1    1    2    0    0 -0.43079763252E+02  0.45379707705E+01 -0.26765572434E+01  0.43400727405E+02  0.00000000000E+00 0. -1.
         11    1    3    3    0    0  0.81820995049E+01 -0.41621169260E+01 -0.38801706265E+01  0.99662276698E+01  0.51100000000E-03 0. -1.
        -11    1    3    3    0    0  0.10720254241E+02 -0.38974558210E+01  0.70021059764E+01  0.13384449979E+02  0.51100000000E-03 0.  1.
         12    1    3    3    0    0  0.24177409507E+02  0.35216019765E+01 -0.44537810656E+00  0.24436594947E+02  0.00000000000E+00 0. -1.
</event>
<event>
 7    1  0.1265344E-009  0.4778727E+02  0.7816164E-02  0.1312668E+00
        -11   -1    0    0    0    0  0.00000000000E+00  0.00000000000E+00  0.45593999997E+02  0.45594000000E+02  0.51100000000E-03 0.  1.
         11   -1    0    0    0    0 -0.00000000000E+00 -0.00000000000E+00 -0.45593999997E+02  0.45594000000E+02  0.51100000000E-03 0. -1.
    9900012    2    1    2    0    0  0.31356067158E+01  0.62172231846E+01  0.42838504775E+02  0.47787269764E+02  0.19999994164E+02 0.  0.
         12    1    1    2    0    0 -0.31356067158E+01 -0.62172231846E+01 -0.42838504775E+02  0.43400730236E+02  0.00000000000E+00 0. -1.
         11    1    3    3    0    0 -0.29883334239E+01  0.83664146472E+01  0.74742306068E+01  0.11609959265E+02  0.51100000000E-03 0. -1.
        -11    1    3    3    0    0  0.36424878861E+01 -0.18546366545E+01  0.11942824848E+02  0.12622933919E+02  0.51100000000E-03 0.  1.
        -12    1    3    3    0    0  0.24814522536E+01 -0.29455480817E+00  0.23421449321E+02  0.23554376581E+02  0.00000000000E+00 0.  1.
</event>
<event>
 7    1  0.1265344E-009  0.4778727E+02  0.7816164E-02  0.1312668E+00
        -11   -1    0    0    0    0  0.00000000000E+00  0.00000000000E+00  0.45593999997E+02  0.45594000000E+02  0.51100000000E-03 0. -1.
         11   -1    0    0    0    0 -0.00000000000E+00 -0.00000000000E+00 -0.45593999997E+02  0.45594000000E+02  0.51100000000E-03 0.  1.
    9900012    2    1    2    0    0  0.50328497866E+01  0.42926196405E+02  0.39541527351E+01  0.47787271450E+02  0.20000001850E+02 0.  0.
         12    1    1    2    0    0 -0.50328497866E+01 -0.42926196405E+02 -0.39541527351E+01  0.43400728550E+02  0.00000000000E+00 0. -1.
         11    1    3    3    0    0 -0.72765072052E-01  0.68117242361E+01  0.19254621551E+01  0.70790032205E+01  0.51100000000E-03 0. -1.
        -11    1    3    3    0    0  0.52115390233E+00  0.28600942996E+02  0.84333818134E+01  0.29822935314E+02  0.51100000000E-03 0.  1.
         12    1    3    3    0    0  0.45844609563E+01  0.75135291733E+01 -0.64046912334E+01  0.10885332916E+02  0.00000000000E+00 0. -1.
</event>
<event>
 7    1  0.1567713E-009  0.4778727E+02  0.7816164E-02  0.1312668E+00
        -11   -1    0    0    0    0  0.00000000000E+00  0.00000000000E+00  0.45593999997E+02  0.45594000000E+02  0.51100000000E-03 0. -1.
         11   -1    0    0    0    0 -0.00000000000E+00 -0.00000000000E+00 -0.45593999997E+02  0.45594000000E+02  0.51100000000E-03 0.  1.
    9900012    2    1    2    0    0  0.12197745174E+02  0.15146240307E+02 -0.38799867646E+02  0.47787270604E+02  0.19999997992E+02 0.  0.
         12    1    1    2    0    0 -0.12197745174E+02 -0.15146240307E+02  0.38799867646E+02  0.43400729396E+02  0.00000000000E+00 0. -1.
         11    1    3    3    0    0  0.53935808928E+01  0.14016756607E+02 -0.15993194319E+02  0.21939517894E+02  0.51100000000E-03 0. -1.
        -11    1    3    3    0    0  0.31733584153E+01  0.35641253591E+01 -0.20204377162E+02  0.20760299853E+02  0.51100000000E-03 0.  1.
         12    1    3    3    0    0  0.36308058661E+01 -0.24346416590E+01 -0.26022961645E+01  0.50874528570E+01  0.00000000000E+00 0. -1.
</event>
<event>
 7    1  0.1265344E-009  0.4778725E+02  0.7816164E-02  0.1312668E+00
        -11   -1    0    0    0    0  0.00000000000E+00  0.00000000000E+00  0.45593999997E+02  0.45594000000E+02  0.51100000000E-03 0.  1.
         11   -1    0    0    0    0 -0.00000000000E+00 -0.00000000000E+00 -0.45593999997E+02  0.45594000000E+02  0.51100000000E-03 0. -1.
    9900012    2    1    2    0    0 -0.33523653622E+02  0.25043277072E+02  0.11516245450E+02  0.47787251297E+02  0.19999909963E+02 0.  0.
         12    1    1    2    0    0  0.33523653622E+02 -0.25043277072E+02 -0.11516245450E+02  0.43400748703E+02  0.00000000000E+00 0. -1.
         11    1    3    3    0    0 -0.37718691734E+01  0.68954026937E+01 -0.20552843909E+01  0.81239011293E+01  0.51100000000E-03 0. -1.
        -11    1    3    3    0    0 -0.16141699817E+02  0.16716984709E+02  0.11114831658E+02  0.25759494052E+02  0.51100000000E-03 0.  1.
        -12    1    3    3    0    0 -0.13610084632E+02  0.14308896695E+01  0.24566981824E+01  0.13903856116E+02  0.00000000000E+00 0.  1.
</event>
<event>
 7    1  0.1265344E-009  0.4778727E+02  0.7816164E-02  0.1312668E+00
        -11   -1    0    0    0    0  0.00000000000E+00  0.00000000000E+00  0.45593999997E+02  0.45594000000E+02  0.51100000000E-03 0.  1.
         11   -1    0    0    0    0 -0.00000000000E+00 -0.00000000000E+00 -0.45593999997E+02  0.45594000000E+02  0.51100000000E-03 0. -1.
    9900012    2    1    2    0    0  0.15839241440E+02 -0.18261445822E+02  0.36045269290E+02  0.47787269464E+02  0.19999992794E+02 0.  0.
         12    1    1    2    0    0 -0.15839241440E+02  0.18261445822E+02 -0.36045269290E+02  0.43400730536E+02  0.00000000000E+00 0. -1.
         11    1    3    3    0    0  0.59679752970E+01 -0.28055797937E+00  0.92888324008E+01  0.11044358268E+02  0.51100000000E-03 0. -1.
        -11    1    3    3    0    0  0.78928606491E+01 -0.89269786414E+00  0.93859926025E+01  0.12295975606E+02  0.51100000000E-03 0.  1.
        -12    1    3    3    0    0  0.19784054939E+01 -0.17088189978E+02  0.17370444287E+02  0.24446935590E+02  0.00000000000E+00 0.  1.
</event>
<event>
 7    1  0.1265344E-009  0.4778727E+02  0.7816164E-02  0.1312668E+00
        -11   -1    0    0    0    0  0.00000000000E+00  0.00000000000E+00  0.45593999997E+02  0.45594000000E+02  0.51100000000E-03 0. -1.
         11   -1    0    0    0    0 -0.00000000000E+00 -0.00000000000E+00 -0.45593999997E+02  0.45594000000E+02  0.51100000000E-03 0.  1.
    9900012    2    1    2    0    0 -0.15334669326E+01  0.43361902576E+02  0.10085809338E+01  0.47787270151E+02  0.19999995929E+02 0.  0.
         12    1    1    2    0    0  0.15334669326E+01 -0.43361902576E+02 -0.10085809338E+01  0.43400729849E+02  0.00000000000E+00 0. -1.
         11    1    3    3    0    0  0.11983570198E+01  0.31395259829E+02 -0.19653643200E+01  0.31479533930E+02  0.51100000000E-03 0. -1.
        -11    1    3    3    0    0  0.25243471112E+01  0.48144204654E+01 -0.23885456802E+01  0.59376867114E+01  0.51100000000E-03 0.  1.
         12    1    3    3    0    0 -0.52561710637E+01  0.71522222822E+01  0.53624909340E+01  0.10370049510E+02  0.00000000000E+00 0. -1.
</event>
<event>
 7    1  0.1671218E-009  0.4778727E+02  0.7816164E-02  0.1312668E+00
        -11   -1    0    0    0    0  0.00000000000E+00  0.00000000000E+00  0.45593999997E+02  0.45594000000E+02  0.51100000000E-03 0.  1.
         11   -1    0    0    0    0 -0.00000000000E+00 -0.00000000000E+00 -0.45593999997E+02  0.45594000000E+02  0.51100000000E-03 0. -1.
    9900012    2    1    2    0    0  0.27634567785E+02 -0.22535171415E+02  0.24741060367E+02  0.47787270105E+02  0.19999995716E+02 0.  0.
         12    1    1    2    0    0 -0.27634567785E+02  0.22535171415E+02 -0.24741060367E+02  0.43400729895E+02  0.00000000000E+00 0. -1.
         11    1    3    3    0    0  0.10111264211E+02 -0.15791480145E+01  0.21951820646E+01  0.10466622997E+02  0.51100000000E-03 0. -1.
        -11    1    3    3    0    0 -0.39589131051E+00 -0.32445072344E+01  0.69734534951E+01  0.77014681090E+01  0.51100000000E-03 0.  1.
        -12    1    3    3    0    0  0.17919194884E+02 -0.17711516166E+02  0.15572424807E+02  0.29619178999E+02  0.00000000000E+00 0.  1.
</event>
<event>
 7    1  0.1265344E-009  0.4778727E+02  0.7816164E-02  0.1312668E+00
        -11   -1    0    0    0    0  0.00000000000E+00  0.00000000000E+00  0.45593999997E+02  0.45594000000E+02  0.51100000000E-03 0. -1.
         11   -1    0    0    0    0 -0.00000000000E+00 -0.00000000000E+00 -0.45593999997E+02  0.45594000000E+02  0.51100000000E-03 0.  1.
    9900012    2    1    2    0    0 -0.31902876170E+01  0.43278675680E+02 -0.63373429697E+00  0.47787270480E+02  0.19999997426E+02 0.  0.
         12    1    1    2    0    0  0.31902876170E+01 -0.43278675680E+02  0.63373429697E+00  0.43400729520E+02  0.00000000000E+00 0. -1.
         11    1    3    3    0    0 -0.44223883146E+01  0.23069684355E+02  0.57828924200E+01  0.24191107863E+02  0.51100000000E-03 0. -1.
        -11    1    3    3    0    0  0.22522633465E+01  0.16894623347E+02 -0.88455292046E+00  0.17067027344E+02  0.51100000000E-03 0.  1.
         12    1    3    3    0    0 -0.10201626489E+01  0.33143679787E+01 -0.55320737965E+01  0.65291352734E+01  0.00000000000E+00 0. -1.
</event>
<event>
 7    1  0.1265344E-009  0.4778727E+02  0.7816164E-02  0.1312668E+00
        -11   -1    0    0    0    0  0.00000000000E+00  0.00000000000E+00  0.45593999997E+02  0.45594000000E+02  0.51100000000E-03 0. -1.
         11   -1    0    0    0    0 -0.00000000000E+00 -0.00000000000E+00 -0.45593999997E+02  0.45594000000E+02  0.51100000000E-03 0.  1.
    9900012    2    1    2    0    0  0.16310977606E+01 -0.39311100423E+02  0.18319391912E+02  0.47787271707E+02  0.20000003019E+02 0.  0.
         12    1    1    2    0    0 -0.16310977606E+01  0.39311100423E+02 -0.18319391912E+02  0.43400728293E+02  0.00000000000E+00 0. -1.
         11    1    3    3    0    0  0.58022504251E-01 -0.24261557098E+02  0.78139533435E+01  0.25488907128E+02  0.51100000000E-03 0.  1.
        -11    1    3    3    0    0  0.62971197979E+01 -0.11873635408E+02  0.96417165540E+01  0.16540847436E+02  0.51100000000E-03 0. -1.
         12    1    3    3    0    0 -0.47240445415E+01 -0.31759079174E+01  0.86372201420E+00  0.57575171426E+01  0.00000000000E+00 0. -1.
</event>
<event>
 7    1  0.1265344E-009  0.4778728E+02  0.7816164E-02  0.1312668E+00
        -11   -1    0    0    0    0  0.00000000000E+00  0.00000000000E+00  0.45593999997E+02  0.45594000000E+02  0.51100000000E-03 0. -1.
         11   -1    0    0    0    0 -0.00000000000E+00 -0.00000000000E+00 -0.45593999997E+02  0.45594000000E+02  0.51100000000E-03 0.  1.
    9900012    2    1    2    0    0  0.31727029967E+02  0.18857281142E+02  0.22834646394E+02  0.47787279285E+02  0.20000037574E+02 0.  0.
         12    1    1    2    0    0 -0.31727029967E+02 -0.18857281142E+02 -0.22834646394E+02  0.43400720715E+02  0.00000000000E+00 0. -1.
         11    1    3    3    0    0  0.20846578674E+00 -0.61930982526E+00 -0.64126765921E+00  0.91554744048E+00  0.51100000000E-03 0. -1.
        -11    1    3    3    0    0  0.20204247854E+02  0.10854764209E+02  0.48628808453E+01  0.23445365166E+02  0.51100000000E-03 0.  1.
         12    1    3    3    0    0  0.11314316326E+02  0.86218267584E+01  0.18613033208E+02  0.23426366679E+02  0.00000000000E+00 0. -1.
</event>
<event>
 7    1  0.1265344E-009  0.4778726E+02  0.7816164E-02  0.1312668E+00
        -11   -1    0    0    0    0  0.00000000000E+00  0.00000000000E+00  0.45593999997E+02  0.45594000000E+02  0.51100000000E-03 0.  1.
         11   -1    0    0    0    0 -0.00000000000E+00 -0.00000000000E+00 -0.45593999997E+02  0.45594000000E+02  0.51100000000E-03 0. -1.
    9900012    2    1    2    0    0 -0.16110924556E+02  0.33805566364E+02  0.21937313435E+02  0.47787263509E+02  0.19999965641E+02 0.  0.
         12    1    1    2    0    0  0.16110924556E+02 -0.33805566364E+02 -0.21937313435E+02  0.43400736491E+02  0.00000000000E+00 0. -1.
         11    1    3    3    0    0 -0.36108167221E+01  0.16362930698E+02  0.10561749967E+02  0.19807424393E+02  0.51100000000E-03 0. -1.
        -11    1    3    3    0    0  0.20365860472E+01  0.77698044828E+01  0.45569915402E+01  0.92349183314E+01  0.51100000000E-03 0.  1.
         12    1    3    3    0    0 -0.14536693881E+02  0.96728311828E+01  0.68185719278E+01  0.18744920785E+02  0.00000000000E+00 0. -1.
</event>
<event>
 7    1  0.1726921E-009  0.4778727E+02  0.7816164E-02  0.1312668E+00
        -11   -1    0    0    0    0  0.00000000000E+00  0.00000000000E+00  0.45593999997E+02  0.45594000000E+02  0.51100000000E-03 0. -1.
         11   -1    0    0    0    0 -0.00000000000E+00 -0.00000000000E+00 -0.45593999997E+02  0.45594000000E+02  0.51100000000E-03 0.  1.
    9900012    2    1    2    0    0  0.12806951938E+02 -0.24507790671E+02 -0.33451061940E+02  0.47787269978E+02  0.19999995138E+02 0.  0.
         12    1    1    2    0    0 -0.12806951938E+02  0.24507790671E+02  0.33451061940E+02  0.43400730022E+02  0.00000000000E+00 0. -1.
         11    1    3    3    0    0 -0.12378525996E+01 -0.52273599802E+01 -0.51408739692E+00  0.53964671345E+01  0.51100000000E-03 0. -1.
        -11    1    3    3    0    0  0.97088453762E+01 -0.19133048148E+02 -0.22509645032E+02  0.31096934410E+02  0.51100000000E-03 0.  1.
         12    1    3    3    0    0  0.43359591611E+01 -0.14738254268E+00 -0.10427329511E+02  0.11293868433E+02  0.00000000000E+00 0. -1.
</event>
<event>
 7    1  0.1265344E-009  0.4778727E+02  0.7816164E-02  0.1312668E+00
        -11   -1    0    0    0    0  0.00000000000E+00  0.00000000000E+00  0.45593999997E+02  0.45594000000E+02  0.51100000000E-03 0.  1.
         11   -1    0    0    0    0 -0.00000000000E+00 -0.00000000000E+00 -0.45593999997E+02  0.45594000000E+02  0.51100000000E-03 0. -1.
    9900012    2    1    2    0    0  0.77989723922E+01  0.79340300772E+01  0.41950572074E+02  0.47787270732E+02  0.19999998577E+02 0.  0.
         12    1    1    2    0    0 -0.77989723922E+01 -0.79340300772E+01 -0.41950572074E+02  0.43400729268E+02  0.00000000000E+00 0. -1.
         11    1    3    3    0    0  0.61587085325E+01  0.14178442783E+01  0.99044285087E+01  0.11748943677E+02  0.51100000000E-03 0. -1.
        -11    1    3    3    0    0  0.81874411103E+01  0.54433636110E+01  0.18251170702E+02  0.20730885933E+02  0.51100000000E-03 0.  1.
         12    1    3    3    0    0 -0.65471772506E+01  0.10728221879E+01  0.13794972863E+02  0.15307441122E+02  0.00000000000E+00 0. -1.
</event>
<event>
 7    1  0.1265344E-009  0.4778727E+02  0.7816164E-02  0.1312668E+00
        -11   -1    0    0    0    0  0.00000000000E+00  0.00000000000E+00  0.45593999997E+02  0.45594000000E+02  0.51100000000E-03 0. -1.
         11   -1    0    0    0    0 -0.00000000000E+00 -0.00000000000E+00 -0.45593999997E+02  0.45594000000E+02  0.51100000000E-03 0.  1.
    9900012    2    1    2    0    0  0.38181330305E+02 -0.63728471794E+01 -0.19626420681E+02  0.47787267820E+02  0.19999985298E+02 0.  0.
         12    1    1    2    0    0 -0.38181330305E+02  0.63728471794E+01  0.19626420681E+02  0.43400732180E+02  0.00000000000E+00 0. -1.
         11    1    3    3    0    0  0.15802943044E+01 -0.99549697211E+00  0.19274084430E+01  0.26838867110E+01  0.51100000000E-03 0. -1.
        -11    1    3    3    0    0  0.30224412114E+02 -0.65182195810E+01 -0.11190556621E+02  0.32882074629E+02  0.51100000000E-03 0.  1.
         12    1    3    3    0    0  0.63766238867E+01  0.11408693737E+01 -0.10363272503E+02  0.12221306480E+02  0.00000000000E+00 0. -1.
</event>
<event>
 7    1  0.1265344E-009  0.4778727E+02  0.7816164E-02  0.1312668E+00
        -11   -1    0    0    0    0  0.00000000000E+00  0.00000000000E+00  0.45593999997E+02  0.45594000000E+02  0.51100000000E-03 0.  1.
         11   -1    0    0    0    0 -0.00000000000E+00 -0.00000000000E+00 -0.45593999997E+02  0.45594000000E+02  0.51100000000E-03 0. -1.
    9900012    2    1    2    0    0  0.37077093353E+01 -0.40263620581E+02  0.15770772820E+02  0.47787268138E+02  0.19999986749E+02 0.  0.
         12    1    1    2    0    0 -0.37077093353E+01  0.40263620581E+02 -0.15770772820E+02  0.43400731862E+02  0.00000000000E+00 0. -1.
         11    1    3    3    0    0  0.26350400347E+00 -0.31157722997E+01  0.36257499453E+01  0.47878527870E+01  0.51100000000E-03 0. -1.
        -11    1    3    3    0    0  0.39664385659E+01 -0.18400972552E+02  0.14948115101E+02  0.24036941799E+02  0.51100000000E-03 0.  1.
         12    1    3    3    0    0 -0.52223323407E+00 -0.18746875730E+02 -0.28030922260E+01  0.18962473552E+02  0.00000000000E+00 0. -1.
</event>
<event>
 7    1  0.1265344E-009  0.4778728E+02  0.7816164E-02  0.1312668E+00
        -11   -1    0    0    0    0  0.00000000000E+00  0.00000000000E+00  0.45593999997E+02  0.45594000000E+02  0.51100000000E-03 0. -1.
         11   -1    0    0    0    0 -0.00000000000E+00 -0.00000000000E+00 -0.45593999997E+02  0.45594000000E+02  0.51100000000E-03 0.  1.
    9900012    2    1    2    0    0  0.25108330496E+02 -0.35181135497E+02 -0.39347485095E+01  0.47787276493E+02  0.20000024841E+02 0.  0.
         12    1    1    2    0    0 -0.25108330496E+02  0.35181135497E+02  0.39347485095E+01  0.43400723507E+02  0.00000000000E+00 0. -1.
         11    1    3    3    0    0  0.18604280952E+02 -0.26617791363E+02 -0.15425229477E+01  0.32511620447E+02  0.51100000000E-03 0.  1.
        -11    1    3    3    0    0 -0.13858423607E+00 -0.67704896020E+01  0.20625888365E+01  0.70790541749E+01  0.51100000000E-03 0. -1.
        -12    1    3    3    0    0  0.66426337794E+01 -0.17928545314E+01 -0.44548143983E+01  0.81966018704E+01  0.00000000000E+00 0.  1.
</event>
<event>
 7    1  0.1265344E-009  0.4778726E+02  0.7816164E-02  0.1312668E+00
        -11   -1    0    0    0    0  0.00000000000E+00  0.00000000000E+00  0.45593999997E+02  0.45594000000E+02  0.51100000000E-03 0.  1.
         11   -1    0    0    0    0 -0.00000000000E+00 -0.00000000000E+00 -0.45593999997E+02  0.45594000000E+02  0.51100000000E-03 0. -1.
    9900012    2    1    2    0    0  0.26387535729E+02 -0.21437270419E+02  0.26977132955E+02  0.47787259138E+02  0.19999945714E+02 0.  0.
         12    1    1    2    0    0 -0.26387535729E+02  0.21437270419E+02 -0.26977132955E+02  0.43400740862E+02  0.00000000000E+00 0. -1.
         11    1    3    3    0    0  0.15789542470E+02 -0.96341201478E+01  0.54978378921E+01  0.19296428275E+02  0.51100000000E-03 0. -1.
        -11    1    3    3    0    0  0.45096029865E+01 -0.92229277718E-02  0.98933735320E+01  0.10872692595E+02  0.51100000000E-03 0.  1.
        -12    1    3    3    0    0  0.60883902727E+01 -0.11793927344E+02  0.11585921531E+02  0.17618138268E+02  0.00000000000E+00 0.  1.
</event>
<event>
 7    1  0.1265344E-009  0.4778727E+02  0.7816164E-02  0.1312668E+00
        -11   -1    0    0    0    0  0.00000000000E+00  0.00000000000E+00  0.45593999997E+02  0.45594000000E+02  0.51100000000E-03 0.  1.
         11   -1    0    0    0    0 -0.00000000000E+00 -0.00000000000E+00 -0.45593999997E+02  0.45594000000E+02  0.51100000000E-03 0. -1.
    9900012    2    1    2    0    0  0.90663555229E+01  0.17150729528E+02  0.38823661532E+02  0.47787273963E+02  0.20000013306E+02 0.  0.
         12    1    1    2    0    0 -0.90663555229E+01 -0.17150729528E+02 -0.38823661532E+02  0.43400726037E+02  0.00000000000E+00 0. -1.
         11    1    3    3    0    0  0.10331759200E+01  0.79941689726E+01  0.23722420485E+02  0.25054489098E+02  0.51100000000E-03 0. -1.
        -11    1    3    3    0    0  0.43322782114E+01 -0.22318394961E+01  0.57637813030E+01  0.75479081345E+01  0.51100000000E-03 0.  1.
         12    1    3    3    0    0  0.37009013915E+01  0.11388400052E+02  0.93374597442E+01  0.15184876731E+02  0.00000000000E+00 0. -1.
</event>
<event>
 7    1  0.1265344E-009  0.4778726E+02  0.7816164E-02  0.1312668E+00
        -11   -1    0    0    0    0  0.00000000000E+00  0.00000000000E+00  0.45593999997E+02  0.45594000000E+02  0.51100000000E-03 0. -1.
         11   -1    0    0    0    0 -0.00000000000E+00 -0.00000000000E+00 -0.45593999997E+02  0.45594000000E+02  0.51100000000E-03 0.  1.
    9900012    2    1    2    0    0 -0.17212451257E+02  0.39764678714E+02 -0.24751404719E+01  0.47787257243E+02  0.19999937074E+02 0.  0.
         12    1    1    2    0    0  0.17212451257E+02 -0.39764678714E+02  0.24751404719E+01  0.43400742757E+02  0.00000000000E+00 0. -1.
         11    1    3    3    0    0 -0.14802896593E+02  0.21329559616E+02 -0.58280287760E+01  0.26609054486E+02  0.51100000000E-03 0. -1.
        -11    1    3    3    0    0 -0.39652705165E+01  0.11535280276E+02 -0.19306360290E+01  0.12349632264E+02  0.51100000000E-03 0.  1.
        -12    1    3    3    0    0  0.15557158524E+01  0.68998388220E+01  0.52835243332E+01  0.88285704937E+01  0.00000000000E+00 0.  1.
</event>
<event>
 7    1  0.1265344E-009  0.4778729E+02  0.7816164E-02  0.1312668E+00
        -11   -1    0    0    0    0  0.00000000000E+00  0.00000000000E+00  0.45593999997E+02  0.45594000000E+02  0.51100000000E-03 0. -1.
         11   -1    0    0    0    0 -0.00000000000E+00 -0.00000000000E+00 -0.45593999997E+02  0.45594000000E+02  0.51100000000E-03 0.  1.
    9900012    2    1    2    0    0  0.89012925046E+01 -0.34344943894E+02 -0.24996273958E+02  0.47787286974E+02  0.20000072629E+02 0.  0.
         12    1    1    2    0    0 -0.89012925046E+01  0.34344943894E+02  0.24996273958E+02  0.43400713026E+02  0.00000000000E+00 0. -1.
         11    1    3    3    0    0  0.12161505016E+01 -0.20724001683E+02 -0.61306437180E+01  0.21645970998E+02  0.51100000000E-03 0. -1.
        -11    1    3    3    0    0  0.59740491659E+01 -0.24344960673E+01 -0.45559032456E+01  0.78976128788E+01  0.51100000000E-03 0.  1.
        -12    1    3    3    0    0  0.17110928370E+01 -0.11186446144E+02 -0.14309726995E+02  0.18243703097E+02  0.00000000000E+00 0.  1.
</event>
<event>
 7    1  0.1265344E-009  0.4778727E+02  0.7816164E-02  0.1312668E+00
        -11   -1    0    0    0    0  0.00000000000E+00  0.00000000000E+00  0.45593999997E+02  0.45594000000E+02  0.51100000000E-03 0.  1.
         11   -1    0    0    0    0 -0.00000000000E+00 -0.00000000000E+00 -0.45593999997E+02  0.45594000000E+02  0.51100000000E-03 0. -1.
    9900012    2    1    2    0    0 -0.29113414685E+02 -0.74150167040E+01  0.31321711948E+02  0.47787273892E+02  0.20000012983E+02 0.  0.
         12    1    1    2    0    0  0.29113414685E+02  0.74150167040E+01 -0.31321711948E+02  0.43400726108E+02  0.00000000000E+00 0. -1.
         11    1    3    3    0    0 -0.13673111726E+02  0.87275151562E+00  0.26549927971E+01  0.13955811208E+02  0.51100000000E-03 0. -1.
        -11    1    3    3    0    0 -0.38491713273E+01 -0.41458306288E+01  0.90856859842E+01  0.10702977229E+02  0.51100000000E-03 0.  1.
        -12    1    3    3    0    0 -0.11591131632E+02 -0.41419375908E+01  0.19581033167E+02  0.23128485454E+02  0.00000000000E+00 0.  1.
</event>
<event>
 7    1  0.1265344E-009  0.4778727E+02  0.7816164E-02  0.1312668E+00
        -11   -1    0    0    0    0  0.00000000000E+00  0.00000000000E+00  0.45593999997E+02  0.45594000000E+02  0.51100000000E-03 0.  1.
         11   -1    0    0    0    0 -0.00000000000E+00 -0.00000000000E+00 -0.45593999997E+02  0.45594000000E+02  0.51100000000E-03 0. -1.
    9900012    2    1    2    0    0 -0.27300928685E+02 -0.16352382316E+02  0.29510714656E+02  0.47787269661E+02  0.19999993692E+02 0.  0.
         12    1    1    2    0    0  0.27300928685E+02  0.16352382316E+02 -0.29510714656E+02  0.43400730339E+02  0.00000000000E+00 0. -1.
         11    1    3    3    0    0 -0.81160384826E+01 -0.13691394408E+01  0.18010877610E+01  0.84254697699E+01  0.51100000000E-03 0. -1.
        -11    1    3    3    0    0 -0.12635738969E+02 -0.14230303509E+01  0.14930883796E+02  0.19611685442E+02  0.51100000000E-03 0.  1.
         12    1    3    3    0    0 -0.65491512332E+01 -0.13560212524E+02  0.12778743099E+02  0.19750114449E+02  0.00000000000E+00 0. -1.
</event>
<event>
 7    1  0.1265344E-009  0.4778727E+02  0.7816164E-02  0.1312668E+00
        -11   -1    0    0    0    0  0.00000000000E+00  0.00000000000E+00  0.45593999997E+02  0.45594000000E+02  0.51100000000E-03 0.  1.
         11   -1    0    0    0    0 -0.00000000000E+00 -0.00000000000E+00 -0.45593999997E+02  0.45594000000E+02  0.51100000000E-03 0. -1.
    9900012    2    1    2    0    0  0.29957810052E+02 -0.10870671444E+02  0.29461528099E+02  0.47787268224E+02  0.19999987142E+02 0.  0.
         12    1    1    2    0    0 -0.29957810052E+02  0.10870671444E+02 -0.29461528099E+02  0.43400731776E+02  0.00000000000E+00 0. -1.
         11    1    3    3    0    0  0.11942787290E+02 -0.11237614269E+02  0.11590145685E+02  0.20080976569E+02  0.51100000000E-03 0. -1.
        -11    1    3    3    0    0  0.17208385142E+02 -0.26278896560E+01  0.17319436091E+02  0.24556001100E+02  0.51100000000E-03 0.  1.
         12    1    3    3    0    0  0.80663762033E+00  0.29948324810E+01  0.55194632246E+00  0.31502905553E+01  0.00000000000E+00 0. -1.
</event>
<event>
 7    1  0.1265344E-009  0.4778727E+02  0.7816164E-02  0.1312668E+00
        -11   -1    0    0    0    0  0.00000000000E+00  0.00000000000E+00  0.45593999997E+02  0.45594000000E+02  0.51100000000E-03 0. -1.
         11   -1    0    0    0    0 -0.00000000000E+00 -0.00000000000E+00 -0.45593999997E+02  0.45594000000E+02  0.51100000000E-03 0.  1.
    9900012    2    1    2    0    0  0.15913844141E+02  0.23445775711E+02 -0.32873527011E+02  0.47787267147E+02  0.19999982231E+02 0.  0.
         12    1    1    2    0    0 -0.15913844141E+02 -0.23445775711E+02  0.32873527011E+02  0.43400732853E+02  0.00000000000E+00 0. -1.
         11    1    3    3    0    0 -0.17676102641E+01  0.79587266051E+01 -0.71220571998E+01  0.10825408733E+02  0.51100000000E-03 0. -1.
        -11    1    3    3    0    0  0.15122075636E+02  0.17593048631E+02 -0.22402108964E+02  0.32249759968E+02  0.51100000000E-03 0.  1.
         12    1    3    3    0    0  0.25593787688E+01 -0.21059995254E+01 -0.33493608471E+01  0.47120984462E+01  0.00000000000E+00 0. -1.
</event>
<event>
 7    1  0.1265344E-009  0.4778727E+02  0.7816164E-02  0.1312668E+00
        -11   -1    0    0    0    0  0.00000000000E+00  0.00000000000E+00  0.45593999997E+02  0.45594000000E+02  0.51100000000E-03 0.  1.
         11   -1    0    0    0    0 -0.00000000000E+00 -0.00000000000E+00 -0.45593999997E+02  0.45594000000E+02  0.51100000000E-03 0. -1.
    9900012    2    1    2    0    0  0.12202953069E+02 -0.39065338814E+02  0.14443371781E+02  0.47787265575E+02  0.19999975061E+02 0.  0.
         12    1    1    2    0    0 -0.12202953069E+02  0.39065338814E+02 -0.14443371781E+02  0.43400734425E+02  0.00000000000E+00 0. -1.
         11    1    3    3    0    0  0.66353421447E+01 -0.11660036144E+02  0.93984175360E+00  0.13448699232E+02  0.51100000000E-03 0. -1.
        -11    1    3    3    0    0 -0.31920105941E+01 -0.19183599720E+02  0.97340786250E+01  0.21747453111E+02  0.51100000000E-03 0.  1.
         12    1    3    3    0    0  0.87596215183E+01 -0.82217029497E+01  0.37694514024E+01  0.12591113232E+02  0.00000000000E+00 0. -1.
</event>
<event>
 7    1  0.1265344E-009  0.4778728E+02  0.7816164E-02  0.1312668E+00
        -11   -1    0    0    0    0  0.00000000000E+00  0.00000000000E+00  0.45593999997E+02  0.45594000000E+02  0.51100000000E-03 0.  1.
         11   -1    0    0    0    0 -0.00000000000E+00 -0.00000000000E+00 -0.45593999997E+02  0.45594000000E+02  0.51100000000E-03 0. -1.
    9900012    2    1    2    0    0 -0.45551898927E+01  0.84910017187E+01  0.42317558752E+02  0.47787278303E+02  0.20000033093E+02 0.  0.
         12    1    1    2    0    0  0.45551898927E+01 -0.84910017187E+01 -0.42317558752E+02  0.43400721697E+02  0.00000000000E+00 0. -1.
         11    1    3    3    0    0 -0.98238966787E+00  0.13771003445E+02  0.35357263962E+02  0.37957103953E+02  0.51100000000E-03 0.  1.
        -11    1    3    3    0    0 -0.27362601901E+01 -0.17736396779E+01  0.25848274073E+01  0.41610395963E+01  0.51100000000E-03 0. -1.
        -12    1    3    3    0    0 -0.83654003466E+00 -0.35063620482E+01  0.43754673823E+01  0.56691347537E+01  0.00000000000E+00 0.  1.
</event>
<event>
 7    1  0.1265344E-009  0.4778727E+02  0.7816164E-02  0.1312668E+00
        -11   -1    0    0    0    0  0.00000000000E+00  0.00000000000E+00  0.45593999997E+02  0.45594000000E+02  0.51100000000E-03 0. -1.
         11   -1    0    0    0    0 -0.00000000000E+00 -0.00000000000E+00 -0.45593999997E+02  0.45594000000E+02  0.51100000000E-03 0.  1.
    9900012    2    1    2    0    0  0.81878308278E+01  0.24217984722E+01 -0.42552531059E+02  0.47787267506E+02  0.19999983868E+02 0.  0.
         12    1    1    2    0    0 -0.81878308278E+01 -0.24217984722E+01  0.42552531059E+02  0.43400732494E+02  0.00000000000E+00 0. -1.
         11    1    3    3    0    0  0.84230898958E+01  0.25603703400E+01 -0.15802864145E+02  0.18089622858E+02  0.51100000000E-03 0. -1.
        -11    1    3    3    0    0 -0.47549972495E+01  0.38420165466E+01 -0.84292308910E+01  0.10412637690E+02  0.51100000000E-03 0.  1.
         12    1    3    3    0    0  0.45197381814E+01 -0.39805884144E+01 -0.18320436022E+02  0.19285006959E+02  0.00000000000E+00 0. -1.
</event>
<event>
 7    1  0.1265344E-009  0.4778727E+02  0.7816164E-02  0.1312668E+00
        -11   -1    0    0    0    0  0.00000000000E+00  0.00000000000E+00  0.45593999997E+02  0.45594000000E+02  0.51100000000E-03 0. -1.
         11   -1    0    0    0    0 -0.00000000000E+00 -0.00000000000E+00 -0.45593999997E+02  0.45594000000E+02  0.51100000000E-03 0.  1.
    9900012    2    1    2    0    0  0.39073083639E+02  0.12775482705E+02 -0.13917770687E+02  0.47787272307E+02  0.20000005755E+02 0.  0.
         12    1    1    2    0    0 -0.39073083639E+02 -0.12775482705E+02  0.13917770687E+02  0.43400727693E+02  0.00000000000E+00 0. -1.
         11    1    3    3    0    0  0.48766640307E+01 -0.17068650901E+01 -0.76072402290E+01  0.91959417498E+01  0.51100000000E-03 0. -1.
        -11    1    3    3    0    0  0.11337409538E+02  0.90396761718E+01 -0.35775755313E+01  0.14934913701E+02  0.51100000000E-03 0.  1.
        -12    1    3    3    0    0  0.22859010071E+02  0.54426716232E+01 -0.27329549270E+01  0.23656416856E+02  0.00000000000E+00 0.  1.
</event>
<event>
 7    1  0.1265344E-009  0.4778725E+02  0.7816164E-02  0.1312668E+00
        -11   -1    0    0    0    0  0.00000000000E+00  0.00000000000E+00  0.45593999997E+02  0.45594000000E+02  0.51100000000E-03 0.  1.
         11   -1    0    0    0    0 -0.00000000000E+00 -0.00000000000E+00 -0.45593999997E+02  0.45594000000E+02  0.51100000000E-03 0. -1.
    9900012    2    1    2    0    0  0.96680493258E+01  0.27581974064E+01  0.42220210249E+02  0.47787251341E+02  0.19999910163E+02 0.  0.
         12    1    1    2    0    0 -0.96680493258E+01 -0.27581974064E+01 -0.42220210249E+02  0.43400748659E+02  0.00000000000E+00 0. -1.
         11    1    3    3    0    0  0.27154622347E+01  0.15144318799E+01  0.11787958321E+02  0.12191111545E+02  0.51100000000E-03 0. -1.
        -11    1    3    3    0    0  0.59592951772E+01  0.44703447910E+01  0.31247364643E+02  0.32123122186E+02  0.51100000000E-03 0.  1.
         12    1    3    3    0    0  0.99329191392E+00 -0.32265792645E+01 -0.81511271536E+00  0.34730176094E+01  0.00000000000E+00 0. -1.
</event>
<event>
 7    1  0.1265344E-009  0.4778727E+02  0.7816164E-02  0.1312668E+00
        -11   -1    0    0    0    0  0.00000000000E+00  0.00000000000E+00  0.45593999997E+02  0.45594000000E+02  0.51100000000E-03 0. -1.
         11   -1    0    0    0    0 -0.00000000000E+00 -0.00000000000E+00 -0.45593999997E+02  0.45594000000E+02  0.51100000000E-03 0.  1.
    9900012    2    1    2    0    0  0.83508232872E+01 -0.26512228925E+02 -0.33331505198E+02  0.47787265318E+02  0.19999973890E+02 0.  0.
         12    1    1    2    0    0 -0.83508232872E+01  0.26512228925E+02  0.33331505198E+02  0.43400734682E+02  0.00000000000E+00 0. -1.
         11    1    3    3    0    0  0.36669466618E+01 -0.25469756828E+01 -0.58617393756E-01  0.44650889363E+01  0.51100000000E-03 0. -1.
        -11    1    3    3    0    0 -0.12176406771E+01  0.11026534167E+01 -0.66801043261E+00  0.17733391032E+01  0.51100000000E-03 0.  1.
        -12    1    3    3    0    0  0.59015173024E+01 -0.25067906659E+02 -0.32604877372E+02  0.41548837278E+02  0.00000000000E+00 0.  1.
</event>
<event>
 7    1  0.1265344E-009  0.4778727E+02  0.7816164E-02  0.1312668E+00
        -11   -1    0    0    0    0  0.00000000000E+00  0.00000000000E+00  0.45593999997E+02  0.45594000000E+02  0.51100000000E-03 0.  1.
         11   -1    0    0    0    0 -0.00000000000E+00 -0.00000000000E+00 -0.45593999997E+02  0.45594000000E+02  0.51100000000E-03 0. -1.
    9900012    2    1    2    0    0  0.36175998898E+02  0.15737304147E+02  0.18090268382E+02  0.47787269036E+02  0.19999990843E+02 0.  0.
         12    1    1    2    0    0 -0.36175998898E+02 -0.15737304147E+02 -0.18090268382E+02  0.43400730964E+02  0.00000000000E+00 0. -1.
         11    1    3    3    0    0  0.70242466429E+01  0.25544203932E+01  0.97683483130E+01  0.12299826563E+02  0.51100000000E-03 0. -1.
        -11    1    3    3    0    0  0.27403802270E+02  0.15530574051E+02  0.82431952817E+01  0.32559443759E+02  0.51100000000E-03 0.  1.
         12    1    3    3    0    0  0.17479499849E+01 -0.23476902967E+01  0.78724787394E-01  0.29279987144E+01  0.00000000000E+00 0. -1.
</event>
<event>
 7    1  0.1265344E-009  0.4778727E+02  0.7816164E-02  0.1312668E+00
        -11   -1    0    0    0    0  0.00000000000E+00  0.00000000000E+00  0.45593999997E+02  0.45594000000E+02  0.51100000000E-03 0.  1.
         11   -1    0    0    0    0 -0.00000000000E+00 -0.00000000000E+00 -0.45593999997E+02  0.45594000000E+02  0.51100000000E-03 0. -1.
    9900012    2    1    2    0    0 -0.22329619017E+01  0.42996188505E+02  0.54740211122E+01  0.47787271297E+02  0.20000001150E+02 0.  0.
         12    1    1    2    0    0  0.22329619017E+01 -0.42996188505E+02 -0.54740211122E+01  0.43400728703E+02  0.00000000000E+00 0. -1.
         11    1    3    3    0    0  0.21681995221E+01  0.33609628526E+01 -0.67526042245E+00  0.40562467089E+01  0.51100000000E-03 0. -1.
        -11    1    3    3    0    0 -0.92569917352E+01  0.32644280241E+02  0.83408254693E+01  0.34941526844E+02  0.51100000000E-03 0.  1.
        -12    1    3    3    0    0  0.48558303114E+01  0.69909454120E+01 -0.21915439347E+01  0.87894977436E+01  0.00000000000E+00 0.  1.
</event>
<event>
 7    1  0.1265344E-009  0.4778727E+02  0.7816164E-02  0.1312668E+00
        -11   -1    0    0    0    0  0.00000000000E+00  0.00000000000E+00  0.45593999997E+02  0.45594000000E+02  0.51100000000E-03 0.  1.
         11   -1    0    0    0    0 -0.00000000000E+00 -0.00000000000E+00 -0.45593999997E+02  0.45594000000E+02  0.51100000000E-03 0. -1.
    9900012    2    1    2    0    0 -0.21547259611E+02 -0.97139523899E+01  0.36400248137E+02  0.47787270372E+02  0.19999996935E+02 0.  0.
         12    1    1    2    0    0  0.21547259611E+02  0.97139523899E+01 -0.36400248137E+02  0.43400729628E+02  0.00000000000E+00 0. -1.
         11    1    3    3    0    0 -0.23997326095E+01 -0.69724219713E+01  0.12965410123E+02  0.14915604067E+02  0.51100000000E-03 0. -1.
        -11    1    3    3    0    0 -0.77706482562E+01 -0.65835620115E+01  0.15254630328E+02  0.18342028508E+02  0.51100000000E-03 0.  1.
         12    1    3    3    0    0 -0.11376878746E+02  0.38420315929E+01  0.81802076853E+01  0.14529637797E+02  0.00000000000E+00 0. -1.
</event>
<event>
 7    1  0.1265344E-009  0.4778727E+02  0.7816164E-02  0.1312668E+00
        -11   -1    0    0    0    0  0.00000000000E+00  0.00000000000E+00  0.45593999997E+02  0.45594000000E+02  0.51100000000E-03 0.  1.
         11   -1    0    0    0    0 -0.00000000000E+00 -0.00000000000E+00 -0.45593999997E+02  0.45594000000E+02  0.51100000000E-03 0. -1.
    9900012    2    1    2    0    0 -0.41959671050E+02  0.81076662047E+01 -0.75680303953E+01  0.47787270398E+02  0.19999997054E+02 0.  0.
         12    1    1    2    0    0  0.41959671050E+02 -0.81076662047E+01  0.75680303953E+01  0.43400729602E+02  0.00000000000E+00 0. -1.
         11    1    3    3    0    0 -0.37259012872E+01  0.61403386800E+01  0.11242456851E+01  0.72698024821E+01  0.51100000000E-03 0. -1.
        -11    1    3    3    0    0 -0.91159682761E+01 -0.38177801248E+01 -0.24220157829E+01  0.10175582706E+02  0.51100000000E-03 0.  1.
        -12    1    3    3    0    0 -0.29117801486E+02  0.57851076495E+01 -0.62702602975E+01  0.30341885210E+02  0.00000000000E+00 0.  1.
</event>
<event>
 7    1  0.1265344E-009  0.4778728E+02  0.7816164E-02  0.1312668E+00
        -11   -1    0    0    0    0  0.00000000000E+00  0.00000000000E+00  0.45593999997E+02  0.45594000000E+02  0.51100000000E-03 0.  1.
         11   -1    0    0    0    0 -0.00000000000E+00 -0.00000000000E+00 -0.45593999997E+02  0.45594000000E+02  0.51100000000E-03 0. -1.
    9900012    2    1    2    0    0  0.97501156185E+01 -0.23128951158E+02  0.35406350711E+02  0.47787276424E+02  0.20000024529E+02 0.  0.
         12    1    1    2    0    0 -0.97501156185E+01  0.23128951158E+02 -0.35406350711E+02  0.43400723576E+02  0.00000000000E+00 0. -1.
         11    1    3    3    0    0  0.26735774865E+01 -0.77189041623E+00  0.84571172466E+00  0.29084463160E+01  0.51100000000E-03 0. -1.
        -11    1    3    3    0    0 -0.37882327528E+01 -0.12958245131E+02  0.21916606447E+02  0.25741104535E+02  0.51100000000E-03 0.  1.
        -12    1    3    3    0    0  0.10864770885E+02 -0.93988156108E+01  0.12644032539E+02  0.19137725573E+02  0.00000000000E+00 0.  1.
</event>
<event>
 7    1  0.1265344E-009  0.4778727E+02  0.7816164E-02  0.1312668E+00
        -11   -1    0    0    0    0  0.00000000000E+00  0.00000000000E+00  0.45593999997E+02  0.45594000000E+02  0.51100000000E-03 0.  1.
         11   -1    0    0    0    0 -0.00000000000E+00 -0.00000000000E+00 -0.45593999997E+02  0.45594000000E+02  0.51100000000E-03 0. -1.
    9900012    2    1    2    0    0  0.41223964656E+02  0.86693782354E+01  0.10442684141E+02  0.47787273819E+02  0.20000012651E+02 0.  0.
         12    1    1    2    0    0 -0.41223964656E+02 -0.86693782354E+01 -0.10442684141E+02  0.43400726181E+02  0.00000000000E+00 0. -1.
         11    1    3    3    0    0  0.11833673501E+02 -0.25371181395E+01  0.97399908623E+01  0.15535128556E+02  0.51100000000E-03 0. -1.
        -11    1    3    3    0    0  0.45843532255E+01  0.41371578490E+01 -0.15306984408E+01  0.63620285713E+01  0.51100000000E-03 0.  1.
        -12    1    3    3    0    0  0.24805937929E+02  0.70693385259E+01  0.22333917197E+01  0.25890116692E+02  0.00000000000E+00 0.  1.
</event>
<event>
 7    1  0.1265344E-009  0.4778730E+02  0.7816164E-02  0.1312668E+00
        -11   -1    0    0    0    0  0.00000000000E+00  0.00000000000E+00  0.45593999997E+02  0.45594000000E+02  0.51100000000E-03 0. -1.
         11   -1    0    0    0    0 -0.00000000000E+00 -0.00000000000E+00 -0.45593999997E+02  0.45594000000E+02  0.51100000000E-03 0.  1.
    9900012    2    1    2    0    0  0.40655481356E+02  0.13829312285E+02 -0.62851025311E+01  0.47787302351E+02  0.20000142740E+02 0.  0.
         12    1    1    2    0    0 -0.40655481356E+02 -0.13829312285E+02  0.62851025311E+01  0.43400697649E+02  0.00000000000E+00 0. -1.
         11    1    3    3    0    0  0.37026511769E+02  0.59095608886E+01 -0.13850040283E+01  0.37520710549E+02  0.51100000000E-03 0. -1.
        -11    1    3    3    0    0  0.21079405391E+01  0.25259306158E+01 -0.26620496010E+01  0.42320499916E+01  0.51100000000E-03 0.  1.
         12    1    3    3    0    0  0.15210290479E+01  0.53938207807E+01 -0.22380489019E+01  0.60345418108E+01  0.00000000000E+00 0. -1.
</event>
