<event>
 7    1  0.1358622E-013  0.7246156E+02  0.7816164E-02  0.1226708E+00
        -11   -1    0    0    0    0  0.00000000000E+00  0.00000000000E+00  0.45593999997E+02  0.45594000000E+02  0.51100000000E-03 0.  1.
         11   -1    0    0    0    0 -0.00000000000E+00 -0.00000000000E+00 -0.45593999997E+02  0.45594000000E+02  0.51100000000E-03 0. -1.
    9900012    2    1    2    0    0 -0.18018723074E+02 -0.37163460229E+01 -0.34919928743E+01  0.72461558181E+02  0.69999984220E+02 0.  0.
        -12    1    1    2    0    0  0.18018723074E+02  0.37163460229E+01  0.34919928743E+01  0.18726441819E+02  0.00000000000E+00 0.  1.
         11    1    3    3    0    0 -0.13726434395E+02 -0.33831137368E+02  0.11566074540E+00  0.36509919672E+02  0.51100000000E-03 0. -1.
        -11    1    3    3    0    0  0.47647304454E+01  0.76196389198E+01  0.49206950295E+01  0.10245720732E+02  0.51100000000E-03 0.  1.
        -12    1    3    3    0    0 -0.90570191245E+01  0.22495152425E+02 -0.85283486492E+01  0.25705917777E+02  0.00000000000E+00 0.  1.
</event>
<event>
 7    1  0.1358622E-013  0.7246152E+02  0.7816164E-02  0.1226708E+00
        -11   -1    0    0    0    0  0.00000000000E+00  0.00000000000E+00  0.45593999997E+02  0.45594000000E+02  0.51100000000E-03 0. -1.
         11   -1    0    0    0    0 -0.00000000000E+00 -0.00000000000E+00 -0.45593999997E+02  0.45594000000E+02  0.51100000000E-03 0.  1.
    9900012    2    1    2    0    0  0.12025443044E+02 -0.13236017540E+02 -0.55567763881E+01  0.72461515958E+02  0.69999929217E+02 0.  0.
        -12    1    1    2    0    0 -0.12025443044E+02  0.13236017540E+02  0.55567763881E+01  0.18726484042E+02  0.00000000000E+00 0.  1.
         11    1    3    3    0    0 -0.10727720155E+02 -0.93677241220E+01 -0.89108974855E+00  0.14269978141E+02  0.51100000000E-03 0. -1.
        -11    1    3    3    0    0 -0.15763968599E+02  0.80021179982E+01 -0.70752676582E+00  0.17692857113E+02  0.51100000000E-03 0.  1.
         12    1    3    3    0    0  0.38517131798E+02 -0.11870411416E+02 -0.39581598738E+01  0.40498680704E+02  0.00000000000E+00 0. -1.
</event>
<event>
 7    1  0.1358622E-013  0.7246161E+02  0.7816164E-02  0.1226708E+00
        -11   -1    0    0    0    0  0.00000000000E+00  0.00000000000E+00  0.45593999997E+02  0.45594000000E+02  0.51100000000E-03 0.  1.
         11   -1    0    0    0    0 -0.00000000000E+00 -0.00000000000E+00 -0.45593999997E+02  0.45594000000E+02  0.51100000000E-03 0. -1.
    9900012    2    1    2    0    0 -0.15415649946E+02 -0.94774285760E+01 -0.48180788670E+01  0.72461606870E+02  0.70000047647E+02 0.  0.
        -12    1    1    2    0    0  0.15415649946E+02  0.94774285760E+01  0.48180788670E+01  0.18726393130E+02  0.00000000000E+00 0.  1.
         11    1    3    3    0    0 -0.43968415706E+01 -0.49189925386E+01  0.13184393298E+02  0.14743029888E+02  0.51100000000E-03 0. -1.
        -11    1    3    3    0    0 -0.16618439875E+02 -0.44281743630E+01  0.15860661929E+02  0.23395338620E+02  0.51100000000E-03 0.  1.
         12    1    3    3    0    0  0.55996314988E+01 -0.13026167433E+00 -0.33863134094E+02  0.34323238362E+02  0.00000000000E+00 0. -1.
</event>
<event>
 7    1  0.1358622E-013  0.7246156E+02  0.7816164E-02  0.1226708E+00
        -11   -1    0    0    0    0  0.00000000000E+00  0.00000000000E+00  0.45593999997E+02  0.45594000000E+02  0.51100000000E-03 0. -1.
         11   -1    0    0    0    0 -0.00000000000E+00 -0.00000000000E+00 -0.45593999997E+02  0.45594000000E+02  0.51100000000E-03 0.  1.
    9900012    2    1    2    0    0  0.14661930357E+02 -0.87256254405E+01 -0.77182021724E+01  0.72461564517E+02  0.69999992474E+02 0.  0.
        -12    1    1    2    0    0 -0.14661930357E+02  0.87256254405E+01  0.77182021724E+01  0.18726435483E+02  0.00000000000E+00 0.  1.
         11    1    3    3    0    0  0.12449075413E+02 -0.48579558338E+01  0.15002929598E+02  0.20091468595E+02  0.51100000000E-03 0. -1.
        -11    1    3    3    0    0  0.36105724531E+01 -0.25040693183E+02 -0.79624784946E+01  0.26523076981E+02  0.51100000000E-03 0.  1.
        -12    1    3    3    0    0 -0.13977175089E+01  0.21173023576E+02 -0.14758653276E+02  0.25847018941E+02  0.00000000000E+00 0.  1.
</event>
<event>
 7    1  0.1358622E-013  0.7246159E+02  0.7816164E-02  0.1226708E+00
        -11   -1    0    0    0    0  0.00000000000E+00  0.00000000000E+00  0.45593999997E+02  0.45594000000E+02  0.51100000000E-03 0.  1.
         11   -1    0    0    0    0 -0.00000000000E+00 -0.00000000000E+00 -0.45593999997E+02  0.45594000000E+02  0.51100000000E-03 0. -1.
    9900012    2    1    2    0    0  0.16771167638E+02  0.33163290210E+01  0.76425447503E+01  0.72461585705E+02  0.70000020075E+02 0.  0.
        -12    1    1    2    0    0 -0.16771167638E+02 -0.33163290210E+01 -0.76425447503E+01  0.18726414295E+02  0.00000000000E+00 0.  1.
         11    1    3    3    0    0  0.22212023863E+02  0.51270713378E+01 -0.16681909184E+02  0.28247954950E+02  0.51100000000E-03 0. -1.
        -11    1    3    3    0    0  0.12473576611E+02 -0.71472144803E+01  0.20653411530E+02  0.25164184795E+02  0.51100000000E-03 0.  1.
        -12    1    3    3    0    0 -0.17914432837E+02  0.53364721636E+01  0.36710424039E+01  0.19049445959E+02  0.00000000000E+00 0.  1.
</event>
<event>
 7    1  0.1358622E-013  0.7246148E+02  0.7816164E-02  0.1226708E+00
        -11   -1    0    0    0    0  0.00000000000E+00  0.00000000000E+00  0.45593999997E+02  0.45594000000E+02  0.51100000000E-03 0. -1.
         11   -1    0    0    0    0 -0.00000000000E+00 -0.00000000000E+00 -0.45593999997E+02  0.45594000000E+02  0.51100000000E-03 0.  1.
    9900012    2    1    2    0    0  0.46410769782E+01 -0.15889500741E+02  0.87559462889E+01  0.72461483379E+02  0.69999886777E+02 0.  0.
        -12    1    1    2    0    0 -0.46410769782E+01  0.15889500741E+02 -0.87559462889E+01  0.18726516621E+02  0.00000000000E+00 0.  1.
         11    1    3    3    0    0  0.25055511509E+01 -0.59839028818E+01  0.11194647983E+02  0.12938509342E+02  0.51100000000E-03 0. -1.
        -11    1    3    3    0    0  0.65616767320E+01  0.15152688097E+02  0.19762610696E+02  0.25753064669E+02  0.51100000000E-03 0.  1.
         12    1    3    3    0    0 -0.44261509047E+01 -0.25058285956E+02 -0.22201312390E+02  0.33769909368E+02  0.00000000000E+00 0. -1.
</event>
<event>
 7    1  0.1358622E-013  0.7246160E+02  0.7816164E-02  0.1226708E+00
        -11   -1    0    0    0    0  0.00000000000E+00  0.00000000000E+00  0.45593999997E+02  0.45594000000E+02  0.51100000000E-03 0. -1.
         11   -1    0    0    0    0 -0.00000000000E+00 -0.00000000000E+00 -0.45593999997E+02  0.45594000000E+02  0.51100000000E-03 0.  1.
    9900012    2    1    2    0    0 -0.18020144965E+02 -0.42121253842E+01  0.28653808962E+01  0.72461600654E+02  0.70000039549E+02 0.  0.
        -12    1    1    2    0    0  0.18020144965E+02  0.42121253842E+01 -0.28653808962E+01  0.18726399346E+02  0.00000000000E+00 0.  1.
         11    1    3    3    0    0 -0.37960846411E+01 -0.21693812402E+02  0.59652973591E+01  0.22817022768E+02  0.51100000000E-03 0. -1.
        -11    1    3    3    0    0 -0.42790853557E+00 -0.24080665790E+01 -0.19983115534E+02  0.20132232789E+02  0.51100000000E-03 0.  1.
        -12    1    3    3    0    0 -0.13796151788E+02  0.19889753597E+02  0.16883199071E+02  0.29512345098E+02  0.00000000000E+00 0.  1.
</event>
<event>
 7    1  0.1358622E-013  0.7246162E+02  0.7816164E-02  0.1226708E+00
        -11   -1    0    0    0    0  0.00000000000E+00  0.00000000000E+00  0.45593999997E+02  0.45594000000E+02  0.51100000000E-03 0.  1.
         11   -1    0    0    0    0 -0.00000000000E+00 -0.00000000000E+00 -0.45593999997E+02  0.45594000000E+02  0.51100000000E-03 0. -1.
    9900012    2    1    2    0    0  0.17025419008E+02 -0.44892540405E-01  0.77981016316E+01  0.72461620297E+02  0.70000065138E+02 0.  0.
        -12    1    1    2    0    0 -0.17025419008E+02  0.44892540405E-01 -0.77981016316E+01  0.18726379703E+02  0.00000000000E+00 0.  1.
         11    1    3    3    0    0  0.11702726492E+02  0.25718585053E+01 -0.52711627139E+01  0.13090203212E+02  0.51100000000E-03 0. -1.
        -11    1    3    3    0    0  0.18124709616E+02 -0.22578417974E+02 -0.52248354332E+01  0.29420893298E+02  0.51100000000E-03 0.  1.
        -12    1    3    3    0    0 -0.12802017101E+02  0.19961666928E+02  0.18294099779E+02  0.29950523787E+02  0.00000000000E+00 0.  1.
</event>
<event>
 7    1  0.1358622E-013  0.7246152E+02  0.7816164E-02  0.1226708E+00
        -11   -1    0    0    0    0  0.00000000000E+00  0.00000000000E+00  0.45593999997E+02  0.45594000000E+02  0.51100000000E-03 0.  1.
         11   -1    0    0    0    0 -0.00000000000E+00 -0.00000000000E+00 -0.45593999997E+02  0.45594000000E+02  0.51100000000E-03 0. -1.
    9900012    2    1    2    0    0 -0.13598756631E+02  0.12674191013E+02  0.22626892845E+01  0.72461519750E+02  0.69999934156E+02 0.  0.
        -12    1    1    2    0    0  0.13598756631E+02 -0.12674191013E+02 -0.22626892845E+01  0.18726480250E+02  0.00000000000E+00 0.  1.
         11    1    3    3    0    0  0.59294359586E+01 -0.13650300158E+01 -0.43696017432E+01  0.74909904143E+01  0.51100000000E-03 0. -1.
        -11    1    3    3    0    0 -0.62204039502E+00 -0.21077789249E+02  0.12718946677E+02  0.24625834782E+02  0.51100000000E-03 0.  1.
         12    1    3    3    0    0 -0.18906152195E+02  0.35117010278E+02 -0.60866556490E+01  0.40344694554E+02  0.00000000000E+00 0. -1.
</event>
<event>
 7    1  0.1358622E-013  0.7246155E+02  0.7816164E-02  0.1226708E+00
        -11   -1    0    0    0    0  0.00000000000E+00  0.00000000000E+00  0.45593999997E+02  0.45594000000E+02  0.51100000000E-03 0. -1.
         11   -1    0    0    0    0 -0.00000000000E+00 -0.00000000000E+00 -0.45593999997E+02  0.45594000000E+02  0.51100000000E-03 0.  1.
    9900012    2    1    2    0    0  0.95120399631E+01  0.14252025795E+02 -0.75551930430E+01  0.72461545839E+02  0.69999968143E+02 0.  0.
        -12    1    1    2    0    0 -0.95120399631E+01 -0.14252025795E+02  0.75551930430E+01  0.18726454161E+02  0.00000000000E+00 0.  1.
         11    1    3    3    0    0  0.17956802533E+02  0.30439775372E+01  0.17615428982E+02  0.25338032579E+02  0.51100000000E-03 0. -1.
        -11    1    3    3    0    0  0.12397164053E+02 -0.19282643454E+01 -0.96113947880E+00  0.12582991270E+02  0.51100000000E-03 0.  1.
        -12    1    3    3    0    0 -0.20841926623E+02  0.13136312603E+02 -0.24209482547E+02  0.34540521990E+02  0.00000000000E+00 0.  1.
</event>
<event>
 7    1  0.1358622E-013  0.7246158E+02  0.7816164E-02  0.1226708E+00
        -11   -1    0    0    0    0  0.00000000000E+00  0.00000000000E+00  0.45593999997E+02  0.45594000000E+02  0.51100000000E-03 0.  1.
         11   -1    0    0    0    0 -0.00000000000E+00 -0.00000000000E+00 -0.45593999997E+02  0.45594000000E+02  0.51100000000E-03 0. -1.
    9900012    2    1    2    0    0 -0.76825373577E+01  0.16412846391E+02 -0.47197531516E+01  0.72461575442E+02  0.70000006706E+02 0.  0.
        -12    1    1    2    0    0  0.76825373577E+01 -0.16412846391E+02  0.47197531516E+01  0.18726424558E+02  0.00000000000E+00 0.  1.
         11    1    3    3    0    0 -0.49175883722E+01 -0.83396697427E+01 -0.29480181411E+02  0.31029242065E+02  0.51100000000E-03 0. -1.
        -11    1    3    3    0    0  0.66844177481E+01  0.37542355911E+01  0.64422715066E-01  0.76668035094E+01  0.51100000000E-03 0.  1.
        -12    1    3    3    0    0 -0.94493667336E+01  0.20998280542E+02  0.24696005545E+02  0.33765529868E+02  0.00000000000E+00 0.  1.
</event>
<event>
 7    1  0.1358622E-013  0.7246156E+02  0.7816164E-02  0.1226708E+00
        -11   -1    0    0    0    0  0.00000000000E+00  0.00000000000E+00  0.45593999997E+02  0.45594000000E+02  0.51100000000E-03 0.  1.
         11   -1    0    0    0    0 -0.00000000000E+00 -0.00000000000E+00 -0.45593999997E+02  0.45594000000E+02  0.51100000000E-03 0. -1.
    9900012    2    1    2    0    0 -0.11703859228E+02 -0.55601183903E+01 -0.13519779889E+02  0.72461556515E+02  0.69999982050E+02 0.  0.
        -12    1    1    2    0    0  0.11703859228E+02  0.55601183903E+01  0.13519779889E+02  0.18726443485E+02  0.00000000000E+00 0.  1.
         11    1    3    3    0    0 -0.11230605704E+02  0.28634903033E+01 -0.15017245451E+02  0.18969547765E+02  0.51100000000E-03 0. -1.
        -11    1    3    3    0    0  0.32698562030E+01  0.21851682457E+02  0.53788493509E+01  0.22740272786E+02  0.51100000000E-03 0.  1.
         12    1    3    3    0    0 -0.37431097264E+01 -0.30275291151E+02 -0.38813837883E+01  0.30751735964E+02  0.00000000000E+00 0. -1.
</event>
<event>
 7    1  0.1358622E-013  0.7246163E+02  0.7816164E-02  0.1226708E+00
        -11   -1    0    0    0    0  0.00000000000E+00  0.00000000000E+00  0.45593999997E+02  0.45594000000E+02  0.51100000000E-03 0. -1.
         11   -1    0    0    0    0 -0.00000000000E+00 -0.00000000000E+00 -0.45593999997E+02  0.45594000000E+02  0.51100000000E-03 0.  1.
    9900012    2    1    2    0    0 -0.82637268042E+01 -0.44642106677E+01  0.16200578791E+02  0.72461625264E+02  0.70000071609E+02 0.  0.
        -12    1    1    2    0    0  0.82637268042E+01  0.44642106677E+01 -0.16200578791E+02  0.18726374736E+02  0.00000000000E+00 0.  1.
         11    1    3    3    0    0 -0.13913478991E+02 -0.86060585030E+01  0.74962624397E+01  0.17995640901E+02  0.51100000000E-03 0. -1.
        -11    1    3    3    0    0  0.77371315385E+01 -0.23591366949E+02 -0.14213945904E+01  0.24868376742E+02  0.51100000000E-03 0.  1.
        -12    1    3    3    0    0 -0.20873793513E+01  0.27733214784E+02  0.10125710942E+02  0.29597607621E+02  0.00000000000E+00 0.  1.
</event>
<event>
 7    1  0.1358622E-013  0.7246158E+02  0.7816164E-02  0.1226708E+00
        -11   -1    0    0    0    0  0.00000000000E+00  0.00000000000E+00  0.45593999997E+02  0.45594000000E+02  0.51100000000E-03 0. -1.
         11   -1    0    0    0    0 -0.00000000000E+00 -0.00000000000E+00 -0.45593999997E+02  0.45594000000E+02  0.51100000000E-03 0.  1.
    9900012    2    1    2    0    0  0.14605285451E+02  0.10571791071E+02  0.50598237565E+01  0.72461576262E+02  0.70000007774E+02 0.  0.
        -12    1    1    2    0    0 -0.14605285451E+02 -0.10571791071E+02 -0.50598237565E+01  0.18726423738E+02  0.00000000000E+00 0.  1.
         11    1    3    3    0    0  0.12281737620E+00  0.15611837764E+02  0.89061897648E+01  0.17974002862E+02  0.51100000000E-03 0. -1.
        -11    1    3    3    0    0  0.30186904361E+02  0.10622499528E+02 -0.14910423121E+00  0.32001701884E+02  0.51100000000E-03 0.  1.
         12    1    3    3    0    0 -0.15704436286E+02 -0.15662546222E+02 -0.36972617770E+01  0.22485871517E+02  0.00000000000E+00 0. -1.
</event>
<event>
 7    1  0.1358622E-013  0.7246157E+02  0.7816164E-02  0.1226708E+00
        -11   -1    0    0    0    0  0.00000000000E+00  0.00000000000E+00  0.45593999997E+02  0.45594000000E+02  0.51100000000E-03 0.  1.
         11   -1    0    0    0    0 -0.00000000000E+00 -0.00000000000E+00 -0.45593999997E+02  0.45594000000E+02  0.51100000000E-03 0. -1.
    9900012    2    1    2    0    0 -0.26818512650E+01  0.13210755676E+02 -0.12998562559E+02  0.72461574277E+02  0.70000005189E+02 0.  0.
        -12    1    1    2    0    0  0.26818512650E+01 -0.13210755676E+02  0.12998562559E+02  0.18726425723E+02  0.00000000000E+00 0.  1.
         11    1    3    3    0    0 -0.14804317109E+02  0.12987902370E+02 -0.32164801066E+02  0.37715087709E+02  0.51100000000E-03 0. -1.
        -11    1    3    3    0    0 -0.13151640221E+01  0.93010835262E+01 -0.31495324237E+00  0.93988832832E+01  0.51100000000E-03 0.  1.
        -12    1    3    3    0    0  0.13437629866E+02 -0.90782302208E+01  0.19481191749E+02  0.25347603285E+02  0.00000000000E+00 0.  1.
</event>
<event>
 7    1  0.1358622E-013  0.7246157E+02  0.7816164E-02  0.1226708E+00
        -11   -1    0    0    0    0  0.00000000000E+00  0.00000000000E+00  0.45593999997E+02  0.45594000000E+02  0.51100000000E-03 0. -1.
         11   -1    0    0    0    0 -0.00000000000E+00 -0.00000000000E+00 -0.45593999997E+02  0.45594000000E+02  0.51100000000E-03 0.  1.
    9900012    2    1    2    0    0  0.14256424494E+01  0.15480587496E+02 -0.10440209178E+02  0.72461574465E+02  0.70000005433E+02 0.  0.
        -12    1    1    2    0    0 -0.14256424494E+01 -0.15480587496E+02  0.10440209178E+02  0.18726425535E+02  0.00000000000E+00 0.  1.
         11    1    3    3    0    0  0.57816945120E+01  0.10939701845E+01  0.20271680177E+02  0.21108429114E+02  0.51100000000E-03 0. -1.
        -11    1    3    3    0    0  0.10394103173E+02  0.19868269603E+02 -0.81757080086E+01  0.23866874942E+02  0.51100000000E-03 0.  1.
         12    1    3    3    0    0 -0.14750155235E+02 -0.54816522915E+01 -0.22536181347E+02  0.27486270409E+02  0.00000000000E+00 0. -1.
</event>
<event>
 7    1  0.1358622E-013  0.7246143E+02  0.7816164E-02  0.1226708E+00
        -11   -1    0    0    0    0  0.00000000000E+00  0.00000000000E+00  0.45593999997E+02  0.45594000000E+02  0.51100000000E-03 0. -1.
         11   -1    0    0    0    0 -0.00000000000E+00 -0.00000000000E+00 -0.45593999997E+02  0.45594000000E+02  0.51100000000E-03 0.  1.
    9900012    2    1    2    0    0 -0.16147726083E+02 -0.40766387585E+01  0.85625027820E+01  0.72461428100E+02  0.69999814766E+02 0.  0.
        -12    1    1    2    0    0  0.16147726083E+02  0.40766387585E+01 -0.85625027820E+01  0.18726571900E+02  0.00000000000E+00 0.  1.
         11    1    3    3    0    0  0.12781471602E+02 -0.78574918786E+01  0.12712576853E+01  0.15057300266E+02  0.51100000000E-03 0. -1.
        -11    1    3    3    0    0  0.13550242627E+02 -0.19521219705E+01  0.46499260175E+01  0.14458273329E+02  0.51100000000E-03 0.  1.
        -12    1    3    3    0    0 -0.42479440313E+02  0.57329750906E+01  0.26413190792E+01  0.42945854505E+02  0.00000000000E+00 0.  1.
</event>
<event>
 7    1  0.1358622E-013  0.7246159E+02  0.7816164E-02  0.1226708E+00
        -11   -1    0    0    0    0  0.00000000000E+00  0.00000000000E+00  0.45593999997E+02  0.45594000000E+02  0.51100000000E-03 0. -1.
         11   -1    0    0    0    0 -0.00000000000E+00 -0.00000000000E+00 -0.45593999997E+02  0.45594000000E+02  0.51100000000E-03 0.  1.
    9900012    2    1    2    0    0 -0.17176613411E+02  0.70416658049E+01 -0.24611634638E+01  0.72461590008E+02  0.70000025681E+02 0.  0.
        -12    1    1    2    0    0  0.17176613411E+02 -0.70416658049E+01  0.24611634638E+01  0.18726409992E+02  0.00000000000E+00 0.  1.
         11    1    3    3    0    0  0.16062490341E+02 -0.28851343993E+00  0.60733422709E+01  0.17174758297E+02  0.51100000000E-03 0.  1.
        -11    1    3    3    0    0  0.29127780768E+00 -0.35793881203E+01 -0.18339998285E+02  0.18688295787E+02  0.51100000000E-03 0. -1.
         12    1    3    3    0    0 -0.33530381560E+02  0.10909567365E+02  0.98054925501E+01  0.36598535924E+02  0.00000000000E+00 0. -1.
</event>
<event>
 7    1  0.1358622E-013  0.7246158E+02  0.7816164E-02  0.1226708E+00
        -11   -1    0    0    0    0  0.00000000000E+00  0.00000000000E+00  0.45593999997E+02  0.45594000000E+02  0.51100000000E-03 0.  1.
         11   -1    0    0    0    0 -0.00000000000E+00 -0.00000000000E+00 -0.45593999997E+02  0.45594000000E+02  0.51100000000E-03 0. -1.
    9900012    2    1    2    0    0  0.41866321067E+01 -0.10990249463E+02 -0.14572761489E+02  0.72461578851E+02  0.70000011146E+02 0.  0.
        -12    1    1    2    0    0 -0.41866321067E+01  0.10990249463E+02  0.14572761489E+02  0.18726421149E+02  0.00000000000E+00 0.  1.
         11    1    3    3    0    0 -0.43675524390E+01 -0.74616865148E+01 -0.16047108910E+02  0.18228054877E+02  0.51100000000E-03 0. -1.
        -11    1    3    3    0    0 -0.58886476812E+01  0.17662457337E+02 -0.14866128846E+02  0.23825204255E+02  0.51100000000E-03 0.  1.
         12    1    3    3    0    0  0.14442832227E+02 -0.21191020285E+02  0.16340476268E+02  0.30408319718E+02  0.00000000000E+00 0. -1.
</event>
<event>
 7    1  0.1358622E-013  0.7246156E+02  0.7816164E-02  0.1226708E+00
        -11   -1    0    0    0    0  0.00000000000E+00  0.00000000000E+00  0.45593999997E+02  0.45594000000E+02  0.51100000000E-03 0.  1.
         11   -1    0    0    0    0 -0.00000000000E+00 -0.00000000000E+00 -0.45593999997E+02  0.45594000000E+02  0.51100000000E-03 0. -1.
    9900012    2    1    2    0    0 -0.11750028267E+02 -0.12103237813E+02 -0.81319109803E+01  0.72461561309E+02  0.69999988295E+02 0.  0.
        -12    1    1    2    0    0  0.11750028267E+02  0.12103237813E+02  0.81319109803E+01  0.18726438691E+02  0.00000000000E+00 0.  1.
         11    1    3    3    0    0  0.17547596467E+01 -0.36243854043E+02 -0.13919226746E+02  0.38864392582E+02  0.51100000000E-03 0. -1.
        -11    1    3    3    0    0 -0.32934049844E+01  0.22878321636E+01 -0.56287855909E+01  0.69111446150E+01  0.51100000000E-03 0.  1.
        -12    1    3    3    0    0 -0.10211382930E+02  0.21852784066E+02  0.11416101356E+02  0.26686024113E+02  0.00000000000E+00 0.  1.
</event>
<event>
 7    1  0.1358622E-013  0.7246156E+02  0.7816164E-02  0.1226708E+00
        -11   -1    0    0    0    0  0.00000000000E+00  0.00000000000E+00  0.45593999997E+02  0.45594000000E+02  0.51100000000E-03 0. -1.
         11   -1    0    0    0    0 -0.00000000000E+00 -0.00000000000E+00 -0.45593999997E+02  0.45594000000E+02  0.51100000000E-03 0.  1.
    9900012    2    1    2    0    0 -0.25959762879E+01 -0.16448341915E+02 -0.85669448779E+01  0.72461559090E+02  0.69999985404E+02 0.  0.
        -12    1    1    2    0    0  0.25959762879E+01  0.16448341915E+02  0.85669448779E+01  0.18726440910E+02  0.00000000000E+00 0.  1.
         11    1    3    3    0    0  0.29293635854E+01 -0.63753715131E+01 -0.46960463075E+01  0.84427118942E+01  0.51100000000E-03 0. -1.
        -11    1    3    3    0    0  0.19092335227E+02 -0.26571770920E+02 -0.90189297670E+01  0.33939908200E+02  0.51100000000E-03 0.  1.
         12    1    3    3    0    0 -0.24617675100E+02  0.16498800518E+02  0.51480311965E+01  0.30078938995E+02  0.00000000000E+00 0. -1.
</event>
<event>
 7    1  0.1358622E-013  0.7246153E+02  0.7816164E-02  0.1226708E+00
        -11   -1    0    0    0    0  0.00000000000E+00  0.00000000000E+00  0.45593999997E+02  0.45594000000E+02  0.51100000000E-03 0. -1.
         11   -1    0    0    0    0 -0.00000000000E+00 -0.00000000000E+00 -0.45593999997E+02  0.45594000000E+02  0.51100000000E-03 0.  1.
    9900012    2    1    2    0    0  0.10612671066E+02  0.13021301699E+02  0.82763324968E+01  0.72461527703E+02  0.69999944517E+02 0.  0.
        -12    1    1    2    0    0 -0.10612671066E+02 -0.13021301699E+02 -0.82763324968E+01  0.18726472297E+02  0.00000000000E+00 0.  1.
         11    1    3    3    0    0  0.10353004461E+02  0.71580531956E+01  0.30525600767E+02  0.33018702721E+02  0.51100000000E-03 0. -1.
        -11    1    3    3    0    0  0.11059395359E+02 -0.13876769964E+01  0.25544370395E+01  0.11435078574E+02  0.51100000000E-03 0.  1.
        -12    1    3    3    0    0 -0.10799728754E+02  0.72509254994E+01 -0.24803705310E+02  0.28007746408E+02  0.00000000000E+00 0.  1.
</event>
<event>
 7    1  0.1358622E-013  0.7246156E+02  0.7816164E-02  0.1226708E+00
        -11   -1    0    0    0    0  0.00000000000E+00  0.00000000000E+00  0.45593999997E+02  0.45594000000E+02  0.51100000000E-03 0.  1.
         11   -1    0    0    0    0 -0.00000000000E+00 -0.00000000000E+00 -0.45593999997E+02  0.45594000000E+02  0.51100000000E-03 0. -1.
    9900012    2    1    2    0    0  0.62555704359E+00  0.67255348643E+01 -0.17465831050E+02  0.72461564272E+02  0.69999992155E+02 0.  0.
        -12    1    1    2    0    0 -0.62555704359E+00 -0.67255348643E+01  0.17465831050E+02  0.18726435728E+02  0.00000000000E+00 0.  1.
         11    1    3    3    0    0  0.84918842772E+01  0.13302658766E+02 -0.14205217577E+02  0.21233488538E+02  0.51100000000E-03 0. -1.
        -11    1    3    3    0    0  0.77411098437E+01 -0.22889776502E+02  0.86965896207E+01  0.25680679921E+02  0.51100000000E-03 0.  1.
         12    1    3    3    0    0 -0.15607437077E+02  0.16312652600E+02 -0.11957203093E+02  0.25547395812E+02  0.00000000000E+00 0. -1.
</event>
<event>
 7    1  0.1358622E-013  0.7246154E+02  0.7816164E-02  0.1226708E+00
        -11   -1    0    0    0    0  0.00000000000E+00  0.00000000000E+00  0.45593999997E+02  0.45594000000E+02  0.51100000000E-03 0. -1.
         11   -1    0    0    0    0 -0.00000000000E+00 -0.00000000000E+00 -0.45593999997E+02  0.45594000000E+02  0.51100000000E-03 0.  1.
    9900012    2    1    2    0    0  0.17750600999E+02  0.30587497550E+01 -0.51225330980E+01  0.72461544616E+02  0.69999966550E+02 0.  0.
        -12    1    1    2    0    0 -0.17750600999E+02 -0.30587497550E+01  0.51225330980E+01  0.18726455384E+02  0.00000000000E+00 0.  1.
         11    1    3    3    0    0 -0.67409951661E+01  0.67908655037E+01 -0.10602616340E+02  0.14281888658E+02  0.51100000000E-03 0. -1.
        -11    1    3    3    0    0  0.20902833496E+02 -0.15617938182E+02 -0.17944657287E+02  0.31667951727E+02  0.51100000000E-03 0.  1.
         12    1    3    3    0    0  0.35887626691E+01  0.11885822433E+02  0.23424740529E+02  0.26511704231E+02  0.00000000000E+00 0. -1.
</event>
<event>
 7    1  0.1358622E-013  0.7246159E+02  0.7816164E-02  0.1226708E+00
        -11   -1    0    0    0    0  0.00000000000E+00  0.00000000000E+00  0.45593999997E+02  0.45594000000E+02  0.51100000000E-03 0.  1.
         11   -1    0    0    0    0 -0.00000000000E+00 -0.00000000000E+00 -0.45593999997E+02  0.45594000000E+02  0.51100000000E-03 0. -1.
    9900012    2    1    2    0    0  0.17179064901E+02  0.58032184602E+01 -0.46776935736E+01  0.72461589972E+02  0.70000025634E+02 0.  0.
        -12    1    1    2    0    0 -0.17179064901E+02 -0.58032184602E+01  0.46776935736E+01  0.18726410028E+02  0.00000000000E+00 0.  1.
         11    1    3    3    0    0  0.37707442343E+01 -0.74577147042E+01 -0.30463819890E+02  0.31589244107E+02  0.51100000000E-03 0. -1.
        -11    1    3    3    0    0  0.84721312947E+01 -0.49897483383E+01  0.12718233764E+01  0.99142388571E+01  0.51100000000E-03 0.  1.
         12    1    3    3    0    0  0.49361893721E+01  0.18250681503E+02  0.24514302940E+02  0.30958107007E+02  0.00000000000E+00 0. -1.
</event>
<event>
 7    1  0.1358622E-013  0.7246165E+02  0.7816164E-02  0.1226708E+00
        -11   -1    0    0    0    0  0.00000000000E+00  0.00000000000E+00  0.45593999997E+02  0.45594000000E+02  0.51100000000E-03 0.  1.
         11   -1    0    0    0    0 -0.00000000000E+00 -0.00000000000E+00 -0.45593999997E+02  0.45594000000E+02  0.51100000000E-03 0. -1.
    9900012    2    1    2    0    0  0.13726012946E+02 -0.12709248278E+02  0.86463711743E+00  0.72461654374E+02  0.70000109529E+02 0.  0.
        -12    1    1    2    0    0 -0.13726012946E+02  0.12709248278E+02 -0.86463711743E+00  0.18726345626E+02  0.00000000000E+00 0.  1.
         11    1    3    3    0    0  0.10550191640E+02 -0.88572187463E+01  0.26393833462E+02  0.29772324609E+02  0.51100000000E-03 0. -1.
        -11    1    3    3    0    0 -0.37474132616E+01  0.25810833850E+01  0.72584551882E+01  0.85668121010E+01  0.51100000000E-03 0.  1.
         12    1    3    3    0    0  0.69232345677E+01 -0.64331129164E+01 -0.32787651533E+02  0.34122517664E+02  0.00000000000E+00 0. -1.
</event>
<event>
 7    1  0.1358622E-013  0.7246140E+02  0.7816164E-02  0.1226708E+00
        -11   -1    0    0    0    0  0.00000000000E+00  0.00000000000E+00  0.45593999997E+02  0.45594000000E+02  0.51100000000E-03 0.  1.
         11   -1    0    0    0    0 -0.00000000000E+00 -0.00000000000E+00 -0.45593999997E+02  0.45594000000E+02  0.51100000000E-03 0. -1.
    9900012    2    1    2    0    0 -0.51861414448E+01  0.17890733432E+02  0.19264708533E+01  0.72461396043E+02  0.69999773005E+02 0.  0.
        -12    1    1    2    0    0  0.51861414448E+01 -0.17890733432E+02 -0.19264708533E+01  0.18726603957E+02  0.00000000000E+00 0.  1.
         11    1    3    3    0    0  0.53124861666E+01  0.35493544169E+01  0.44579535833E+01  0.77906210573E+01  0.51100000000E-03 0. -1.
        -11    1    3    3    0    0  0.24641168467E+02  0.10032051500E+02  0.79171075300E+01  0.27758058877E+02  0.51100000000E-03 0.  1.
         12    1    3    3    0    0 -0.35139796078E+02  0.43093275151E+01 -0.10448590260E+02  0.36912716108E+02  0.00000000000E+00 0. -1.
</event>
<event>
 7    1  0.1358622E-013  0.7246161E+02  0.7816164E-02  0.1226708E+00
        -11   -1    0    0    0    0  0.00000000000E+00  0.00000000000E+00  0.45593999997E+02  0.45594000000E+02  0.51100000000E-03 0.  1.
         11   -1    0    0    0    0 -0.00000000000E+00 -0.00000000000E+00 -0.45593999997E+02  0.45594000000E+02  0.51100000000E-03 0. -1.
    9900012    2    1    2    0    0 -0.67945738235E+01 -0.18694304025E+01 -0.17349829762E+02  0.72461612301E+02  0.70000054721E+02 0.  0.
        -12    1    1    2    0    0  0.67945738235E+01  0.18694304025E+01  0.17349829762E+02  0.18726387699E+02  0.00000000000E+00 0.  1.
         11    1    3    3    0    0 -0.59013763934E+00 -0.13769425387E+02 -0.12952558840E+02  0.18913331771E+02  0.51100000000E-03 0. -1.
        -11    1    3    3    0    0  0.21463605048E+02 -0.20860887303E+01 -0.63630204827E+01  0.22483908419E+02  0.51100000000E-03 0.  1.
        -12    1    3    3    0    0 -0.27668041233E+02  0.13986083714E+02  0.19657495607E+01  0.31064372111E+02  0.00000000000E+00 0.  1.
</event>
<event>
 7    1  0.1358622E-013  0.7246155E+02  0.7816164E-02  0.1226708E+00
        -11   -1    0    0    0    0  0.00000000000E+00  0.00000000000E+00  0.45593999997E+02  0.45594000000E+02  0.51100000000E-03 0. -1.
         11   -1    0    0    0    0 -0.00000000000E+00 -0.00000000000E+00 -0.45593999997E+02  0.45594000000E+02  0.51100000000E-03 0.  1.
    9900012    2    1    2    0    0 -0.23551610370E+01  0.44818886675E+00  0.18572348367E+02  0.72461553978E+02  0.69999978744E+02 0.  0.
        -12    1    1    2    0    0  0.23551610370E+01 -0.44818886675E+00 -0.18572348367E+02  0.18726446022E+02  0.00000000000E+00 0.  1.
         11    1    3    3    0    0 -0.16428428411E+02  0.14917092074E+02  0.21926040387E+02  0.31195578907E+02  0.51100000000E-03 0. -1.
        -11    1    3    3    0    0 -0.12196352978E+02 -0.38937802888E+01 -0.14291325067E+01  0.12882351139E+02  0.51100000000E-03 0.  1.
        -12    1    3    3    0    0  0.26269620352E+02 -0.10575122918E+02 -0.19245595136E+01  0.28383623932E+02  0.00000000000E+00 0.  1.
</event>
<event>
 7    1  0.1358622E-013  0.7246171E+02  0.7816164E-02  0.1226708E+00
        -11   -1    0    0    0    0  0.00000000000E+00  0.00000000000E+00  0.45593999997E+02  0.45594000000E+02  0.51100000000E-03 0.  1.
         11   -1    0    0    0    0 -0.00000000000E+00 -0.00000000000E+00 -0.45593999997E+02  0.45594000000E+02  0.51100000000E-03 0. -1.
    9900012    2    1    2    0    0  0.13028211152E+02 -0.12790633335E+02 -0.41640651733E+01  0.72461707636E+02  0.70000178913E+02 0.  0.
        -12    1    1    2    0    0 -0.13028211152E+02  0.12790633335E+02  0.41640651733E+01  0.18726292364E+02  0.00000000000E+00 0.  1.
         11    1    3    3    0    0  0.94389354261E+01  0.10453961749E+02 -0.63318874081E+01  0.15442526239E+02  0.51100000000E-03 0. -1.
        -11    1    3    3    0    0  0.25051029496E+02 -0.23064538586E+02 -0.49444337775E+01  0.34408929722E+02  0.51100000000E-03 0.  1.
         12    1    3    3    0    0 -0.21461753770E+02 -0.18005649783E+00  0.71122560123E+01  0.22610251675E+02  0.00000000000E+00 0. -1.
</event>
<event>
 7    1  0.1358622E-013  0.7246166E+02  0.7816164E-02  0.1226708E+00
        -11   -1    0    0    0    0  0.00000000000E+00  0.00000000000E+00  0.45593999997E+02  0.45594000000E+02  0.51100000000E-03 0. -1.
         11   -1    0    0    0    0 -0.00000000000E+00 -0.00000000000E+00 -0.45593999997E+02  0.45594000000E+02  0.51100000000E-03 0.  1.
    9900012    2    1    2    0    0  0.52313402619E+01 -0.17129933805E+02  0.54657313336E+01  0.72461661006E+02  0.70000118169E+02 0.  0.
        -12    1    1    2    0    0 -0.52313402619E+01  0.17129933805E+02 -0.54657313336E+01  0.18726338994E+02  0.00000000000E+00 0.  1.
         11    1    3    3    0    0 -0.84888254012E+01 -0.12412104468E+02  0.29723262336E+02  0.33310551154E+02  0.51100000000E-03 0. -1.
        -11    1    3    3    0    0 -0.57871449037E+01 -0.62215526738E+00  0.20270832458E+01  0.61633748920E+01  0.51100000000E-03 0.  1.
        -12    1    3    3    0    0  0.19507310567E+02 -0.40956740689E+01 -0.26284614248E+02  0.32987734960E+02  0.00000000000E+00 0.  1.
</event>
<event>
 7    1  0.1358622E-013  0.7246158E+02  0.7816164E-02  0.1226708E+00
        -11   -1    0    0    0    0  0.00000000000E+00  0.00000000000E+00  0.45593999997E+02  0.45594000000E+02  0.51100000000E-03 0. -1.
         11   -1    0    0    0    0 -0.00000000000E+00 -0.00000000000E+00 -0.45593999997E+02  0.45594000000E+02  0.51100000000E-03 0.  1.
    9900012    2    1    2    0    0 -0.74523820781E+01  0.96891814898E+01  0.14186638452E+02  0.72461576232E+02  0.70000007734E+02 0.  0.
        -12    1    1    2    0    0  0.74523820781E+01 -0.96891814898E+01 -0.14186638452E+02  0.18726423768E+02  0.00000000000E+00 0.  1.
         11    1    3    3    0    0 -0.20054774199E+02  0.20462268325E+01 -0.64054253389E+01  0.21152079956E+02  0.51100000000E-03 0. -1.
        -11    1    3    3    0    0 -0.10373242333E+02  0.11376547657E+02 -0.54952702181E+01  0.16347109473E+02  0.51100000000E-03 0.  1.
         12    1    3    3    0    0  0.22975634454E+02 -0.37335929995E+01  0.26087334009E+02  0.34962386803E+02  0.00000000000E+00 0. -1.
</event>
<event>
 7    1  0.1358622E-013  0.7246169E+02  0.7816164E-02  0.1226708E+00
        -11   -1    0    0    0    0  0.00000000000E+00  0.00000000000E+00  0.45593999997E+02  0.45594000000E+02  0.51100000000E-03 0.  1.
         11   -1    0    0    0    0 -0.00000000000E+00 -0.00000000000E+00 -0.45593999997E+02  0.45594000000E+02  0.51100000000E-03 0. -1.
    9900012    2    1    2    0    0 -0.15656942544E+01  0.92578271330E+01 -0.16202342329E+02  0.72461690735E+02  0.70000156897E+02 0.  0.
        -12    1    1    2    0    0  0.15656942544E+01 -0.92578271330E+01  0.16202342329E+02  0.18726309265E+02  0.00000000000E+00 0.  1.
         11    1    3    3    0    0  0.35070300813E+01  0.18818298394E+02 -0.27138946741E+01  0.19333722844E+02  0.51100000000E-03 0. -1.
        -11    1    3    3    0    0 -0.56908301376E+01  0.37787052887E+01  0.17823375295E+02  0.19087610340E+02  0.51100000000E-03 0.  1.
        -12    1    3    3    0    0  0.61810580185E+00 -0.13339176549E+02 -0.31311822950E+02  0.34040357552E+02  0.00000000000E+00 0.  1.
</event>
<event>
 7    1  0.1358622E-013  0.7246158E+02  0.7816164E-02  0.1226708E+00
        -11   -1    0    0    0    0  0.00000000000E+00  0.00000000000E+00  0.45593999997E+02  0.45594000000E+02  0.51100000000E-03 0.  1.
         11   -1    0    0    0    0 -0.00000000000E+00 -0.00000000000E+00 -0.45593999997E+02  0.45594000000E+02  0.51100000000E-03 0. -1.
    9900012    2    1    2    0    0 -0.21270762716E+01  0.11169393967E+02 -0.14879477727E+02  0.72461583566E+02  0.70000017288E+02 0.  0.
        -12    1    1    2    0    0  0.21270762716E+01 -0.11169393967E+02  0.14879477727E+02  0.18726416434E+02  0.00000000000E+00 0.  1.
         11    1    3    3    0    0 -0.49939946350E+00  0.37596041865E+01  0.17162183599E+02  0.17576250158E+02  0.51100000000E-03 0. -1.
        -11    1    3    3    0    0  0.50586790611E+01 -0.55039087998E+01  0.87914454437E+01  0.11540050224E+02  0.51100000000E-03 0.  1.
         12    1    3    3    0    0 -0.66863558692E+01  0.12913698580E+02 -0.40833106770E+02  0.43345283184E+02  0.00000000000E+00 0. -1.
</event>
<event>
 7    1  0.1358622E-013  0.7246157E+02  0.7816164E-02  0.1226708E+00
        -11   -1    0    0    0    0  0.00000000000E+00  0.00000000000E+00  0.45593999997E+02  0.45594000000E+02  0.51100000000E-03 0.  1.
         11   -1    0    0    0    0 -0.00000000000E+00 -0.00000000000E+00 -0.45593999997E+02  0.45594000000E+02  0.51100000000E-03 0. -1.
    9900012    2    1    2    0    0 -0.11407706646E+02  0.11172851958E+01 -0.14808611015E+02  0.72461573290E+02  0.70000003902E+02 0.  0.
        -12    1    1    2    0    0  0.11407706646E+02 -0.11172851958E+01  0.14808611015E+02  0.18726426710E+02  0.00000000000E+00 0.  1.
         11    1    3    3    0    0  0.11280401950E+02  0.20335897353E+02 -0.94040100956E+01  0.25084489140E+02  0.51100000000E-03 0. -1.
        -11    1    3    3    0    0 -0.13226675017E+02 -0.50201978826E+01  0.15106795053E+02  0.20696921893E+02  0.51100000000E-03 0.  1.
        -12    1    3    3    0    0 -0.94614335783E+01 -0.14198414275E+02 -0.20511395973E+02  0.26680162257E+02  0.00000000000E+00 0.  1.
</event>
<event>
 7    1  0.1358622E-013  0.7246155E+02  0.7816164E-02  0.1226708E+00
        -11   -1    0    0    0    0  0.00000000000E+00  0.00000000000E+00  0.45593999997E+02  0.45594000000E+02  0.51100000000E-03 0. -1.
         11   -1    0    0    0    0 -0.00000000000E+00 -0.00000000000E+00 -0.45593999997E+02  0.45594000000E+02  0.51100000000E-03 0.  1.
    9900012    2    1    2    0    0 -0.36418768642E+01 -0.18315134266E+02 -0.14044349160E+01  0.72461552186E+02  0.69999976411E+02 0.  0.
        -12    1    1    2    0    0  0.36418768642E+01  0.18315134266E+02  0.14044349160E+01  0.18726447814E+02  0.00000000000E+00 0.  1.
         11    1    3    3    0    0 -0.18548418953E+02  0.83334354632E+01 -0.20062311657E+01  0.20433182719E+02  0.51100000000E-03 0. -1.
        -11    1    3    3    0    0  0.48731898496E+01 -0.36076231182E+01 -0.19135734143E+02  0.20073346640E+02  0.51100000000E-03 0.  1.
        -12    1    3    3    0    0  0.10033352239E+02 -0.23040946611E+02  0.19737530392E+02  0.31955022827E+02  0.00000000000E+00 0.  1.
</event>
<event>
 7    1  0.1358622E-013  0.7246158E+02  0.7816164E-02  0.1226708E+00
        -11   -1    0    0    0    0  0.00000000000E+00  0.00000000000E+00  0.45593999997E+02  0.45594000000E+02  0.51100000000E-03 0.  1.
         11   -1    0    0    0    0 -0.00000000000E+00 -0.00000000000E+00 -0.45593999997E+02  0.45594000000E+02  0.51100000000E-03 0. -1.
    9900012    2    1    2    0    0  0.15601865839E+02 -0.99355303905E+01  0.29233181007E+01  0.72461580948E+02  0.70000013878E+02 0.  0.
        -12    1    1    2    0    0 -0.15601865839E+02  0.99355303905E+01 -0.29233181007E+01  0.18726419052E+02  0.00000000000E+00 0.  1.
         11    1    3    3    0    0  0.63981353904E+01 -0.27618243903E+02 -0.19861309656E+01  0.28419152859E+02  0.51100000000E-03 0. -1.
        -11    1    3    3    0    0  0.14665691848E+01  0.68902682725E+01 -0.17011807124E+02  0.18412718538E+02  0.51100000000E-03 0.  1.
        -12    1    3    3    0    0  0.77371612643E+01  0.10792445240E+02  0.21921256191E+02  0.25629709551E+02  0.00000000000E+00 0.  1.
</event>
<event>
 7    1  0.1358622E-013  0.7246155E+02  0.7816164E-02  0.1226708E+00
        -11   -1    0    0    0    0  0.00000000000E+00  0.00000000000E+00  0.45593999997E+02  0.45594000000E+02  0.51100000000E-03 0. -1.
         11   -1    0    0    0    0 -0.00000000000E+00 -0.00000000000E+00 -0.45593999997E+02  0.45594000000E+02  0.51100000000E-03 0.  1.
    9900012    2    1    2    0    0 -0.11349045810E+02 -0.11752505853E+02  0.91519166563E+01  0.72461553111E+02  0.69999977615E+02 0.  0.
        -12    1    1    2    0    0  0.11349045810E+02  0.11752505853E+02 -0.91519166563E+01  0.18726446889E+02  0.00000000000E+00 0.  1.
         11    1    3    3    0    0 -0.27825265488E+02 -0.53783032622E+01  0.12389715903E+02  0.30930189231E+02  0.51100000000E-03 0. -1.
        -11    1    3    3    0    0 -0.71622484468E+01 -0.12322339321E+02  0.60002251600E+01  0.15464169922E+02  0.51100000000E-03 0.  1.
         12    1    3    3    0    0  0.23638468125E+02  0.59481367303E+01 -0.92380244071E+01  0.26067193957E+02  0.00000000000E+00 0. -1.
</event>
<event>
 7    1  0.1358622E-013  0.7246156E+02  0.7816164E-02  0.1226708E+00
        -11   -1    0    0    0    0  0.00000000000E+00  0.00000000000E+00  0.45593999997E+02  0.45594000000E+02  0.51100000000E-03 0.  1.
         11   -1    0    0    0    0 -0.00000000000E+00 -0.00000000000E+00 -0.45593999997E+02  0.45594000000E+02  0.51100000000E-03 0. -1.
    9900012    2    1    2    0    0  0.17787432655E+02  0.11340490372E+01 -0.57446247180E+01  0.72461560380E+02  0.69999987085E+02 0.  0.
        -12    1    1    2    0    0 -0.17787432655E+02 -0.11340490372E+01  0.57446247180E+01  0.18726439620E+02  0.00000000000E+00 0.  1.
         11    1    3    3    0    0  0.10912578283E+02 -0.16455173530E+02 -0.31145379806E+02  0.36876710594E+02  0.51100000000E-03 0. -1.
        -11    1    3    3    0    0 -0.47605519705E+01  0.27926769733E+01  0.28539275474E+01  0.62134372491E+01  0.51100000000E-03 0.  1.
        -12    1    3    3    0    0  0.11635406343E+02  0.14796545594E+02  0.22546827541E+02  0.29371412537E+02  0.00000000000E+00 0.  1.
</event>
<event>
 7    1  0.1358622E-013  0.7246154E+02  0.7816164E-02  0.1226708E+00
        -11   -1    0    0    0    0  0.00000000000E+00  0.00000000000E+00  0.45593999997E+02  0.45594000000E+02  0.51100000000E-03 0. -1.
         11   -1    0    0    0    0 -0.00000000000E+00 -0.00000000000E+00 -0.45593999997E+02  0.45594000000E+02  0.51100000000E-03 0.  1.
    9900012    2    1    2    0    0 -0.10957647480E+02 -0.14587374791E+02 -0.42212392732E+01  0.72461537372E+02  0.69999957112E+02 0.  0.
        -12    1    1    2    0    0  0.10957647480E+02  0.14587374791E+02  0.42212392732E+01  0.18726462628E+02  0.00000000000E+00 0.  1.
         11    1    3    3    0    0  0.88337176459E+01 -0.35421613200E+01  0.65945747746E+01  0.11578855340E+02  0.51100000000E-03 0. -1.
        -11    1    3    3    0    0  0.12024095125E+02 -0.14367871052E+02 -0.20195242019E+02  0.27547456918E+02  0.51100000000E-03 0.  1.
        -12    1    3    3    0    0 -0.31815460250E+02  0.33226575819E+01  0.93794279714E+01  0.33335225114E+02  0.00000000000E+00 0.  1.
</event>
<event>
 7    1  0.1358622E-013  0.7246160E+02  0.7816164E-02  0.1226708E+00
        -11   -1    0    0    0    0  0.00000000000E+00  0.00000000000E+00  0.45593999997E+02  0.45594000000E+02  0.51100000000E-03 0.  1.
         11   -1    0    0    0    0 -0.00000000000E+00 -0.00000000000E+00 -0.45593999997E+02  0.45594000000E+02  0.51100000000E-03 0. -1.
    9900012    2    1    2    0    0  0.13471828920E+02  0.12586381271E+02 -0.32818827936E+01  0.72461603587E+02  0.70000043370E+02 0.  0.
        -12    1    1    2    0    0 -0.13471828920E+02 -0.12586381271E+02  0.32818827936E+01  0.18726396413E+02  0.00000000000E+00 0.  1.
         11    1    3    3    0    0  0.36256644365E+01  0.13246900103E+02 -0.31841072086E+02  0.34676788732E+02  0.51100000000E-03 0. -1.
        -11    1    3    3    0    0  0.83933044587E+01  0.18664024530E+01 -0.46857454780E+00  0.86110731167E+01  0.51100000000E-03 0.  1.
        -12    1    3    3    0    0  0.14528600247E+01 -0.25269212846E+01  0.29027763840E+02  0.29173741738E+02  0.00000000000E+00 0.  1.
</event>
<event>
 7    1  0.1358622E-013  0.7246152E+02  0.7816164E-02  0.1226708E+00
        -11   -1    0    0    0    0  0.00000000000E+00  0.00000000000E+00  0.45593999997E+02  0.45594000000E+02  0.51100000000E-03 0.  1.
         11   -1    0    0    0    0 -0.00000000000E+00 -0.00000000000E+00 -0.45593999997E+02  0.45594000000E+02  0.51100000000E-03 0. -1.
    9900012    2    1    2    0    0  0.71781248458E+01 -0.15252703210E+02 -0.81554041924E+01  0.72461520111E+02  0.69999934626E+02 0.  0.
        -12    1    1    2    0    0 -0.71781248458E+01  0.15252703210E+02  0.81554041924E+01  0.18726479889E+02  0.00000000000E+00 0.  1.
         11    1    3    3    0    0  0.14291957545E+02 -0.66506585895E+01 -0.14447410609E+02  0.21382679526E+02  0.51100000000E-03 0. -1.
        -11    1    3    3    0    0  0.16195572901E+02  0.59570652510E+00  0.17303349092E+02  0.23707748479E+02  0.51100000000E-03 0.  1.
        -12    1    3    3    0    0 -0.23309405600E+02 -0.91977511455E+01 -0.11011342675E+02  0.27371092106E+02  0.00000000000E+00 0.  1.
</event>
<event>
 7    1  0.1358622E-013  0.7246168E+02  0.7816164E-02  0.1226708E+00
        -11   -1    0    0    0    0  0.00000000000E+00  0.00000000000E+00  0.45593999997E+02  0.45594000000E+02  0.51100000000E-03 0.  1.
         11   -1    0    0    0    0 -0.00000000000E+00 -0.00000000000E+00 -0.45593999997E+02  0.45594000000E+02  0.51100000000E-03 0. -1.
    9900012    2    1    2    0    0 -0.16891184327E+02 -0.79220012532E+01 -0.16139420050E+01  0.72461681071E+02  0.70000144307E+02 0.  0.
        -12    1    1    2    0    0  0.16891184327E+02  0.79220012532E+01  0.16139420050E+01  0.18726318929E+02  0.00000000000E+00 0.  1.
         11    1    3    3    0    0  0.18829017565E+02 -0.12452250338E+02  0.58603621512E+01  0.23322398799E+02  0.51100000000E-03 0. -1.
        -11    1    3    3    0    0  0.14757353776E+01 -0.18101393974E+01 -0.10997451300E+02  0.11242701406E+02  0.51100000000E-03 0.  1.
        -12    1    3    3    0    0 -0.37195937270E+02  0.63403884825E+01  0.35231471439E+01  0.37896580866E+02  0.00000000000E+00 0.  1.
</event>
<event>
 7    1  0.1358622E-013  0.7246162E+02  0.7816164E-02  0.1226708E+00
        -11   -1    0    0    0    0  0.00000000000E+00  0.00000000000E+00  0.45593999997E+02  0.45594000000E+02  0.51100000000E-03 0.  1.
         11   -1    0    0    0    0 -0.00000000000E+00 -0.00000000000E+00 -0.45593999997E+02  0.45594000000E+02  0.51100000000E-03 0. -1.
    9900012    2    1    2    0    0  0.53131981566E+01 -0.17777788226E+02 -0.25293065425E+01  0.72461622335E+02  0.70000067792E+02 0.  0.
        -12    1    1    2    0    0 -0.53131981566E+01  0.17777788226E+02  0.25293065425E+01  0.18726377665E+02  0.00000000000E+00 0.  1.
         11    1    3    3    0    0  0.24908539351E+02 -0.59633332568E+01 -0.18235996764E+02  0.31441187229E+02  0.51100000000E-03 0. -1.
        -11    1    3    3    0    0 -0.39967902745E+01 -0.25664897836E-01 -0.88026962686E+01  0.96675981011E+01  0.51100000000E-03 0.  1.
        -12    1    3    3    0    0 -0.15598550919E+02 -0.11788790072E+02  0.24509386490E+02  0.31352837005E+02  0.00000000000E+00 0.  1.
</event>
<event>
 7    1  0.1358622E-013  0.7246158E+02  0.7816164E-02  0.1226708E+00
        -11   -1    0    0    0    0  0.00000000000E+00  0.00000000000E+00  0.45593999997E+02  0.45594000000E+02  0.51100000000E-03 0. -1.
         11   -1    0    0    0    0 -0.00000000000E+00 -0.00000000000E+00 -0.45593999997E+02  0.45594000000E+02  0.51100000000E-03 0.  1.
    9900012    2    1    2    0    0 -0.52011549907E+01  0.17301976408E+02 -0.49262785813E+01  0.72461584926E+02  0.70000019061E+02 0.  0.
        -12    1    1    2    0    0  0.52011549907E+01 -0.17301976408E+02  0.49262785813E+01  0.18726415074E+02  0.00000000000E+00 0.  1.
         11    1    3    3    0    0  0.58258873483E+01  0.43705505913E+00  0.13611334967E+02  0.14812171359E+02  0.51100000000E-03 0. -1.
        -11    1    3    3    0    0 -0.19355152284E+02  0.10189065713E+02  0.12245942709E+02  0.25067949520E+02  0.51100000000E-03 0.  1.
        -12    1    3    3    0    0  0.83281099448E+01  0.66758556354E+01 -0.30783556257E+02  0.32581464048E+02  0.00000000000E+00 0.  1.
</event>
<event>
 7    1  0.1358622E-013  0.7246157E+02  0.7816164E-02  0.1226708E+00
        -11   -1    0    0    0    0  0.00000000000E+00  0.00000000000E+00  0.45593999997E+02  0.45594000000E+02  0.51100000000E-03 0. -1.
         11   -1    0    0    0    0 -0.00000000000E+00 -0.00000000000E+00 -0.45593999997E+02  0.45594000000E+02  0.51100000000E-03 0.  1.
    9900012    2    1    2    0    0  0.42558759591E+01 -0.18221918403E+02  0.72701528820E+00  0.72461565697E+02  0.69999994011E+02 0.  0.
        -12    1    1    2    0    0 -0.42558759591E+01  0.18221918403E+02 -0.72701528820E+00  0.18726434303E+02  0.00000000000E+00 0.  1.
         11    1    3    3    0    0 -0.10402131809E+02 -0.48905591744E+01  0.12390734155E+02  0.16901248722E+02  0.51100000000E-03 0. -1.
        -11    1    3    3    0    0 -0.36072244313E+01  0.22111071527E+01 -0.26844886377E+02  0.27176257796E+02  0.51100000000E-03 0.  1.
         12    1    3    3    0    0  0.18265232199E+02 -0.15542466381E+02  0.15181167510E+02  0.28384059179E+02  0.00000000000E+00 0. -1.
</event>
<event>
 7    1  0.1358622E-013  0.7246153E+02  0.7816164E-02  0.1226708E+00
        -11   -1    0    0    0    0  0.00000000000E+00  0.00000000000E+00  0.45593999997E+02  0.45594000000E+02  0.51100000000E-03 0.  1.
         11   -1    0    0    0    0 -0.00000000000E+00 -0.00000000000E+00 -0.45593999997E+02  0.45594000000E+02  0.51100000000E-03 0. -1.
    9900012    2    1    2    0    0 -0.18500219677E+02 -0.21541718920E+01  0.19447219562E+01  0.72461534019E+02  0.69999952745E+02 0.  0.
        -12    1    1    2    0    0  0.18500219677E+02  0.21541718920E+01 -0.19447219562E+01  0.18726465981E+02  0.00000000000E+00 0.  1.
         11    1    3    3    0    0 -0.27889146908E+02 -0.15319962803E+00 -0.33227489390E+01  0.28086805552E+02  0.51100000000E-03 0. -1.
        -11    1    3    3    0    0 -0.13475626633E+02 -0.83372377371E+01  0.11809857526E+02  0.19762964891E+02  0.51100000000E-03 0.  1.
        -12    1    3    3    0    0  0.22864553863E+02  0.63362654731E+01 -0.65423866305E+01  0.24611763576E+02  0.00000000000E+00 0.  1.
</event>
<event>
 7    1  0.1358622E-013  0.7246158E+02  0.7816164E-02  0.1226708E+00
        -11   -1    0    0    0    0  0.00000000000E+00  0.00000000000E+00  0.45593999997E+02  0.45594000000E+02  0.51100000000E-03 0.  1.
         11   -1    0    0    0    0 -0.00000000000E+00 -0.00000000000E+00 -0.45593999997E+02  0.45594000000E+02  0.51100000000E-03 0. -1.
    9900012    2    1    2    0    0 -0.18616366414E+02  0.30079628466E+00  0.20047802401E+01  0.72461582278E+02  0.70000015612E+02 0.  0.
        -12    1    1    2    0    0  0.18616366414E+02 -0.30079628466E+00 -0.20047802401E+01  0.18726417722E+02  0.00000000000E+00 0.  1.
         11    1    3    3    0    0 -0.49150901581E+01 -0.51192578400E+01  0.83027513116E+00  0.71452270187E+01  0.51100000000E-03 0. -1.
        -11    1    3    3    0    0 -0.19225977103E+02  0.10707010770E+01  0.29998689892E+02  0.35646963291E+02  0.51100000000E-03 0.  1.
         12    1    3    3    0    0  0.55247008473E+01  0.43493530476E+01 -0.28824184783E+02  0.29669391969E+02  0.00000000000E+00 0. -1.
</event>
<event>
 7    1  0.1358622E-013  0.7246176E+02  0.7816164E-02  0.1226708E+00
        -11   -1    0    0    0    0  0.00000000000E+00  0.00000000000E+00  0.45593999997E+02  0.45594000000E+02  0.51100000000E-03 0.  1.
         11   -1    0    0    0    0 -0.00000000000E+00 -0.00000000000E+00 -0.45593999997E+02  0.45594000000E+02  0.51100000000E-03 0. -1.
    9900012    2    1    2    0    0  0.75616986396E+01 -0.16004773308E+02  0.61106524870E+01  0.72461758285E+02  0.70000244892E+02 0.  0.
        -12    1    1    2    0    0 -0.75616986396E+01  0.16004773308E+02 -0.61106524870E+01  0.18726241715E+02  0.00000000000E+00 0.  1.
         11    1    3    3    0    0 -0.18545750897E+02 -0.45844618436E+01  0.15135656322E+01  0.19163847419E+02  0.51100000000E-03 0. -1.
        -11    1    3    3    0    0 -0.81811389266E+01 -0.15412037921E+02  0.67541220034E+01  0.18710427876E+02  0.51100000000E-03 0.  1.
         12    1    3    3    0    0  0.34288588463E+02  0.39917264564E+01 -0.21570351485E+01  0.34587482989E+02  0.00000000000E+00 0. -1.
</event>
<event>
 7    1  0.1358622E-013  0.7246158E+02  0.7816164E-02  0.1226708E+00
        -11   -1    0    0    0    0  0.00000000000E+00  0.00000000000E+00  0.45593999997E+02  0.45594000000E+02  0.51100000000E-03 0.  1.
         11   -1    0    0    0    0 -0.00000000000E+00 -0.00000000000E+00 -0.45593999997E+02  0.45594000000E+02  0.51100000000E-03 0. -1.
    9900012    2    1    2    0    0 -0.14099447753E+02  0.26000644950E+01 -0.12046736974E+02  0.72461584592E+02  0.70000018626E+02 0.  0.
        -12    1    1    2    0    0  0.14099447753E+02 -0.26000644950E+01  0.12046736974E+02  0.18726415408E+02  0.00000000000E+00 0.  1.
         11    1    3    3    0    0  0.11310555997E+02 -0.21232876105E+01 -0.14871335545E+02  0.18804085950E+02  0.51100000000E-03 0. -1.
        -11    1    3    3    0    0  0.60925707770E+01 -0.80137668756E+01  0.14565898005E+02  0.17706079836E+02  0.51100000000E-03 0.  1.
        -12    1    3    3    0    0 -0.31502574527E+02  0.12737118981E+02 -0.11741299434E+02  0.35951418806E+02  0.00000000000E+00 0.  1.
</event>
<event>
 7    1  0.1358622E-013  0.7246155E+02  0.7816164E-02  0.1226708E+00
        -11   -1    0    0    0    0  0.00000000000E+00  0.00000000000E+00  0.45593999997E+02  0.45594000000E+02  0.51100000000E-03 0.  1.
         11   -1    0    0    0    0 -0.00000000000E+00 -0.00000000000E+00 -0.45593999997E+02  0.45594000000E+02  0.51100000000E-03 0. -1.
    9900012    2    1    2    0    0  0.93395625458E+01  0.11964771638E+02  0.10967979790E+02  0.72461554273E+02  0.69999979129E+02 0.  0.
        -12    1    1    2    0    0 -0.93395625458E+01 -0.11964771638E+02 -0.10967979790E+02  0.18726445727E+02  0.00000000000E+00 0.  1.
         11    1    3    3    0    0  0.30478660643E+02  0.15495722575E+02  0.20833614878E+01  0.34255022523E+02  0.51100000000E-03 0. -1.
        -11    1    3    3    0    0 -0.13937035120E+00 -0.62828096721E+01 -0.86629849046E+01  0.10702356245E+02  0.51100000000E-03 0.  1.
        -12    1    3    3    0    0 -0.20999727746E+02  0.27518587346E+01  0.17547603207E+02  0.27504175505E+02  0.00000000000E+00 0.  1.
</event>
<event>
 7    1  0.1358622E-013  0.7246156E+02  0.7816164E-02  0.1226708E+00
        -11   -1    0    0    0    0  0.00000000000E+00  0.00000000000E+00  0.45593999997E+02  0.45594000000E+02  0.51100000000E-03 0.  1.
         11   -1    0    0    0    0 -0.00000000000E+00 -0.00000000000E+00 -0.45593999997E+02  0.45594000000E+02  0.51100000000E-03 0. -1.
    9900012    2    1    2    0    0  0.56856837692E+01  0.13345276030E+02 -0.11842983516E+02  0.72461557444E+02  0.69999983260E+02 0.  0.
        -12    1    1    2    0    0 -0.56856837692E+01 -0.13345276030E+02  0.11842983516E+02  0.18726442556E+02  0.00000000000E+00 0.  1.
         11    1    3    3    0    0 -0.79286751833E+00 -0.87713641256E+01 -0.65191279292E+01  0.10957394615E+02  0.51100000000E-03 0. -1.
        -11    1    3    3    0    0 -0.54744271039E+01 -0.12229616184E+01  0.22548445420E+02  0.23235691906E+02  0.51100000000E-03 0.  1.
         12    1    3    3    0    0  0.11952978391E+02  0.23339601773E+02 -0.27872301007E+02  0.38268470923E+02  0.00000000000E+00 0. -1.
</event>
<event>
 7    1  0.1358622E-013  0.7246154E+02  0.7816164E-02  0.1226708E+00
        -11   -1    0    0    0    0  0.00000000000E+00  0.00000000000E+00  0.45593999997E+02  0.45594000000E+02  0.51100000000E-03 0.  1.
         11   -1    0    0    0    0 -0.00000000000E+00 -0.00000000000E+00 -0.45593999997E+02  0.45594000000E+02  0.51100000000E-03 0. -1.
    9900012    2    1    2    0    0 -0.85929791934E+01 -0.10265578802E+02 -0.13094235755E+02  0.72461537184E+02  0.69999956868E+02 0.  0.
        -12    1    1    2    0    0  0.85929791934E+01  0.10265578802E+02  0.13094235755E+02  0.18726462816E+02  0.00000000000E+00 0.  1.
         11    1    3    3    0    0 -0.34090464775E+01 -0.71955603957E+01 -0.14304130665E+01  0.80897323254E+01  0.51100000000E-03 0. -1.
        -11    1    3    3    0    0 -0.86529047238E+01  0.25711685164E+02  0.92092913237E+01  0.28649163358E+02  0.51100000000E-03 0.  1.
         12    1    3    3    0    0  0.34689720079E+01 -0.28781703571E+02 -0.20873114013E+02  0.35722641501E+02  0.00000000000E+00 0. -1.
</event>
<event>
 7    1  0.1358622E-013  0.7246178E+02  0.7816164E-02  0.1226707E+00
        -11   -1    0    0    0    0  0.00000000000E+00  0.00000000000E+00  0.45593999997E+02  0.45594000000E+02  0.51100000000E-03 0. -1.
         11   -1    0    0    0    0 -0.00000000000E+00 -0.00000000000E+00 -0.45593999997E+02  0.45594000000E+02  0.51100000000E-03 0.  1.
    9900012    2    1    2    0    0  0.15389417197E+02 -0.10335656026E+02  0.26479124898E+01  0.72461778072E+02  0.70000270668E+02 0.  0.
        -12    1    1    2    0    0 -0.15389417197E+02  0.10335656026E+02 -0.26479124898E+01  0.18726221928E+02  0.00000000000E+00 0.  1.
         11    1    3    3    0    0 -0.15050322684E+02  0.11409551906E+02 -0.13195597706E+00  0.18886701676E+02  0.51100000000E-03 0. -1.
        -11    1    3    3    0    0 -0.90807091490E+00 -0.79557497346E+01 -0.13468737298E+02  0.15669251140E+02  0.51100000000E-03 0.  1.
         12    1    3    3    0    0  0.31347810796E+02 -0.13789458197E+02  0.16248605764E+02  0.37905825256E+02  0.00000000000E+00 0. -1.
</event>
<event>
 7    1  0.1358622E-013  0.7246157E+02  0.7816164E-02  0.1226708E+00
        -11   -1    0    0    0    0  0.00000000000E+00  0.00000000000E+00  0.45593999997E+02  0.45594000000E+02  0.51100000000E-03 0.  1.
         11   -1    0    0    0    0 -0.00000000000E+00 -0.00000000000E+00 -0.45593999997E+02  0.45594000000E+02  0.51100000000E-03 0. -1.
    9900012    2    1    2    0    0  0.17316139566E+02 -0.68923843338E+01  0.18235565347E+01  0.72461574561E+02  0.70000005558E+02 0.  0.
        -12    1    1    2    0    0 -0.17316139566E+02  0.68923843338E+01 -0.18235565347E+01  0.18726425439E+02  0.00000000000E+00 0.  1.
         11    1    3    3    0    0 -0.19494705816E+01  0.31684147948E+01 -0.50615734231E+01  0.62816250794E+01  0.51100000000E-03 0. -1.
        -11    1    3    3    0    0 -0.93446034892E+01 -0.41871973744E+01  0.28213628213E+02  0.30014380777E+02  0.51100000000E-03 0.  1.
         12    1    3    3    0    0  0.28610213637E+02 -0.58736017542E+01 -0.21328498255E+02  0.36165568705E+02  0.00000000000E+00 0. -1.
</event>
<event>
 7    1  0.1358622E-013  0.7246155E+02  0.7816164E-02  0.1226708E+00
        -11   -1    0    0    0    0  0.00000000000E+00  0.00000000000E+00  0.45593999997E+02  0.45594000000E+02  0.51100000000E-03 0. -1.
         11   -1    0    0    0    0 -0.00000000000E+00 -0.00000000000E+00 -0.45593999997E+02  0.45594000000E+02  0.51100000000E-03 0.  1.
    9900012    2    1    2    0    0 -0.11599230825E+02  0.11609530347E+02  0.90197813439E+01  0.72461553297E+02  0.69999977858E+02 0.  0.
        -12    1    1    2    0    0  0.11599230825E+02 -0.11609530347E+02 -0.90197813439E+01  0.18726446703E+02  0.00000000000E+00 0.  1.
         11    1    3    3    0    0 -0.64009149527E+01  0.16046992603E+01 -0.29392463854E+01  0.72239837710E+01  0.51100000000E-03 0. -1.
        -11    1    3    3    0    0 -0.15672089104E+02 -0.23886387088E+02  0.70596872735E+01  0.29428099661E+02  0.51100000000E-03 0.  1.
         12    1    3    3    0    0  0.10473773231E+02  0.33891218175E+02  0.48993404558E+01  0.35809469865E+02  0.00000000000E+00 0. -1.
</event>
<event>
 7    1  0.1358622E-013  0.7246157E+02  0.7816164E-02  0.1226708E+00
        -11   -1    0    0    0    0  0.00000000000E+00  0.00000000000E+00  0.45593999997E+02  0.45594000000E+02  0.51100000000E-03 0. -1.
         11   -1    0    0    0    0 -0.00000000000E+00 -0.00000000000E+00 -0.45593999997E+02  0.45594000000E+02  0.51100000000E-03 0.  1.
    9900012    2    1    2    0    0  0.14093884026E+02 -0.89914666904E+01  0.84377215716E+01  0.72461569867E+02  0.69999999444E+02 0.  0.
        -12    1    1    2    0    0 -0.14093884026E+02  0.89914666904E+01 -0.84377215716E+01  0.18726430133E+02  0.00000000000E+00 0.  1.
         11    1    3    3    0    0 -0.14548565589E+02  0.39152566456E+01  0.76238326588E+01  0.16885284125E+02  0.51100000000E-03 0. -1.
        -11    1    3    3    0    0 -0.10944751697E+02  0.46677028593E+01 -0.24225410719E+01  0.12142641607E+02  0.51100000000E-03 0.  1.
        -12    1    3    3    0    0  0.39587201313E+02 -0.17574426195E+02  0.32364299846E+01  0.43433644136E+02  0.00000000000E+00 0.  1.
</event>
<event>
 7    1  0.1358622E-013  0.7246160E+02  0.7816164E-02  0.1226708E+00
        -11   -1    0    0    0    0  0.00000000000E+00  0.00000000000E+00  0.45593999997E+02  0.45594000000E+02  0.51100000000E-03 0.  1.
         11   -1    0    0    0    0 -0.00000000000E+00 -0.00000000000E+00 -0.45593999997E+02  0.45594000000E+02  0.51100000000E-03 0. -1.
    9900012    2    1    2    0    0  0.46723155765E+01  0.10157112017E+02 -0.15022668873E+02  0.72461600521E+02  0.70000039376E+02 0.  0.
        -12    1    1    2    0    0 -0.46723155765E+01 -0.10157112017E+02  0.15022668873E+02  0.18726399479E+02  0.00000000000E+00 0.  1.
         11    1    3    3    0    0 -0.37866015449E+01 -0.20087723549E+02 -0.16123920368E+02  0.26035279851E+02  0.51100000000E-03 0. -1.
        -11    1    3    3    0    0  0.16923986729E+02  0.21016555187E+02 -0.10880602040E+02  0.29094749006E+02  0.51100000000E-03 0.  1.
        -12    1    3    3    0    0 -0.84650696078E+01  0.92282803788E+01  0.11981853534E+02  0.17331571664E+02  0.00000000000E+00 0.  1.
</event>
<event>
 7    1  0.1358622E-013  0.7246155E+02  0.7816164E-02  0.1226708E+00
        -11   -1    0    0    0    0  0.00000000000E+00  0.00000000000E+00  0.45593999997E+02  0.45594000000E+02  0.51100000000E-03 0.  1.
         11   -1    0    0    0    0 -0.00000000000E+00 -0.00000000000E+00 -0.45593999997E+02  0.45594000000E+02  0.51100000000E-03 0. -1.
    9900012    2    1    2    0    0  0.17173014022E+02  0.51061929269E+01 -0.54492585460E+01  0.72461547172E+02  0.69999969879E+02 0.  0.
        -12    1    1    2    0    0 -0.17173014022E+02 -0.51061929269E+01  0.54492585460E+01  0.18726452828E+02  0.00000000000E+00 0.  1.
         11    1    3    3    0    0 -0.27052936548E+01 -0.21338519493E+02 -0.11267342573E+02  0.24281763462E+02  0.51100000000E-03 0. -1.
        -11    1    3    3    0    0  0.18080986747E+02  0.87857367737E+00 -0.71417624223E+01  0.19460183561E+02  0.51100000000E-03 0.  1.
        -12    1    3    3    0    0  0.17973209301E+01  0.25566138743E+02  0.12959846449E+02  0.28719600149E+02  0.00000000000E+00 0.  1.
</event>
<event>
 7    1  0.1358622E-013  0.7246159E+02  0.7816164E-02  0.1226708E+00
        -11   -1    0    0    0    0  0.00000000000E+00  0.00000000000E+00  0.45593999997E+02  0.45594000000E+02  0.51100000000E-03 0.  1.
         11   -1    0    0    0    0 -0.00000000000E+00 -0.00000000000E+00 -0.45593999997E+02  0.45594000000E+02  0.51100000000E-03 0. -1.
    9900012    2    1    2    0    0 -0.17493419204E+01 -0.67009719465E+01 -0.17398712955E+02  0.72461589915E+02  0.70000025560E+02 0.  0.
        -12    1    1    2    0    0  0.17493419204E+01  0.67009719465E+01  0.17398712955E+02  0.18726410085E+02  0.00000000000E+00 0.  1.
         11    1    3    3    0    0  0.12668595690E+01  0.34295115179E+01 -0.35379303725E+01  0.50875764369E+01  0.51100000000E-03 0. -1.
        -11    1    3    3    0    0  0.10309757528E+02  0.24994975742E+02  0.79186153942E+00  0.27049343015E+02  0.51100000000E-03 0.  1.
         12    1    3    3    0    0 -0.13325959017E+02 -0.35125459206E+02 -0.14652644122E+02  0.40324670463E+02  0.00000000000E+00 0. -1.
</event>
<event>
 7    1  0.1358622E-013  0.7246162E+02  0.7816164E-02  0.1226708E+00
        -11   -1    0    0    0    0  0.00000000000E+00  0.00000000000E+00  0.45593999997E+02  0.45594000000E+02  0.51100000000E-03 0.  1.
         11   -1    0    0    0    0 -0.00000000000E+00 -0.00000000000E+00 -0.45593999997E+02  0.45594000000E+02  0.51100000000E-03 0. -1.
    9900012    2    1    2    0    0 -0.29314610461E+01 -0.17634735083E+02  0.55767360799E+01  0.72461619394E+02  0.70000063961E+02 0.  0.
        -12    1    1    2    0    0  0.29314610461E+01  0.17634735083E+02 -0.55767360799E+01  0.18726380606E+02  0.00000000000E+00 0.  1.
         11    1    3    3    0    0 -0.15121852578E+02 -0.37141273473E+02 -0.13230723231E+02  0.42227913257E+02  0.51100000000E-03 0. -1.
        -11    1    3    3    0    0  0.30526460535E+01  0.14220575240E+01  0.33368842851E+01  0.47408535648E+01  0.51100000000E-03 0.  1.
        -12    1    3    3    0    0  0.91377454788E+01  0.18084480866E+02  0.15470575025E+02  0.25492852572E+02  0.00000000000E+00 0.  1.
</event>
<event>
 7    1  0.1358622E-013  0.7246109E+02  0.7816164E-02  0.1226709E+00
        -11   -1    0    0    0    0  0.00000000000E+00  0.00000000000E+00  0.45593999997E+02  0.45594000000E+02  0.51100000000E-03 0.  1.
         11   -1    0    0    0    0 -0.00000000000E+00 -0.00000000000E+00 -0.45593999997E+02  0.45594000000E+02  0.51100000000E-03 0. -1.
    9900012    2    1    2    0    0 -0.11411208973E+02  0.14764053731E+02 -0.15824983324E+01  0.72461086913E+02  0.69999370303E+02 0.  0.
        -12    1    1    2    0    0  0.11411208973E+02 -0.14764053731E+02  0.15824983324E+01  0.18726913087E+02  0.00000000000E+00 0.  1.
         11    1    3    3    0    0 -0.10868471653E+01  0.18450495956E+02  0.10884522966E+02  0.21449356127E+02  0.51100000000E-03 0.  1.
        -11    1    3    3    0    0 -0.23707353706E+02  0.13760491544E+02 -0.56195973945E+01  0.27981594351E+02  0.51100000000E-03 0. -1.
        -12    1    3    3    0    0  0.13382991899E+02 -0.17446933769E+02 -0.68474239037E+01  0.23030136435E+02  0.00000000000E+00 0.  1.
</event>
<event>
 7    1  0.1358622E-013  0.7246144E+02  0.7816164E-02  0.1226708E+00
        -11   -1    0    0    0    0  0.00000000000E+00  0.00000000000E+00  0.45593999997E+02  0.45594000000E+02  0.51100000000E-03 0.  1.
         11   -1    0    0    0    0 -0.00000000000E+00 -0.00000000000E+00 -0.45593999997E+02  0.45594000000E+02  0.51100000000E-03 0. -1.
    9900012    2    1    2    0    0  0.50199594685E+01  0.39976886889E+01 -0.17592688861E+02  0.72461435733E+02  0.69999824708E+02 0.  0.
        -12    1    1    2    0    0 -0.50199594685E+01 -0.39976886889E+01  0.17592688861E+02  0.18726564267E+02  0.00000000000E+00 0.  1.
         11    1    3    3    0    0 -0.22611978799E+02 -0.15028379750E+02 -0.18264189059E+02  0.32722077950E+02  0.51100000000E-03 0.  1.
        -11    1    3    3    0    0  0.30684982535E+01  0.14381840854E+02  0.98836662218E+00  0.14738721001E+02  0.51100000000E-03 0. -1.
         12    1    3    3    0    0  0.24563440014E+02  0.46442275849E+01 -0.31686642335E+00  0.25000636782E+02  0.00000000000E+00 0. -1.
</event>
<event>
 7    1  0.1358622E-013  0.7246163E+02  0.7816164E-02  0.1226708E+00
        -11   -1    0    0    0    0  0.00000000000E+00  0.00000000000E+00  0.45593999997E+02  0.45594000000E+02  0.51100000000E-03 0.  1.
         11   -1    0    0    0    0 -0.00000000000E+00 -0.00000000000E+00 -0.45593999997E+02  0.45594000000E+02  0.51100000000E-03 0. -1.
    9900012    2    1    2    0    0  0.15723907300E+02 -0.73614612022E+01 -0.70174549958E+01  0.72461626982E+02  0.70000073846E+02 0.  0.
        -12    1    1    2    0    0 -0.15723907300E+02  0.73614612022E+01  0.70174549958E+01  0.18726373018E+02  0.00000000000E+00 0.  1.
         11    1    3    3    0    0  0.13463779142E+02 -0.12420046125E+02 -0.30362176013E+02  0.35459732473E+02  0.51100000000E-03 0. -1.
        -11    1    3    3    0    0 -0.38470419984E+01  0.22374880821E+01 -0.56754058976E+01  0.72122338716E+01  0.51100000000E-03 0.  1.
        -12    1    3    3    0    0  0.61071701559E+01  0.28210968403E+01  0.29020126915E+02  0.29789660637E+02  0.00000000000E+00 0.  1.
</event>
<event>
 7    1  0.1358622E-013  0.7246161E+02  0.7816164E-02  0.1226708E+00
        -11   -1    0    0    0    0  0.00000000000E+00  0.00000000000E+00  0.45593999997E+02  0.45594000000E+02  0.51100000000E-03 0.  1.
         11   -1    0    0    0    0 -0.00000000000E+00 -0.00000000000E+00 -0.45593999997E+02  0.45594000000E+02  0.51100000000E-03 0. -1.
    9900012    2    1    2    0    0  0.14274588562E+02  0.10748596519E+02  0.56019105047E+01  0.72461612013E+02  0.70000054346E+02 0.  0.
        -12    1    1    2    0    0 -0.14274588562E+02 -0.10748596519E+02 -0.56019105047E+01  0.18726387987E+02  0.00000000000E+00 0.  1.
         11    1    3    3    0    0  0.84004328795E+01 -0.41588176454E+01 -0.33694716581E+00  0.93795826359E+01  0.51100000000E-03 0.  1.
        -11    1    3    3    0    0  0.17663800255E+02 -0.18993093831E+02 -0.29530065347E+01  0.26104936326E+02  0.51100000000E-03 0. -1.
        -12    1    3    3    0    0 -0.11789644573E+02  0.33900507995E+02  0.88918642053E+01  0.36977093051E+02  0.00000000000E+00 0.  1.
</event>
<event>
 7    1  0.1358622E-013  0.7246158E+02  0.7816164E-02  0.1226708E+00
        -11   -1    0    0    0    0  0.00000000000E+00  0.00000000000E+00  0.45593999997E+02  0.45594000000E+02  0.51100000000E-03 0.  1.
         11   -1    0    0    0    0 -0.00000000000E+00 -0.00000000000E+00 -0.45593999997E+02  0.45594000000E+02  0.51100000000E-03 0. -1.
    9900012    2    1    2    0    0  0.13885520334E+02  0.81994287364E+00 -0.12537899170E+02  0.72461577575E+02  0.70000009484E+02 0.  0.
        -12    1    1    2    0    0 -0.13885520334E+02 -0.81994287364E+00  0.12537899170E+02  0.18726422425E+02  0.00000000000E+00 0.  1.
         11    1    3    3    0    0 -0.13102922512E+02 -0.68176404332E+01  0.13683291173E+02  0.20134528974E+02  0.51100000000E-03 0.  1.
        -11    1    3    3    0    0  0.22375377038E+01  0.18122684595E+02 -0.12660490121E+02  0.22219952346E+02  0.51100000000E-03 0. -1.
         12    1    3    3    0    0  0.24750905142E+02 -0.10485101288E+02 -0.13560700222E+02  0.30107096254E+02  0.00000000000E+00 0. -1.
</event>
<event>
 7    1  0.1358622E-013  0.7246157E+02  0.7816164E-02  0.1226708E+00
        -11   -1    0    0    0    0  0.00000000000E+00  0.00000000000E+00  0.45593999997E+02  0.45594000000E+02  0.51100000000E-03 0. -1.
         11   -1    0    0    0    0 -0.00000000000E+00 -0.00000000000E+00 -0.45593999997E+02  0.45594000000E+02  0.51100000000E-03 0.  1.
    9900012    2    1    2    0    0 -0.10443554600E+02 -0.15048162293E+02  0.38941366724E+01  0.72461566236E+02  0.69999994713E+02 0.  0.
        -12    1    1    2    0    0  0.10443554600E+02  0.15048162293E+02 -0.38941366724E+01  0.18726433764E+02  0.00000000000E+00 0.  1.
         11    1    3    3    0    0  0.67823364454E+01  0.67710395854E+01  0.47015634331E+01  0.10674819141E+02  0.51100000000E-03 0. -1.
        -11    1    3    3    0    0  0.13421624429E+02 -0.34869467663E+01  0.16953089101E+02  0.21902192365E+02  0.51100000000E-03 0.  1.
        -12    1    3    3    0    0 -0.30647515474E+02 -0.18332255112E+02 -0.17760515862E+02  0.39884554729E+02  0.00000000000E+00 0.  1.
</event>
<event>
 7    1  0.1358622E-013  0.7246159E+02  0.7816164E-02  0.1226708E+00
        -11   -1    0    0    0    0  0.00000000000E+00  0.00000000000E+00  0.45593999997E+02  0.45594000000E+02  0.51100000000E-03 0.  1.
         11   -1    0    0    0    0 -0.00000000000E+00 -0.00000000000E+00 -0.45593999997E+02  0.45594000000E+02  0.51100000000E-03 0. -1.
    9900012    2    1    2    0    0  0.81006171407E+01  0.95438670339E+01 -0.13927424802E+02  0.72461586632E+02  0.70000021283E+02 0.  0.
        -12    1    1    2    0    0 -0.81006171407E+01 -0.95438670339E+01  0.13927424802E+02  0.18726413368E+02  0.00000000000E+00 0.  1.
         11    1    3    3    0    0 -0.64648533149E+01  0.36853982789E+01 -0.20475695698E+02  0.21786018531E+02  0.51100000000E-03 0. -1.
        -11    1    3    3    0    0 -0.34722901580E+01 -0.15516922643E+02 -0.94076450968E+01  0.18475266541E+02  0.51100000000E-03 0.  1.
        -12    1    3    3    0    0  0.18037760614E+02  0.21375391397E+02  0.15955915993E+02  0.32200301559E+02  0.00000000000E+00 0.  1.
</event>
<event>
 7    1  0.1358622E-013  0.7246155E+02  0.7816164E-02  0.1226708E+00
        -11   -1    0    0    0    0  0.00000000000E+00  0.00000000000E+00  0.45593999997E+02  0.45594000000E+02  0.51100000000E-03 0.  1.
         11   -1    0    0    0    0 -0.00000000000E+00 -0.00000000000E+00 -0.45593999997E+02  0.45594000000E+02  0.51100000000E-03 0. -1.
    9900012    2    1    2    0    0 -0.51188907183E+01  0.69985286245E+01 -0.16598113954E+02  0.72461552608E+02  0.69999976960E+02 0.  0.
        -12    1    1    2    0    0  0.51188907183E+01 -0.69985286245E+01  0.16598113954E+02  0.18726447392E+02  0.00000000000E+00 0.  1.
         11    1    3    3    0    0  0.23224842310E+02 -0.41011224768E+01 -0.10577548701E+02  0.25847573245E+02  0.51100000000E-03 0. -1.
        -11    1    3    3    0    0 -0.45628794858E+01 -0.11874660187E+02 -0.45674575771E+01  0.13516252911E+02  0.51100000000E-03 0.  1.
         12    1    3    3    0    0 -0.23780853542E+02  0.22974311289E+02 -0.14531076755E+01  0.33097726452E+02  0.00000000000E+00 0. -1.
</event>
<event>
 7    1  0.1358622E-013  0.7246160E+02  0.7816164E-02  0.1226708E+00
        -11   -1    0    0    0    0  0.00000000000E+00  0.00000000000E+00  0.45593999997E+02  0.45594000000E+02  0.51100000000E-03 0.  1.
         11   -1    0    0    0    0 -0.00000000000E+00 -0.00000000000E+00 -0.45593999997E+02  0.45594000000E+02  0.51100000000E-03 0. -1.
    9900012    2    1    2    0    0 -0.16202922393E+02 -0.68109666437E+01 -0.64617359114E+01  0.72461601742E+02  0.70000040967E+02 0.  0.
        -12    1    1    2    0    0  0.16202922393E+02  0.68109666437E+01  0.64617359114E+01  0.18726398258E+02  0.00000000000E+00 0.  1.
         11    1    3    3    0    0 -0.30763245387E+02 -0.19363733653E+02  0.15332129516E+02  0.39451307247E+02  0.51100000000E-03 0. -1.
        -11    1    3    3    0    0 -0.84945078641E+00  0.81893862143E+01 -0.10817354705E+02  0.13594218487E+02  0.51100000000E-03 0.  1.
        -12    1    3    3    0    0  0.15409773780E+02  0.43633807951E+01 -0.10976510723E+02  0.19416076008E+02  0.00000000000E+00 0.  1.
</event>
<event>
 7    1  0.1358622E-013  0.7246157E+02  0.7816164E-02  0.1226708E+00
        -11   -1    0    0    0    0  0.00000000000E+00  0.00000000000E+00  0.45593999997E+02  0.45594000000E+02  0.51100000000E-03 0.  1.
         11   -1    0    0    0    0 -0.00000000000E+00 -0.00000000000E+00 -0.45593999997E+02  0.45594000000E+02  0.51100000000E-03 0. -1.
    9900012    2    1    2    0    0  0.11963607926E+02 -0.54468226757E+00 -0.14396343341E+02  0.72461566945E+02  0.69999995637E+02 0.  0.
        -12    1    1    2    0    0 -0.11963607926E+02  0.54468226757E+00  0.14396343341E+02  0.18726433055E+02  0.00000000000E+00 0.  1.
         11    1    3    3    0    0  0.31456866716E+02 -0.43732519777E+01 -0.89526435770E+01  0.32997115385E+02  0.51100000000E-03 0. -1.
        -11    1    3    3    0    0  0.56885223466E+01 -0.96752544798E+00 -0.11728279334E+02  0.13070880934E+02  0.51100000000E-03 0.  1.
        -12    1    3    3    0    0 -0.25181781137E+02  0.47960951581E+01  0.62845795703E+01  0.26393570626E+02  0.00000000000E+00 0.  1.
</event>
<event>
 7    1  0.1358622E-013  0.7246148E+02  0.7816164E-02  0.1226708E+00
        -11   -1    0    0    0    0  0.00000000000E+00  0.00000000000E+00  0.45593999997E+02  0.45594000000E+02  0.51100000000E-03 0. -1.
         11   -1    0    0    0    0 -0.00000000000E+00 -0.00000000000E+00 -0.45593999997E+02  0.45594000000E+02  0.51100000000E-03 0.  1.
    9900012    2    1    2    0    0 -0.16254240974E+02 -0.92979576787E+01  0.17388544224E+00  0.72461478625E+02  0.69999880584E+02 0.  0.
        -12    1    1    2    0    0  0.16254240974E+02  0.92979576787E+01 -0.17388544224E+00  0.18726521375E+02  0.00000000000E+00 0.  1.
         11    1    3    3    0    0 -0.12159507528E+02 -0.30127141269E+01 -0.10758297818E+02  0.16512753918E+02  0.51100000000E-03 0. -1.
        -11    1    3    3    0    0  0.11189263564E+02 -0.25931276403E+02 -0.11802222741E+01  0.28267006206E+02  0.51100000000E-03 0.  1.
         12    1    3    3    0    0 -0.15283997010E+02  0.19646032851E+02  0.12112405534E+02  0.27681718502E+02  0.00000000000E+00 0. -1.
</event>
<event>
 7    1  0.1358622E-013  0.7246156E+02  0.7816164E-02  0.1226708E+00
        -11   -1    0    0    0    0  0.00000000000E+00  0.00000000000E+00  0.45593999997E+02  0.45594000000E+02  0.51100000000E-03 0.  1.
         11   -1    0    0    0    0 -0.00000000000E+00 -0.00000000000E+00 -0.45593999997E+02  0.45594000000E+02  0.51100000000E-03 0. -1.
    9900012    2    1    2    0    0 -0.17535952571E+02  0.63232735573E+01  0.17849949649E+01  0.72461558050E+02  0.69999984050E+02 0.  0.
        -12    1    1    2    0    0  0.17535952571E+02 -0.63232735573E+01 -0.17849949649E+01  0.18726441950E+02  0.00000000000E+00 0.  1.
         11    1    3    3    0    0 -0.11650287257E+02  0.25690681817E+02 -0.12292663835E+01  0.28235640979E+02  0.51100000000E-03 0. -1.
        -11    1    3    3    0    0  0.78226778874E+01  0.93958649102E+01  0.58366035242E-01  0.12226200293E+02  0.51100000000E-03 0.  1.
        -12    1    3    3    0    0 -0.13708343202E+02 -0.28763273170E+02  0.29558953131E+01  0.31999716778E+02  0.00000000000E+00 0.  1.
</event>
<event>
 7    1  0.1358622E-013  0.7246155E+02  0.7816164E-02  0.1226708E+00
        -11   -1    0    0    0    0  0.00000000000E+00  0.00000000000E+00  0.45593999997E+02  0.45594000000E+02  0.51100000000E-03 0. -1.
         11   -1    0    0    0    0 -0.00000000000E+00 -0.00000000000E+00 -0.45593999997E+02  0.45594000000E+02  0.51100000000E-03 0.  1.
    9900012    2    1    2    0    0  0.12304713976E+02  0.12712680008E+02 -0.61369194703E+01  0.72461548131E+02  0.69999971128E+02 0.  0.
        -12    1    1    2    0    0 -0.12304713976E+02 -0.12712680008E+02  0.61369194703E+01  0.18726451869E+02  0.00000000000E+00 0.  1.
         11    1    3    3    0    0  0.32547725235E+01  0.20296010466E+01 -0.34871244300E+00  0.38515484181E+01  0.51100000000E-03 0. -1.
        -11    1    3    3    0    0  0.38133132415E+02  0.45178311838E+01 -0.60854186336E+01  0.38879029136E+02  0.51100000000E-03 0.  1.
         12    1    3    3    0    0 -0.29083190962E+02  0.61652477776E+01  0.29721160633E+00  0.29730970577E+02  0.00000000000E+00 0. -1.
</event>
<event>
 7    1  0.1504021E-013  0.7246155E+02  0.7816164E-02  0.1226708E+00
        -11   -1    0    0    0    0  0.00000000000E+00  0.00000000000E+00  0.45593999997E+02  0.45594000000E+02  0.51100000000E-03 0. -1.
         11   -1    0    0    0    0 -0.00000000000E+00 -0.00000000000E+00 -0.45593999997E+02  0.45594000000E+02  0.51100000000E-03 0.  1.
    9900012    2    1    2    0    0  0.55678614659E+01 -0.10427159939E+02  0.14524228848E+02  0.72461548939E+02  0.69999972181E+02 0.  0.
        -12    1    1    2    0    0 -0.55678614659E+01  0.10427159939E+02 -0.14524228848E+02  0.18726451061E+02  0.00000000000E+00 0.  1.
         11    1    3    3    0    0  0.21729441864E+02  0.32615131626E+01  0.27204851702E+02  0.34970131086E+02  0.51100000000E-03 0. -1.
        -11    1    3    3    0    0 -0.14945522739E+02  0.49600929397E+01 -0.17573210520E+01  0.15844852459E+02  0.51100000000E-03 0.  1.
        -12    1    3    3    0    0 -0.12160576588E+01 -0.18648766041E+02 -0.10923301802E+02  0.21646565394E+02  0.00000000000E+00 0.  1.
</event>
<event>
 7    1  0.1358622E-013  0.7246153E+02  0.7816164E-02  0.1226708E+00
        -11   -1    0    0    0    0  0.00000000000E+00  0.00000000000E+00  0.45593999997E+02  0.45594000000E+02  0.51100000000E-03 0.  1.
         11   -1    0    0    0    0 -0.00000000000E+00 -0.00000000000E+00 -0.45593999997E+02  0.45594000000E+02  0.51100000000E-03 0. -1.
    9900012    2    1    2    0    0 -0.30433232999E+01 -0.94488621436E+01 -0.15878851214E+02  0.72461528672E+02  0.69999945779E+02 0.  0.
        -12    1    1    2    0    0  0.30433232999E+01  0.94488621436E+01  0.15878851214E+02  0.18726471328E+02  0.00000000000E+00 0.  1.
         11    1    3    3    0    0  0.10783812231E+02 -0.35044363419E+01 -0.35849607993E+02  0.37600080769E+02  0.51100000000E-03 0. -1.
        -11    1    3    3    0    0  0.31895022110E+01 -0.21493123420E+01 -0.37838467697E+01  0.53953650974E+01  0.51100000000E-03 0.  1.
        -12    1    3    3    0    0 -0.17016637741E+02 -0.37951134597E+01  0.23754603548E+02  0.29466082806E+02  0.00000000000E+00 0.  1.
</event>
<event>
 7    1  0.1358622E-013  0.7246159E+02  0.7816164E-02  0.1226708E+00
        -11   -1    0    0    0    0  0.00000000000E+00  0.00000000000E+00  0.45593999997E+02  0.45594000000E+02  0.51100000000E-03 0.  1.
         11   -1    0    0    0    0 -0.00000000000E+00 -0.00000000000E+00 -0.45593999997E+02  0.45594000000E+02  0.51100000000E-03 0. -1.
    9900012    2    1    2    0    0  0.13876624771E+02 -0.16936972985E+01 -0.12459905307E+02  0.72461586413E+02  0.70000020998E+02 0.  0.
        -12    1    1    2    0    0 -0.13876624771E+02  0.16936972985E+01  0.12459905307E+02  0.18726413587E+02  0.00000000000E+00 0.  1.
         11    1    3    3    0    0  0.23641403952E+02  0.26440760391E+02 -0.45387631020E+01  0.35757938442E+02  0.51100000000E-03 0. -1.
        -11    1    3    3    0    0  0.39172485131E+01  0.43243071429E+00 -0.22104031977E+01  0.45185965513E+01  0.51100000000E-03 0.  1.
        -12    1    3    3    0    0 -0.13682027695E+02 -0.28566888403E+02 -0.57107390071E+01  0.32185051420E+02  0.00000000000E+00 0.  1.
</event>
<event>
 7    1  0.1358622E-013  0.7246166E+02  0.7816164E-02  0.1226708E+00
        -11   -1    0    0    0    0  0.00000000000E+00  0.00000000000E+00  0.45593999997E+02  0.45594000000E+02  0.51100000000E-03 0.  1.
         11   -1    0    0    0    0 -0.00000000000E+00 -0.00000000000E+00 -0.45593999997E+02  0.45594000000E+02  0.51100000000E-03 0. -1.
    9900012    2    1    2    0    0  0.42883889402E+01  0.49696104548E+01 -0.17538204995E+02  0.72461656464E+02  0.70000112252E+02 0.  0.
        -12    1    1    2    0    0 -0.42883889402E+01 -0.49696104548E+01  0.17538204995E+02  0.18726343536E+02  0.00000000000E+00 0.  1.
         11    1    3    3    0    0  0.27357204408E+02  0.51284576150E+00 -0.17653840537E+02  0.32562827423E+02  0.51100000000E-03 0. -1.
        -11    1    3    3    0    0 -0.24451081949E+01 -0.11055563941E+02 -0.67665204405E+01  0.13190521115E+02  0.51100000000E-03 0.  1.
         12    1    3    3    0    0 -0.20623707273E+02  0.15512328635E+02  0.68821559823E+01  0.26708307927E+02  0.00000000000E+00 0. -1.
</event>
<event>
 7    1  0.1358622E-013  0.7246165E+02  0.7816164E-02  0.1226708E+00
        -11   -1    0    0    0    0  0.00000000000E+00  0.00000000000E+00  0.45593999997E+02  0.45594000000E+02  0.51100000000E-03 0. -1.
         11   -1    0    0    0    0 -0.00000000000E+00 -0.00000000000E+00 -0.45593999997E+02  0.45594000000E+02  0.51100000000E-03 0.  1.
    9900012    2    1    2    0    0  0.15301465366E+02 -0.10755575368E+02  0.92688340657E+00  0.72461645398E+02  0.70000097837E+02 0.  0.
        -12    1    1    2    0    0 -0.15301465366E+02  0.10755575368E+02 -0.92688340657E+00  0.18726354602E+02  0.00000000000E+00 0.  1.
         11    1    3    3    0    0 -0.96187623054E+01 -0.17568305213E+02  0.15304112943E+02  0.25206781024E+02  0.51100000000E-03 0. -1.
        -11    1    3    3    0    0  0.10469910069E+02  0.11075032352E+02 -0.24677606752E+02  0.29004476098E+02  0.51100000000E-03 0.  1.
         12    1    3    3    0    0  0.14450317602E+02 -0.42623025065E+01  0.10300377216E+02  0.18250388277E+02  0.00000000000E+00 0. -1.
</event>
<event>
 7    1  0.1358622E-013  0.7246151E+02  0.7816164E-02  0.1226708E+00
        -11   -1    0    0    0    0  0.00000000000E+00  0.00000000000E+00  0.45593999997E+02  0.45594000000E+02  0.51100000000E-03 0.  1.
         11   -1    0    0    0    0 -0.00000000000E+00 -0.00000000000E+00 -0.45593999997E+02  0.45594000000E+02  0.51100000000E-03 0. -1.
    9900012    2    1    2    0    0  0.18716742836E+02  0.60145568587E+00 -0.55961642139E-01  0.72461512261E+02  0.69999924401E+02 0.  0.
        -12    1    1    2    0    0 -0.18716742836E+02 -0.60145568587E+00  0.55961642139E-01  0.18726487739E+02  0.00000000000E+00 0.  1.
         11    1    3    3    0    0  0.32648517849E+02  0.15435748276E+02 -0.20723281751E+02  0.41637032188E+02  0.51100000000E-03 0. -1.
        -11    1    3    3    0    0 -0.11861869097E+01  0.14499917869E+01  0.49900669630E+00  0.19386911851E+01  0.51100000000E-03 0.  1.
        -12    1    3    3    0    0 -0.12745588104E+02 -0.16284284377E+02  0.20168313413E+02  0.28885788889E+02  0.00000000000E+00 0.  1.
</event>
<event>
 7    1  0.1358622E-013  0.7246153E+02  0.7816164E-02  0.1226708E+00
        -11   -1    0    0    0    0  0.00000000000E+00  0.00000000000E+00  0.45593999997E+02  0.45594000000E+02  0.51100000000E-03 0. -1.
         11   -1    0    0    0    0 -0.00000000000E+00 -0.00000000000E+00 -0.45593999997E+02  0.45594000000E+02  0.51100000000E-03 0.  1.
    9900012    2    1    2    0    0  0.69829139433E+01  0.16335719266E+02  0.59214630984E+01  0.72461533801E+02  0.69999952461E+02 0.  0.
        -12    1    1    2    0    0 -0.69829139433E+01 -0.16335719266E+02 -0.59214630984E+01  0.18726466199E+02  0.00000000000E+00 0.  1.
         11    1    3    3    0    0  0.25559967400E+02  0.97099322785E+01  0.12237138915E+02  0.29955672041E+02  0.51100000000E-03 0. -1.
        -11    1    3    3    0    0  0.91167513948E+01  0.24485546676E+01 -0.10576548534E+02  0.14176528317E+02  0.51100000000E-03 0.  1.
         12    1    3    3    0    0 -0.27693804852E+02  0.41772323199E+01  0.42608727178E+01  0.28329333443E+02  0.00000000000E+00 0. -1.
</event>
<event>
 7    1  0.1358622E-013  0.7246160E+02  0.7816164E-02  0.1226708E+00
        -11   -1    0    0    0    0  0.00000000000E+00  0.00000000000E+00  0.45593999997E+02  0.45594000000E+02  0.51100000000E-03 0.  1.
         11   -1    0    0    0    0 -0.00000000000E+00 -0.00000000000E+00 -0.45593999997E+02  0.45594000000E+02  0.51100000000E-03 0. -1.
    9900012    2    1    2    0    0  0.49123796057E+01 -0.14440799212E+02 -0.10863237724E+02  0.72461599142E+02  0.70000037579E+02 0.  0.
        -12    1    1    2    0    0 -0.49123796057E+01  0.14440799212E+02  0.10863237724E+02  0.18726400858E+02  0.00000000000E+00 0.  1.
         11    1    3    3    0    0 -0.69745906892E+01 -0.22674033385E+02 -0.39488988488E+01  0.24048919053E+02  0.51100000000E-03 0. -1.
        -11    1    3    3    0    0 -0.12247144375E+02 -0.11441400899E+02 -0.30672973951E+01  0.17038383534E+02  0.51100000000E-03 0.  1.
        -12    1    3    3    0    0  0.24134114670E+02  0.19674635073E+02 -0.38470414799E+01  0.31374296555E+02  0.00000000000E+00 0.  1.
</event>
<event>
 7    1  0.1358622E-013  0.7246137E+02  0.7816164E-02  0.1226709E+00
        -11   -1    0    0    0    0  0.00000000000E+00  0.00000000000E+00  0.45593999997E+02  0.45594000000E+02  0.51100000000E-03 0.  1.
         11   -1    0    0    0    0 -0.00000000000E+00 -0.00000000000E+00 -0.45593999997E+02  0.45594000000E+02  0.51100000000E-03 0. -1.
    9900012    2    1    2    0    0 -0.17603411754E+01 -0.16132587077E+02  0.93449131640E+01  0.72461372730E+02  0.69999742635E+02 0.  0.
        -12    1    1    2    0    0  0.17603411754E+01  0.16132587077E+02 -0.93449131640E+01  0.18726627270E+02  0.00000000000E+00 0.  1.
         11    1    3    3    0    0 -0.49082631109E+00 -0.31483584596E+02 -0.96417966980E+01  0.32930551974E+02  0.51100000000E-03 0. -1.
        -11    1    3    3    0    0 -0.15496906500E+01 -0.75588156319E+01 -0.25094992880E+01  0.81138660209E+01  0.51100000000E-03 0.  1.
        -12    1    3    3    0    0  0.28017578576E+00  0.22909813150E+02  0.21496209150E+02  0.31416954736E+02  0.00000000000E+00 0.  1.
</event>
<event>
 7    1  0.1358622E-013  0.7246125E+02  0.7816164E-02  0.1226709E+00
        -11   -1    0    0    0    0  0.00000000000E+00  0.00000000000E+00  0.45593999997E+02  0.45594000000E+02  0.51100000000E-03 0.  1.
         11   -1    0    0    0    0 -0.00000000000E+00 -0.00000000000E+00 -0.45593999997E+02  0.45594000000E+02  0.51100000000E-03 0. -1.
    9900012    2    1    2    0    0  0.15368026111E+02  0.10583663590E+02  0.15813990020E+01  0.72461254839E+02  0.69999589059E+02 0.  0.
        -12    1    1    2    0    0 -0.15368026111E+02 -0.10583663590E+02 -0.15813990020E+01  0.18726745161E+02  0.00000000000E+00 0.  1.
         11    1    3    3    0    0  0.25695257845E+02 -0.63627572514E+01  0.19815029155E+02  0.33066090429E+02  0.51100000000E-03 0. -1.
        -11    1    3    3    0    0  0.58077504395E+01  0.57873026311E+00  0.42680086434E+01  0.72305457557E+01  0.51100000000E-03 0.  1.
        -12    1    3    3    0    0 -0.16134982174E+02  0.16367690578E+02 -0.22501638797E+02  0.32164618654E+02  0.00000000000E+00 0.  1.
</event>
<event>
 7    1  0.1358622E-013  0.7246152E+02  0.7816164E-02  0.1226708E+00
        -11   -1    0    0    0    0  0.00000000000E+00  0.00000000000E+00  0.45593999997E+02  0.45594000000E+02  0.51100000000E-03 0.  1.
         11   -1    0    0    0    0 -0.00000000000E+00 -0.00000000000E+00 -0.45593999997E+02  0.45594000000E+02  0.51100000000E-03 0. -1.
    9900012    2    1    2    0    0 -0.50631216977E+01  0.13738514286E+02 -0.11674726770E+02  0.72461515512E+02  0.69999928636E+02 0.  0.
        -12    1    1    2    0    0  0.50631216977E+01 -0.13738514286E+02  0.11674726770E+02  0.18726484488E+02  0.00000000000E+00 0.  1.
         11    1    3    3    0    0 -0.13936876042E+02 -0.26798862637E+01 -0.15872907591E+02  0.21292428228E+02  0.51100000000E-03 0. -1.
        -11    1    3    3    0    0 -0.18619878515E+02  0.75188853857E-01  0.46093553145E+01  0.19182066780E+02  0.51100000000E-03 0.  1.
         12    1    3    3    0    0  0.27493632859E+02  0.16343211696E+02 -0.41117449409E+00  0.31987020505E+02  0.00000000000E+00 0. -1.
</event>
<event>
 7    1  0.1358622E-013  0.7246156E+02  0.7816164E-02  0.1226708E+00
        -11   -1    0    0    0    0  0.00000000000E+00  0.00000000000E+00  0.45593999997E+02  0.45594000000E+02  0.51100000000E-03 0.  1.
         11   -1    0    0    0    0 -0.00000000000E+00 -0.00000000000E+00 -0.45593999997E+02  0.45594000000E+02  0.51100000000E-03 0. -1.
    9900012    2    1    2    0    0 -0.30658074855E+00 -0.17644180282E+02 -0.62664681948E+01  0.72461555777E+02  0.69999981089E+02 0.  0.
        -12    1    1    2    0    0  0.30658074855E+00  0.17644180282E+02  0.62664681948E+01  0.18726444223E+02  0.00000000000E+00 0.  1.
         11    1    3    3    0    0  0.16715507852E+02  0.11372076014E+02  0.93054279103E+01  0.22255860003E+02  0.51100000000E-03 0. -1.
        -11    1    3    3    0    0 -0.18518369446E+00  0.73691479986E+01 -0.55087752939E+00  0.73920295954E+01  0.51100000000E-03 0.  1.
         12    1    3    3    0    0 -0.16836904906E+02 -0.36385404295E+02 -0.15021018576E+02  0.42813666178E+02  0.00000000000E+00 0. -1.
</event>
<event>
 7    1  0.1358622E-013  0.7246154E+02  0.7816164E-02  0.1226708E+00
        -11   -1    0    0    0    0  0.00000000000E+00  0.00000000000E+00  0.45593999997E+02  0.45594000000E+02  0.51100000000E-03 0. -1.
         11   -1    0    0    0    0 -0.00000000000E+00 -0.00000000000E+00 -0.45593999997E+02  0.45594000000E+02  0.51100000000E-03 0.  1.
    9900012    2    1    2    0    0 -0.88571926635E+01  0.11651609272E+02 -0.11682056457E+02  0.72461540015E+02  0.69999960556E+02 0.  0.
        -12    1    1    2    0    0  0.88571926635E+01 -0.11651609272E+02  0.11682056457E+02  0.18726459985E+02  0.00000000000E+00 0.  1.
         11    1    3    3    0    0  0.19650055282E+02 -0.23651244332E+01 -0.12439238108E+02  0.23376336991E+02  0.51100000000E-03 0. -1.
        -11    1    3    3    0    0  0.53384241256E+01  0.13063713003E+02  0.49767509752E+01  0.14964204626E+02  0.51100000000E-03 0.  1.
        -12    1    3    3    0    0 -0.33845672071E+02  0.95302070248E+00 -0.42195693234E+01  0.34120998398E+02  0.00000000000E+00 0.  1.
</event>
<event>
 7    1  0.1358622E-013  0.7246159E+02  0.7816164E-02  0.1226708E+00
        -11   -1    0    0    0    0  0.00000000000E+00  0.00000000000E+00  0.45593999997E+02  0.45594000000E+02  0.51100000000E-03 0.  1.
         11   -1    0    0    0    0 -0.00000000000E+00 -0.00000000000E+00 -0.45593999997E+02  0.45594000000E+02  0.51100000000E-03 0. -1.
    9900012    2    1    2    0    0 -0.15406468545E+02 -0.37492105105E+01  0.99630540229E+01  0.72461593566E+02  0.70000030315E+02 0.  0.
        -12    1    1    2    0    0  0.15406468545E+02  0.37492105105E+01 -0.99630540229E+01  0.18726406434E+02  0.00000000000E+00 0.  1.
         11    1    3    3    0    0 -0.77144792892E+01  0.24456243852E+02 -0.29791022747E+01  0.25816585844E+02  0.51100000000E-03 0. -1.
        -11    1    3    3    0    0 -0.65088340117E+01  0.28936949241E+01 -0.67526271937E+01  0.98151090052E+01  0.51100000000E-03 0.  1.
        -12    1    3    3    0    0 -0.11831552441E+01 -0.31099149286E+02  0.19694783491E+02  0.36829898716E+02  0.00000000000E+00 0.  1.
</event>
<event>
 7    1  0.1358622E-013  0.7246150E+02  0.7816164E-02  0.1226708E+00
        -11   -1    0    0    0    0  0.00000000000E+00  0.00000000000E+00  0.45593999997E+02  0.45594000000E+02  0.51100000000E-03 0.  1.
         11   -1    0    0    0    0 -0.00000000000E+00 -0.00000000000E+00 -0.45593999997E+02  0.45594000000E+02  0.51100000000E-03 0. -1.
    9900012    2    1    2    0    0 -0.69299620947E+01 -0.11683589334E+02 -0.12889961781E+02  0.72461501420E+02  0.69999910278E+02 0.  0.
        -12    1    1    2    0    0  0.69299620947E+01  0.11683589334E+02  0.12889961781E+02  0.18726498580E+02  0.00000000000E+00 0.  1.
         11    1    3    3    0    0  0.10742264897E+02 -0.23033648147E+02 -0.87049841949E+01  0.26864883252E+02  0.51100000000E-03 0. -1.
        -11    1    3    3    0    0 -0.10268795689E+01 -0.13449530623E+02  0.49418367764E+01  0.14365448361E+02  0.51100000000E-03 0.  1.
        -12    1    3    3    0    0 -0.16645347423E+02  0.24799589436E+02 -0.91268143629E+01  0.31231169806E+02  0.00000000000E+00 0.  1.
</event>
<event>
 7    1  0.1358622E-013  0.7246156E+02  0.7816164E-02  0.1226708E+00
        -11   -1    0    0    0    0  0.00000000000E+00  0.00000000000E+00  0.45593999997E+02  0.45594000000E+02  0.51100000000E-03 0. -1.
         11   -1    0    0    0    0 -0.00000000000E+00 -0.00000000000E+00 -0.45593999997E+02  0.45594000000E+02  0.51100000000E-03 0.  1.
    9900012    2    1    2    0    0 -0.13990373874E+02  0.11785039230E+02  0.40077288601E+01  0.72461558764E+02  0.69999984979E+02 0.  0.
        -12    1    1    2    0    0  0.13990373874E+02 -0.11785039230E+02 -0.40077288601E+01  0.18726441236E+02  0.00000000000E+00 0.  1.
         11    1    3    3    0    0 -0.22939064597E+02 -0.10482361088E+01 -0.45494371166E+01  0.23409332794E+02  0.51100000000E-03 0. -1.
        -11    1    3    3    0    0  0.12189707210E+01 -0.15035962909E+02 -0.65232918994E+01  0.16435309783E+02  0.51100000000E-03 0.  1.
         12    1    3    3    0    0  0.77297200022E+01  0.27869238247E+02  0.15080457876E+02  0.32616916187E+02  0.00000000000E+00 0. -1.
</event>
<event>
 8    1  0.1358622E-013  0.7246160E+02  0.7816164E-02  0.1226708E+00
        -11   -1    0    0    0    0  0.00000000000E+00  0.00000000000E+00  0.45593999997E+02  0.45594000000E+02  0.51100000000E-03 0. -1.
         11   -1    0    0    0    0 -0.00000000000E+00 -0.00000000000E+00 -0.45593999997E+02  0.45594000000E+02  0.51100000000E-03 0.  1.
    9900012    2    1    2    0    0 -0.82606075501E+01  0.63360201796E+01  0.15565838629E+02  0.72461598289E+02  0.70000036469E+02 0.  0.
         23    2    3    3    0    0 -0.52126707376E+01  0.17503274356E+02  0.71512754329E+01  0.58150680833E+02  0.54743258869E+02 0.  0.
        -12    1    1    2    0    0  0.82606075501E+01 -0.63360201796E+01 -0.15565838629E+02  0.18726401711E+02  0.00000000000E+00 0.  1.
         11    1    4    4    0    0 -0.14751442314E+02 -0.15038751638E+02  0.11436055701E+02  0.23969824185E+02  0.51100000000E-03 0. -1.
        -11    1    4    4    0    0  0.95387715766E+01  0.32542025995E+02 -0.42847802677E+01  0.34180856648E+02  0.51100000000E-03 0.  1.
         12    1    3    3    0    0 -0.30479368124E+01 -0.11167254177E+02  0.84145631960E+01  0.14310917456E+02  0.00000000000E+00 0. -1.
</event>
<event>
 7    1  0.1358622E-013  0.7246157E+02  0.7816164E-02  0.1226708E+00
        -11   -1    0    0    0    0  0.00000000000E+00  0.00000000000E+00  0.45593999997E+02  0.45594000000E+02  0.51100000000E-03 0.  1.
         11   -1    0    0    0    0 -0.00000000000E+00 -0.00000000000E+00 -0.45593999997E+02  0.45594000000E+02  0.51100000000E-03 0. -1.
    9900012    2    1    2    0    0 -0.85392707010E+01 -0.21178962481E+01 -0.16531017395E+02  0.72461570422E+02  0.70000000166E+02 0.  0.
        -12    1    1    2    0    0  0.85392707010E+01  0.21178962481E+01  0.16531017395E+02  0.18726429578E+02  0.00000000000E+00 0.  1.
         11    1    3    3    0    0 -0.74100029906E+01 -0.11874008880E+02  0.12846921162E+01  0.14055271797E+02  0.51100000000E-03 0. -1.
        -11    1    3    3    0    0 -0.18230971414E+02 -0.13274833610E+02  0.32924924862E+01  0.22791007724E+02  0.51100000000E-03 0.  1.
         12    1    3    3    0    0  0.17101703703E+02  0.23030946242E+02 -0.21108201998E+02  0.35615290900E+02  0.00000000000E+00 0. -1.
</event>
<event>
 7    1  0.1358622E-013  0.7246153E+02  0.7816164E-02  0.1226708E+00
        -11   -1    0    0    0    0  0.00000000000E+00  0.00000000000E+00  0.45593999997E+02  0.45594000000E+02  0.51100000000E-03 0. -1.
         11   -1    0    0    0    0 -0.00000000000E+00 -0.00000000000E+00 -0.45593999997E+02  0.45594000000E+02  0.51100000000E-03 0.  1.
    9900012    2    1    2    0    0 -0.13480064728E+02  0.11546793752E+02  0.59699224728E+01  0.72461533025E+02  0.69999951450E+02 0.  0.
        -12    1    1    2    0    0  0.13480064728E+02 -0.11546793752E+02 -0.59699224728E+01  0.18726466975E+02  0.00000000000E+00 0.  1.
         11    1    3    3    0    0 -0.19389513667E+01 -0.43199517240E+01  0.86943894369E+01  0.99001981415E+01  0.51100000000E-03 0. -1.
        -11    1    3    3    0    0  0.16078681262E+02  0.15991695956E+02  0.17235705744E+02  0.28483817922E+02  0.51100000000E-03 0.  1.
         12    1    3    3    0    0 -0.27619794624E+02 -0.12495047973E+00 -0.19960172708E+02  0.34077516961E+02  0.00000000000E+00 0. -1.
</event>
<event>
 7    1  0.1358622E-013  0.7246157E+02  0.7816164E-02  0.1226708E+00
        -11   -1    0    0    0    0  0.00000000000E+00  0.00000000000E+00  0.45593999997E+02  0.45594000000E+02  0.51100000000E-03 0.  1.
         11   -1    0    0    0    0 -0.00000000000E+00 -0.00000000000E+00 -0.45593999997E+02  0.45594000000E+02  0.51100000000E-03 0. -1.
    9900012    2    1    2    0    0 -0.56468207488E+01 -0.18571293710E+01 -0.17757920101E+02  0.72461568402E+02  0.69999997535E+02 0.  0.
        -12    1    1    2    0    0  0.56468207488E+01  0.18571293710E+01  0.17757920101E+02  0.18726431598E+02  0.00000000000E+00 0.  1.
         11    1    3    3    0    0 -0.12119326712E+02  0.14133299848E+02 -0.17130341844E+02  0.25299740246E+02  0.51100000000E-03 0. -1.
        -11    1    3    3    0    0  0.11878653534E+02 -0.22043951787E+02 -0.16043876290E+02  0.29739606367E+02  0.51100000000E-03 0.  1.
        -12    1    3    3    0    0 -0.54061475712E+01  0.60535225680E+01  0.15416298033E+02  0.17422221789E+02  0.00000000000E+00 0.  1.
</event>
<event>
 7    1  0.1358622E-013  0.7246152E+02  0.7816164E-02  0.1226708E+00
        -11   -1    0    0    0    0  0.00000000000E+00  0.00000000000E+00  0.45593999997E+02  0.45594000000E+02  0.51100000000E-03 0. -1.
         11   -1    0    0    0    0 -0.00000000000E+00 -0.00000000000E+00 -0.45593999997E+02  0.45594000000E+02  0.51100000000E-03 0.  1.
    9900012    2    1    2    0    0 -0.38785084163E+01  0.15009416681E+02  0.10505021682E+02  0.72461524165E+02  0.69999939908E+02 0.  0.
        -12    1    1    2    0    0  0.38785084163E+01 -0.15009416681E+02 -0.10505021682E+02  0.18726475835E+02  0.00000000000E+00 0.  1.
         11    1    3    3    0    0 -0.18509888506E+01  0.88034706178E+01  0.13177785715E+02  0.15955603757E+02  0.51100000000E-03 0.  1.
        -11    1    3    3    0    0 -0.21284478260E+02 -0.49756053233E+01  0.16287731119E+02  0.27259417609E+02  0.51100000000E-03 0. -1.
        -12    1    3    3    0    0  0.19256958694E+02  0.11181551387E+02 -0.18960495152E+02  0.29246502799E+02  0.00000000000E+00 0.  1.
</event>
<event>
 7    1  0.1358622E-013  0.7246159E+02  0.7816164E-02  0.1226708E+00
        -11   -1    0    0    0    0  0.00000000000E+00  0.00000000000E+00  0.45593999997E+02  0.45594000000E+02  0.51100000000E-03 0. -1.
         11   -1    0    0    0    0 -0.00000000000E+00 -0.00000000000E+00 -0.45593999997E+02  0.45594000000E+02  0.51100000000E-03 0.  1.
    9900012    2    1    2    0    0 -0.52661302277E+01  0.17949914245E+02 -0.86412050498E+00  0.72461594759E+02  0.70000031870E+02 0.  0.
        -12    1    1    2    0    0  0.52661302277E+01 -0.17949914245E+02  0.86412050498E+00  0.18726405241E+02  0.00000000000E+00 0.  1.
         11    1    3    3    0    0  0.13637728392E+02  0.13899306966E+01  0.16379864434E+02  0.21359295451E+02  0.51100000000E-03 0. -1.
        -11    1    3    3    0    0 -0.19367509857E+02 -0.74179570440E+01  0.13096318349E+01  0.20780800287E+02  0.51100000000E-03 0.  1.
         12    1    3    3    0    0  0.46365123761E+00  0.23977940593E+02 -0.18553616774E+02  0.30321499022E+02  0.00000000000E+00 0. -1.
</event>
<event>
 7    1  0.1358622E-013  0.7246139E+02  0.7816164E-02  0.1226708E+00
        -11   -1    0    0    0    0  0.00000000000E+00  0.00000000000E+00  0.45593999997E+02  0.45594000000E+02  0.51100000000E-03 0. -1.
         11   -1    0    0    0    0 -0.00000000000E+00 -0.00000000000E+00 -0.45593999997E+02  0.45594000000E+02  0.51100000000E-03 0.  1.
    9900012    2    1    2    0    0  0.29168434170E+01  0.11282053846E+02  0.14659231604E+02  0.72461393641E+02  0.69999769875E+02 0.  0.
        -12    1    1    2    0    0 -0.29168434170E+01 -0.11282053846E+02 -0.14659231604E+02  0.18726606359E+02  0.00000000000E+00 0.  1.
         11    1    3    3    0    0  0.41422448591E+01 -0.13171012235E+01  0.19876552207E+01  0.47795106071E+01  0.51100000000E-03 0. -1.
        -11    1    3    3    0    0 -0.27868526816E+02 -0.63547692362E+01  0.19074224518E+02  0.34363700618E+02  0.51100000000E-03 0.  1.
         12    1    3    3    0    0  0.26643125374E+02  0.18953924306E+02 -0.64026481345E+01  0.33318182415E+02  0.00000000000E+00 0. -1.
</event>
<event>
 7    1  0.1358622E-013  0.7246153E+02  0.7816164E-02  0.1226708E+00
        -11   -1    0    0    0    0  0.00000000000E+00  0.00000000000E+00  0.45593999997E+02  0.45594000000E+02  0.51100000000E-03 0.  1.
         11   -1    0    0    0    0 -0.00000000000E+00 -0.00000000000E+00 -0.45593999997E+02  0.45594000000E+02  0.51100000000E-03 0. -1.
    9900012    2    1    2    0    0  0.98755077070E+01 -0.15917005284E+01 -0.15831034291E+02  0.72461526499E+02  0.69999942949E+02 0.  0.
        -12    1    1    2    0    0 -0.98755077070E+01  0.15917005284E+01  0.15831034291E+02  0.18726473501E+02  0.00000000000E+00 0.  1.
         11    1    3    3    0    0  0.72802208060E+01  0.18214994029E+01 -0.27238649071E+01  0.79836655336E+01  0.51100000000E-03 0. -1.
        -11    1    3    3    0    0  0.43742907086E+01  0.27808161313E+02  0.46262644069E+01  0.28527715952E+02  0.51100000000E-03 0.  1.
         12    1    3    3    0    0 -0.17790038076E+01 -0.31221361244E+02 -0.17733433791E+02  0.35950145014E+02  0.00000000000E+00 0. -1.
</event>
<event>
 7    1  0.1358622E-013  0.7246158E+02  0.7816164E-02  0.1226708E+00
        -11   -1    0    0    0    0  0.00000000000E+00  0.00000000000E+00  0.45593999997E+02  0.45594000000E+02  0.51100000000E-03 0.  1.
         11   -1    0    0    0    0 -0.00000000000E+00 -0.00000000000E+00 -0.45593999997E+02  0.45594000000E+02  0.51100000000E-03 0. -1.
    9900012    2    1    2    0    0  0.94786043999E+01 -0.14562260291E+02 -0.69839321625E+01  0.72461583509E+02  0.70000017215E+02 0.  0.
        -12    1    1    2    0    0 -0.94786043999E+01  0.14562260291E+02  0.69839321625E+01  0.18726416491E+02  0.00000000000E+00 0.  1.
         11    1    3    3    0    0  0.28328121989E+02  0.11645443103E+02 -0.31651427198E+01  0.30791508069E+02  0.51100000000E-03 0. -1.
        -11    1    3    3    0    0 -0.85604790078E+01 -0.24202353252E+01 -0.11592045404E+02  0.14612147576E+02  0.51100000000E-03 0.  1.
        -12    1    3    3    0    0 -0.10289038582E+02 -0.23787468068E+02  0.77732559615E+01  0.27057927863E+02  0.00000000000E+00 0.  1.
</event>
<event>
 7    1  0.1358622E-013  0.7246155E+02  0.7816164E-02  0.1226708E+00
        -11   -1    0    0    0    0  0.00000000000E+00  0.00000000000E+00  0.45593999997E+02  0.45594000000E+02  0.51100000000E-03 0.  1.
         11   -1    0    0    0    0 -0.00000000000E+00 -0.00000000000E+00 -0.45593999997E+02  0.45594000000E+02  0.51100000000E-03 0. -1.
    9900012    2    1    2    0    0  0.62817597467E+01  0.82504918147E+01 -0.15593224899E+02  0.72461553902E+02  0.69999978646E+02 0.  0.
        -12    1    1    2    0    0 -0.62817597467E+01 -0.82504918147E+01  0.15593224899E+02  0.18726446098E+02  0.00000000000E+00 0.  1.
         11    1    3    3    0    0  0.26048547296E+02  0.12665610518E+02  0.36197586790E+01  0.29189846851E+02  0.51100000000E-03 0. -1.
        -11    1    3    3    0    0 -0.19143122536E+01  0.13308534881E+02 -0.86506755348E+01  0.15987991729E+02  0.51100000000E-03 0.  1.
        -12    1    3    3    0    0 -0.17852475296E+02 -0.17723653584E+02 -0.10562308043E+02  0.27283715322E+02  0.00000000000E+00 0.  1.
</event>
<event>
 7    1  0.1358622E-013  0.7246163E+02  0.7816164E-02  0.1226708E+00
        -11   -1    0    0    0    0  0.00000000000E+00  0.00000000000E+00  0.45593999997E+02  0.45594000000E+02  0.51100000000E-03 0.  1.
         11   -1    0    0    0    0 -0.00000000000E+00 -0.00000000000E+00 -0.45593999997E+02  0.45594000000E+02  0.51100000000E-03 0. -1.
    9900012    2    1    2    0    0  0.98604481761E+01 -0.13702124613E+02 -0.81055620492E+01  0.72461633741E+02  0.70000082651E+02 0.  0.
        -12    1    1    2    0    0 -0.98604481761E+01  0.13702124613E+02  0.81055620492E+01  0.18726366259E+02  0.00000000000E+00 0.  1.
         11    1    3    3    0    0  0.11061143884E+02 -0.10207095468E+01  0.26641537645E+01  0.11423154886E+02  0.51100000000E-03 0. -1.
        -11    1    3    3    0    0 -0.55991568817E+01  0.10070426516E+02  0.19661269806E+02  0.22788803800E+02  0.51100000000E-03 0.  1.
         12    1    3    3    0    0  0.43984611738E+01 -0.22751841582E+02 -0.30430985619E+02  0.38249675055E+02  0.00000000000E+00 0. -1.
</event>
<event>
 7    1  0.1358622E-013  0.7246160E+02  0.7816164E-02  0.1226708E+00
        -11   -1    0    0    0    0  0.00000000000E+00  0.00000000000E+00  0.45593999997E+02  0.45594000000E+02  0.51100000000E-03 0.  1.
         11   -1    0    0    0    0 -0.00000000000E+00 -0.00000000000E+00 -0.45593999997E+02  0.45594000000E+02  0.51100000000E-03 0. -1.
    9900012    2    1    2    0    0  0.99850490254E+01 -0.12789209593E+02 -0.93494804405E+01  0.72461604977E+02  0.70000045180E+02 0.  0.
        -12    1    1    2    0    0 -0.99850490254E+01  0.12789209593E+02  0.93494804405E+01  0.18726395023E+02  0.00000000000E+00 0.  1.
         11    1    3    3    0    0 -0.80362999820E+00 -0.18411064371E+01 -0.21513376388E+02  0.21606963182E+02  0.51100000000E-03 0. -1.
        -11    1    3    3    0    0  0.12354860122E+02 -0.21528958475E+02 -0.95924582834E+01  0.26611160776E+02  0.51100000000E-03 0.  1.
         12    1    3    3    0    0 -0.15661810984E+01  0.10580855319E+02  0.21756354230E+02  0.24243481019E+02  0.00000000000E+00 0. -1.
</event>
<event>
 7    1  0.1358622E-013  0.7246156E+02  0.7816164E-02  0.1226708E+00
        -11   -1    0    0    0    0  0.00000000000E+00  0.00000000000E+00  0.45593999997E+02  0.45594000000E+02  0.51100000000E-03 0.  1.
         11   -1    0    0    0    0 -0.00000000000E+00 -0.00000000000E+00 -0.45593999997E+02  0.45594000000E+02  0.51100000000E-03 0. -1.
    9900012    2    1    2    0    0 -0.24005055323E+01 -0.28620384776E+01 -0.18350094210E+02  0.72461557504E+02  0.69999983338E+02 0.  0.
        -12    1    1    2    0    0  0.24005055323E+01  0.28620384776E+01  0.18350094210E+02  0.18726442496E+02  0.00000000000E+00 0.  1.
         11    1    3    3    0    0 -0.18756659159E+02  0.71953906288E+01  0.99994338540E+01  0.22440467615E+02  0.51100000000E-03 0. -1.
        -11    1    3    3    0    0  0.11690613111E+02 -0.82755586421E+01  0.58404832873E+01  0.15468243308E+02  0.51100000000E-03 0.  1.
        -12    1    3    3    0    0  0.46655405158E+01 -0.17818704642E+01 -0.34190011351E+02  0.34552846581E+02  0.00000000000E+00 0.  1.
</event>
<event>
 7    1  0.1358622E-013  0.7246164E+02  0.7816164E-02  0.1226708E+00
        -11   -1    0    0    0    0  0.00000000000E+00  0.00000000000E+00  0.45593999997E+02  0.45594000000E+02  0.51100000000E-03 0. -1.
         11   -1    0    0    0    0 -0.00000000000E+00 -0.00000000000E+00 -0.45593999997E+02  0.45594000000E+02  0.51100000000E-03 0.  1.
    9900012    2    1    2    0    0 -0.15715535675E+02 -0.28243275893E+01  0.97837462384E+01  0.72461639480E+02  0.70000090127E+02 0.  0.
        -12    1    1    2    0    0  0.15715535675E+02  0.28243275893E+01 -0.97837462384E+01  0.18726360520E+02  0.00000000000E+00 0.  1.
         11    1    3    3    0    0  0.83773243305E+01 -0.14705223424E+02  0.25189244359E+01  0.17110468710E+02  0.51100000000E-03 0. -1.
        -11    1    3    3    0    0 -0.37467378106E+02  0.85407223351E+00  0.61799213603E+01  0.37983223794E+02  0.51100000000E-03 0.  1.
         12    1    3    3    0    0  0.13374518101E+02  0.11026823602E+02  0.10849004422E+01  0.17367946976E+02  0.00000000000E+00 0. -1.
</event>
<event>
 7    1  0.1358622E-013  0.7246159E+02  0.7816164E-02  0.1226708E+00
        -11   -1    0    0    0    0  0.00000000000E+00  0.00000000000E+00  0.45593999997E+02  0.45594000000E+02  0.51100000000E-03 0.  1.
         11   -1    0    0    0    0 -0.00000000000E+00 -0.00000000000E+00 -0.45593999997E+02  0.45594000000E+02  0.51100000000E-03 0. -1.
    9900012    2    1    2    0    0  0.17246619304E+02 -0.34271118161E+01 -0.64410855646E+01  0.72461586674E+02  0.70000021337E+02 0.  0.
        -12    1    1    2    0    0 -0.17246619304E+02  0.34271118161E+01  0.64410855646E+01  0.18726413326E+02  0.00000000000E+00 0.  1.
         11    1    3    3    0    0  0.31040314327E+01  0.98624781881E+01 -0.13454189095E+02  0.16968167008E+02  0.51100000000E-03 0. -1.
        -11    1    3    3    0    0 -0.18303654799E+02  0.11403002148E+01 -0.30356981780E+01  0.18588693533E+02  0.51100000000E-03 0.  1.
         12    1    3    3    0    0  0.32446242670E+02 -0.14429890219E+02  0.10048801709E+02  0.36904726133E+02  0.00000000000E+00 0. -1.
</event>
<event>
 7    1  0.1358622E-013  0.7246143E+02  0.7816164E-02  0.1226708E+00
        -11   -1    0    0    0    0  0.00000000000E+00  0.00000000000E+00  0.45593999997E+02  0.45594000000E+02  0.51100000000E-03 0. -1.
         11   -1    0    0    0    0 -0.00000000000E+00 -0.00000000000E+00 -0.45593999997E+02  0.45594000000E+02  0.51100000000E-03 0.  1.
    9900012    2    1    2    0    0 -0.16694084333E+02  0.52515005042E+01 -0.66643505977E+01  0.72461433894E+02  0.69999822312E+02 0.  0.
        -12    1    1    2    0    0  0.16694084333E+02 -0.52515005042E+01  0.66643505977E+01  0.18726566106E+02  0.00000000000E+00 0.  1.
         11    1    3    3    0    0 -0.14846103133E+02 -0.61924624149E+01  0.15707026057E+02  0.22482527367E+02  0.51100000000E-03 0. -1.
        -11    1    3    3    0    0 -0.85437467094E+01  0.20236073641E+01  0.11339778932E+02  0.14341589210E+02  0.51100000000E-03 0.  1.
        -12    1    3    3    0    0  0.66957655100E+01  0.94203555550E+01 -0.33711155586E+02  0.35637317316E+02  0.00000000000E+00 0.  1.
</event>
<event>
 7    1  0.1358622E-013  0.7246158E+02  0.7816164E-02  0.1226708E+00
        -11   -1    0    0    0    0  0.00000000000E+00  0.00000000000E+00  0.45593999997E+02  0.45594000000E+02  0.51100000000E-03 0.  1.
         11   -1    0    0    0    0 -0.00000000000E+00 -0.00000000000E+00 -0.45593999997E+02  0.45594000000E+02  0.51100000000E-03 0. -1.
    9900012    2    1    2    0    0 -0.99264590462E+01  0.15395321355E+02  0.38894880787E+01  0.72461584797E+02  0.70000018893E+02 0.  0.
        -12    1    1    2    0    0  0.99264590462E+01 -0.15395321355E+02 -0.38894880787E+01  0.18726415203E+02  0.00000000000E+00 0.  1.
         11    1    3    3    0    0  0.11340873166E+02  0.15577494845E+02 -0.15556059771E+02  0.24764182717E+02  0.51100000000E-03 0. -1.
        -11    1    3    3    0    0 -0.22941589060E+01  0.12824069485E+02 -0.51614470720E+01  0.14012867636E+02  0.51100000000E-03 0.  1.
        -12    1    3    3    0    0 -0.18973173306E+02 -0.13006242975E+02  0.24606994921E+02  0.33684534444E+02  0.00000000000E+00 0.  1.
</event>
<event>
 7    1  0.1358622E-013  0.7246149E+02  0.7816164E-02  0.1226708E+00
        -11   -1    0    0    0    0  0.00000000000E+00  0.00000000000E+00  0.45593999997E+02  0.45594000000E+02  0.51100000000E-03 0. -1.
         11   -1    0    0    0    0 -0.00000000000E+00 -0.00000000000E+00 -0.45593999997E+02  0.45594000000E+02  0.51100000000E-03 0.  1.
    9900012    2    1    2    0    0  0.59163352677E+00 -0.13413093043E+02  0.13054543760E+02  0.72461489167E+02  0.69999894317E+02 0.  0.
        -12    1    1    2    0    0 -0.59163352677E+00  0.13413093043E+02 -0.13054543760E+02  0.18726510833E+02  0.00000000000E+00 0.  1.
         11    1    3    3    0    0 -0.25619108492E+01 -0.10330807768E+02  0.32261524316E+01  0.11121916926E+02  0.51100000000E-03 0. -1.
        -11    1    3    3    0    0 -0.33516101161E+01 -0.28945349719E+02 -0.67866516700E+01  0.29918643049E+02  0.51100000000E-03 0.  1.
         12    1    3    3    0    0  0.65051544920E+01  0.25863064445E+02  0.16615042998E+02  0.31420929192E+02  0.00000000000E+00 0. -1.
</event>
<event>
 7    1  0.1358622E-013  0.7246114E+02  0.7816164E-02  0.1226709E+00
        -11   -1    0    0    0    0  0.00000000000E+00  0.00000000000E+00  0.45593999997E+02  0.45594000000E+02  0.51100000000E-03 0. -1.
         11   -1    0    0    0    0 -0.00000000000E+00 -0.00000000000E+00 -0.45593999997E+02  0.45594000000E+02  0.51100000000E-03 0.  1.
    9900012    2    1    2    0    0 -0.62789601320E+00 -0.18504507890E+02 -0.28079156450E+01  0.72461135449E+02  0.69999433531E+02 0.  0.
        -12    1    1    2    0    0  0.62789601320E+00  0.18504507890E+02  0.28079156450E+01  0.18726864551E+02  0.00000000000E+00 0.  1.
         11    1    3    3    0    0 -0.22054901158E+02 -0.21377030245E+02 -0.23828528778E+02  0.38874089972E+02  0.51100000000E-03 0. -1.
        -11    1    3    3    0    0 -0.21187405093E+01  0.14302936142E+01  0.14711069263E+01  0.29493994335E+01  0.51100000000E-03 0.  1.
        -12    1    3    3    0    0  0.23545745654E+02  0.14422287405E+01  0.19549506206E+02  0.30637646043E+02  0.00000000000E+00 0.  1.
</event>
<event>
 7    1  0.1358622E-013  0.7246151E+02  0.7816164E-02  0.1226708E+00
        -11   -1    0    0    0    0  0.00000000000E+00  0.00000000000E+00  0.45593999997E+02  0.45594000000E+02  0.51100000000E-03 0. -1.
         11   -1    0    0    0    0 -0.00000000000E+00 -0.00000000000E+00 -0.45593999997E+02  0.45594000000E+02  0.51100000000E-03 0.  1.
    9900012    2    1    2    0    0  0.91168737435E+01 -0.12423773917E+02  0.10640194418E+02  0.72461513879E+02  0.69999926508E+02 0.  0.
        -12    1    1    2    0    0 -0.91168737435E+01  0.12423773917E+02 -0.10640194418E+02  0.18726486121E+02  0.00000000000E+00 0.  1.
         11    1    3    3    0    0 -0.51460346750E+01 -0.46578267611E+01 -0.34316914142E+01  0.77429664364E+01  0.51100000000E-03 0. -1.
        -11    1    3    3    0    0  0.79761848128E+01 -0.21050276374E+02 -0.18401079165E+02  0.29074617354E+02  0.51100000000E-03 0.  1.
         12    1    3    3    0    0  0.62867236057E+01  0.13284329218E+02  0.32472964997E+02  0.35643930088E+02  0.00000000000E+00 0. -1.
</event>
<event>
 7    1  0.1358622E-013  0.7246166E+02  0.7816164E-02  0.1226708E+00
        -11   -1    0    0    0    0  0.00000000000E+00  0.00000000000E+00  0.45593999997E+02  0.45594000000E+02  0.51100000000E-03 0. -1.
         11   -1    0    0    0    0 -0.00000000000E+00 -0.00000000000E+00 -0.45593999997E+02  0.45594000000E+02  0.51100000000E-03 0.  1.
    9900012    2    1    2    0    0  0.66750822443E+01  0.44373272202E+01  0.16924214560E+02  0.72461664686E+02  0.70000122962E+02 0.  0.
        -12    1    1    2    0    0 -0.66750822443E+01 -0.44373272202E+01 -0.16924214560E+02  0.18726335314E+02  0.00000000000E+00 0.  1.
         11    1    3    3    0    0  0.69778542403E+01  0.45407560321E+00  0.12341435600E+02  0.14184768852E+02  0.51100000000E-03 0. -1.
        -11    1    3    3    0    0 -0.15824921799E+02  0.23557405299E+02  0.13917485447E+02  0.31608161854E+02  0.51100000000E-03 0.  1.
         12    1    3    3    0    0  0.15522149803E+02 -0.19574153682E+02 -0.93347064873E+01  0.26668733980E+02  0.00000000000E+00 0. -1.
</event>
<event>
 7    1  0.1358622E-013  0.7246163E+02  0.7816164E-02  0.1226708E+00
        -11   -1    0    0    0    0  0.00000000000E+00  0.00000000000E+00  0.45593999997E+02  0.45594000000E+02  0.51100000000E-03 0.  1.
         11   -1    0    0    0    0 -0.00000000000E+00 -0.00000000000E+00 -0.45593999997E+02  0.45594000000E+02  0.51100000000E-03 0. -1.
    9900012    2    1    2    0    0 -0.16831335483E+02 -0.28638837667E+01 -0.76929244050E+01  0.72461634355E+02  0.70000083451E+02 0.  0.
        -12    1    1    2    0    0  0.16831335483E+02  0.28638837667E+01  0.76929244050E+01  0.18726365645E+02  0.00000000000E+00 0.  1.
         11    1    3    3    0    0 -0.22297046077E+01  0.93058101088E-02 -0.26258616457E+02  0.26353113815E+02  0.51100000000E-03 0. -1.
        -11    1    3    3    0    0  0.10405867338E+02 -0.11379283236E+01 -0.50914781274E+01  0.11640451267E+02  0.51100000000E-03 0.  1.
        -12    1    3    3    0    0 -0.25007498213E+02 -0.17352612532E+01  0.23657170179E+02  0.34468069273E+02  0.00000000000E+00 0.  1.
</event>
<event>
 7    1  0.1358622E-013  0.7246155E+02  0.7816164E-02  0.1226708E+00
        -11   -1    0    0    0    0  0.00000000000E+00  0.00000000000E+00  0.45593999997E+02  0.45594000000E+02  0.51100000000E-03 0. -1.
         11   -1    0    0    0    0 -0.00000000000E+00 -0.00000000000E+00 -0.45593999997E+02  0.45594000000E+02  0.51100000000E-03 0.  1.
    9900012    2    1    2    0    0 -0.40101398955E+01 -0.13988038322E+02  0.11787010471E+02  0.72461546681E+02  0.69999969239E+02 0.  0.
        -12    1    1    2    0    0  0.40101398955E+01  0.13988038322E+02 -0.11787010471E+02  0.18726453319E+02  0.00000000000E+00 0.  1.
         11    1    3    3    0    0 -0.38290103140E+01 -0.50959693934E+01 -0.22385646019E+02  0.23275467171E+02  0.51100000000E-03 0.  1.
        -11    1    3    3    0    0  0.44560889675E+01  0.11122231935E+02  0.38999955291E+01  0.12600426084E+02  0.51100000000E-03 0. -1.
        -12    1    3    3    0    0 -0.46372185489E+01 -0.20014300864E+02  0.30272660961E+02  0.36585653426E+02  0.00000000000E+00 0.  1.
</event>
<event>
 7    1  0.1358622E-013  0.7246156E+02  0.7816164E-02  0.1226708E+00
        -11   -1    0    0    0    0  0.00000000000E+00  0.00000000000E+00  0.45593999997E+02  0.45594000000E+02  0.51100000000E-03 0.  1.
         11   -1    0    0    0    0 -0.00000000000E+00 -0.00000000000E+00 -0.45593999997E+02  0.45594000000E+02  0.51100000000E-03 0. -1.
    9900012    2    1    2    0    0  0.17339904694E+02  0.50472539056E+01  0.49530226687E+01  0.72461561461E+02  0.69999988493E+02 0.  0.
        -12    1    1    2    0    0 -0.17339904694E+02 -0.50472539056E+01 -0.49530226687E+01  0.18726438539E+02  0.00000000000E+00 0.  1.
         11    1    3    3    0    0  0.46227039539E+01  0.19704005483E+02 -0.16261905432E+02  0.25962796315E+02  0.51100000000E-03 0. -1.
        -11    1    3    3    0    0 -0.41442868535E+01 -0.57608884636E+01 -0.85750929314E+01  0.11130820655E+02  0.51100000000E-03 0.  1.
        -12    1    3    3    0    0  0.16861487594E+02 -0.88958631139E+01  0.29790021033E+02  0.35367944491E+02  0.00000000000E+00 0.  1.
</event>
<event>
 7    1  0.1358622E-013  0.7246157E+02  0.7816164E-02  0.1226708E+00
        -11   -1    0    0    0    0  0.00000000000E+00  0.00000000000E+00  0.45593999997E+02  0.45594000000E+02  0.51100000000E-03 0.  1.
         11   -1    0    0    0    0 -0.00000000000E+00 -0.00000000000E+00 -0.45593999997E+02  0.45594000000E+02  0.51100000000E-03 0. -1.
    9900012    2    1    2    0    0  0.11150165619E+02 -0.61219339896E+01 -0.13743177988E+02  0.72461569205E+02  0.69999998581E+02 0.  0.
        -12    1    1    2    0    0 -0.11150165619E+02  0.61219339896E+01  0.13743177988E+02  0.18726430795E+02  0.00000000000E+00 0.  1.
         11    1    3    3    0    0  0.22395950152E+02 -0.74957087454E+01 -0.20226131731E+02  0.31094382738E+02  0.51100000000E-03 0. -1.
        -11    1    3    3    0    0 -0.29419543723E+01 -0.18767714908E+02  0.17871139906E+01  0.19080775536E+02  0.51100000000E-03 0.  1.
        -12    1    3    3    0    0 -0.83038301607E+01  0.20141489664E+02  0.46958397524E+01  0.22286410931E+02  0.00000000000E+00 0.  1.
</event>
<event>
 7    1  0.1358622E-013  0.7246163E+02  0.7816164E-02  0.1226708E+00
        -11   -1    0    0    0    0  0.00000000000E+00  0.00000000000E+00  0.45593999997E+02  0.45594000000E+02  0.51100000000E-03 0.  1.
         11   -1    0    0    0    0 -0.00000000000E+00 -0.00000000000E+00 -0.45593999997E+02  0.45594000000E+02  0.51100000000E-03 0. -1.
    9900012    2    1    2    0    0  0.66128755547E+01  0.17317951971E+02  0.26524170943E+01  0.72461630891E+02  0.70000078938E+02 0.  0.
        -12    1    1    2    0    0 -0.66128755547E+01 -0.17317951971E+02 -0.26524170943E+01  0.18726369109E+02  0.00000000000E+00 0.  1.
         11    1    3    3    0    0  0.75191063826E-01  0.18575258908E+02 -0.29871075990E+02  0.35175660310E+02  0.51100000000E-03 0. -1.
        -11    1    3    3    0    0  0.36971659235E+01  0.33668350055E+01  0.75482753650E+00  0.50571116946E+01  0.51100000000E-03 0.  1.
        -12    1    3    3    0    0  0.28405185673E+01 -0.46241419431E+01  0.31768665548E+02  0.32228858886E+02  0.00000000000E+00 0.  1.
</event>
<event>
 7    1  0.1358622E-013  0.7246153E+02  0.7816164E-02  0.1226708E+00
        -11   -1    0    0    0    0  0.00000000000E+00  0.00000000000E+00  0.45593999997E+02  0.45594000000E+02  0.51100000000E-03 0.  1.
         11   -1    0    0    0    0 -0.00000000000E+00 -0.00000000000E+00 -0.45593999997E+02  0.45594000000E+02  0.51100000000E-03 0. -1.
    9900012    2    1    2    0    0  0.27113910050E+01 -0.46029374087E+01 -0.17948312289E+02  0.72461532421E+02  0.69999950663E+02 0.  0.
        -12    1    1    2    0    0 -0.27113910050E+01  0.46029374087E+01  0.17948312289E+02  0.18726467579E+02  0.00000000000E+00 0.  1.
         11    1    3    3    0    0  0.64877013109E+00  0.52120749917E+01 -0.41496021516E+02  0.41827101625E+02  0.51100000000E-03 0. -1.
        -11    1    3    3    0    0 -0.52766030490E+01 -0.10955925035E+02  0.14205569936E+02  0.18699546801E+02  0.51100000000E-03 0.  1.
        -12    1    3    3    0    0  0.73392239229E+01  0.11409126342E+01  0.93421392912E+01  0.11934883995E+02  0.00000000000E+00 0.  1.
</event>
<event>
 7    1  0.1358622E-013  0.7246182E+02  0.7816164E-02  0.1226707E+00
        -11   -1    0    0    0    0  0.00000000000E+00  0.00000000000E+00  0.45593999997E+02  0.45594000000E+02  0.51100000000E-03 0.  1.
         11   -1    0    0    0    0 -0.00000000000E+00 -0.00000000000E+00 -0.45593999997E+02  0.45594000000E+02  0.51100000000E-03 0. -1.
    9900012    2    1    2    0    0  0.85889320044E+01  0.12624347054E+02  0.10840937544E+02  0.72461819974E+02  0.70000325254E+02 0.  0.
        -12    1    1    2    0    0 -0.85889320044E+01 -0.12624347054E+02 -0.10840937544E+02  0.18726180026E+02  0.00000000000E+00 0.  1.
         11    1    3    3    0    0 -0.53891514330E+01  0.45077774502E+01 -0.23070350561E+02  0.24116469185E+02  0.51100000000E-03 0. -1.
        -11    1    3    3    0    0 -0.94752663679E+01 -0.43807030112E+00  0.89050935293E+01  0.13010506115E+02  0.51100000000E-03 0.  1.
         12    1    3    3    0    0  0.23453349805E+02  0.85546399048E+01  0.25006194576E+02  0.35334844674E+02  0.00000000000E+00 0. -1.
</event>
<event>
 7    1  0.1358622E-013  0.7246170E+02  0.7816164E-02  0.1226708E+00
        -11   -1    0    0    0    0  0.00000000000E+00  0.00000000000E+00  0.45593999997E+02  0.45594000000E+02  0.51100000000E-03 0.  1.
         11   -1    0    0    0    0 -0.00000000000E+00 -0.00000000000E+00 -0.45593999997E+02  0.45594000000E+02  0.51100000000E-03 0. -1.
    9900012    2    1    2    0    0 -0.14557991148E+02  0.11594400856E+02 -0.20758328945E+01  0.72461699787E+02  0.70000168688E+02 0.  0.
        -12    1    1    2    0    0  0.14557991148E+02 -0.11594400856E+02  0.20758328945E+01  0.18726300213E+02  0.00000000000E+00 0.  1.
         11    1    3    3    0    0 -0.21454071413E+02  0.12775408128E+02 -0.18853670089E+02  0.31288162444E+02  0.51100000000E-03 0. -1.
        -11    1    3    3    0    0 -0.32121170722E+01  0.12503643422E+02 -0.47312839773E+01  0.13749321555E+02  0.51100000000E-03 0.  1.
        -12    1    3    3    0    0  0.10108197337E+02 -0.13684650693E+02  0.21509121172E+02  0.27424215788E+02  0.00000000000E+00 0.  1.
</event>
<event>
 7    1  0.1358622E-013  0.7246160E+02  0.7816164E-02  0.1226708E+00
        -11   -1    0    0    0    0  0.00000000000E+00  0.00000000000E+00  0.45593999997E+02  0.45594000000E+02  0.51100000000E-03 0.  1.
         11   -1    0    0    0    0 -0.00000000000E+00 -0.00000000000E+00 -0.45593999997E+02  0.45594000000E+02  0.51100000000E-03 0. -1.
    9900012    2    1    2    0    0 -0.33638328235E+01  0.33152932079E+01 -0.18121026993E+02  0.72461597259E+02  0.70000035127E+02 0.  0.
        -12    1    1    2    0    0  0.33638328235E+01 -0.33152932079E+01  0.18121026993E+02  0.18726402741E+02  0.00000000000E+00 0.  1.
         11    1    3    3    0    0  0.44517810358E+00 -0.17385555902E+02 -0.88809418280E+01  0.19527592416E+02  0.51100000000E-03 0. -1.
        -11    1    3    3    0    0 -0.17615787368E+01 -0.15528645031E+02 -0.49530167406E+01  0.16394338999E+02  0.51100000000E-03 0.  1.
        -12    1    3    3    0    0 -0.20474321903E+01  0.36229494141E+02 -0.42870684249E+01  0.36539665843E+02  0.00000000000E+00 0.  1.
</event>
<event>
 7    1  0.1358622E-013  0.7246154E+02  0.7816164E-02  0.1226708E+00
        -11   -1    0    0    0    0  0.00000000000E+00  0.00000000000E+00  0.45593999997E+02  0.45594000000E+02  0.51100000000E-03 0.  1.
         11   -1    0    0    0    0 -0.00000000000E+00 -0.00000000000E+00 -0.45593999997E+02  0.45594000000E+02  0.51100000000E-03 0. -1.
    9900012    2    1    2    0    0  0.43426588444E+00 -0.18243724713E+02  0.42021634687E+01  0.72461541283E+02  0.69999962207E+02 0.  0.
        -12    1    1    2    0    0 -0.43426588444E+00  0.18243724713E+02 -0.42021634687E+01  0.18726458717E+02  0.00000000000E+00 0.  1.
         11    1    3    3    0    0  0.11677671953E+02 -0.77535809965E+01 -0.10632422321E+02  0.17593591026E+02  0.51100000000E-03 0. -1.
        -11    1    3    3    0    0  0.12033679925E+02  0.14354233481E+02  0.41458093416E+01  0.19184400087E+02  0.51100000000E-03 0.  1.
         12    1    3    3    0    0 -0.23277085994E+02 -0.24844377198E+02  0.10688776448E+02  0.35683550169E+02  0.00000000000E+00 0. -1.
</event>
<event>
 7    1  0.1358622E-013  0.7246161E+02  0.7816164E-02  0.1226708E+00
        -11   -1    0    0    0    0  0.00000000000E+00  0.00000000000E+00  0.45593999997E+02  0.45594000000E+02  0.51100000000E-03 0.  1.
         11   -1    0    0    0    0 -0.00000000000E+00 -0.00000000000E+00 -0.45593999997E+02  0.45594000000E+02  0.51100000000E-03 0. -1.
    9900012    2    1    2    0    0 -0.72293670721E+01 -0.16971964285E+02  0.32197046294E+01  0.72461606384E+02  0.70000047013E+02 0.  0.
        -12    1    1    2    0    0  0.72293670721E+01  0.16971964285E+02 -0.32197046294E+01  0.18726393616E+02  0.00000000000E+00 0.  1.
         11    1    3    3    0    0 -0.13695590380E+02 -0.42287965456E+01 -0.51257617937E+01  0.15222527724E+02  0.51100000000E-03 0.  1.
        -11    1    3    3    0    0  0.18208548921E+01  0.18826758756E+02 -0.89701434461E+01  0.20933844164E+02  0.51100000000E-03 0. -1.
        -12    1    3    3    0    0  0.46453684156E+01 -0.31569926495E+02  0.17315609869E+02  0.36305234496E+02  0.00000000000E+00 0.  1.
</event>
<event>
 7    1  0.1358622E-013  0.7246155E+02  0.7816164E-02  0.1226708E+00
        -11   -1    0    0    0    0  0.00000000000E+00  0.00000000000E+00  0.45593999997E+02  0.45594000000E+02  0.51100000000E-03 0.  1.
         11   -1    0    0    0    0 -0.00000000000E+00 -0.00000000000E+00 -0.45593999997E+02  0.45594000000E+02  0.51100000000E-03 0. -1.
    9900012    2    1    2    0    0 -0.12342400743E+02  0.13799256300E+02 -0.28152411812E+01  0.72461550431E+02  0.69999974125E+02 0.  0.
        -12    1    1    2    0    0  0.12342400743E+02 -0.13799256300E+02  0.28152411812E+01  0.18726449569E+02  0.00000000000E+00 0.  1.
         11    1    3    3    0    0 -0.14287799482E+02  0.18587992531E+01 -0.63299498461E+01  0.15737363629E+02  0.51100000000E-03 0. -1.
        -11    1    3    3    0    0 -0.25977594896E+02  0.11521273255E+02 -0.10000355120E+01  0.28435457536E+02  0.51100000000E-03 0.  1.
         12    1    3    3    0    0  0.27922993634E+02  0.41918379112E+00  0.45147441769E+01  0.28288729266E+02  0.00000000000E+00 0. -1.
</event>
<event>
 7    1  0.1358622E-013  0.7246155E+02  0.7816164E-02  0.1226708E+00
        -11   -1    0    0    0    0  0.00000000000E+00  0.00000000000E+00  0.45593999997E+02  0.45594000000E+02  0.51100000000E-03 0. -1.
         11   -1    0    0    0    0 -0.00000000000E+00 -0.00000000000E+00 -0.45593999997E+02  0.45594000000E+02  0.51100000000E-03 0.  1.
    9900012    2    1    2    0    0 -0.49841651454E+01 -0.76196034300E+01  0.16363971342E+02  0.72461553014E+02  0.69999977489E+02 0.  0.
        -12    1    1    2    0    0  0.49841651454E+01  0.76196034300E+01 -0.16363971342E+02  0.18726446986E+02  0.00000000000E+00 0.  1.
         11    1    3    3    0    0 -0.46298408868E+01 -0.15512663364E+02  0.58428770980E+01  0.17210966397E+02  0.51100000000E-03 0. -1.
        -11    1    3    3    0    0 -0.28581625037E+01 -0.22750429495E+02  0.84448625144E+01  0.24434951161E+02  0.51100000000E-03 0.  1.
        -12    1    3    3    0    0  0.25038382451E+01  0.30643489429E+02  0.20762317300E+01  0.30815635456E+02  0.00000000000E+00 0.  1.
</event>
<event>
 7    1  0.1358622E-013  0.7246149E+02  0.7816164E-02  0.1226708E+00
        -11   -1    0    0    0    0  0.00000000000E+00  0.00000000000E+00  0.45593999997E+02  0.45594000000E+02  0.51100000000E-03 0.  1.
         11   -1    0    0    0    0 -0.00000000000E+00 -0.00000000000E+00 -0.45593999997E+02  0.45594000000E+02  0.51100000000E-03 0. -1.
    9900012    2    1    2    0    0  0.17013839743E+02  0.63591195703E+01 -0.45577545374E+01  0.72461487486E+02  0.69999892127E+02 0.  0.
        -12    1    1    2    0    0 -0.17013839743E+02 -0.63591195703E+01  0.45577545374E+01  0.18726512514E+02  0.00000000000E+00 0.  1.
         11    1    3    3    0    0  0.70154354756E+01 -0.13100688169E+02  0.57713490298E+01  0.15942171599E+02  0.51100000000E-03 0. -1.
        -11    1    3    3    0    0 -0.47354209954E+01 -0.45619786035E+01  0.16406093167E+02  0.17674720763E+02  0.51100000000E-03 0.  1.
         12    1    3    3    0    0  0.14733825263E+02  0.24021786342E+02 -0.26735196734E+02  0.38844595124E+02  0.00000000000E+00 0. -1.
</event>
<event>
 7    1  0.1358622E-013  0.7246160E+02  0.7816164E-02  0.1226708E+00
        -11   -1    0    0    0    0  0.00000000000E+00  0.00000000000E+00  0.45593999997E+02  0.45594000000E+02  0.51100000000E-03 0.  1.
         11   -1    0    0    0    0 -0.00000000000E+00 -0.00000000000E+00 -0.45593999997E+02  0.45594000000E+02  0.51100000000E-03 0. -1.
    9900012    2    1    2    0    0 -0.82456929931E+01  0.12852220878E+02 -0.10840071666E+02  0.72461596497E+02  0.70000034134E+02 0.  0.
        -12    1    1    2    0    0  0.82456929931E+01 -0.12852220878E+02  0.10840071666E+02  0.18726403503E+02  0.00000000000E+00 0.  1.
         11    1    3    3    0    0  0.86864297579E+01  0.75107138213E+01  0.25329585005E+02  0.27811018694E+02  0.51100000000E-03 0.  1.
        -11    1    3    3    0    0 -0.73645265999E+01  0.10638917064E+02 -0.10213205015E+02  0.16484306636E+02  0.51100000000E-03 0. -1.
        -12    1    3    3    0    0 -0.95675961511E+01 -0.52974100074E+01 -0.25956451656E+02  0.28166271167E+02  0.00000000000E+00 0.  1.
</event>
<event>
 7    1  0.1358622E-013  0.7246154E+02  0.7816164E-02  0.1226708E+00
        -11   -1    0    0    0    0  0.00000000000E+00  0.00000000000E+00  0.45593999997E+02  0.45594000000E+02  0.51100000000E-03 0.  1.
         11   -1    0    0    0    0 -0.00000000000E+00 -0.00000000000E+00 -0.45593999997E+02  0.45594000000E+02  0.51100000000E-03 0. -1.
    9900012    2    1    2    0    0 -0.17258802069E+02  0.65477900754E+01 -0.31528516048E+01  0.72461540725E+02  0.69999961480E+02 0.  0.
        -12    1    1    2    0    0  0.17258802069E+02 -0.65477900754E+01  0.31528516048E+01  0.18726459275E+02  0.00000000000E+00 0.  1.
         11    1    3    3    0    0 -0.65784475756E+00  0.34781173100E+00 -0.14881856535E+01  0.16638598275E+01  0.51100000000E-03 0. -1.
        -11    1    3    3    0    0  0.22893718524E+02 -0.26825669623E+01  0.14474126647E+02  0.27217987725E+02  0.51100000000E-03 0.  1.
         12    1    3    3    0    0 -0.39494675835E+02  0.88825453067E+01 -0.16138792598E+02  0.43579693172E+02  0.00000000000E+00 0. -1.
</event>
<event>
 7    1  0.1358622E-013  0.7246163E+02  0.7816164E-02  0.1226708E+00
        -11   -1    0    0    0    0  0.00000000000E+00  0.00000000000E+00  0.45593999997E+02  0.45594000000E+02  0.51100000000E-03 0. -1.
         11   -1    0    0    0    0 -0.00000000000E+00 -0.00000000000E+00 -0.45593999997E+02  0.45594000000E+02  0.51100000000E-03 0.  1.
    9900012    2    1    2    0    0 -0.70363323416E+01  0.13634052367E+02 -0.10736827861E+02  0.72461632780E+02  0.70000081399E+02 0.  0.
        -12    1    1    2    0    0  0.70363323416E+01 -0.13634052367E+02  0.10736827861E+02  0.18726367220E+02  0.00000000000E+00 0.  1.
         11    1    3    3    0    0 -0.27966384516E+02  0.23381058933E+02  0.60042901254E+01  0.36943796230E+02  0.51100000000E-03 0. -1.
        -11    1    3    3    0    0  0.55746219514E+01  0.22642007073E+01  0.38648521232E+01  0.71512304493E+01  0.51100000000E-03 0.  1.
        -12    1    3    3    0    0  0.15355430223E+02 -0.12011207273E+02 -0.20605970109E+02  0.28366606100E+02  0.00000000000E+00 0.  1.
</event>
<event>
 7    1  0.1358622E-013  0.7246146E+02  0.7816164E-02  0.1226708E+00
        -11   -1    0    0    0    0  0.00000000000E+00  0.00000000000E+00  0.45593999997E+02  0.45594000000E+02  0.51100000000E-03 0.  1.
         11   -1    0    0    0    0 -0.00000000000E+00 -0.00000000000E+00 -0.45593999997E+02  0.45594000000E+02  0.51100000000E-03 0. -1.
    9900012    2    1    2    0    0  0.14743427528E+02  0.11080660426E+02  0.32455707731E+01  0.72461456795E+02  0.69999852146E+02 0.  0.
        -12    1    1    2    0    0 -0.14743427528E+02 -0.11080660426E+02 -0.32455707731E+01  0.18726543205E+02  0.00000000000E+00 0.  1.
         11    1    3    3    0    0 -0.17479465886E+00 -0.16201737631E+02  0.18956483140E+02  0.24937423859E+02  0.51100000000E-03 0. -1.
        -11    1    3    3    0    0  0.15363420792E+02 -0.20604065492E+01 -0.57628908852E+01  0.16537559832E+02  0.51100000000E-03 0.  1.
        -12    1    3    3    0    0 -0.44519860509E+00  0.29342804607E+02 -0.99480214813E+01  0.30986473103E+02  0.00000000000E+00 0.  1.
</event>
<event>
 7    1  0.1358622E-013  0.7246164E+02  0.7816164E-02  0.1226708E+00
        -11   -1    0    0    0    0  0.00000000000E+00  0.00000000000E+00  0.45593999997E+02  0.45594000000E+02  0.51100000000E-03 0.  1.
         11   -1    0    0    0    0 -0.00000000000E+00 -0.00000000000E+00 -0.45593999997E+02  0.45594000000E+02  0.51100000000E-03 0. -1.
    9900012    2    1    2    0    0  0.30321965084E+00 -0.38642113349E+01 -0.18320820803E+02  0.72461640335E+02  0.70000091241E+02 0.  0.
        -12    1    1    2    0    0 -0.30321965084E+00  0.38642113349E+01  0.18320820803E+02  0.18726359665E+02  0.00000000000E+00 0.  1.
         11    1    3    3    0    0  0.36837980903E+01  0.17662153780E+02 -0.80986654820E+01  0.19776512012E+02  0.51100000000E-03 0. -1.
        -11    1    3    3    0    0 -0.99431445151E+01  0.12190342776E+02  0.27463229143E+01  0.15969122382E+02  0.51100000000E-03 0.  1.
         12    1    3    3    0    0  0.65625660756E+01 -0.33716707891E+02 -0.12968478235E+02  0.36716005941E+02  0.00000000000E+00 0. -1.
</event>
<event>
 7    1  0.1358622E-013  0.7246159E+02  0.7816164E-02  0.1226708E+00
        -11   -1    0    0    0    0  0.00000000000E+00  0.00000000000E+00  0.45593999997E+02  0.45594000000E+02  0.51100000000E-03 0. -1.
         11   -1    0    0    0    0 -0.00000000000E+00 -0.00000000000E+00 -0.45593999997E+02  0.45594000000E+02  0.51100000000E-03 0.  1.
    9900012    2    1    2    0    0 -0.13992017786E+02 -0.71510485217E+01  0.10186486249E+02  0.72461586601E+02  0.70000021243E+02 0.  0.
        -12    1    1    2    0    0  0.13992017786E+02  0.71510485217E+01 -0.10186486249E+02  0.18726413399E+02  0.00000000000E+00 0.  1.
         11    1    3    3    0    0 -0.17385471404E+02  0.56322142624E+01  0.19581444538E+02  0.26784499695E+02  0.51100000000E-03 0. -1.
        -11    1    3    3    0    0  0.50790558551E+01 -0.83646387141E+01  0.16592235527E+02  0.19263080471E+02  0.51100000000E-03 0.  1.
        -12    1    3    3    0    0 -0.16856022365E+01 -0.44186240700E+01 -0.25987193815E+02  0.26414006435E+02  0.00000000000E+00 0.  1.
</event>
<event>
 7    1  0.1358622E-013  0.7246156E+02  0.7816164E-02  0.1226708E+00
        -11   -1    0    0    0    0  0.00000000000E+00  0.00000000000E+00  0.45593999997E+02  0.45594000000E+02  0.51100000000E-03 0. -1.
         11   -1    0    0    0    0 -0.00000000000E+00 -0.00000000000E+00 -0.45593999997E+02  0.45594000000E+02  0.51100000000E-03 0.  1.
    9900012    2    1    2    0    0 -0.18367216868E+02  0.36482959037E+01  0.12194371330E+00  0.72461559100E+02  0.69999985418E+02 0.  0.
        -12    1    1    2    0    0  0.18367216868E+02 -0.36482959037E+01 -0.12194371330E+00  0.18726440900E+02  0.00000000000E+00 0.  1.
         11    1    3    3    0    0  0.70896497044E+01 -0.10928363745E+02 -0.70225451076E+01  0.14798932634E+02  0.51100000000E-03 0.  1.
        -11    1    3    3    0    0 -0.94210822936E+01 -0.13399584639E+02  0.17329984639E+02  0.23846048476E+02  0.51100000000E-03 0. -1.
         12    1    3    3    0    0 -0.16035784279E+02  0.27976244288E+02 -0.10185495818E+02  0.33816577990E+02  0.00000000000E+00 0. -1.
</event>
<event>
 7    1  0.1358622E-013  0.7246166E+02  0.7816164E-02  0.1226708E+00
        -11   -1    0    0    0    0  0.00000000000E+00  0.00000000000E+00  0.45593999997E+02  0.45594000000E+02  0.51100000000E-03 0.  1.
         11   -1    0    0    0    0 -0.00000000000E+00 -0.00000000000E+00 -0.45593999997E+02  0.45594000000E+02  0.51100000000E-03 0. -1.
    9900012    2    1    2    0    0 -0.24127031017E+01 -0.93922286327E+01 -0.16020010146E+02  0.72461659727E+02  0.70000116502E+02 0.  0.
        -12    1    1    2    0    0  0.24127031017E+01  0.93922286327E+01  0.16020010146E+02  0.18726340273E+02  0.00000000000E+00 0.  1.
         11    1    3    3    0    0 -0.19960020071E+02 -0.14881671584E+01 -0.16525555692E+02  0.25955944096E+02  0.51100000000E-03 0. -1.
        -11    1    3    3    0    0  0.25437269966E+02  0.13092253265E+01 -0.12795455626E+02  0.28504253353E+02  0.51100000000E-03 0.  1.
         12    1    3    3    0    0 -0.78899529970E+01 -0.92132868008E+01  0.13301001172E+02  0.18001462278E+02  0.00000000000E+00 0. -1.
</event>
<event>
 7    1  0.1358622E-013  0.7246150E+02  0.7816164E-02  0.1226708E+00
        -11   -1    0    0    0    0  0.00000000000E+00  0.00000000000E+00  0.45593999997E+02  0.45594000000E+02  0.51100000000E-03 0.  1.
         11   -1    0    0    0    0 -0.00000000000E+00 -0.00000000000E+00 -0.45593999997E+02  0.45594000000E+02  0.51100000000E-03 0. -1.
    9900012    2    1    2    0    0  0.13177725095E+02  0.50400753122E+01 -0.12313698949E+02  0.72461495264E+02  0.69999902258E+02 0.  0.
        -12    1    1    2    0    0 -0.13177725095E+02 -0.50400753122E+01  0.12313698949E+02  0.18726504736E+02  0.00000000000E+00 0.  1.
         11    1    3    3    0    0  0.11176829932E+02  0.20726564135E+02 -0.10871999724E+02  0.25936699220E+02  0.51100000000E-03 0. -1.
        -11    1    3    3    0    0 -0.17572442791E+02 -0.72107218428E+00  0.90098252315E+01  0.19760760150E+02  0.51100000000E-03 0.  1.
        -12    1    3    3    0    0  0.19573337955E+02 -0.14965416638E+02 -0.10451524457E+02  0.26764035894E+02  0.00000000000E+00 0.  1.
</event>
<event>
 8    1  0.1358622E-013  0.7246156E+02  0.7816164E-02  0.1226708E+00
        -11   -1    0    0    0    0  0.00000000000E+00  0.00000000000E+00  0.45593999997E+02  0.45594000000E+02  0.51100000000E-03 0. -1.
         11   -1    0    0    0    0 -0.00000000000E+00 -0.00000000000E+00 -0.45593999997E+02  0.45594000000E+02  0.51100000000E-03 0.  1.
    9900012    2    1    2    0    0 -0.15546352846E+02  0.22974786717E+01  0.10183916080E+02  0.72461557684E+02  0.69999983573E+02 0.  0.
         23    2    3    3    0    0 -0.25341879939E+02 -0.90090139246E+00  0.11725519798E+02  0.62042415297E+02  0.55396308354E+02 0.  0.
        -12    1    1    2    0    0  0.15546352846E+02 -0.22974786717E+01 -0.10183916080E+02  0.18726442316E+02  0.00000000000E+00 0.  1.
         11    1    4    4    0    0 -0.37475118604E+02  0.13666721873E+02  0.15349038873E+02  0.42740575519E+02  0.51100000000E-03 0. -1.
        -11    1    4    4    0    0  0.12133238665E+02 -0.14567623265E+02 -0.36235190745E+01  0.19301839778E+02  0.51100000000E-03 0.  1.
        -12    1    3    3    0    0  0.97955270928E+01  0.31983800641E+01 -0.15416037179E+01  0.10419142387E+02  0.00000000000E+00 0.  1.
</event>
<event>
 7    1  0.1358622E-013  0.7246153E+02  0.7816164E-02  0.1226708E+00
        -11   -1    0    0    0    0  0.00000000000E+00  0.00000000000E+00  0.45593999997E+02  0.45594000000E+02  0.51100000000E-03 0.  1.
         11   -1    0    0    0    0 -0.00000000000E+00 -0.00000000000E+00 -0.45593999997E+02  0.45594000000E+02  0.51100000000E-03 0. -1.
    9900012    2    1    2    0    0 -0.24759498946E+01 -0.19436198168E+01 -0.18460027640E+02  0.72461531931E+02  0.69999950025E+02 0.  0.
        -12    1    1    2    0    0  0.24759498946E+01  0.19436198168E+01  0.18460027640E+02  0.18726468069E+02  0.00000000000E+00 0.  1.
         11    1    3    3    0    0 -0.52830633613E+01  0.15000397089E+01  0.24233813684E+01  0.60028039386E+01  0.51100000000E-03 0. -1.
        -11    1    3    3    0    0 -0.11576162501E+02 -0.77691811115E+01  0.19157563982E+02  0.23693458409E+02  0.51100000000E-03 0.  1.
         12    1    3    3    0    0  0.14383275967E+02  0.43255215857E+01 -0.40040972990E+02  0.42765269584E+02  0.00000000000E+00 0. -1.
</event>
<event>
 7    1  0.1358622E-013  0.7246164E+02  0.7816164E-02  0.1226708E+00
        -11   -1    0    0    0    0  0.00000000000E+00  0.00000000000E+00  0.45593999997E+02  0.45594000000E+02  0.51100000000E-03 0.  1.
         11   -1    0    0    0    0 -0.00000000000E+00 -0.00000000000E+00 -0.45593999997E+02  0.45594000000E+02  0.51100000000E-03 0. -1.
    9900012    2    1    2    0    0 -0.35047876948E+01 -0.14118058967E+01 -0.18341202955E+02  0.72461642680E+02  0.70000094295E+02 0.  0.
        -12    1    1    2    0    0  0.35047876948E+01  0.14118058967E+01  0.18341202955E+02  0.18726357320E+02  0.00000000000E+00 0.  1.
         11    1    3    3    0    0 -0.14394706258E+02 -0.19497405746E+02 -0.26095506629E+02  0.35613647181E+02  0.51100000000E-03 0. -1.
        -11    1    3    3    0    0 -0.10906022209E+01 -0.15735668806E+01 -0.84698227320E+01  0.86835144559E+01  0.51100000000E-03 0.  1.
        -12    1    3    3    0    0  0.11980520784E+02  0.19659166730E+02  0.16224126406E+02  0.28164481043E+02  0.00000000000E+00 0.  1.
</event>
<event>
 7    1  0.1358622E-013  0.7246159E+02  0.7816164E-02  0.1226708E+00
        -11   -1    0    0    0    0  0.00000000000E+00  0.00000000000E+00  0.45593999997E+02  0.45594000000E+02  0.51100000000E-03 0. -1.
         11   -1    0    0    0    0 -0.00000000000E+00 -0.00000000000E+00 -0.45593999997E+02  0.45594000000E+02  0.51100000000E-03 0.  1.
    9900012    2    1    2    0    0  0.27137741418E-04 -0.54980621052E+01  0.17901110654E+02  0.72461589517E+02  0.70000025041E+02 0.  0.
        -12    1    1    2    0    0 -0.27137741413E-04  0.54980621052E+01 -0.17901110654E+02  0.18726410483E+02  0.00000000000E+00 0.  1.
         11    1    3    3    0    0  0.66727530852E+01 -0.16396652021E+02  0.46197910775E+00  0.17708451547E+02  0.51100000000E-03 0. -1.
        -11    1    3    3    0    0 -0.21141116034E+02  0.21162779075E+02  0.51672992320E-01  0.29913419659E+02  0.51100000000E-03 0.  1.
         12    1    3    3    0    0  0.14468390087E+02 -0.10264189160E+02  0.17387458554E+02  0.24839718311E+02  0.00000000000E+00 0. -1.
</event>
<event>
 7    1  0.1358622E-013  0.7246165E+02  0.7816164E-02  0.1226708E+00
        -11   -1    0    0    0    0  0.00000000000E+00  0.00000000000E+00  0.45593999997E+02  0.45594000000E+02  0.51100000000E-03 0. -1.
         11   -1    0    0    0    0 -0.00000000000E+00 -0.00000000000E+00 -0.45593999997E+02  0.45594000000E+02  0.51100000000E-03 0.  1.
    9900012    2    1    2    0    0 -0.70513039404E+01  0.17089093834E+02  0.29863334402E+01  0.72461649508E+02  0.70000103191E+02 0.  0.
        -12    1    1    2    0    0  0.70513039404E+01 -0.17089093834E+02 -0.29863334402E+01  0.18726350492E+02  0.00000000000E+00 0.  1.
         11    1    3    3    0    0  0.90982493136E+01 -0.45336022283E+01  0.15894357190E+01  0.10288731501E+02  0.51100000000E-03 0. -1.
        -11    1    3    3    0    0 -0.26797041579E+02  0.23631168788E+02 -0.17961000849E+02  0.39988887549E+02  0.51100000000E-03 0.  1.
         12    1    3    3    0    0  0.10647488325E+02 -0.20084727255E+01  0.19357898570E+02  0.22184030458E+02  0.00000000000E+00 0. -1.
</event>
<event>
 7    1  0.1358622E-013  0.7246156E+02  0.7816164E-02  0.1226708E+00
        -11   -1    0    0    0    0  0.00000000000E+00  0.00000000000E+00  0.45593999997E+02  0.45594000000E+02  0.51100000000E-03 0. -1.
         11   -1    0    0    0    0 -0.00000000000E+00 -0.00000000000E+00 -0.45593999997E+02  0.45594000000E+02  0.51100000000E-03 0.  1.
    9900012    2    1    2    0    0 -0.16765984869E+02 -0.13478535399E+01  0.82319361958E+01  0.72461555294E+02  0.69999980459E+02 0.  0.
        -12    1    1    2    0    0  0.16765984869E+02  0.13478535399E+01 -0.82319361958E+01  0.18726444706E+02  0.00000000000E+00 0.  1.
         11    1    3    3    0    0  0.35889300092E+01  0.22786769189E+01  0.10800549646E+02  0.11607095245E+02  0.51100000000E-03 0. -1.
        -11    1    3    3    0    0 -0.88763426936E+00 -0.58112038373E+01  0.25754495407E+02  0.26416888888E+02  0.51100000000E-03 0.  1.
        -12    1    3    3    0    0 -0.19467280609E+02  0.21846733784E+01 -0.28323108857E+02  0.34437571160E+02  0.00000000000E+00 0.  1.
</event>
<event>
 7    1  0.1358622E-013  0.7246160E+02  0.7816164E-02  0.1226708E+00
        -11   -1    0    0    0    0  0.00000000000E+00  0.00000000000E+00  0.45593999997E+02  0.45594000000E+02  0.51100000000E-03 0.  1.
         11   -1    0    0    0    0 -0.00000000000E+00 -0.00000000000E+00 -0.45593999997E+02  0.45594000000E+02  0.51100000000E-03 0. -1.
    9900012    2    1    2    0    0 -0.90821150704E+00  0.16396330956E+02 -0.90007461149E+01  0.72461602920E+02  0.70000042501E+02 0.  0.
        -12    1    1    2    0    0  0.90821150704E+00 -0.16396330956E+02  0.90007461149E+01  0.18726397080E+02  0.00000000000E+00 0.  1.
         11    1    3    3    0    0  0.13741204323E+02  0.44018790314E+01 -0.19994397691E+02  0.24657112047E+02  0.51100000000E-03 0. -1.
        -11    1    3    3    0    0 -0.17947549975E+01  0.43205445941E+01 -0.16145618141E+02  0.16809795850E+02  0.51100000000E-03 0.  1.
        -12    1    3    3    0    0 -0.12854660832E+02  0.76739073307E+01  0.27139269717E+02  0.30994695023E+02  0.00000000000E+00 0.  1.
</event>
<event>
 7    1  0.1358622E-013  0.7246158E+02  0.7816164E-02  0.1226708E+00
        -11   -1    0    0    0    0  0.00000000000E+00  0.00000000000E+00  0.45593999997E+02  0.45594000000E+02  0.51100000000E-03 0. -1.
         11   -1    0    0    0    0 -0.00000000000E+00 -0.00000000000E+00 -0.45593999997E+02  0.45594000000E+02  0.51100000000E-03 0.  1.
    9900012    2    1    2    0    0 -0.17465896528E+02 -0.54738807496E+01 -0.39569946823E+01  0.72461582326E+02  0.70000015674E+02 0.  0.
        -12    1    1    2    0    0  0.17465896528E+02  0.54738807496E+01  0.39569946823E+01  0.18726417674E+02  0.00000000000E+00 0.  1.
         11    1    3    3    0    0  0.12178923109E+02  0.19455555345E+02 -0.12812448445E+02  0.26286948040E+02  0.51100000000E-03 0. -1.
        -11    1    3    3    0    0  0.16415035154E+01 -0.10466142091E+02  0.26401443531E-01  0.10594119188E+02  0.51100000000E-03 0.  1.
        -12    1    3    3    0    0 -0.31286323152E+02 -0.14463294003E+02  0.88290523187E+01  0.35580515098E+02  0.00000000000E+00 0.  1.
</event>
<event>
 7    1  0.1358622E-013  0.7246157E+02  0.7816164E-02  0.1226708E+00
        -11   -1    0    0    0    0  0.00000000000E+00  0.00000000000E+00  0.45593999997E+02  0.45594000000E+02  0.51100000000E-03 0. -1.
         11   -1    0    0    0    0 -0.00000000000E+00 -0.00000000000E+00 -0.45593999997E+02  0.45594000000E+02  0.51100000000E-03 0.  1.
    9900012    2    1    2    0    0  0.18688783110E+01 -0.78293275040E+01  0.16908230700E+02  0.72461565723E+02  0.69999994045E+02 0.  0.
        -12    1    1    2    0    0 -0.18688783110E+01  0.78293275040E+01 -0.16908230700E+02  0.18726434277E+02  0.00000000000E+00 0.  1.
         11    1    3    3    0    0  0.94673417218E+01  0.22981715598E+01 -0.14873902711E+01  0.98551753853E+01  0.51100000000E-03 0. -1.
        -11    1    3    3    0    0  0.18116176160E+02 -0.18956730339E+02 -0.50524892888E+01  0.26703578638E+02  0.51100000000E-03 0.  1.
         12    1    3    3    0    0 -0.25714639571E+02  0.88292312750E+01  0.23448110260E+02  0.35902811700E+02  0.00000000000E+00 0. -1.
</event>
<event>
 7    1  0.1358622E-013  0.7246185E+02  0.7816164E-02  0.1226707E+00
        -11   -1    0    0    0    0  0.00000000000E+00  0.00000000000E+00  0.45593999997E+02  0.45594000000E+02  0.51100000000E-03 0. -1.
         11   -1    0    0    0    0 -0.00000000000E+00 -0.00000000000E+00 -0.45593999997E+02  0.45594000000E+02  0.51100000000E-03 0.  1.
    9900012    2    1    2    0    0  0.59856598401E+01 -0.12272242955E+02 -0.12815332827E+02  0.72461846462E+02  0.70000359759E+02 0.  0.
        -12    1    1    2    0    0 -0.59856598401E+01  0.12272242955E+02  0.12815332827E+02  0.18726153538E+02  0.00000000000E+00 0.  1.
         11    1    3    3    0    0  0.12433523172E+01  0.58552982952E+01 -0.39552297584E+01  0.71745582312E+01  0.51100000000E-03 0. -1.
        -11    1    3    3    0    0  0.23080383063E+02  0.14061955957E+02  0.66835014518E+00  0.27034965875E+02  0.51100000000E-03 0.  1.
         12    1    3    3    0    0 -0.18338075540E+02 -0.32189497207E+02 -0.95284532139E+01  0.38252322356E+02  0.00000000000E+00 0. -1.
</event>
<event>
 7    1  0.1358622E-013  0.7246155E+02  0.7816164E-02  0.1226708E+00
        -11   -1    0    0    0    0  0.00000000000E+00  0.00000000000E+00  0.45593999997E+02  0.45594000000E+02  0.51100000000E-03 0. -1.
         11   -1    0    0    0    0 -0.00000000000E+00 -0.00000000000E+00 -0.45593999997E+02  0.45594000000E+02  0.51100000000E-03 0.  1.
    9900012    2    1    2    0    0  0.11542190571E+02  0.31681003142E+01  0.14402110493E+02  0.72461553209E+02  0.69999977743E+02 0.  0.
        -12    1    1    2    0    0 -0.11542190571E+02 -0.31681003142E+01 -0.14402110493E+02  0.18726446791E+02  0.00000000000E+00 0.  1.
         11    1    3    3    0    0  0.42406822657E+01  0.40196503219E+01  0.91998840794E+01  0.10898570646E+02  0.51100000000E-03 0. -1.
        -11    1    3    3    0    0  0.13287078542E+02  0.12969912158E+01 -0.26263067846E+02  0.29461455757E+02  0.51100000000E-03 0.  1.
         12    1    3    3    0    0 -0.59855702370E+01 -0.21485412236E+01  0.31465294259E+02  0.32101526806E+02  0.00000000000E+00 0. -1.
</event>
<event>
 7    1  0.1358622E-013  0.7246152E+02  0.7816164E-02  0.1226708E+00
        -11   -1    0    0    0    0  0.00000000000E+00  0.00000000000E+00  0.45593999997E+02  0.45594000000E+02  0.51100000000E-03 0. -1.
         11   -1    0    0    0    0 -0.00000000000E+00 -0.00000000000E+00 -0.45593999997E+02  0.45594000000E+02  0.51100000000E-03 0.  1.
    9900012    2    1    2    0    0  0.10389484824E+02  0.90650082911E+01  0.12671440203E+02  0.72461516960E+02  0.69999930522E+02 0.  0.
        -12    1    1    2    0    0 -0.10389484824E+02 -0.90650082911E+01 -0.12671440203E+02  0.18726483040E+02  0.00000000000E+00 0.  1.
         11    1    3    3    0    0 -0.63231901071E+01 -0.45629232393E+01 -0.77727257732E+01  0.11009916795E+02  0.51100000000E-03 0. -1.
        -11    1    3    3    0    0  0.52423597534E+01 -0.14466205485E+01 -0.17886999498E+02  0.18695448593E+02  0.51100000000E-03 0.  1.
         12    1    3    3    0    0  0.11470315178E+02  0.15074552079E+02  0.38331165474E+02  0.42756151572E+02  0.00000000000E+00 0. -1.
</event>
<event>
 7    1  0.1358622E-013  0.7246154E+02  0.7816164E-02  0.1226708E+00
        -11   -1    0    0    0    0  0.00000000000E+00  0.00000000000E+00  0.45593999997E+02  0.45594000000E+02  0.51100000000E-03 0. -1.
         11   -1    0    0    0    0 -0.00000000000E+00 -0.00000000000E+00 -0.45593999997E+02  0.45594000000E+02  0.51100000000E-03 0.  1.
    9900012    2    1    2    0    0  0.83426734572E+01 -0.15958556279E+02 -0.51385369464E+01  0.72461540621E+02  0.69999961345E+02 0.  0.
        -12    1    1    2    0    0 -0.83426734572E+01  0.15958556279E+02  0.51385369464E+01  0.18726459379E+02  0.00000000000E+00 0.  1.
         11    1    3    3    0    0 -0.21969031751E+02 -0.89116120241E+01  0.16687502755E+02  0.28991859778E+02  0.51100000000E-03 0. -1.
        -11    1    3    3    0    0 -0.32708877903E+01 -0.13065566502E+01 -0.21462398133E+01  0.41245778953E+01  0.51100000000E-03 0.  1.
        -12    1    3    3    0    0  0.33582592998E+02 -0.57403876047E+01 -0.19679799888E+02  0.39345102948E+02  0.00000000000E+00 0.  1.
</event>
<event>
 7    1  0.1358622E-013  0.7246133E+02  0.7816164E-02  0.1226709E+00
        -11   -1    0    0    0    0  0.00000000000E+00  0.00000000000E+00  0.45593999997E+02  0.45594000000E+02  0.51100000000E-03 0. -1.
         11   -1    0    0    0    0 -0.00000000000E+00 -0.00000000000E+00 -0.45593999997E+02  0.45594000000E+02  0.51100000000E-03 0.  1.
    9900012    2    1    2    0    0  0.13158475586E+02  0.75160242632E+01  0.11002362199E+02  0.72461332533E+02  0.69999690270E+02 0.  0.
        -12    1    1    2    0    0 -0.13158475586E+02 -0.75160242632E+01 -0.11002362199E+02  0.18726667467E+02  0.00000000000E+00 0.  1.
         11    1    3    3    0    0 -0.17734970716E+02 -0.63204312556E+00 -0.65249032382E+01  0.18907750457E+02  0.51100000000E-03 0. -1.
        -11    1    3    3    0    0  0.80252278390E+01  0.39063537019E+00 -0.12599447252E+02  0.14943324569E+02  0.51100000000E-03 0.  1.
         12    1    3    3    0    0  0.22868218464E+02  0.77574320185E+01  0.30126712689E+02  0.38610257506E+02  0.00000000000E+00 0. -1.
</event>
<event>
 7    1  0.1358622E-013  0.7246157E+02  0.7816164E-02  0.1226708E+00
        -11   -1    0    0    0    0  0.00000000000E+00  0.00000000000E+00  0.45593999997E+02  0.45594000000E+02  0.51100000000E-03 0. -1.
         11   -1    0    0    0    0 -0.00000000000E+00 -0.00000000000E+00 -0.45593999997E+02  0.45594000000E+02  0.51100000000E-03 0.  1.
    9900012    2    1    2    0    0  0.12443556160E+01 -0.15550912215E+02  0.10358557690E+02  0.72461574579E+02  0.70000005582E+02 0.  0.
        -12    1    1    2    0    0 -0.12443556160E+01  0.15550912215E+02 -0.10358557690E+02  0.18726425421E+02  0.00000000000E+00 0.  1.
         11    1    3    3    0    0 -0.62038065609E+01  0.80225975574E+01  0.24181815541E+02  0.26222309024E+02  0.51100000000E-03 0. -1.
        -11    1    3    3    0    0  0.92683078685E+01 -0.18385220463E+02  0.92125615283E+01  0.22556355033E+02  0.51100000000E-03 0.  1.
        -12    1    3    3    0    0 -0.18201456916E+01 -0.51882893096E+01 -0.23035819380E+02  0.23682910522E+02  0.00000000000E+00 0.  1.
</event>
<event>
 7    1  0.1358622E-013  0.7246157E+02  0.7816164E-02  0.1226708E+00
        -11   -1    0    0    0    0  0.00000000000E+00  0.00000000000E+00  0.45593999997E+02  0.45594000000E+02  0.51100000000E-03 0. -1.
         11   -1    0    0    0    0 -0.00000000000E+00 -0.00000000000E+00 -0.45593999997E+02  0.45594000000E+02  0.51100000000E-03 0.  1.
    9900012    2    1    2    0    0 -0.16831427642E+02  0.64894099282E+01 -0.50268967290E+01  0.72461572460E+02  0.70000002821E+02 0.  0.
        -12    1    1    2    0    0  0.16831427642E+02 -0.64894099282E+01  0.50268967290E+01  0.18726427540E+02  0.00000000000E+00 0.  1.
         11    1    3    3    0    0  0.93139906184E+01  0.75803414130E+01 -0.92859295713E+00  0.12044678589E+02  0.51100000000E-03 0. -1.
        -11    1    3    3    0    0 -0.18867551445E+02 -0.32482332674E+01 -0.28795685713E+02  0.34579286181E+02  0.51100000000E-03 0.  1.
         12    1    3    3    0    0 -0.72778668157E+01  0.21573017826E+01  0.24697381941E+02  0.25837607689E+02  0.00000000000E+00 0. -1.
</event>
<event>
 7    1  0.1358622E-013  0.7246162E+02  0.7816164E-02  0.1226708E+00
        -11   -1    0    0    0    0  0.00000000000E+00  0.00000000000E+00  0.45593999997E+02  0.45594000000E+02  0.51100000000E-03 0. -1.
         11   -1    0    0    0    0 -0.00000000000E+00 -0.00000000000E+00 -0.45593999997E+02  0.45594000000E+02  0.51100000000E-03 0.  1.
    9900012    2    1    2    0    0  0.37949558445E+01 -0.18173493680E+02  0.24494598061E+01  0.72461617121E+02  0.70000061000E+02 0.  0.
        -12    1    1    2    0    0 -0.37949558445E+01  0.18173493680E+02 -0.24494598061E+01  0.18726382879E+02  0.00000000000E+00 0.  1.
         11    1    3    3    0    0 -0.41636667578E+01  0.12472611031E+02 -0.32320382587E+01  0.13540613663E+02  0.51100000000E-03 0. -1.
        -11    1    3    3    0    0  0.24650201428E+02 -0.16482764356E+01  0.61493445035E+01  0.25459058972E+02  0.51100000000E-03 0.  1.
         12    1    3    3    0    0 -0.16691578826E+02 -0.28997828276E+02 -0.46784643869E+00  0.33461944485E+02  0.00000000000E+00 0. -1.
</event>
<event>
 7    1  0.2178988E-013  0.7246221E+02  0.7816164E-02  0.1226706E+00
        -11   -1    0    0    0    0  0.00000000000E+00  0.00000000000E+00  0.45593999997E+02  0.45594000000E+02  0.51100000000E-03 0.  1.
         11   -1    0    0    0    0 -0.00000000000E+00 -0.00000000000E+00 -0.45593999997E+02  0.45594000000E+02  0.51100000000E-03 0. -1.
    9900012    2    1    2    0    0  0.84707446636E+01  0.11655817843E+02 -0.11960076486E+02  0.72462214721E+02  0.70000839481E+02 0.  0.
        -12    1    1    2    0    0 -0.84707446636E+01 -0.11655817843E+02  0.11960076486E+02  0.18725785279E+02  0.00000000000E+00 0.  1.
         11    1    3    3    0    0 -0.71925880175E+01  0.98814369071E+01 -0.25473261872E+02  0.28253551784E+02  0.51100000000E-03 0. -1.
        -11    1    3    3    0    0 -0.78648297613E+01  0.11524932372E+02  0.12479003816E+02  0.18719111887E+02  0.51100000000E-03 0.  1.
        -12    1    3    3    0    0  0.23528162442E+02 -0.97505514359E+01  0.10341815707E+01  0.25489551050E+02  0.00000000000E+00 0.  1.
</event>
<event>
 7    1  0.1358622E-013  0.7246158E+02  0.7816164E-02  0.1226708E+00
        -11   -1    0    0    0    0  0.00000000000E+00  0.00000000000E+00  0.45593999997E+02  0.45594000000E+02  0.51100000000E-03 0. -1.
         11   -1    0    0    0    0 -0.00000000000E+00 -0.00000000000E+00 -0.45593999997E+02  0.45594000000E+02  0.51100000000E-03 0.  1.
    9900012    2    1    2    0    0  0.63304964651E+01  0.17513549669E+02  0.19695672603E+01  0.72461580088E+02  0.70000012759E+02 0.  0.
        -12    1    1    2    0    0 -0.63304964651E+01 -0.17513549669E+02 -0.19695672603E+01  0.18726419912E+02  0.00000000000E+00 0.  1.
         11    1    3    3    0    0 -0.22393040883E+02  0.73840082887E+01 -0.10904719550E+02  0.25978544361E+02  0.51100000000E-03 0. -1.
        -11    1    3    3    0    0  0.41588642050E+01 -0.21795674702E+01 -0.97950527067E+01  0.10862307472E+02  0.51100000000E-03 0.  1.
        -12    1    3    3    0    0  0.24564673143E+02  0.12309108851E+02  0.22669339517E+02  0.35620728255E+02  0.00000000000E+00 0.  1.
</event>
<event>
 7    1  0.1358622E-013  0.7246170E+02  0.7816164E-02  0.1226708E+00
        -11   -1    0    0    0    0  0.00000000000E+00  0.00000000000E+00  0.45593999997E+02  0.45594000000E+02  0.51100000000E-03 0. -1.
         11   -1    0    0    0    0 -0.00000000000E+00 -0.00000000000E+00 -0.45593999997E+02  0.45594000000E+02  0.51100000000E-03 0.  1.
    9900012    2    1    2    0    0  0.11684729179E+02 -0.10701744526E+02  0.99806906044E+01  0.72461697193E+02  0.70000165309E+02 0.  0.
        -12    1    1    2    0    0 -0.11684729179E+02  0.10701744526E+02 -0.99806906044E+01  0.18726302807E+02  0.00000000000E+00 0.  1.
         11    1    3    3    0    0 -0.49913397167E+01  0.11905448329E+02  0.10530919275E+02  0.16659934968E+02  0.51100000000E-03 0. -1.
        -11    1    3    3    0    0 -0.14392167466E+01 -0.25936284912E+02  0.16441738995E+02  0.30742364927E+02  0.51100000000E-03 0.  1.
         12    1    3    3    0    0  0.18115285642E+02  0.33290920563E+01 -0.16991967665E+02  0.25059397298E+02  0.00000000000E+00 0. -1.
</event>
<event>
 7    1  0.1358622E-013  0.7246151E+02  0.7816164E-02  0.1226708E+00
        -11   -1    0    0    0    0  0.00000000000E+00  0.00000000000E+00  0.45593999997E+02  0.45594000000E+02  0.51100000000E-03 0.  1.
         11   -1    0    0    0    0 -0.00000000000E+00 -0.00000000000E+00 -0.45593999997E+02  0.45594000000E+02  0.51100000000E-03 0. -1.
    9900012    2    1    2    0    0  0.25365868176E+01  0.14392062658E+02 -0.11709637186E+02  0.72461512255E+02  0.69999924393E+02 0.  0.
        -12    1    1    2    0    0 -0.25365868176E+01 -0.14392062658E+02  0.11709637186E+02  0.18726487745E+02  0.00000000000E+00 0.  1.
         11    1    3    3    0    0 -0.78280285349E+01 -0.97803434694E+01 -0.19856157982E+02  0.23477652336E+02  0.51100000000E-03 0. -1.
        -11    1    3    3    0    0 -0.15098439621E+02  0.78811650601E+01  0.78503225581E+01  0.18753751791E+02  0.51100000000E-03 0.  1.
        -12    1    3    3    0    0  0.25463054974E+02  0.16291241067E+02  0.29619823763E+00  0.30230108129E+02  0.00000000000E+00 0.  1.
</event>
<event>
 7    1  0.1358622E-013  0.7246161E+02  0.7816164E-02  0.1226708E+00
        -11   -1    0    0    0    0  0.00000000000E+00  0.00000000000E+00  0.45593999997E+02  0.45594000000E+02  0.51100000000E-03 0.  1.
         11   -1    0    0    0    0 -0.00000000000E+00 -0.00000000000E+00 -0.45593999997E+02  0.45594000000E+02  0.51100000000E-03 0. -1.
    9900012    2    1    2    0    0  0.39163220894E+01  0.13829199567E+02  0.12003886545E+02  0.72461611358E+02  0.70000053493E+02 0.  0.
        -12    1    1    2    0    0 -0.39163220894E+01 -0.13829199567E+02 -0.12003886545E+02  0.18726388642E+02  0.00000000000E+00 0.  1.
         11    1    3    3    0    0  0.35364297774E+01 -0.93043250061E+01  0.32581683461E+01  0.10473416855E+02  0.51100000000E-03 0. -1.
        -11    1    3    3    0    0  0.99180465781E+00  0.41869375880E+02  0.10449647691E+02  0.43165072110E+02  0.51100000000E-03 0.  1.
         12    1    3    3    0    0 -0.61191234579E+00 -0.18735851307E+02 -0.17039294919E+01  0.18823122394E+02  0.00000000000E+00 0. -1.
</event>
<event>
 7    1  0.1358622E-013  0.7246152E+02  0.7816164E-02  0.1226708E+00
        -11   -1    0    0    0    0  0.00000000000E+00  0.00000000000E+00  0.45593999997E+02  0.45594000000E+02  0.51100000000E-03 0.  1.
         11   -1    0    0    0    0 -0.00000000000E+00 -0.00000000000E+00 -0.45593999997E+02  0.45594000000E+02  0.51100000000E-03 0. -1.
    9900012    2    1    2    0    0 -0.12546843381E+02 -0.13462579877E+02 -0.34665152364E+01  0.72461519721E+02  0.69999934119E+02 0.  0.
        -12    1    1    2    0    0  0.12546843381E+02  0.13462579877E+02  0.34665152364E+01  0.18726480279E+02  0.00000000000E+00 0.  1.
         11    1    3    3    0    0  0.19979885612E+02  0.61343097163E+00  0.80796372957E+00  0.20005622516E+02  0.51100000000E-03 0. -1.
        -11    1    3    3    0    0  0.29829623806E+01 -0.12899268466E+02  0.72621801573E+01  0.15100610995E+02  0.51100000000E-03 0.  1.
        -12    1    3    3    0    0 -0.35509691374E+02 -0.11767423822E+01 -0.11536659123E+02  0.37355286210E+02  0.00000000000E+00 0.  1.
</event>
<event>
 7    1  0.1358622E-013  0.7246159E+02  0.7816164E-02  0.1226708E+00
        -11   -1    0    0    0    0  0.00000000000E+00  0.00000000000E+00  0.45593999997E+02  0.45594000000E+02  0.51100000000E-03 0. -1.
         11   -1    0    0    0    0 -0.00000000000E+00 -0.00000000000E+00 -0.45593999997E+02  0.45594000000E+02  0.51100000000E-03 0.  1.
    9900012    2    1    2    0    0  0.11272322474E+02 -0.80349759007E+01  0.12611598539E+02  0.72461587920E+02  0.70000022961E+02 0.  0.
        -12    1    1    2    0    0 -0.11272322474E+02  0.80349759007E+01 -0.12611598539E+02  0.18726412080E+02  0.00000000000E+00 0.  1.
         11    1    3    3    0    0  0.10862901222E+02 -0.39339477510E+01  0.21705261212E+02  0.24588552873E+02  0.51100000000E-03 0. -1.
        -11    1    3    3    0    0  0.20785403047E+02 -0.91108899385E+01 -0.13536567450E+02  0.26424987301E+02  0.51100000000E-03 0.  1.
         12    1    3    3    0    0 -0.20375981795E+02  0.50098617887E+01  0.44429047771E+01  0.21448047745E+02  0.00000000000E+00 0. -1.
</event>
<event>
 7    1  0.1358622E-013  0.7246152E+02  0.7816164E-02  0.1226708E+00
        -11   -1    0    0    0    0  0.00000000000E+00  0.00000000000E+00  0.45593999997E+02  0.45594000000E+02  0.51100000000E-03 0.  1.
         11   -1    0    0    0    0 -0.00000000000E+00 -0.00000000000E+00 -0.45593999997E+02  0.45594000000E+02  0.51100000000E-03 0. -1.
    9900012    2    1    2    0    0 -0.23098162696E+01  0.12500387923E+02 -0.13750855837E+02  0.72461521803E+02  0.69999936830E+02 0.  0.
        -12    1    1    2    0    0  0.23098162696E+01 -0.12500387923E+02  0.13750855837E+02  0.18726478197E+02  0.00000000000E+00 0.  1.
         11    1    3    3    0    0  0.12307689799E+02  0.23529287937E+02  0.83902078746E+01  0.27847840266E+02  0.51100000000E-03 0. -1.
        -11    1    3    3    0    0 -0.56945750550E+01  0.11755925353E+02 -0.26467719456E+01  0.13327991895E+02  0.51100000000E-03 0.  1.
        -12    1    3    3    0    0 -0.89229310139E+01 -0.22784825367E+02 -0.19494291766E+02  0.31285689642E+02  0.00000000000E+00 0.  1.
</event>
<event>
 7    1  0.1358622E-013  0.7246159E+02  0.7816164E-02  0.1226708E+00
        -11   -1    0    0    0    0  0.00000000000E+00  0.00000000000E+00  0.45593999997E+02  0.45594000000E+02  0.51100000000E-03 0. -1.
         11   -1    0    0    0    0 -0.00000000000E+00 -0.00000000000E+00 -0.45593999997E+02  0.45594000000E+02  0.51100000000E-03 0.  1.
    9900012    2    1    2    0    0 -0.77659967913E+01  0.57752018328E+01  0.16031678299E+02  0.72461591603E+02  0.70000027758E+02 0.  0.
        -12    1    1    2    0    0  0.77659967913E+01 -0.57752018328E+01 -0.16031678299E+02  0.18726408397E+02  0.00000000000E+00 0.  1.
         11    1    3    3    0    0  0.24664164247E+01  0.33997251054E+02  0.18715934025E+02  0.38886790507E+02  0.51100000000E-03 0. -1.
        -11    1    3    3    0    0  0.31646102557E+01 -0.11903749594E+02 -0.22932518919E+00  0.12319358862E+02  0.51100000000E-03 0.  1.
        -12    1    3    3    0    0 -0.13397023472E+02 -0.16318299627E+02 -0.24549305363E+01  0.21255442234E+02  0.00000000000E+00 0.  1.
</event>
<event>
 7    1  0.1358622E-013  0.7246156E+02  0.7816164E-02  0.1226708E+00
        -11   -1    0    0    0    0  0.00000000000E+00  0.00000000000E+00  0.45593999997E+02  0.45594000000E+02  0.51100000000E-03 0.  1.
         11   -1    0    0    0    0 -0.00000000000E+00 -0.00000000000E+00 -0.45593999997E+02  0.45594000000E+02  0.51100000000E-03 0. -1.
    9900012    2    1    2    0    0 -0.11778391442E+01  0.67009180096E+01 -0.17446770360E+02  0.72461564054E+02  0.69999991871E+02 0.  0.
        -12    1    1    2    0    0  0.11778391442E+01 -0.67009180096E+01  0.17446770360E+02  0.18726435946E+02  0.00000000000E+00 0.  1.
         11    1    3    3    0    0  0.56419893379E+01  0.10571449137E+02 -0.22508769394E+02  0.25499652555E+02  0.51100000000E-03 0. -1.
        -11    1    3    3    0    0 -0.16230998080E+02 -0.16494824582E+02 -0.99652588564E+01  0.25195851266E+02  0.51100000000E-03 0.  1.
        -12    1    3    3    0    0  0.94111695982E+01  0.12624293454E+02  0.15027257890E+02  0.21766060234E+02  0.00000000000E+00 0.  1.
</event>
<event>
 7    1  0.1358622E-013  0.7246185E+02  0.7816164E-02  0.1226707E+00
        -11   -1    0    0    0    0  0.00000000000E+00  0.00000000000E+00  0.45593999997E+02  0.45594000000E+02  0.51100000000E-03 0. -1.
         11   -1    0    0    0    0 -0.00000000000E+00 -0.00000000000E+00 -0.45593999997E+02  0.45594000000E+02  0.51100000000E-03 0.  1.
    9900012    2    1    2    0    0  0.16081989662E+02  0.77469755505E+00  0.95623309213E+01  0.72461849290E+02  0.70000363442E+02 0.  0.
        -12    1    1    2    0    0 -0.16081989662E+02 -0.77469755505E+00 -0.95623309213E+01  0.18726150710E+02  0.00000000000E+00 0.  1.
         11    1    3    3    0    0  0.28708009014E+01  0.47870154237E+01  0.23640080798E+02  0.24290130400E+02  0.51100000000E-03 0. -1.
        -11    1    3    3    0    0  0.42826264029E+01  0.19179767706E+00  0.15974927704E+02  0.16540132728E+02  0.51100000000E-03 0.  1.
        -12    1    3    3    0    0  0.89285623574E+01 -0.42041155457E+01 -0.30052677581E+02  0.31631586161E+02  0.00000000000E+00 0.  1.
</event>
<event>
 7    1  0.1358622E-013  0.7246152E+02  0.7816164E-02  0.1226708E+00
        -11   -1    0    0    0    0  0.00000000000E+00  0.00000000000E+00  0.45593999997E+02  0.45594000000E+02  0.51100000000E-03 0.  1.
         11   -1    0    0    0    0 -0.00000000000E+00 -0.00000000000E+00 -0.45593999997E+02  0.45594000000E+02  0.51100000000E-03 0. -1.
    9900012    2    1    2    0    0 -0.80581561578E+01  0.12382864869E+02 -0.11507040296E+02  0.72461516096E+02  0.69999929397E+02 0.  0.
        -12    1    1    2    0    0  0.80581561578E+01 -0.12382864869E+02  0.11507040296E+02  0.18726483904E+02  0.00000000000E+00 0.  1.
         11    1    3    3    0    0 -0.21841432256E+02 -0.16938996491E+02  0.42197724878E+01  0.27960404955E+02  0.51100000000E-03 0. -1.
        -11    1    3    3    0    0 -0.20068999952E+01 -0.64200463919E+00 -0.99148524030E+01  0.10136277225E+02  0.51100000000E-03 0.  1.
        -12    1    3    3    0    0  0.15790176093E+02  0.29963865999E+02 -0.58119603805E+01  0.34364833917E+02  0.00000000000E+00 0.  1.
</event>
<event>
 7    1  0.1358622E-013  0.7246157E+02  0.7816164E-02  0.1226708E+00
        -11   -1    0    0    0    0  0.00000000000E+00  0.00000000000E+00  0.45593999997E+02  0.45594000000E+02  0.51100000000E-03 0.  1.
         11   -1    0    0    0    0 -0.00000000000E+00 -0.00000000000E+00 -0.45593999997E+02  0.45594000000E+02  0.51100000000E-03 0. -1.
    9900012    2    1    2    0    0 -0.48365622693E+01 -0.78430620377E-01 -0.18090905968E+02  0.72461565083E+02  0.69999993212E+02 0.  0.
        -12    1    1    2    0    0  0.48365622693E+01  0.78430620377E-01  0.18090905968E+02  0.18726434917E+02  0.00000000000E+00 0.  1.
         11    1    3    3    0    0  0.76166143153E+01  0.97333761510E+01 -0.18746067705E+01  0.12500623014E+02  0.51100000000E-03 0. -1.
        -11    1    3    3    0    0 -0.21096373779E+02  0.68168993920E+01  0.12664362933E+02  0.25532590795E+02  0.51100000000E-03 0.  1.
         12    1    3    3    0    0  0.86431971940E+01 -0.16628706163E+02 -0.28880662131E+02  0.34428351275E+02  0.00000000000E+00 0. -1.
</event>
<event>
 7    1  0.1358622E-013  0.7246115E+02  0.7816164E-02  0.1226709E+00
        -11   -1    0    0    0    0  0.00000000000E+00  0.00000000000E+00  0.45593999997E+02  0.45594000000E+02  0.51100000000E-03 0.  1.
         11   -1    0    0    0    0 -0.00000000000E+00 -0.00000000000E+00 -0.45593999997E+02  0.45594000000E+02  0.51100000000E-03 0. -1.
    9900012    2    1    2    0    0 -0.11490182539E+02 -0.10625600069E+02 -0.10284321998E+02  0.72461148942E+02  0.69999451108E+02 0.  0.
        -12    1    1    2    0    0  0.11490182539E+02  0.10625600069E+02  0.10284321998E+02  0.18726851058E+02  0.00000000000E+00 0.  1.
         11    1    3    3    0    0 -0.12321743236E+02 -0.23099473070E-01 -0.28746603496E+02  0.31276078763E+02  0.51100000000E-03 0. -1.
        -11    1    3    3    0    0 -0.12419525655E+02  0.41603814779E+01 -0.13265771284E+01  0.13164847082E+02  0.51100000000E-03 0.  1.
        -12    1    3    3    0    0  0.13251086353E+02 -0.14762882073E+02  0.19788858626E+02  0.28020223097E+02  0.00000000000E+00 0.  1.
</event>
<event>
 7    1  0.1358622E-013  0.7246159E+02  0.7816164E-02  0.1226708E+00
        -11   -1    0    0    0    0  0.00000000000E+00  0.00000000000E+00  0.45593999997E+02  0.45594000000E+02  0.51100000000E-03 0. -1.
         11   -1    0    0    0    0 -0.00000000000E+00 -0.00000000000E+00 -0.45593999997E+02  0.45594000000E+02  0.51100000000E-03 0.  1.
    9900012    2    1    2    0    0 -0.14242555528E+02  0.12138475656E+02 -0.69671711776E+00  0.72461591002E+02  0.70000026976E+02 0.  0.
        -12    1    1    2    0    0  0.14242555528E+02 -0.12138475656E+02  0.69671711776E+00  0.18726408998E+02  0.00000000000E+00 0.  1.
         11    1    3    3    0    0  0.96466470541E+01  0.63499443122E+01  0.26368939191E+02  0.28787159403E+02  0.51100000000E-03 0. -1.
        -11    1    3    3    0    0  0.47997475129E+01  0.24531799969E+01 -0.40046593079E+01  0.67151295384E+01  0.51100000000E-03 0.  1.
        -12    1    3    3    0    0 -0.28688950095E+02  0.33353513466E+01 -0.23060997001E+02  0.36959302061E+02  0.00000000000E+00 0.  1.
</event>
<event>
 7    1  0.1358622E-013  0.7246164E+02  0.7816164E-02  0.1226708E+00
        -11   -1    0    0    0    0  0.00000000000E+00  0.00000000000E+00  0.45593999997E+02  0.45594000000E+02  0.51100000000E-03 0.  1.
         11   -1    0    0    0    0 -0.00000000000E+00 -0.00000000000E+00 -0.45593999997E+02  0.45594000000E+02  0.51100000000E-03 0. -1.
    9900012    2    1    2    0    0  0.24421763888E+01 -0.77282761377E+01 -0.16881526388E+02  0.72461643954E+02  0.70000095956E+02 0.  0.
        -12    1    1    2    0    0 -0.24421763888E+01  0.77282761377E+01  0.16881526388E+02  0.18726356046E+02  0.00000000000E+00 0.  1.
         11    1    3    3    0    0  0.32547210548E+01 -0.34498513357E+01  0.16368129048E+01  0.50173538972E+01  0.51100000000E-03 0. -1.
        -11    1    3    3    0    0  0.16216319660E+02 -0.10996207610E+02  0.17992643075E+02  0.26601143024E+02  0.51100000000E-03 0.  1.
         12    1    3    3    0    0 -0.17028864326E+02  0.67177828081E+01 -0.36510982367E+02  0.40843147033E+02  0.00000000000E+00 0. -1.
</event>
<event>
 7    1  0.1358622E-013  0.7246156E+02  0.7816164E-02  0.1226708E+00
        -11   -1    0    0    0    0  0.00000000000E+00  0.00000000000E+00  0.45593999997E+02  0.45594000000E+02  0.51100000000E-03 0. -1.
         11   -1    0    0    0    0 -0.00000000000E+00 -0.00000000000E+00 -0.45593999997E+02  0.45594000000E+02  0.51100000000E-03 0.  1.
    9900012    2    1    2    0    0  0.26688905936E+01  0.11633680542E+02  0.14429626485E+02  0.72461558254E+02  0.69999984315E+02 0.  0.
        -12    1    1    2    0    0 -0.26688905936E+01 -0.11633680542E+02 -0.14429626485E+02  0.18726441746E+02  0.00000000000E+00 0.  1.
         11    1    3    3    0    0  0.10763184914E+01 -0.13492204590E+01  0.13090279062E+02  0.13203570105E+02  0.51100000000E-03 0. -1.
        -11    1    3    3    0    0  0.43125725999E+01  0.32456468961E+02  0.14278759061E+02  0.35719793118E+02  0.51100000000E-03 0.  1.
        -12    1    3    3    0    0 -0.27200004977E+01 -0.19473567960E+02 -0.12939411638E+02  0.23538195031E+02  0.00000000000E+00 0.  1.
</event>
<event>
 7    1  0.1358622E-013  0.7246158E+02  0.7816164E-02  0.1226708E+00
        -11   -1    0    0    0    0  0.00000000000E+00  0.00000000000E+00  0.45593999997E+02  0.45594000000E+02  0.51100000000E-03 0.  1.
         11   -1    0    0    0    0 -0.00000000000E+00 -0.00000000000E+00 -0.45593999997E+02  0.45594000000E+02  0.51100000000E-03 0. -1.
    9900012    2    1    2    0    0 -0.18258055948E+02  0.41533177876E+01  0.26857258382E+00  0.72461580511E+02  0.70000013309E+02 0.  0.
        -12    1    1    2    0    0  0.18258055948E+02 -0.41533177876E+01 -0.26857258382E+00  0.18726419489E+02  0.00000000000E+00 0.  1.
         11    1    3    3    0    0 -0.32540612433E+02  0.13485495976E+01  0.53318550897E+01  0.33002101789E+02  0.51100000000E-03 0. -1.
        -11    1    3    3    0    0  0.14773749069E+02  0.69413801167E+01  0.13034250672E+02  0.20888707723E+02  0.51100000000E-03 0.  1.
        -12    1    3    3    0    0 -0.49119258398E+00 -0.41366119267E+01 -0.18097533178E+02  0.18570771000E+02  0.00000000000E+00 0.  1.
</event>
<event>
 7    1  0.1358622E-013  0.7246160E+02  0.7816164E-02  0.1226708E+00
        -11   -1    0    0    0    0  0.00000000000E+00  0.00000000000E+00  0.45593999997E+02  0.45594000000E+02  0.51100000000E-03 0.  1.
         11   -1    0    0    0    0 -0.00000000000E+00 -0.00000000000E+00 -0.45593999997E+02  0.45594000000E+02  0.51100000000E-03 0. -1.
    9900012    2    1    2    0    0 -0.11629582862E+02 -0.32532693862E+01 -0.14312483292E+02  0.72461597857E+02  0.70000035905E+02 0.  0.
        -12    1    1    2    0    0  0.11629582862E+02  0.32532693862E+01  0.14312483292E+02  0.18726402143E+02  0.00000000000E+00 0.  1.
         11    1    3    3    0    0 -0.23751584189E+02 -0.67561418231E+01 -0.19066727341E+02  0.31198129681E+02  0.51100000000E-03 0. -1.
        -11    1    3    3    0    0 -0.94535856713E+01 -0.93507541324E+01  0.86300834823E+01  0.15851978617E+02  0.51100000000E-03 0.  1.
        -12    1    3    3    0    0  0.21575586998E+02  0.12853626569E+02 -0.38758394328E+01  0.25411489559E+02  0.00000000000E+00 0.  1.
</event>
<event>
 7    1  0.1358622E-013  0.7246164E+02  0.7816164E-02  0.1226708E+00
        -11   -1    0    0    0    0  0.00000000000E+00  0.00000000000E+00  0.45593999997E+02  0.45594000000E+02  0.51100000000E-03 0.  1.
         11   -1    0    0    0    0 -0.00000000000E+00 -0.00000000000E+00 -0.45593999997E+02  0.45594000000E+02  0.51100000000E-03 0. -1.
    9900012    2    1    2    0    0 -0.87228373465E+01  0.12515477822E+02 -0.10860555093E+02  0.72461635339E+02  0.70000084732E+02 0.  0.
        -12    1    1    2    0    0  0.87228373465E+01 -0.12515477822E+02  0.10860555093E+02  0.18726364661E+02  0.00000000000E+00 0.  1.
         11    1    3    3    0    0 -0.21160845638E+01  0.65340522262E+01 -0.14420299867E+01  0.70179130174E+01  0.51100000000E-03 0.  1.
        -11    1    3    3    0    0 -0.11476607800E+02  0.29357394491E+02  0.11644926087E+02  0.33603176066E+02  0.51100000000E-03 0. -1.
         12    1    3    3    0    0  0.48698550170E+01 -0.23375968895E+02 -0.21063451193E+02  0.31840546255E+02  0.00000000000E+00 0. -1.
</event>
<event>
 7    1  0.1358622E-013  0.7246157E+02  0.7816164E-02  0.1226708E+00
        -11   -1    0    0    0    0  0.00000000000E+00  0.00000000000E+00  0.45593999997E+02  0.45594000000E+02  0.51100000000E-03 0.  1.
         11   -1    0    0    0    0 -0.00000000000E+00 -0.00000000000E+00 -0.45593999997E+02  0.45594000000E+02  0.51100000000E-03 0. -1.
    9900012    2    1    2    0    0 -0.73127381307E+01 -0.41417275896E+01 -0.16734666440E+02  0.72461571957E+02  0.70000002165E+02 0.  0.
        -12    1    1    2    0    0  0.73127381307E+01  0.41417275896E+01  0.16734666440E+02  0.18726428043E+02  0.00000000000E+00 0.  1.
         11    1    3    3    0    0  0.20059380754E+01  0.11300122110E+02 -0.10188832688E+02  0.15346949504E+02  0.51100000000E-03 0. -1.
        -11    1    3    3    0    0 -0.31718526388E+02 -0.83040413026E+01 -0.29761874572E+00  0.32788879141E+02  0.51100000000E-03 0.  1.
         12    1    3    3    0    0  0.22399850182E+02 -0.71378083973E+01 -0.62482150064E+01  0.24325743311E+02  0.00000000000E+00 0. -1.
</event>
<event>
 7    1  0.1358622E-013  0.7246156E+02  0.7816164E-02  0.1226708E+00
        -11   -1    0    0    0    0  0.00000000000E+00  0.00000000000E+00  0.45593999997E+02  0.45594000000E+02  0.51100000000E-03 0.  1.
         11   -1    0    0    0    0 -0.00000000000E+00 -0.00000000000E+00 -0.45593999997E+02  0.45594000000E+02  0.51100000000E-03 0. -1.
    9900012    2    1    2    0    0 -0.16095926733E+02  0.21287046083E+01 -0.93310853042E+01  0.72461564310E+02  0.69999992204E+02 0.  0.
        -12    1    1    2    0    0  0.16095926733E+02 -0.21287046083E+01  0.93310853042E+01  0.18726435690E+02  0.00000000000E+00 0.  1.
         11    1    3    3    0    0 -0.36675021545E+01  0.38469533620E+01 -0.10307863824E+02  0.11597485895E+02  0.51100000000E-03 0. -1.
        -11    1    3    3    0    0 -0.29085921859E+02 -0.20402614986E+02 -0.23828975512E+01  0.35608085453E+02  0.51100000000E-03 0.  1.
         12    1    3    3    0    0  0.16657497281E+02  0.18684366232E+02  0.33596760707E+01  0.25255992961E+02  0.00000000000E+00 0. -1.
</event>
<event>
 7    1  0.1358622E-013  0.7246158E+02  0.7816164E-02  0.1226708E+00
        -11   -1    0    0    0    0  0.00000000000E+00  0.00000000000E+00  0.45593999997E+02  0.45594000000E+02  0.51100000000E-03 0.  1.
         11   -1    0    0    0    0 -0.00000000000E+00 -0.00000000000E+00 -0.45593999997E+02  0.45594000000E+02  0.51100000000E-03 0. -1.
    9900012    2    1    2    0    0  0.10804931587E+02 -0.93780035056E+01 -0.12082436466E+02  0.72461581033E+02  0.70000013990E+02 0.  0.
        -12    1    1    2    0    0 -0.10804931587E+02  0.93780035056E+01  0.12082436466E+02  0.18726418967E+02  0.00000000000E+00 0.  1.
         11    1    3    3    0    0  0.15086988807E+02 -0.10462979401E+02 -0.10799815418E+02  0.21300872812E+02  0.51100000000E-03 0. -1.
        -11    1    3    3    0    0  0.41450817162E+01 -0.19104752447E+02 -0.15603194878E+02  0.25012655980E+02  0.51100000000E-03 0.  1.
        -12    1    3    3    0    0 -0.84271389366E+01  0.20189728343E+02  0.14320573830E+02  0.26148052242E+02  0.00000000000E+00 0.  1.
</event>
<event>
 7    1  0.1358622E-013  0.7246159E+02  0.7816164E-02  0.1226708E+00
        -11   -1    0    0    0    0  0.00000000000E+00  0.00000000000E+00  0.45593999997E+02  0.45594000000E+02  0.51100000000E-03 0.  1.
         11   -1    0    0    0    0 -0.00000000000E+00 -0.00000000000E+00 -0.45593999997E+02  0.45594000000E+02  0.51100000000E-03 0. -1.
    9900012    2    1    2    0    0  0.84851832959E+01  0.12682000047E+02 -0.10855734180E+02  0.72461590164E+02  0.70000025884E+02 0.  0.
        -12    1    1    2    0    0 -0.84851832959E+01 -0.12682000047E+02  0.10855734180E+02  0.18726409836E+02  0.00000000000E+00 0.  1.
         11    1    3    3    0    0  0.25081205328E+02  0.37234470039E+01 -0.27975116697E+01  0.25509939045E+02  0.51100000000E-03 0. -1.
        -11    1    3    3    0    0 -0.91375313648E+01 -0.40016838091E+01  0.15864496859E+02  0.18740069733E+02  0.51100000000E-03 0.  1.
         12    1    3    3    0    0 -0.74584906670E+01  0.12960236852E+02 -0.23922719369E+02  0.28211581386E+02  0.00000000000E+00 0. -1.
</event>
<event>
 7    1  0.1358622E-013  0.7246159E+02  0.7816164E-02  0.1226708E+00
        -11   -1    0    0    0    0  0.00000000000E+00  0.00000000000E+00  0.45593999997E+02  0.45594000000E+02  0.51100000000E-03 0.  1.
         11   -1    0    0    0    0 -0.00000000000E+00 -0.00000000000E+00 -0.45593999997E+02  0.45594000000E+02  0.51100000000E-03 0. -1.
    9900012    2    1    2    0    0 -0.74769738389E+01  0.11773357393E+02 -0.12496450707E+02  0.72461591846E+02  0.70000028075E+02 0.  0.
        -12    1    1    2    0    0  0.74769738389E+01 -0.11773357393E+02  0.12496450707E+02  0.18726408154E+02  0.00000000000E+00 0.  1.
         11    1    3    3    0    0  0.15920442435E+02 -0.37889007374E+01 -0.23574226159E+02  0.28697741991E+02  0.51100000000E-03 0. -1.
        -11    1    3    3    0    0  0.58308235196E+01  0.93106208249E+01  0.82548451848E+01  0.13741493090E+02  0.51100000000E-03 0.  1.
        -12    1    3    3    0    0 -0.29228239793E+02  0.62516373051E+01  0.28229302670E+01  0.30022356765E+02  0.00000000000E+00 0.  1.
</event>
<event>
 7    1  0.1358622E-013  0.7246158E+02  0.7816164E-02  0.1226708E+00
        -11   -1    0    0    0    0  0.00000000000E+00  0.00000000000E+00  0.45593999997E+02  0.45594000000E+02  0.51100000000E-03 0.  1.
         11   -1    0    0    0    0 -0.00000000000E+00 -0.00000000000E+00 -0.45593999997E+02  0.45594000000E+02  0.51100000000E-03 0. -1.
    9900012    2    1    2    0    0 -0.11801679553E+02  0.10843409306E+02 -0.96860476753E+01  0.72461583225E+02  0.70000016845E+02 0.  0.
        -12    1    1    2    0    0  0.11801679553E+02 -0.10843409306E+02  0.96860476753E+01  0.18726416775E+02  0.00000000000E+00 0.  1.
         11    1    3    3    0    0 -0.16956735210E+01 -0.14193147728E+02 -0.29136906807E+01  0.14588020591E+02  0.51100000000E-03 0. -1.
        -11    1    3    3    0    0  0.15896698116E+02  0.23957897909E+02  0.52136408669E+01  0.29221018712E+02  0.51100000000E-03 0.  1.
         12    1    3    3    0    0 -0.26002704148E+02  0.10786591252E+01 -0.11985997862E+02  0.28652543923E+02  0.00000000000E+00 0. -1.
</event>
<event>
 7    1  0.1358622E-013  0.7246159E+02  0.7816164E-02  0.1226708E+00
        -11   -1    0    0    0    0  0.00000000000E+00  0.00000000000E+00  0.45593999997E+02  0.45594000000E+02  0.51100000000E-03 0.  1.
         11   -1    0    0    0    0 -0.00000000000E+00 -0.00000000000E+00 -0.45593999997E+02  0.45594000000E+02  0.51100000000E-03 0. -1.
    9900012    2    1    2    0    0  0.68998307528E+01  0.15980153489E+02 -0.69069204248E+01  0.72461587645E+02  0.70000022602E+02 0.  0.
        -12    1    1    2    0    0 -0.68998307528E+01 -0.15980153489E+02  0.69069204248E+01  0.18726412355E+02  0.00000000000E+00 0.  1.
         11    1    3    3    0    0 -0.67050025472E+01  0.14954243069E+02  0.46770287578E+01  0.17042917684E+02  0.51100000000E-03 0. -1.
        -11    1    3    3    0    0  0.16436533830E+02 -0.15033375679E+02  0.13095023623E+02  0.25838762985E+02  0.51100000000E-03 0.  1.
         12    1    3    3    0    0 -0.28317005300E+01  0.16059286099E+02 -0.24678972806E+02  0.29579906975E+02  0.00000000000E+00 0. -1.
</event>
<event>
 7    1  0.1358622E-013  0.7246160E+02  0.7816164E-02  0.1226708E+00
        -11   -1    0    0    0    0  0.00000000000E+00  0.00000000000E+00  0.45593999997E+02  0.45594000000E+02  0.51100000000E-03 0. -1.
         11   -1    0    0    0    0 -0.00000000000E+00 -0.00000000000E+00 -0.45593999997E+02  0.45594000000E+02  0.51100000000E-03 0.  1.
    9900012    2    1    2    0    0 -0.17815443710E+02 -0.57589679233E+01 -0.34976123471E+00  0.72461599410E+02  0.70000037929E+02 0.  0.
        -12    1    1    2    0    0  0.17815443710E+02  0.57589679233E+01  0.34976123471E+00  0.18726400590E+02  0.00000000000E+00 0.  1.
         11    1    3    3    0    0 -0.81537806036E+01  0.18499790872E+01  0.72642396910E+01  0.11075908058E+02  0.51100000000E-03 0. -1.
        -11    1    3    3    0    0 -0.20872253230E+02  0.17106051816E+02  0.10280641575E+02  0.28878357901E+02  0.51100000000E-03 0.  1.
        -12    1    3    3    0    0  0.11210590124E+02 -0.24714998826E+02 -0.17894642501E+02  0.32507333451E+02  0.00000000000E+00 0.  1.
</event>
<event>
 7    1  0.1358622E-013  0.7246159E+02  0.7816164E-02  0.1226708E+00
        -11   -1    0    0    0    0  0.00000000000E+00  0.00000000000E+00  0.45593999997E+02  0.45594000000E+02  0.51100000000E-03 0.  1.
         11   -1    0    0    0    0 -0.00000000000E+00 -0.00000000000E+00 -0.45593999997E+02  0.45594000000E+02  0.51100000000E-03 0. -1.
    9900012    2    1    2    0    0  0.13582000923E+02  0.12280808567E+02 -0.39229354209E+01  0.72461590027E+02  0.70000025706E+02 0.  0.
        -12    1    1    2    0    0 -0.13582000923E+02 -0.12280808567E+02  0.39229354209E+01  0.18726409973E+02  0.00000000000E+00 0.  1.
         11    1    3    3    0    0  0.79627843924E+01 -0.15538372846E+02  0.13765282627E+02  0.22233532604E+02  0.51100000000E-03 0. -1.
        -11    1    3    3    0    0 -0.43974476887E+01  0.15711274163E+02  0.94604439508E+01  0.18859524967E+02  0.51100000000E-03 0.  1.
        -12    1    3    3    0    0  0.10016664220E+02  0.12107907251E+02 -0.27148661999E+02  0.31368532456E+02  0.00000000000E+00 0.  1.
</event>
<event>
 7    1  0.1358622E-013  0.7246157E+02  0.7816164E-02  0.1226708E+00
        -11   -1    0    0    0    0  0.00000000000E+00  0.00000000000E+00  0.45593999997E+02  0.45594000000E+02  0.51100000000E-03 0.  1.
         11   -1    0    0    0    0 -0.00000000000E+00 -0.00000000000E+00 -0.45593999997E+02  0.45594000000E+02  0.51100000000E-03 0. -1.
    9900012    2    1    2    0    0  0.18697403028E+02  0.93851153263E+00 -0.45325652328E+00  0.72461571474E+02  0.70000001536E+02 0.  0.
        -12    1    1    2    0    0 -0.18697403028E+02 -0.93851153263E+00  0.45325652328E+00  0.18726428526E+02  0.00000000000E+00 0.  1.
         11    1    3    3    0    0  0.35128098962E+02  0.15344141148E+02  0.48078716573E+01  0.38633426387E+02  0.51100000000E-03 0. -1.
        -11    1    3    3    0    0 -0.57759922475E+01 -0.12612881172E+01  0.96223068157E+01  0.11293437159E+02  0.51100000000E-03 0.  1.
        -12    1    3    3    0    0 -0.10654703687E+02 -0.13144341498E+02 -0.14883434996E+02  0.22534707927E+02  0.00000000000E+00 0.  1.
</event>
<event>
 7    1  0.1358622E-013  0.7246154E+02  0.7816164E-02  0.1226708E+00
        -11   -1    0    0    0    0  0.00000000000E+00  0.00000000000E+00  0.45593999997E+02  0.45594000000E+02  0.51100000000E-03 0.  1.
         11   -1    0    0    0    0 -0.00000000000E+00 -0.00000000000E+00 -0.45593999997E+02  0.45594000000E+02  0.51100000000E-03 0. -1.
    9900012    2    1    2    0    0  0.15728393103E+02 -0.67033363253E+01 -0.76395867217E+01  0.72461538701E+02  0.69999958844E+02 0.  0.
        -12    1    1    2    0    0 -0.15728393103E+02  0.67033363253E+01  0.76395867217E+01  0.18726461299E+02  0.00000000000E+00 0.  1.
         11    1    3    3    0    0 -0.14187643275E+01 -0.61413082535E+01 -0.46843087201E+01  0.78531081571E+01  0.51100000000E-03 0. -1.
        -11    1    3    3    0    0  0.45976314893E+00 -0.73790323883E+01  0.27905721869E+02  0.28868509044E+02  0.51100000000E-03 0.  1.
         12    1    3    3    0    0  0.16687394282E+02  0.68170043165E+01 -0.30860999871E+02  0.35739921500E+02  0.00000000000E+00 0. -1.
</event>
<event>
 7    1  0.1358622E-013  0.7246153E+02  0.7816164E-02  0.1226708E+00
        -11   -1    0    0    0    0  0.00000000000E+00  0.00000000000E+00  0.45593999997E+02  0.45594000000E+02  0.51100000000E-03 0. -1.
         11   -1    0    0    0    0 -0.00000000000E+00 -0.00000000000E+00 -0.45593999997E+02  0.45594000000E+02  0.51100000000E-03 0.  1.
    9900012    2    1    2    0    0 -0.11381724270E+02  0.67292613205E+01  0.13261002291E+02  0.72461527106E+02  0.69999943739E+02 0.  0.
        -12    1    1    2    0    0  0.11381724270E+02 -0.67292613205E+01 -0.13261002291E+02  0.18726472894E+02  0.00000000000E+00 0.  1.
         11    1    3    3    0    0 -0.12875074395E+02 -0.12771226433E+02  0.10847153946E+02  0.21131315961E+02  0.51100000000E-03 0. -1.
        -11    1    3    3    0    0  0.11289595188E+02 -0.12935990241E+02 -0.14317531520E+01  0.17229182232E+02  0.51100000000E-03 0.  1.
         12    1    3    3    0    0 -0.97962450641E+01  0.32436477994E+02  0.38456014974E+01  0.34101028913E+02  0.00000000000E+00 0. -1.
</event>
<event>
 7    1  0.1358622E-013  0.7246157E+02  0.7816164E-02  0.1226708E+00
        -11   -1    0    0    0    0  0.00000000000E+00  0.00000000000E+00  0.45593999997E+02  0.45594000000E+02  0.51100000000E-03 0.  1.
         11   -1    0    0    0    0 -0.00000000000E+00 -0.00000000000E+00 -0.45593999997E+02  0.45594000000E+02  0.51100000000E-03 0. -1.
    9900012    2    1    2    0    0 -0.18530910621E+02  0.21335274315E+01  0.16531069813E+01  0.72461565464E+02  0.69999993708E+02 0.  0.
        -12    1    1    2    0    0  0.18530910621E+02 -0.21335274315E+01 -0.16531069813E+01  0.18726434536E+02  0.00000000000E+00 0.  1.
         11    1    3    3    0    0 -0.36866064609E+02 -0.89497229709E+01 -0.18871961083E+02  0.42371631741E+02  0.51100000000E-03 0. -1.
        -11    1    3    3    0    0  0.68170389359E+01  0.17325497505E+01  0.81913310211E+01  0.10796835307E+02  0.51100000000E-03 0.  1.
        -12    1    3    3    0    0  0.11518115052E+02  0.93507006520E+01  0.12333737044E+02  0.19293098416E+02  0.00000000000E+00 0.  1.
</event>
<event>
 7    1  0.1358622E-013  0.7246154E+02  0.7816164E-02  0.1226708E+00
        -11   -1    0    0    0    0  0.00000000000E+00  0.00000000000E+00  0.45593999997E+02  0.45594000000E+02  0.51100000000E-03 0.  1.
         11   -1    0    0    0    0 -0.00000000000E+00 -0.00000000000E+00 -0.45593999997E+02  0.45594000000E+02  0.51100000000E-03 0. -1.
    9900012    2    1    2    0    0  0.21349655189E+01  0.18596667542E+02 -0.53483316908E+00  0.72461543636E+02  0.69999965273E+02 0.  0.
        -12    1    1    2    0    0 -0.21349655189E+01 -0.18596667542E+02  0.53483316908E+00  0.18726456364E+02  0.00000000000E+00 0.  1.
         11    1    3    3    0    0  0.10592442219E+02  0.26819360299E+02  0.12448860149E+01  0.28862218565E+02  0.51100000000E-03 0. -1.
        -11    1    3    3    0    0 -0.14069345000E+02  0.14281911533E+02  0.18098007860E+01  0.20129452176E+02  0.51100000000E-03 0.  1.
        -12    1    3    3    0    0  0.56118682999E+01 -0.22504604291E+02 -0.35895199700E+01  0.23469872895E+02  0.00000000000E+00 0.  1.
</event>
<event>
 7    1  0.1358622E-013  0.7246165E+02  0.7816164E-02  0.1226708E+00
        -11   -1    0    0    0    0  0.00000000000E+00  0.00000000000E+00  0.45593999997E+02  0.45594000000E+02  0.51100000000E-03 0. -1.
         11   -1    0    0    0    0 -0.00000000000E+00 -0.00000000000E+00 -0.45593999997E+02  0.45594000000E+02  0.51100000000E-03 0.  1.
    9900012    2    1    2    0    0 -0.11779852688E+02  0.13201933013E+01  0.14497189138E+02  0.72461646041E+02  0.70000098674E+02 0.  0.
        -12    1    1    2    0    0  0.11779852688E+02 -0.13201933013E+01 -0.14497189138E+02  0.18726353959E+02  0.00000000000E+00 0.  1.
         11    1    3    3    0    0 -0.93437865624E+01  0.56481076846E+01 -0.44419282961E+01  0.11787204715E+02  0.51100000000E-03 0. -1.
        -11    1    3    3    0    0 -0.17028931543E+02  0.36949541271E+01 -0.14921113791E+02  0.22940724324E+02  0.51100000000E-03 0.  1.
        -12    1    3    3    0    0  0.14592865417E+02 -0.80228685104E+01  0.33860231225E+02  0.37733717002E+02  0.00000000000E+00 0.  1.
</event>
<event>
 7    1  0.1358622E-013  0.7246163E+02  0.7816164E-02  0.1226708E+00
        -11   -1    0    0    0    0  0.00000000000E+00  0.00000000000E+00  0.45593999997E+02  0.45594000000E+02  0.51100000000E-03 0.  1.
         11   -1    0    0    0    0 -0.00000000000E+00 -0.00000000000E+00 -0.45593999997E+02  0.45594000000E+02  0.51100000000E-03 0. -1.
    9900012    2    1    2    0    0 -0.15046890160E+02  0.93136757294E+01 -0.61256439737E+01  0.72461628938E+02  0.70000076394E+02 0.  0.
        -12    1    1    2    0    0  0.15046890160E+02 -0.93136757294E+01  0.61256439737E+01  0.18726371062E+02  0.00000000000E+00 0.  1.
         11    1    3    3    0    0  0.87338794658E+01  0.64271792756E+01 -0.11517861642E+02  0.15819305327E+02  0.51100000000E-03 0. -1.
        -11    1    3    3    0    0 -0.40287149817E+01  0.17338949634E+02  0.21065274074E+02  0.27579258345E+02  0.51100000000E-03 0.  1.
         12    1    3    3    0    0 -0.19752054644E+02 -0.14452453180E+02 -0.15673056406E+02  0.29063065266E+02  0.00000000000E+00 0. -1.
</event>
<event>
 7    1  0.1748242E-013  0.7246153E+02  0.7816164E-02  0.1226708E+00
        -11   -1    0    0    0    0  0.00000000000E+00  0.00000000000E+00  0.45593999997E+02  0.45594000000E+02  0.51100000000E-03 0. -1.
         11   -1    0    0    0    0 -0.00000000000E+00 -0.00000000000E+00 -0.45593999997E+02  0.45594000000E+02  0.51100000000E-03 0.  1.
    9900012    2    1    2    0    0 -0.29142944572E+01  0.57065394572E+01  0.17596101879E+02  0.72461534608E+02  0.69999953512E+02 0.  0.
        -12    1    1    2    0    0  0.29142944572E+01 -0.57065394572E+01 -0.17596101879E+02  0.18726465392E+02  0.00000000000E+00 0.  1.
         11    1    3    3    0    0 -0.17730112603E+02  0.11345486399E+02  0.26680648431E+02  0.33984319259E+02  0.51100000000E-03 0. -1.
        -11    1    3    3    0    0 -0.77065410070E+01  0.44258747517E+01  0.48710251874E+01  0.10134398268E+02  0.51100000000E-03 0.  1.
        -12    1    3    3    0    0  0.22522359153E+02 -0.10064821694E+02 -0.13955571740E+02  0.28342817081E+02  0.00000000000E+00 0.  1.
</event>
<event>
 7    1  0.1358622E-013  0.7246154E+02  0.7816164E-02  0.1226708E+00
        -11   -1    0    0    0    0  0.00000000000E+00  0.00000000000E+00  0.45593999997E+02  0.45594000000E+02  0.51100000000E-03 0.  1.
         11   -1    0    0    0    0 -0.00000000000E+00 -0.00000000000E+00 -0.45593999997E+02  0.45594000000E+02  0.51100000000E-03 0. -1.
    9900012    2    1    2    0    0 -0.17018196351E+02 -0.31464329510E+01 -0.71527037664E+01  0.72461542286E+02  0.69999963514E+02 0.  0.
        -12    1    1    2    0    0  0.17018196351E+02  0.31464329510E+01  0.71527037664E+01  0.18726457714E+02  0.00000000000E+00 0.  1.
         11    1    3    3    0    0  0.14720842348E+02  0.50987081792E+01 -0.22050774118E+02  0.26998827086E+02  0.51100000000E-03 0. -1.
        -11    1    3    3    0    0  0.42381058148E+01 -0.51846021678E+01  0.37443463868E+01  0.76721425079E+01  0.51100000000E-03 0.  1.
        -12    1    3    3    0    0 -0.35977144514E+02 -0.30605389624E+01  0.11153723965E+02  0.37790572692E+02  0.00000000000E+00 0.  1.
</event>
<event>
 7    1  0.1358622E-013  0.7246157E+02  0.7816164E-02  0.1226708E+00
        -11   -1    0    0    0    0  0.00000000000E+00  0.00000000000E+00  0.45593999997E+02  0.45594000000E+02  0.51100000000E-03 0. -1.
         11   -1    0    0    0    0 -0.00000000000E+00 -0.00000000000E+00 -0.45593999997E+02  0.45594000000E+02  0.51100000000E-03 0.  1.
    9900012    2    1    2    0    0 -0.69074623559E+01  0.10969448732E+02  0.13514343801E+02  0.72461566008E+02  0.69999994417E+02 0.  0.
        -12    1    1    2    0    0  0.69074623559E+01 -0.10969448732E+02 -0.13514343801E+02  0.18726433992E+02  0.00000000000E+00 0.  1.
         11    1    3    3    0    0 -0.58472856939E+01  0.29615845685E+01  0.42129371094E+01  0.77916989477E+01  0.51100000000E-03 0. -1.
        -11    1    3    3    0    0 -0.80317113687E+01 -0.17452042329E+02  0.26818283239E+02  0.32989429899E+02  0.51100000000E-03 0.  1.
        -12    1    3    3    0    0  0.69715347067E+01  0.25459906492E+02 -0.17516876547E+02  0.31680437161E+02  0.00000000000E+00 0.  1.
</event>
<event>
 7    1  0.1358622E-013  0.7246149E+02  0.7816164E-02  0.1226708E+00
        -11   -1    0    0    0    0  0.00000000000E+00  0.00000000000E+00  0.45593999997E+02  0.45594000000E+02  0.51100000000E-03 0.  1.
         11   -1    0    0    0    0 -0.00000000000E+00 -0.00000000000E+00 -0.45593999997E+02  0.45594000000E+02  0.51100000000E-03 0. -1.
    9900012    2    1    2    0    0  0.14077050676E+02  0.10064459255E+02 -0.71572097905E+01  0.72461485433E+02  0.69999889453E+02 0.  0.
        -12    1    1    2    0    0 -0.14077050676E+02 -0.10064459255E+02  0.71572097905E+01  0.18726514567E+02  0.00000000000E+00 0.  1.
         11    1    3    3    0    0  0.54152780971E+01 -0.11240675750E+02 -0.13220096228E+02  0.18178255492E+02  0.51100000000E-03 0. -1.
        -11    1    3    3    0    0  0.27099057111E+01  0.45799300531E+01  0.26605569355E+02  0.27132557366E+02  0.51100000000E-03 0.  1.
         12    1    3    3    0    0  0.59518668680E+01  0.16725204952E+02 -0.20542682917E+02  0.27150672576E+02  0.00000000000E+00 0. -1.
</event>
<event>
 7    1  0.1358622E-013  0.7246159E+02  0.7816164E-02  0.1226708E+00
        -11   -1    0    0    0    0  0.00000000000E+00  0.00000000000E+00  0.45593999997E+02  0.45594000000E+02  0.51100000000E-03 0. -1.
         11   -1    0    0    0    0 -0.00000000000E+00 -0.00000000000E+00 -0.45593999997E+02  0.45594000000E+02  0.51100000000E-03 0.  1.
    9900012    2    1    2    0    0 -0.13241609323E+02 -0.93283977838E+01  0.93978337096E+01  0.72461588141E+02  0.70000023248E+02 0.  0.
        -12    1    1    2    0    0  0.13241609323E+02  0.93283977838E+01 -0.93978337096E+01  0.18726411859E+02  0.00000000000E+00 0.  1.
         11    1    3    3    0    0 -0.59990129659E+01 -0.15038398504E+02 -0.54751352441E+01  0.17091480109E+02  0.51100000000E-03 0. -1.
        -11    1    3    3    0    0 -0.22509429988E+02  0.10046038455E+02 -0.93900811059E+01  0.26377470509E+02  0.51100000000E-03 0.  1.
         12    1    3    3    0    0  0.15266833630E+02 -0.43360377357E+01  0.24263050060E+02  0.28992637523E+02  0.00000000000E+00 0. -1.
</event>
<event>
 7    1  0.1358622E-013  0.7246157E+02  0.7816164E-02  0.1226708E+00
        -11   -1    0    0    0    0  0.00000000000E+00  0.00000000000E+00  0.45593999997E+02  0.45594000000E+02  0.51100000000E-03 0.  1.
         11   -1    0    0    0    0 -0.00000000000E+00 -0.00000000000E+00 -0.45593999997E+02  0.45594000000E+02  0.51100000000E-03 0. -1.
    9900012    2    1    2    0    0 -0.16170249888E+02 -0.84567163428E+01  0.42055124562E+01  0.72461565001E+02  0.69999993105E+02 0.  0.
        -12    1    1    2    0    0  0.16170249888E+02  0.84567163428E+01 -0.42055124562E+01  0.18726434999E+02  0.00000000000E+00 0.  1.
         11    1    3    3    0    0 -0.19841738876E+02 -0.20944391406E+02  0.59140583509E+01  0.29450606436E+02  0.51100000000E-03 0. -1.
        -11    1    3    3    0    0  0.14129654305E+02  0.21812665434E+01  0.15030781570E+02  0.20744383563E+02  0.51100000000E-03 0.  1.
        -12    1    3    3    0    0 -0.10458165317E+02  0.10306408520E+02 -0.16739327465E+02  0.22266575003E+02  0.00000000000E+00 0.  1.
</event>
<event>
 7    1  0.1358622E-013  0.7246158E+02  0.7816164E-02  0.1226708E+00
        -11   -1    0    0    0    0  0.00000000000E+00  0.00000000000E+00  0.45593999997E+02  0.45594000000E+02  0.51100000000E-03 0.  1.
         11   -1    0    0    0    0 -0.00000000000E+00 -0.00000000000E+00 -0.45593999997E+02  0.45594000000E+02  0.51100000000E-03 0. -1.
    9900012    2    1    2    0    0 -0.97995974018E+01 -0.28683189819E+01 -0.15697750136E+02  0.72461582234E+02  0.70000015553E+02 0.  0.
        -12    1    1    2    0    0  0.97995974018E+01  0.28683189819E+01  0.15697750136E+02  0.18726417766E+02  0.00000000000E+00 0.  1.
         11    1    3    3    0    0  0.17358238909E+02 -0.21311875363E+01 -0.22729100676E+02  0.28678605896E+02  0.51100000000E-03 0. -1.
        -11    1    3    3    0    0 -0.60576836411E+00 -0.13435175698E+02  0.47480999992E+01  0.14262375511E+02  0.51100000000E-03 0.  1.
        -12    1    3    3    0    0 -0.26552067947E+02  0.12698044253E+02  0.22832505411E+01  0.29520600826E+02  0.00000000000E+00 0.  1.
</event>
<event>
 7    1  0.1358622E-013  0.7246157E+02  0.7816164E-02  0.1226708E+00
        -11   -1    0    0    0    0  0.00000000000E+00  0.00000000000E+00  0.45593999997E+02  0.45594000000E+02  0.51100000000E-03 0. -1.
         11   -1    0    0    0    0 -0.00000000000E+00 -0.00000000000E+00 -0.45593999997E+02  0.45594000000E+02  0.51100000000E-03 0.  1.
    9900012    2    1    2    0    0 -0.87895071935E+01 -0.15508767435E+02  0.57360035659E+01  0.72461573727E+02  0.70000004471E+02 0.  0.
        -12    1    1    2    0    0  0.87895071935E+01  0.15508767435E+02 -0.57360035659E+01  0.18726426273E+02  0.00000000000E+00 0.  1.
         11    1    3    3    0    0  0.16261408716E+01 -0.13781981979E+02 -0.15338315517E+02  0.20684566337E+02  0.51100000000E-03 0. -1.
        -11    1    3    3    0    0 -0.20553021750E+02  0.16025434690E+02  0.70924063983E+01  0.27010062733E+02  0.51100000000E-03 0.  1.
         12    1    3    3    0    0  0.10137373685E+02 -0.17752220146E+02  0.13981912684E+02  0.24766944657E+02  0.00000000000E+00 0. -1.
</event>
<event>
 7    1  0.1358622E-013  0.7246138E+02  0.7816164E-02  0.1226709E+00
        -11   -1    0    0    0    0  0.00000000000E+00  0.00000000000E+00  0.45593999997E+02  0.45594000000E+02  0.51100000000E-03 0.  1.
         11   -1    0    0    0    0 -0.00000000000E+00 -0.00000000000E+00 -0.45593999997E+02  0.45594000000E+02  0.51100000000E-03 0. -1.
    9900012    2    1    2    0    0 -0.17582533909E+02 -0.52448475717E+01 -0.37459959115E+01  0.72461376971E+02  0.69999748160E+02 0.  0.
        -12    1    1    2    0    0  0.17582533909E+02  0.52448475717E+01  0.37459959115E+01  0.18726623029E+02  0.00000000000E+00 0.  1.
         11    1    3    3    0    0 -0.19966309662E+02 -0.21724866217E+02  0.10577998664E+02  0.31345133428E+02  0.51100000000E-03 0. -1.
        -11    1    3    3    0    0 -0.90387541809E+01  0.11035701456E+02  0.73286766235E+01  0.16037309159E+02  0.51100000000E-03 0.  1.
        -12    1    3    3    0    0  0.11422529934E+02  0.54443171892E+01 -0.21652671199E+02  0.25078934383E+02  0.00000000000E+00 0.  1.
</event>
<event>
 7    1  0.1358622E-013  0.7246164E+02  0.7816164E-02  0.1226708E+00
        -11   -1    0    0    0    0  0.00000000000E+00  0.00000000000E+00  0.45593999997E+02  0.45594000000E+02  0.51100000000E-03 0. -1.
         11   -1    0    0    0    0 -0.00000000000E+00 -0.00000000000E+00 -0.45593999997E+02  0.45594000000E+02  0.51100000000E-03 0.  1.
    9900012    2    1    2    0    0 -0.18399883611E+02 -0.21600464389E+01 -0.27303821920E+01  0.72461641453E+02  0.70000092697E+02 0.  0.
        -12    1    1    2    0    0  0.18399883611E+02  0.21600464389E+01  0.27303821920E+01  0.18726358547E+02  0.00000000000E+00 0.  1.
         11    1    3    3    0    0  0.27273587752E+01  0.26239727093E+01 -0.16451801696E+02  0.16881513497E+02  0.51100000000E-03 0. -1.
        -11    1    3    3    0    0 -0.22027684050E+02  0.18147881907E+02 -0.56669759480E+00  0.28546201651E+02  0.51100000000E-03 0.  1.
         12    1    3    3    0    0  0.90044166337E+00 -0.22931901055E+02  0.14288117099E+02  0.27033926304E+02  0.00000000000E+00 0. -1.
</event>
<event>
 7    1  0.1358622E-013  0.7246162E+02  0.7816164E-02  0.1226708E+00
        -11   -1    0    0    0    0  0.00000000000E+00  0.00000000000E+00  0.45593999997E+02  0.45594000000E+02  0.51100000000E-03 0.  1.
         11   -1    0    0    0    0 -0.00000000000E+00 -0.00000000000E+00 -0.45593999997E+02  0.45594000000E+02  0.51100000000E-03 0. -1.
    9900012    2    1    2    0    0 -0.26642672781E+01  0.15680034173E+02 -0.98851224220E+01  0.72461616551E+02  0.70000060258E+02 0.  0.
        -12    1    1    2    0    0  0.26642672781E+01 -0.15680034173E+02  0.98851224220E+01  0.18726383449E+02  0.00000000000E+00 0.  1.
         11    1    3    3    0    0 -0.47221149589E+01 -0.82697186256E+01 -0.19192383618E+02  0.21425083548E+02  0.51100000000E-03 0. -1.
        -11    1    3    3    0    0  0.21429420131E+02  0.20411085250E+02  0.10256945400E+02  0.31321516206E+02  0.51100000000E-03 0.  1.
         12    1    3    3    0    0 -0.19371572450E+02  0.35386675485E+01 -0.94968420414E+00  0.19715016797E+02  0.00000000000E+00 0. -1.
</event>
<event>
 7    1  0.1358622E-013  0.7246156E+02  0.7816164E-02  0.1226708E+00
        -11   -1    0    0    0    0  0.00000000000E+00  0.00000000000E+00  0.45593999997E+02  0.45594000000E+02  0.51100000000E-03 0. -1.
         11   -1    0    0    0    0 -0.00000000000E+00 -0.00000000000E+00 -0.45593999997E+02  0.45594000000E+02  0.51100000000E-03 0.  1.
    9900012    2    1    2    0    0 -0.14707138117E+02  0.54916920947E+01  0.10208862723E+02  0.72461562225E+02  0.69999989488E+02 0.  0.
        -12    1    1    2    0    0  0.14707138117E+02 -0.54916920947E+01 -0.10208862723E+02  0.18726437775E+02  0.00000000000E+00 0.  1.
         11    1    3    3    0    0 -0.11620498905E+02 -0.10906862205E+02  0.39016057412E+01  0.16407869014E+02  0.51100000000E-03 0. -1.
        -11    1    3    3    0    0 -0.62576983932E+01 -0.15146608265E+02 -0.11187575996E+02  0.19842892632E+02  0.51100000000E-03 0.  1.
         12    1    3    3    0    0  0.31710591813E+01  0.31545162565E+02  0.17494832978E+02  0.36210800578E+02  0.00000000000E+00 0. -1.
</event>
<event>
 7    1  0.1358622E-013  0.7246150E+02  0.7816164E-02  0.1226708E+00
        -11   -1    0    0    0    0  0.00000000000E+00  0.00000000000E+00  0.45593999997E+02  0.45594000000E+02  0.51100000000E-03 0. -1.
         11   -1    0    0    0    0 -0.00000000000E+00 -0.00000000000E+00 -0.45593999997E+02  0.45594000000E+02  0.51100000000E-03 0.  1.
    9900012    2    1    2    0    0 -0.10295572036E+02  0.10685178135E+02  0.11424099089E+02  0.72461498049E+02  0.69999905887E+02 0.  0.
        -12    1    1    2    0    0  0.10295572036E+02 -0.10685178135E+02 -0.11424099089E+02  0.18726501951E+02  0.00000000000E+00 0.  1.
         11    1    3    3    0    0 -0.48335216083E+01 -0.21345257308E+01  0.21530747713E+02  0.22169624006E+02  0.51100000000E-03 0. -1.
        -11    1    3    3    0    0 -0.35356919261E+01 -0.99386303454E+01  0.13706704528E+02  0.17295989125E+02  0.51100000000E-03 0.  1.
         12    1    3    3    0    0 -0.19263585019E+01  0.22758334211E+02 -0.23813353152E+02  0.32995884917E+02  0.00000000000E+00 0. -1.
</event>
<event>
 7    1  0.1358622E-013  0.7246154E+02  0.7816164E-02  0.1226708E+00
        -11   -1    0    0    0    0  0.00000000000E+00  0.00000000000E+00  0.45593999997E+02  0.45594000000E+02  0.51100000000E-03 0.  1.
         11   -1    0    0    0    0 -0.00000000000E+00 -0.00000000000E+00 -0.45593999997E+02  0.45594000000E+02  0.51100000000E-03 0. -1.
    9900012    2    1    2    0    0  0.10141942244E+02 -0.10417727658E+02 -0.11802214583E+02  0.72461539814E+02  0.69999960294E+02 0.  0.
        -12    1    1    2    0    0 -0.10141942244E+02  0.10417727658E+02  0.11802214583E+02  0.18726460186E+02  0.00000000000E+00 0.  1.
         11    1    3    3    0    0  0.10847998562E+01 -0.10610111144E+02 -0.20571037106E+01  0.10861994529E+02  0.51100000000E-03 0. -1.
        -11    1    3    3    0    0  0.32672559962E+02 -0.44517802095E+01  0.50337803743E+01  0.33356460643E+02  0.51100000000E-03 0.  1.
         12    1    3    3    0    0 -0.23615417574E+02  0.46441636954E+01 -0.14778891246E+02  0.28243084642E+02  0.00000000000E+00 0. -1.
</event>
<event>
 7    1  0.1358622E-013  0.7246170E+02  0.7816164E-02  0.1226708E+00
        -11   -1    0    0    0    0  0.00000000000E+00  0.00000000000E+00  0.45593999997E+02  0.45594000000E+02  0.51100000000E-03 0.  1.
         11   -1    0    0    0    0 -0.00000000000E+00 -0.00000000000E+00 -0.45593999997E+02  0.45594000000E+02  0.51100000000E-03 0. -1.
    9900012    2    1    2    0    0 -0.25098016944E+00 -0.14056767557E+02 -0.12370067505E+02  0.72461700973E+02  0.70000170232E+02 0.  0.
        -12    1    1    2    0    0  0.25098016944E+00  0.14056767557E+02  0.12370067505E+02  0.18726299027E+02  0.00000000000E+00 0.  1.
         11    1    3    3    0    0  0.93946746909E+01  0.11491845521E+02 -0.68705359307E+01  0.16356243159E+02  0.51100000000E-03 0. -1.
        -11    1    3    3    0    0  0.24349412151E+01 -0.49511563860E+01  0.20249882406E+02  0.20988106775E+02  0.51100000000E-03 0.  1.
         12    1    3    3    0    0 -0.12080596075E+02 -0.20597456692E+02 -0.25749413980E+02  0.35117351039E+02  0.00000000000E+00 0. -1.
</event>
<event>
 7    1  0.1358622E-013  0.7246111E+02  0.7816164E-02  0.1226709E+00
        -11   -1    0    0    0    0  0.00000000000E+00  0.00000000000E+00  0.45593999997E+02  0.45594000000E+02  0.51100000000E-03 0. -1.
         11   -1    0    0    0    0 -0.00000000000E+00 -0.00000000000E+00 -0.45593999997E+02  0.45594000000E+02  0.51100000000E-03 0.  1.
    9900012    2    1    2    0    0  0.11249653531E+02  0.56454308139E+01  0.13866179174E+02  0.72461107077E+02  0.69999396571E+02 0.  0.
        -12    1    1    2    0    0 -0.11249653531E+02 -0.56454308139E+01 -0.13866179174E+02  0.18726892923E+02  0.00000000000E+00 0.  1.
         11    1    3    3    0    0  0.40622773424E+01 -0.13144987368E+02 -0.12768537442E+01  0.13817494196E+02  0.51100000000E-03 0. -1.
        -11    1    3    3    0    0 -0.19622291880E+02  0.14688006871E+02 -0.48034119947E+01  0.24976882342E+02  0.51100000000E-03 0.  1.
         12    1    3    3    0    0  0.26809668069E+02  0.41024113108E+01  0.19946444913E+02  0.33666730539E+02  0.00000000000E+00 0. -1.
</event>
<event>
 7    1  0.1358622E-013  0.7246159E+02  0.7816164E-02  0.1226708E+00
        -11   -1    0    0    0    0  0.00000000000E+00  0.00000000000E+00  0.45593999997E+02  0.45594000000E+02  0.51100000000E-03 0. -1.
         11   -1    0    0    0    0 -0.00000000000E+00 -0.00000000000E+00 -0.45593999997E+02  0.45594000000E+02  0.51100000000E-03 0.  1.
    9900012    2    1    2    0    0 -0.12022785767E+02  0.97068321393E+01  0.10578678706E+02  0.72461590548E+02  0.70000026385E+02 0.  0.
        -12    1    1    2    0    0  0.12022785767E+02 -0.97068321393E+01 -0.10578678706E+02  0.18726409452E+02  0.00000000000E+00 0.  1.
         11    1    3    3    0    0  0.26540128260E+02  0.67667600693E+01 -0.32441491491E+00  0.27391106133E+02  0.51100000000E-03 0. -1.
        -11    1    3    3    0    0 -0.18487684101E+01 -0.42802546818E+01  0.55877066448E+01  0.72774302185E+01  0.51100000000E-03 0.  1.
        -12    1    3    3    0    0 -0.36714145617E+02  0.72203267518E+01  0.53153869766E+01  0.37793054197E+02  0.00000000000E+00 0.  1.
</event>
<event>
 7    1  0.1358622E-013  0.7246159E+02  0.7816164E-02  0.1226708E+00
        -11   -1    0    0    0    0  0.00000000000E+00  0.00000000000E+00  0.45593999997E+02  0.45594000000E+02  0.51100000000E-03 0.  1.
         11   -1    0    0    0    0 -0.00000000000E+00 -0.00000000000E+00 -0.45593999997E+02  0.45594000000E+02  0.51100000000E-03 0. -1.
    9900012    2    1    2    0    0  0.56803702176E+01  0.27965535629E+01 -0.17623598580E+02  0.72461586981E+02  0.70000021737E+02 0.  0.
        -12    1    1    2    0    0 -0.56803702176E+01 -0.27965535629E+01  0.17623598580E+02  0.18726413019E+02  0.00000000000E+00 0.  1.
         11    1    3    3    0    0  0.50822995934E+01  0.12522672391E+02  0.87833457402E+01  0.16118134371E+02  0.51100000000E-03 0. -1.
        -11    1    3    3    0    0 -0.20882833139E+01  0.38886924790E+01  0.13441533383E+02  0.14147709226E+02  0.51100000000E-03 0.  1.
         12    1    3    3    0    0  0.26863539380E+01 -0.13614811307E+02 -0.39848477704E+02  0.42195743384E+02  0.00000000000E+00 0. -1.
</event>
<event>
 7    1  0.1358622E-013  0.7246156E+02  0.7816164E-02  0.1226708E+00
        -11   -1    0    0    0    0  0.00000000000E+00  0.00000000000E+00  0.45593999997E+02  0.45594000000E+02  0.51100000000E-03 0. -1.
         11   -1    0    0    0    0 -0.00000000000E+00 -0.00000000000E+00 -0.45593999997E+02  0.45594000000E+02  0.51100000000E-03 0.  1.
    9900012    2    1    2    0    0 -0.25636892199E-01  0.45201999035E+01  0.18172688416E+02  0.72461562307E+02  0.69999989594E+02 0.  0.
        -12    1    1    2    0    0  0.25636892199E-01 -0.45201999035E+01 -0.18172688416E+02  0.18726437693E+02  0.00000000000E+00 0.  1.
         11    1    3    3    0    0 -0.10053552016E+02 -0.12962175885E+02 -0.12837114013E+01  0.16454173545E+02  0.51100000000E-03 0. -1.
        -11    1    3    3    0    0  0.58422545096E+01 -0.14792660412E+02 -0.33667542549E+01  0.16256991552E+02  0.51100000000E-03 0.  1.
         12    1    3    3    0    0  0.41856606144E+01  0.32275036201E+02  0.22823154072E+02  0.39750397210E+02  0.00000000000E+00 0. -1.
</event>
<event>
 7    1  0.1358622E-013  0.7246159E+02  0.7816164E-02  0.1226708E+00
        -11   -1    0    0    0    0  0.00000000000E+00  0.00000000000E+00  0.45593999997E+02  0.45594000000E+02  0.51100000000E-03 0. -1.
         11   -1    0    0    0    0 -0.00000000000E+00 -0.00000000000E+00 -0.45593999997E+02  0.45594000000E+02  0.51100000000E-03 0.  1.
    9900012    2    1    2    0    0  0.26138754708E+00  0.18690652274E+02  0.11266994277E+01  0.72461594646E+02  0.70000031722E+02 0.  0.
        -12    1    1    2    0    0 -0.26138754708E+00 -0.18690652274E+02 -0.11266994277E+01  0.18726405354E+02  0.00000000000E+00 0.  1.
         11    1    3    3    0    0  0.13078033832E+02 -0.20276721434E+02  0.22050540909E+01  0.24228963346E+02  0.51100000000E-03 0. -1.
        -11    1    3    3    0    0  0.47610253673E+01 -0.57308229074E+00  0.10493367597E+01  0.49088587020E+01  0.51100000000E-03 0.  1.
        -12    1    3    3    0    0 -0.17577671652E+02  0.39540455999E+02 -0.21276914228E+01  0.43323772598E+02  0.00000000000E+00 0.  1.
</event>
<event>
 7    1  0.1358622E-013  0.7246153E+02  0.7816164E-02  0.1226708E+00
        -11   -1    0    0    0    0  0.00000000000E+00  0.00000000000E+00  0.45593999997E+02  0.45594000000E+02  0.51100000000E-03 0. -1.
         11   -1    0    0    0    0 -0.00000000000E+00 -0.00000000000E+00 -0.45593999997E+02  0.45594000000E+02  0.51100000000E-03 0.  1.
    9900012    2    1    2    0    0  0.90521799223E+01 -0.81271733506E+01  0.14236839361E+02  0.72461534690E+02  0.69999953618E+02 0.  0.
        -12    1    1    2    0    0 -0.90521799223E+01  0.81271733506E+01 -0.14236839361E+02  0.18726465310E+02  0.00000000000E+00 0.  1.
         11    1    3    3    0    0  0.32628583439E+01  0.48122181523E+01 -0.90215324835E+01  0.10732741343E+02  0.51100000000E-03 0. -1.
        -11    1    3    3    0    0  0.14507260368E+02  0.27384833473E+01 -0.14019397449E+02  0.20359356560E+02  0.51100000000E-03 0.  1.
         12    1    3    3    0    0 -0.87179387896E+01 -0.15677874850E+02  0.37277769294E+02  0.41369436787E+02  0.00000000000E+00 0. -1.
</event>
<event>
 7    1  0.1358622E-013  0.7246155E+02  0.7816164E-02  0.1226708E+00
        -11   -1    0    0    0    0  0.00000000000E+00  0.00000000000E+00  0.45593999997E+02  0.45594000000E+02  0.51100000000E-03 0. -1.
         11   -1    0    0    0    0 -0.00000000000E+00 -0.00000000000E+00 -0.45593999997E+02  0.45594000000E+02  0.51100000000E-03 0.  1.
    9900012    2    1    2    0    0  0.16514658664E+02 -0.86826702182E+01  0.15991186027E+01  0.72461550971E+02  0.69999974828E+02 0.  0.
        -12    1    1    2    0    0 -0.16514658664E+02  0.86826702182E+01 -0.15991186027E+01  0.18726449029E+02  0.00000000000E+00 0.  1.
         11    1    3    3    0    0  0.20708151551E+02  0.10991925261E+02 -0.27981979214E+02  0.36505357450E+02  0.51100000000E-03 0.  1.
        -11    1    3    3    0    0 -0.16743337484E+01 -0.28891429784E+01  0.64810025171E+01  0.72906744913E+01  0.51100000000E-03 0. -1.
        -12    1    3    3    0    0 -0.25191591387E+01 -0.16785452501E+02  0.23100095299E+02  0.28665519030E+02  0.00000000000E+00 0.  1.
</event>
<event>
 7    1  0.1358622E-013  0.7246154E+02  0.7816164E-02  0.1226708E+00
        -11   -1    0    0    0    0  0.00000000000E+00  0.00000000000E+00  0.45593999997E+02  0.45594000000E+02  0.51100000000E-03 0.  1.
         11   -1    0    0    0    0 -0.00000000000E+00 -0.00000000000E+00 -0.45593999997E+02  0.45594000000E+02  0.51100000000E-03 0. -1.
    9900012    2    1    2    0    0 -0.18458272303E+02  0.30182452862E+01 -0.92873839968E+00  0.72461543420E+02  0.69999964991E+02 0.  0.
        -12    1    1    2    0    0  0.18458272303E+02 -0.30182452862E+01  0.92873839968E+00  0.18726456580E+02  0.00000000000E+00 0.  1.
         11    1    3    3    0    0 -0.19561674775E+02 -0.21965083483E+02 -0.65151053239E+01  0.30125912601E+02  0.51100000000E-03 0. -1.
        -11    1    3    3    0    0  0.36194882018E+01  0.69930597464E+00  0.15539445221E+02  0.15970725773E+02  0.51100000000E-03 0.  1.
        -12    1    3    3    0    0 -0.25160857304E+01  0.24284022795E+02 -0.99530782967E+01  0.26364905046E+02  0.00000000000E+00 0.  1.
</event>
<event>
 7    1  0.1358622E-013  0.7246172E+02  0.7816164E-02  0.1226708E+00
        -11   -1    0    0    0    0  0.00000000000E+00  0.00000000000E+00  0.45593999997E+02  0.45594000000E+02  0.51100000000E-03 0.  1.
         11   -1    0    0    0    0 -0.00000000000E+00 -0.00000000000E+00 -0.45593999997E+02  0.45594000000E+02  0.51100000000E-03 0. -1.
    9900012    2    1    2    0    0  0.16253342984E+02 -0.64808737501E+01 -0.66708911233E+01  0.72461717104E+02  0.70000191247E+02 0.  0.
        -12    1    1    2    0    0 -0.16253342984E+02  0.64808737501E+01  0.66708911233E+01  0.18726282896E+02  0.00000000000E+00 0.  1.
         11    1    3    3    0    0  0.11066832240E+02 -0.73388823068E+01 -0.48321841219E+00  0.13287869266E+02  0.51100000000E-03 0. -1.
        -11    1    3    3    0    0  0.20080021289E+02  0.21108992631E+02 -0.14701439013E+02  0.32633251971E+02  0.51100000000E-03 0.  1.
         12    1    3    3    0    0 -0.14893510546E+02 -0.20250984074E+02  0.85137663018E+01  0.26540595867E+02  0.00000000000E+00 0. -1.
</event>
<event>
 7    1  0.1358622E-013  0.7246158E+02  0.7816164E-02  0.1226708E+00
        -11   -1    0    0    0    0  0.00000000000E+00  0.00000000000E+00  0.45593999997E+02  0.45594000000E+02  0.51100000000E-03 0. -1.
         11   -1    0    0    0    0 -0.00000000000E+00 -0.00000000000E+00 -0.45593999997E+02  0.45594000000E+02  0.51100000000E-03 0.  1.
    9900012    2    1    2    0    0 -0.56724596571E+01  0.76847328982E+01  0.16107354257E+02  0.72461580710E+02  0.70000013568E+02 0.  0.
        -12    1    1    2    0    0  0.56724596571E+01 -0.76847328982E+01 -0.16107354257E+02  0.18726419290E+02  0.00000000000E+00 0.  1.
         11    1    3    3    0    0 -0.11229743066E+00 -0.12874880669E+01 -0.27083279030E+01  0.30008792923E+01  0.51100000000E-03 0. -1.
        -11    1    3    3    0    0 -0.67719624079E-02 -0.25194541713E+02 -0.71496879865E+01  0.26189368388E+02  0.51100000000E-03 0.  1.
         12    1    3    3    0    0 -0.55533902640E+01  0.34166762678E+02  0.25965370147E+02  0.43271333030E+02  0.00000000000E+00 0. -1.
</event>
<event>
 7    1  0.1358622E-013  0.7246157E+02  0.7816164E-02  0.1226708E+00
        -11   -1    0    0    0    0  0.00000000000E+00  0.00000000000E+00  0.45593999997E+02  0.45594000000E+02  0.51100000000E-03 0.  1.
         11   -1    0    0    0    0 -0.00000000000E+00 -0.00000000000E+00 -0.45593999997E+02  0.45594000000E+02  0.51100000000E-03 0. -1.
    9900012    2    1    2    0    0 -0.13840424049E+02 -0.55774377466E+01 -0.11314336348E+02  0.72461565298E+02  0.69999993491E+02 0.  0.
        -12    1    1    2    0    0  0.13840424049E+02  0.55774377466E+01  0.11314336348E+02  0.18726434702E+02  0.00000000000E+00 0.  1.
         11    1    3    3    0    0 -0.10097667458E+02 -0.81780729039E+01 -0.98275967734E+01  0.16291882123E+02  0.51100000000E-03 0. -1.
        -11    1    3    3    0    0  0.20427296445E+02 -0.15755768706E+02 -0.45174361033E+00  0.25801603828E+02  0.51100000000E-03 0.  1.
         12    1    3    3    0    0 -0.24170053035E+02  0.18356403863E+02 -0.10349959639E+01  0.30368079346E+02  0.00000000000E+00 0. -1.
</event>
<event>
 7    1  0.1358622E-013  0.7246158E+02  0.7816164E-02  0.1226708E+00
        -11   -1    0    0    0    0  0.00000000000E+00  0.00000000000E+00  0.45593999997E+02  0.45594000000E+02  0.51100000000E-03 0.  1.
         11   -1    0    0    0    0 -0.00000000000E+00 -0.00000000000E+00 -0.45593999997E+02  0.45594000000E+02  0.51100000000E-03 0. -1.
    9900012    2    1    2    0    0  0.13635662946E+02 -0.49495041532E+01 -0.11842719611E+02  0.72461577407E+02  0.70000009265E+02 0.  0.
        -12    1    1    2    0    0 -0.13635662946E+02  0.49495041532E+01  0.11842719611E+02  0.18726422593E+02  0.00000000000E+00 0.  1.
         11    1    3    3    0    0  0.57742191371E+01 -0.16032589104E+02 -0.16959953341E+02  0.24042161666E+02  0.51100000000E-03 0. -1.
        -11    1    3    3    0    0 -0.16257942981E+01  0.16051368804E+02 -0.17251003055E+02  0.23619626463E+02  0.51100000000E-03 0.  1.
        -12    1    3    3    0    0  0.94872381073E+01 -0.49682838539E+01  0.22368236784E+02  0.24799789277E+02  0.00000000000E+00 0.  1.
</event>
<event>
 7    1  0.1358622E-013  0.7246145E+02  0.7816164E-02  0.1226708E+00
        -11   -1    0    0    0    0  0.00000000000E+00  0.00000000000E+00  0.45593999997E+02  0.45594000000E+02  0.51100000000E-03 0.  1.
         11   -1    0    0    0    0 -0.00000000000E+00 -0.00000000000E+00 -0.45593999997E+02  0.45594000000E+02  0.51100000000E-03 0. -1.
    9900012    2    1    2    0    0  0.61765488260E+00 -0.13883418191E+02 -0.12552006824E+02  0.72461450037E+02  0.69999843342E+02 0.  0.
        -12    1    1    2    0    0 -0.61765488260E+00  0.13883418191E+02  0.12552006824E+02  0.18726549963E+02  0.00000000000E+00 0.  1.
         11    1    3    3    0    0 -0.16844114342E+01 -0.14524221770E+01  0.59526104007E+01  0.63545529271E+01  0.51100000000E-03 0. -1.
        -11    1    3    3    0    0 -0.29416551814E+02 -0.22876449330E+00 -0.71307747142E+01  0.30269354174E+02  0.51100000000E-03 0.  1.
         12    1    3    3    0    0  0.31718618131E+02 -0.12202231521E+02 -0.11373842510E+02  0.35837542936E+02  0.00000000000E+00 0. -1.
</event>
<event>
 7    1  0.1358622E-013  0.7246157E+02  0.7816164E-02  0.1226708E+00
        -11   -1    0    0    0    0  0.00000000000E+00  0.00000000000E+00  0.45593999997E+02  0.45594000000E+02  0.51100000000E-03 0. -1.
         11   -1    0    0    0    0 -0.00000000000E+00 -0.00000000000E+00 -0.45593999997E+02  0.45594000000E+02  0.51100000000E-03 0.  1.
    9900012    2    1    2    0    0  0.64254975489E+01  0.76473012509E+01  0.15840171773E+02  0.72461567425E+02  0.69999996263E+02 0.  0.
        -12    1    1    2    0    0 -0.64254975489E+01 -0.76473012509E+01 -0.15840171773E+02  0.18726432575E+02  0.00000000000E+00 0.  1.
         11    1    3    3    0    0 -0.16671987993E+02  0.28676662525E+01 -0.16650861763E+02  0.23736678181E+02  0.51100000000E-03 0. -1.
        -11    1    3    3    0    0 -0.29255716081E+00  0.29637995787E+01 -0.42156099151E+01  0.51614983147E+01  0.51100000000E-03 0.  1.
        -12    1    3    3    0    0  0.23390042702E+02  0.18158354196E+01  0.36706643451E+02  0.43563390930E+02  0.00000000000E+00 0.  1.
</event>
<event>
 7    1  0.1789247E-013  0.7246154E+02  0.7816164E-02  0.1226708E+00
        -11   -1    0    0    0    0  0.00000000000E+00  0.00000000000E+00  0.45593999997E+02  0.45594000000E+02  0.51100000000E-03 0. -1.
         11   -1    0    0    0    0 -0.00000000000E+00 -0.00000000000E+00 -0.45593999997E+02  0.45594000000E+02  0.51100000000E-03 0.  1.
    9900012    2    1    2    0    0 -0.14652009990E+02  0.40337545495E+01  0.10942017173E+02  0.72461539781E+02  0.69999960251E+02 0.  0.
        -12    1    1    2    0    0  0.14652009990E+02 -0.40337545495E+01 -0.10942017173E+02  0.18726460219E+02  0.00000000000E+00 0.  1.
         11    1    3    3    0    0 -0.22325899451E+02  0.12019952452E+02  0.33223818093E+02  0.41794104036E+02  0.51100000000E-03 0. -1.
        -11    1    3    3    0    0  0.11083868875E+02 -0.82932072626E+01 -0.80157690802E+01  0.15996311767E+02  0.51100000000E-03 0.  1.
        -12    1    3    3    0    0 -0.34099794137E+01  0.30700935985E+00 -0.14266031839E+02  0.14671123978E+02  0.00000000000E+00 0.  1.
</event>
<event>
 7    1  0.1358622E-013  0.7246157E+02  0.7816164E-02  0.1226708E+00
        -11   -1    0    0    0    0  0.00000000000E+00  0.00000000000E+00  0.45593999997E+02  0.45594000000E+02  0.51100000000E-03 0.  1.
         11   -1    0    0    0    0 -0.00000000000E+00 -0.00000000000E+00 -0.45593999997E+02  0.45594000000E+02  0.51100000000E-03 0. -1.
    9900012    2    1    2    0    0  0.13842554062E+01  0.15258935613E+01 -0.18612759002E+02  0.72461566494E+02  0.69999995049E+02 0.  0.
        -12    1    1    2    0    0 -0.13842554062E+01 -0.15258935613E+01  0.18612759002E+02  0.18726433506E+02  0.00000000000E+00 0.  1.
         11    1    3    3    0    0 -0.77057121347E+01 -0.18815506747E+02 -0.49714361232E+01  0.20931231952E+02  0.51100000000E-03 0. -1.
        -11    1    3    3    0    0 -0.10609508250E+02  0.24037775245E+02  0.16399944635E+01  0.26326144536E+02  0.51100000000E-03 0.  1.
         12    1    3    3    0    0  0.19699475791E+02 -0.36963749370E+01 -0.15281317342E+02  0.25204190006E+02  0.00000000000E+00 0. -1.
</event>
<event>
 7    1  0.1358622E-013  0.7246164E+02  0.7816164E-02  0.1226708E+00
        -11   -1    0    0    0    0  0.00000000000E+00  0.00000000000E+00  0.45593999997E+02  0.45594000000E+02  0.51100000000E-03 0.  1.
         11   -1    0    0    0    0 -0.00000000000E+00 -0.00000000000E+00 -0.45593999997E+02  0.45594000000E+02  0.51100000000E-03 0. -1.
    9900012    2    1    2    0    0  0.15336670416E+02  0.89479059380E+01  0.59496184066E+01  0.72461643192E+02  0.70000094962E+02 0.  0.
        -12    1    1    2    0    0 -0.15336670416E+02 -0.89479059380E+01 -0.59496184066E+01  0.18726356808E+02  0.00000000000E+00 0.  1.
         11    1    3    3    0    0 -0.20439008240E+02  0.70898682443E+01  0.29814879412E+01  0.21838236196E+02  0.51100000000E-03 0. -1.
        -11    1    3    3    0    0 -0.15834441248E+01 -0.29668305435E+01  0.11515463453E+02  0.11996469380E+02  0.51100000000E-03 0.  1.
         12    1    3    3    0    0  0.37359122780E+02  0.48248682373E+01 -0.85473329880E+01  0.38626937616E+02  0.00000000000E+00 0. -1.
</event>
<event>
 7    1  0.1358622E-013  0.7246149E+02  0.7816164E-02  0.1226708E+00
        -11   -1    0    0    0    0  0.00000000000E+00  0.00000000000E+00  0.45593999997E+02  0.45594000000E+02  0.51100000000E-03 0.  1.
         11   -1    0    0    0    0 -0.00000000000E+00 -0.00000000000E+00 -0.45593999997E+02  0.45594000000E+02  0.51100000000E-03 0. -1.
    9900012    2    1    2    0    0 -0.11414881082E+02 -0.84905674087E+01 -0.12177551527E+02  0.72461494554E+02  0.69999901333E+02 0.  0.
        -12    1    1    2    0    0  0.11414881082E+02  0.84905674087E+01  0.12177551527E+02  0.18726505446E+02  0.00000000000E+00 0.  1.
         11    1    3    3    0    0  0.17374673169E+02 -0.15763106684E+02 -0.41649340503E+01  0.23826486858E+02  0.51100000000E-03 0. -1.
        -11    1    3    3    0    0  0.29211288587E+01 -0.34754967421E+01  0.97334984331E+01  0.10740254346E+02  0.51100000000E-03 0.  1.
         12    1    3    3    0    0 -0.31710683110E+02  0.10748036017E+02 -0.17746115910E+02  0.37894753350E+02  0.00000000000E+00 0. -1.
</event>
<event>
 7    1  0.1358622E-013  0.7246157E+02  0.7816164E-02  0.1226708E+00
        -11   -1    0    0    0    0  0.00000000000E+00  0.00000000000E+00  0.45593999997E+02  0.45594000000E+02  0.51100000000E-03 0. -1.
         11   -1    0    0    0    0 -0.00000000000E+00 -0.00000000000E+00 -0.45593999997E+02  0.45594000000E+02  0.51100000000E-03 0.  1.
    9900012    2    1    2    0    0 -0.14487165106E+02  0.88213772793E+00 -0.11833140174E+02  0.72461566112E+02  0.69999994552E+02 0.  0.
        -12    1    1    2    0    0  0.14487165106E+02 -0.88213772793E+00  0.11833140174E+02  0.18726433888E+02  0.00000000000E+00 0.  1.
         11    1    3    3    0    0 -0.24153524956E+02 -0.19014526841E+02 -0.12107515195E+02  0.33038415870E+02  0.51100000000E-03 0. -1.
        -11    1    3    3    0    0 -0.25165087529E+01  0.19563600175E+01  0.13601154501E+02  0.13969665881E+02  0.51100000000E-03 0.  1.
        -12    1    3    3    0    0  0.12182868602E+02  0.17940304552E+02 -0.13326779480E+02  0.25453484360E+02  0.00000000000E+00 0.  1.
</event>
<event>
 7    1  0.1358622E-013  0.7246157E+02  0.7816164E-02  0.1226708E+00
        -11   -1    0    0    0    0  0.00000000000E+00  0.00000000000E+00  0.45593999997E+02  0.45594000000E+02  0.51100000000E-03 0.  1.
         11   -1    0    0    0    0 -0.00000000000E+00 -0.00000000000E+00 -0.45593999997E+02  0.45594000000E+02  0.51100000000E-03 0. -1.
    9900012    2    1    2    0    0 -0.17215471619E+02  0.72394627169E+01 -0.13772633113E+01  0.72461571143E+02  0.70000001106E+02 0.  0.
        -12    1    1    2    0    0  0.17215471619E+02 -0.72394627169E+01  0.13772633113E+01  0.18726428857E+02  0.00000000000E+00 0.  1.
         11    1    3    3    0    0 -0.84665179463E+01 -0.41184651683E+01  0.81418212031E+01  0.12447205881E+02  0.51100000000E-03 0. -1.
        -11    1    3    3    0    0 -0.13718322604E+02 -0.87592590210E+01  0.18836295647E+02  0.24894236836E+02  0.51100000000E-03 0.  1.
        -12    1    3    3    0    0  0.49693689307E+01  0.20117186906E+02 -0.28355380162E+02  0.35120128426E+02  0.00000000000E+00 0.  1.
</event>
<event>
 7    1  0.1358622E-013  0.7246158E+02  0.7816164E-02  0.1226708E+00
        -11   -1    0    0    0    0  0.00000000000E+00  0.00000000000E+00  0.45593999997E+02  0.45594000000E+02  0.51100000000E-03 0.  1.
         11   -1    0    0    0    0 -0.00000000000E+00 -0.00000000000E+00 -0.45593999997E+02  0.45594000000E+02  0.51100000000E-03 0. -1.
    9900012    2    1    2    0    0 -0.15726739268E+02  0.43579806705E+01 -0.91845760899E+01  0.72461581189E+02  0.70000014193E+02 0.  0.
        -12    1    1    2    0    0  0.15726739268E+02 -0.43579806705E+01  0.91845760899E+01  0.18726418811E+02  0.00000000000E+00 0.  1.
         11    1    3    3    0    0 -0.17573494140E+01 -0.35352081291E+01 -0.33667512777E+01  0.51885439099E+01  0.51100000000E-03 0. -1.
        -11    1    3    3    0    0 -0.30568137593E+02  0.16399770568E+02  0.16310499694E+02  0.38332700285E+02  0.51100000000E-03 0.  1.
         12    1    3    3    0    0  0.16598747739E+02 -0.85065817683E+01 -0.22128324507E+02  0.28940336995E+02  0.00000000000E+00 0. -1.
</event>
<event>
 7    1  0.1358622E-013  0.7246156E+02  0.7816164E-02  0.1226708E+00
        -11   -1    0    0    0    0  0.00000000000E+00  0.00000000000E+00  0.45593999997E+02  0.45594000000E+02  0.51100000000E-03 0.  1.
         11   -1    0    0    0    0 -0.00000000000E+00 -0.00000000000E+00 -0.45593999997E+02  0.45594000000E+02  0.51100000000E-03 0. -1.
    9900012    2    1    2    0    0  0.18693288980E+02 -0.42293242136E+00  0.10304052593E+01  0.72461557206E+02  0.69999982950E+02 0.  0.
        -12    1    1    2    0    0 -0.18693288980E+02  0.42293242136E+00 -0.10304052593E+01  0.18726442794E+02  0.00000000000E+00 0.  1.
         11    1    3    3    0    0  0.11810084793E+02  0.71933351866E+01  0.71854685311E+01  0.15583745769E+02  0.51100000000E-03 0. -1.
        -11    1    3    3    0    0 -0.39691476970E+01  0.31743741210E+01  0.23212226209E+02  0.23762117547E+02  0.51100000000E-03 0.  1.
         12    1    3    3    0    0  0.10852351884E+02 -0.10790641729E+02 -0.29367289481E+02  0.33115693889E+02  0.00000000000E+00 0. -1.
</event>
<event>
 7    1  0.1358622E-013  0.7246137E+02  0.7816164E-02  0.1226709E+00
        -11   -1    0    0    0    0  0.00000000000E+00  0.00000000000E+00  0.45593999997E+02  0.45594000000E+02  0.51100000000E-03 0. -1.
         11   -1    0    0    0    0 -0.00000000000E+00 -0.00000000000E+00 -0.45593999997E+02  0.45594000000E+02  0.51100000000E-03 0.  1.
    9900012    2    1    2    0    0 -0.11684762949E+02  0.74954708858E+01  0.12568650996E+02  0.72461367713E+02  0.69999736099E+02 0.  0.
        -12    1    1    2    0    0  0.11684762949E+02 -0.74954708858E+01 -0.12568650996E+02  0.18726632287E+02  0.00000000000E+00 0.  1.
         11    1    3    3    0    0  0.94629685551E+01  0.85869629350E+01 -0.74713305099E+01  0.14802178427E+02  0.51100000000E-03 0. -1.
        -11    1    3    3    0    0 -0.20616882260E+02 -0.21488560378E+02  0.10692266081E+01  0.29798612502E+02  0.51100000000E-03 0.  1.
         12    1    3    3    0    0 -0.53084924463E+00  0.20397068329E+02  0.18970754898E+02  0.27860576784E+02  0.00000000000E+00 0. -1.
</event>
<event>
 7    1  0.1358622E-013  0.7246153E+02  0.7816164E-02  0.1226708E+00
        -11   -1    0    0    0    0  0.00000000000E+00  0.00000000000E+00  0.45593999997E+02  0.45594000000E+02  0.51100000000E-03 0. -1.
         11   -1    0    0    0    0 -0.00000000000E+00 -0.00000000000E+00 -0.45593999997E+02  0.45594000000E+02  0.51100000000E-03 0.  1.
    9900012    2    1    2    0    0 -0.10991037637E+02 -0.14200921423E+02 -0.53114641592E+01  0.72461528653E+02  0.69999945754E+02 0.  0.
        -12    1    1    2    0    0  0.10991037637E+02  0.14200921423E+02  0.53114641592E+01  0.18726471347E+02  0.00000000000E+00 0.  1.
         11    1    3    3    0    0  0.16351484649E+01 -0.78344439567E+00  0.88815160543E+01  0.90647020529E+01  0.51100000000E-03 0. -1.
        -11    1    3    3    0    0 -0.23927060522E+02  0.16311850308E+02 -0.10322041745E+01  0.28976648036E+02  0.51100000000E-03 0.  1.
        -12    1    3    3    0    0  0.11300874420E+02 -0.29729327335E+02 -0.13160776039E+02  0.34420178564E+02  0.00000000000E+00 0.  1.
</event>
<event>
 7    1  0.1358622E-013  0.7246155E+02  0.7816164E-02  0.1226708E+00
        -11   -1    0    0    0    0  0.00000000000E+00  0.00000000000E+00  0.45593999997E+02  0.45594000000E+02  0.51100000000E-03 0.  1.
         11   -1    0    0    0    0 -0.00000000000E+00 -0.00000000000E+00 -0.45593999997E+02  0.45594000000E+02  0.51100000000E-03 0. -1.
    9900012    2    1    2    0    0 -0.40345701485E+01 -0.92521082097E+01 -0.15773421677E+02  0.72461545610E+02  0.69999967844E+02 0.  0.
        -12    1    1    2    0    0  0.40345701485E+01  0.92521082097E+01  0.15773421677E+02  0.18726454390E+02  0.00000000000E+00 0.  1.
         11    1    3    3    0    0 -0.49738192430E+01 -0.74424568246E+01 -0.37181100575E+01  0.96929553857E+01  0.51100000000E-03 0. -1.
        -11    1    3    3    0    0 -0.11028860085E+02 -0.26450522870E+02  0.68745132629E+01  0.29470745625E+02  0.51100000000E-03 0.  1.
         12    1    3    3    0    0  0.11968109180E+02  0.24640871485E+02 -0.18929824883E+02  0.33297844599E+02  0.00000000000E+00 0. -1.
</event>
<event>
 7    1  0.1358622E-013  0.7246152E+02  0.7816164E-02  0.1226708E+00
        -11   -1    0    0    0    0  0.00000000000E+00  0.00000000000E+00  0.45593999997E+02  0.45594000000E+02  0.51100000000E-03 0.  1.
         11   -1    0    0    0    0 -0.00000000000E+00 -0.00000000000E+00 -0.45593999997E+02  0.45594000000E+02  0.51100000000E-03 0. -1.
    9900012    2    1    2    0    0 -0.26113427856E+01  0.16928823177E+02  0.75681496372E+01  0.72461519972E+02  0.69999934446E+02 0.  0.
        -12    1    1    2    0    0  0.26113427856E+01 -0.16928823177E+02 -0.75681496372E+01  0.18726480028E+02  0.00000000000E+00 0.  1.
         11    1    3    3    0    0  0.79057612704E+01 -0.33836764480E+01  0.88565293590E+01  0.12344571281E+02  0.51100000000E-03 0. -1.
        -11    1    3    3    0    0  0.22992225852E+02  0.71887438121E+01  0.34461362520E+00  0.24092306781E+02  0.51100000000E-03 0.  1.
         12    1    3    3    0    0 -0.33509329908E+02  0.13123755813E+02 -0.16329933470E+01  0.36024641910E+02  0.00000000000E+00 0. -1.
</event>
<event>
 7    1  0.1358622E-013  0.7246154E+02  0.7816164E-02  0.1226708E+00
        -11   -1    0    0    0    0  0.00000000000E+00  0.00000000000E+00  0.45593999997E+02  0.45594000000E+02  0.51100000000E-03 0.  1.
         11   -1    0    0    0    0 -0.00000000000E+00 -0.00000000000E+00 -0.45593999997E+02  0.45594000000E+02  0.51100000000E-03 0. -1.
    9900012    2    1    2    0    0  0.30445883982E+01  0.35825715928E+01 -0.18126662793E+02  0.72461541666E+02  0.69999962707E+02 0.  0.
        -12    1    1    2    0    0 -0.30445883982E+01 -0.35825715928E+01  0.18126662793E+02  0.18726458334E+02  0.00000000000E+00 0.  1.
         11    1    3    3    0    0  0.17133117680E+02 -0.58279129437E+01  0.77095237590E+01  0.19670918829E+02  0.51100000000E-03 0. -1.
        -11    1    3    3    0    0  0.28966238291E+01  0.23589162274E+02 -0.11287811075E+02  0.26310714272E+02  0.51100000000E-03 0.  1.
         12    1    3    3    0    0 -0.16985153111E+02 -0.14178677737E+02 -0.14548375477E+02  0.26479908565E+02  0.00000000000E+00 0. -1.
</event>
<event>
 7    1  0.1358622E-013  0.7246163E+02  0.7816164E-02  0.1226708E+00
        -11   -1    0    0    0    0  0.00000000000E+00  0.00000000000E+00  0.45593999997E+02  0.45594000000E+02  0.51100000000E-03 0. -1.
         11   -1    0    0    0    0 -0.00000000000E+00 -0.00000000000E+00 -0.45593999997E+02  0.45594000000E+02  0.51100000000E-03 0.  1.
    9900012    2    1    2    0    0  0.11782767808E+02  0.64146148231E+01  0.13065063122E+02  0.72461634231E+02  0.70000083289E+02 0.  0.
        -12    1    1    2    0    0 -0.11782767808E+02 -0.64146148231E+01 -0.13065063122E+02  0.18726365769E+02  0.00000000000E+00 0.  1.
         11    1    3    3    0    0  0.35008643699E+00 -0.20694402390E+02  0.24109416281E+02  0.31774908410E+02  0.51100000000E-03 0. -1.
        -11    1    3    3    0    0  0.29403640302E+01 -0.20814610425E+01 -0.95977790108E+01  0.10251613673E+02  0.51100000000E-03 0.  1.
        -12    1    3    3    0    0  0.84923173410E+01  0.29190478256E+02 -0.14465741484E+01  0.30435112147E+02  0.00000000000E+00 0.  1.
</event>
<event>
 7    1  0.1358622E-013  0.7246159E+02  0.7816164E-02  0.1226708E+00
        -11   -1    0    0    0    0  0.00000000000E+00  0.00000000000E+00  0.45593999997E+02  0.45594000000E+02  0.51100000000E-03 0.  1.
         11   -1    0    0    0    0 -0.00000000000E+00 -0.00000000000E+00 -0.45593999997E+02  0.45594000000E+02  0.51100000000E-03 0. -1.
    9900012    2    1    2    0    0  0.39708268404E+01  0.12840731745E+02 -0.13039428204E+02  0.72461586958E+02  0.70000021707E+02 0.  0.
        -12    1    1    2    0    0 -0.39708268404E+01 -0.12840731745E+02  0.13039428204E+02  0.18726413042E+02  0.00000000000E+00 0.  1.
         11    1    3    3    0    0  0.88197255273E+01  0.21456328095E+02 -0.11544741737E+02  0.25912210167E+02  0.51100000000E-03 0. -1.
        -11    1    3    3    0    0 -0.27709993654E+00  0.27074350078E+01 -0.22278322039E+02  0.22443943990E+02  0.51100000000E-03 0.  1.
        -12    1    3    3    0    0 -0.45717987503E+01 -0.11323031358E+02  0.20783635572E+02  0.24105432801E+02  0.00000000000E+00 0.  1.
</event>
<event>
 7    1  0.1358622E-013  0.7246175E+02  0.7816164E-02  0.1226708E+00
        -11   -1    0    0    0    0  0.00000000000E+00  0.00000000000E+00  0.45593999997E+02  0.45594000000E+02  0.51100000000E-03 0.  1.
         11   -1    0    0    0    0 -0.00000000000E+00 -0.00000000000E+00 -0.45593999997E+02  0.45594000000E+02  0.51100000000E-03 0. -1.
    9900012    2    1    2    0    0  0.10133436798E+02 -0.12627233135E+02 -0.94095153483E+01  0.72461747383E+02  0.70000230691E+02 0.  0.
        -12    1    1    2    0    0 -0.10133436798E+02  0.12627233135E+02  0.94095153483E+01  0.18726252617E+02  0.00000000000E+00 0.  1.
         11    1    3    3    0    0 -0.70079406535E+01 -0.24957249109E+02  0.12696802659E+02  0.28864932241E+02  0.51100000000E-03 0. -1.
        -11    1    3    3    0    0 -0.25149486905E+01  0.13950726504E+02 -0.27861213841E+00  0.14178341295E+02  0.51100000000E-03 0.  1.
         12    1    3    3    0    0  0.19656326142E+02 -0.16207105292E+01 -0.21827705869E+02  0.29418473847E+02  0.00000000000E+00 0. -1.
</event>
<event>
 7    1  0.1358622E-013  0.7246160E+02  0.7816164E-02  0.1226708E+00
        -11   -1    0    0    0    0  0.00000000000E+00  0.00000000000E+00  0.45593999997E+02  0.45594000000E+02  0.51100000000E-03 0.  1.
         11   -1    0    0    0    0 -0.00000000000E+00 -0.00000000000E+00 -0.45593999997E+02  0.45594000000E+02  0.51100000000E-03 0. -1.
    9900012    2    1    2    0    0 -0.10155221741E+02 -0.80768350067E+01 -0.13502383008E+02  0.72461597804E+02  0.70000035836E+02 0.  0.
        -12    1    1    2    0    0  0.10155221741E+02  0.80768350067E+01  0.13502383008E+02  0.18726402196E+02  0.00000000000E+00 0.  1.
         11    1    3    3    0    0 -0.11082234386E+00 -0.96402646711E+01 -0.12074494193E+02  0.15451226320E+02  0.51100000000E-03 0. -1.
        -11    1    3    3    0    0  0.22403756085E+02  0.81813581507E+01 -0.14389403245E+01  0.23894213890E+02  0.51100000000E-03 0.  1.
         12    1    3    3    0    0 -0.32448155482E+02 -0.66179284863E+01  0.11051508875E-01  0.33116157593E+02  0.00000000000E+00 0. -1.
</event>
<event>
 7    1  0.1358622E-013  0.7246177E+02  0.7816164E-02  0.1226707E+00
        -11   -1    0    0    0    0  0.00000000000E+00  0.00000000000E+00  0.45593999997E+02  0.45594000000E+02  0.51100000000E-03 0. -1.
         11   -1    0    0    0    0 -0.00000000000E+00 -0.00000000000E+00 -0.45593999997E+02  0.45594000000E+02  0.51100000000E-03 0.  1.
    9900012    2    1    2    0    0  0.67685265522E+01 -0.16468045991E+02  0.58019035297E+01  0.72461773070E+02  0.70000264153E+02 0.  0.
        -12    1    1    2    0    0 -0.67685265522E+01  0.16468045991E+02 -0.58019035297E+01  0.18726226930E+02  0.00000000000E+00 0.  1.
         11    1    3    3    0    0  0.90469762698E+01  0.22117966188E+00  0.65789610322E+01  0.11188361301E+02  0.51100000000E-03 0. -1.
        -11    1    3    3    0    0  0.23730558538E+02 -0.24499711108E+02 -0.76973527751E+00  0.34116971518E+02  0.51100000000E-03 0.  1.
         12    1    3    3    0    0 -0.26009008256E+02  0.78104854547E+01 -0.73222250245E-02  0.27156440251E+02  0.00000000000E+00 0. -1.
</event>
<event>
 7    1  0.1358622E-013  0.7246142E+02  0.7816164E-02  0.1226708E+00
        -11   -1    0    0    0    0  0.00000000000E+00  0.00000000000E+00  0.45593999997E+02  0.45594000000E+02  0.51100000000E-03 0.  1.
         11   -1    0    0    0    0 -0.00000000000E+00 -0.00000000000E+00 -0.45593999997E+02  0.45594000000E+02  0.51100000000E-03 0. -1.
    9900012    2    1    2    0    0  0.91258536237E+01  0.10267695238E+02 -0.12727056483E+02  0.72461421653E+02  0.69999806367E+02 0.  0.
        -12    1    1    2    0    0 -0.91258536237E+01 -0.10267695238E+02  0.12727056483E+02  0.18726578347E+02  0.00000000000E+00 0.  1.
         11    1    3    3    0    0  0.24699828230E+02  0.38301326192E+01 -0.27578267874E+02  0.37219783579E+02  0.51100000000E-03 0. -1.
        -11    1    3    3    0    0 -0.90036335360E+01  0.75697579524E+01 -0.61032844213E+01  0.13252046381E+02  0.51100000000E-03 0.  1.
        -12    1    3    3    0    0 -0.65703410702E+01 -0.11321953334E+01  0.20954495812E+02  0.21989591693E+02  0.00000000000E+00 0.  1.
</event>
<event>
 7    1  0.1358622E-013  0.7246158E+02  0.7816164E-02  0.1226708E+00
        -11   -1    0    0    0    0  0.00000000000E+00  0.00000000000E+00  0.45593999997E+02  0.45594000000E+02  0.51100000000E-03 0. -1.
         11   -1    0    0    0    0 -0.00000000000E+00 -0.00000000000E+00 -0.45593999997E+02  0.45594000000E+02  0.51100000000E-03 0.  1.
    9900012    2    1    2    0    0 -0.11116100276E+02 -0.13455803709E+02 -0.67862043776E+01  0.72461577259E+02  0.70000009073E+02 0.  0.
        -12    1    1    2    0    0  0.11116100276E+02  0.13455803709E+02  0.67862043776E+01  0.18726422741E+02  0.00000000000E+00 0.  1.
         11    1    3    3    0    0 -0.25638320283E+01 -0.14662093390E+02 -0.29603852994E+01  0.15176102880E+02  0.51100000000E-03 0. -1.
        -11    1    3    3    0    0  0.18430912496E+01 -0.26274571015E+02  0.45598462231E+01  0.26730923389E+02  0.51100000000E-03 0.  1.
        -12    1    3    3    0    0 -0.10395359497E+02  0.27480860696E+02 -0.83856653013E+01  0.30554550990E+02  0.00000000000E+00 0.  1.
</event>
<event>
 7    1  0.1358622E-013  0.7246161E+02  0.7816164E-02  0.1226708E+00
        -11   -1    0    0    0    0  0.00000000000E+00  0.00000000000E+00  0.45593999997E+02  0.45594000000E+02  0.51100000000E-03 0. -1.
         11   -1    0    0    0    0 -0.00000000000E+00 -0.00000000000E+00 -0.45593999997E+02  0.45594000000E+02  0.51100000000E-03 0.  1.
    9900012    2    1    2    0    0 -0.37140290418E+01  0.17443035570E+02  0.57117476411E+01  0.72461613196E+02  0.70000055888E+02 0.  0.
        -12    1    1    2    0    0  0.37140290418E+01 -0.17443035570E+02 -0.57117476411E+01  0.18726386804E+02  0.00000000000E+00 0.  1.
         11    1    3    3    0    0 -0.52891220360E+01 -0.85236471898E+01  0.90654248502E+01  0.13520698995E+02  0.51100000000E-03 0. -1.
        -11    1    3    3    0    0 -0.24061882350E+02  0.10649013467E+02  0.71769106601E+01  0.27274231738E+02  0.51100000000E-03 0.  1.
         12    1    3    3    0    0  0.25636975344E+02  0.15317669293E+02 -0.10530587869E+02  0.31666682463E+02  0.00000000000E+00 0. -1.
</event>
<event>
 7    1  0.1358622E-013  0.7246150E+02  0.7816164E-02  0.1226708E+00
        -11   -1    0    0    0    0  0.00000000000E+00  0.00000000000E+00  0.45593999997E+02  0.45594000000E+02  0.51100000000E-03 0.  1.
         11   -1    0    0    0    0 -0.00000000000E+00 -0.00000000000E+00 -0.45593999997E+02  0.45594000000E+02  0.51100000000E-03 0. -1.
    9900012    2    1    2    0    0  0.58966716698E+01  0.78024252791E+01 -0.15969759995E+02  0.72461499758E+02  0.69999908113E+02 0.  0.
        -12    1    1    2    0    0 -0.58966716698E+01 -0.78024252791E+01  0.15969759995E+02  0.18726500242E+02  0.00000000000E+00 0.  1.
         11    1    3    3    0    0 -0.11736667767E+02  0.97573417874E+01 -0.26019906017E+02  0.30166050428E+02  0.51100000000E-03 0. -1.
        -11    1    3    3    0    0  0.46019722613E+01  0.13164427945E+02 -0.73959962635E+01  0.15785470307E+02  0.51100000000E-03 0.  1.
        -12    1    3    3    0    0  0.13031367176E+02 -0.15119344453E+02  0.17446142286E+02  0.26509979023E+02  0.00000000000E+00 0.  1.
</event>
<event>
 7    1  0.1358622E-013  0.7246155E+02  0.7816164E-02  0.1226708E+00
        -11   -1    0    0    0    0  0.00000000000E+00  0.00000000000E+00  0.45593999997E+02  0.45594000000E+02  0.51100000000E-03 0.  1.
         11   -1    0    0    0    0 -0.00000000000E+00 -0.00000000000E+00 -0.45593999997E+02  0.45594000000E+02  0.51100000000E-03 0. -1.
    9900012    2    1    2    0    0 -0.45614691706E+01 -0.67341281303E-01 -0.18162275034E+02  0.72461554254E+02  0.69999979105E+02 0.  0.
        -12    1    1    2    0    0  0.45614691706E+01  0.67341281303E-01  0.18162275034E+02  0.18726445746E+02  0.00000000000E+00 0.  1.
         11    1    3    3    0    0  0.22779942653E+02  0.13854346041E+02 -0.22525239500E+02  0.34903511375E+02  0.51100000000E-03 0. -1.
        -11    1    3    3    0    0 -0.97713565647E+00 -0.26586244575E+00 -0.60194911558E+01  0.61040765859E+01  0.51100000000E-03 0.  1.
        -12    1    3    3    0    0 -0.26364276167E+02 -0.13655824877E+02  0.10382455621E+02  0.31453966294E+02  0.00000000000E+00 0.  1.
</event>
<event>
 7    1  0.1358622E-013  0.7246123E+02  0.7816164E-02  0.1226709E+00
        -11   -1    0    0    0    0  0.00000000000E+00  0.00000000000E+00  0.45593999997E+02  0.45594000000E+02  0.51100000000E-03 0.  1.
         11   -1    0    0    0    0 -0.00000000000E+00 -0.00000000000E+00 -0.45593999997E+02  0.45594000000E+02  0.51100000000E-03 0. -1.
    9900012    2    1    2    0    0  0.16502541846E+02  0.27365654555E+00 -0.88477816999E+01  0.72461227286E+02  0.69999553166E+02 0.  0.
        -12    1    1    2    0    0 -0.16502541846E+02 -0.27365654555E+00  0.88477816999E+01  0.18726772714E+02  0.00000000000E+00 0.  1.
         11    1    3    3    0    0 -0.13202070334E+02  0.68638413342E+01 -0.13816756906E+02  0.20305411856E+02  0.51100000000E-03 0. -1.
        -11    1    3    3    0    0  0.48870189663E+01 -0.16268290293E+02 -0.11796694565E+02  0.20680962897E+02  0.51100000000E-03 0.  1.
        -12    1    3    3    0    0  0.24817593214E+02  0.96781055044E+01  0.16765669771E+02  0.31474852533E+02  0.00000000000E+00 0.  1.
</event>
<event>
 7    1  0.1358622E-013  0.7246156E+02  0.7816164E-02  0.1226708E+00
        -11   -1    0    0    0    0  0.00000000000E+00  0.00000000000E+00  0.45593999997E+02  0.45594000000E+02  0.51100000000E-03 0.  1.
         11   -1    0    0    0    0 -0.00000000000E+00 -0.00000000000E+00 -0.45593999997E+02  0.45594000000E+02  0.51100000000E-03 0. -1.
    9900012    2    1    2    0    0 -0.13108857698E+02 -0.12613698359E+02 -0.44420527509E+01  0.72461564966E+02  0.69999993059E+02 0.  0.
        -12    1    1    2    0    0  0.13108857698E+02  0.12613698359E+02  0.44420527509E+01  0.18726435034E+02  0.00000000000E+00 0.  1.
         11    1    3    3    0    0 -0.11770878268E+02 -0.20554352424E+01 -0.22962043625E+02  0.25885011821E+02  0.51100000000E-03 0. -1.
        -11    1    3    3    0    0  0.12973180693E+02 -0.19936315798E+01 -0.79096756971E+01  0.15324521332E+02  0.51100000000E-03 0.  1.
         12    1    3    3    0    0 -0.14311160122E+02 -0.85646315362E+01  0.26429666572E+02  0.31252031814E+02  0.00000000000E+00 0. -1.
</event>
<event>
 7    1  0.1358622E-013  0.7246157E+02  0.7816164E-02  0.1226708E+00
        -11   -1    0    0    0    0  0.00000000000E+00  0.00000000000E+00  0.45593999997E+02  0.45594000000E+02  0.51100000000E-03 0. -1.
         11   -1    0    0    0    0 -0.00000000000E+00 -0.00000000000E+00 -0.45593999997E+02  0.45594000000E+02  0.51100000000E-03 0.  1.
    9900012    2    1    2    0    0  0.86893429011E+01  0.11103336857E+02  0.12324377614E+02  0.72461573406E+02  0.70000004054E+02 0.  0.
        -12    1    1    2    0    0 -0.86893429011E+01 -0.11103336857E+02 -0.12324377614E+02  0.18726426594E+02  0.00000000000E+00 0.  1.
         11    1    3    3    0    0 -0.73167670781E+01  0.32544412177E+02  0.17964061774E+02  0.37886427122E+02  0.51100000000E-03 0. -1.
        -11    1    3    3    0    0 -0.49679395113E+01 -0.17212768635E+01 -0.16557423076E+01  0.55122318419E+01  0.51100000000E-03 0.  1.
        -12    1    3    3    0    0  0.20974049490E+02 -0.19719798456E+02 -0.39839418530E+01  0.29062914442E+02  0.00000000000E+00 0.  1.
</event>
<event>
 7    1  0.1358622E-013  0.7246152E+02  0.7816164E-02  0.1226708E+00
        -11   -1    0    0    0    0  0.00000000000E+00  0.00000000000E+00  0.45593999997E+02  0.45594000000E+02  0.51100000000E-03 0. -1.
         11   -1    0    0    0    0 -0.00000000000E+00 -0.00000000000E+00 -0.45593999997E+02  0.45594000000E+02  0.51100000000E-03 0.  1.
    9900012    2    1    2    0    0 -0.10065705281E+02  0.15780015099E+02 -0.59479018952E+00  0.72461519426E+02  0.69999933734E+02 0.  0.
        -12    1    1    2    0    0  0.10065705281E+02 -0.15780015099E+02  0.59479018952E+00  0.18726480574E+02  0.00000000000E+00 0.  1.
         11    1    3    3    0    0 -0.30279736358E+02  0.24630663206E+02  0.90148187777E+01  0.40059942109E+02  0.51100000000E-03 0. -1.
        -11    1    3    3    0    0 -0.20798289275E+01  0.33049904698E+01  0.21061155577E+01  0.44367074928E+01  0.51100000000E-03 0.  1.
        -12    1    3    3    0    0  0.22293860005E+02 -0.12155638577E+02 -0.11715724525E+02  0.27964869824E+02  0.00000000000E+00 0.  1.
</event>
<event>
 7    1  0.1358622E-013  0.7246152E+02  0.7816164E-02  0.1226708E+00
        -11   -1    0    0    0    0  0.00000000000E+00  0.00000000000E+00  0.45593999997E+02  0.45594000000E+02  0.51100000000E-03 0.  1.
         11   -1    0    0    0    0 -0.00000000000E+00 -0.00000000000E+00 -0.45593999997E+02  0.45594000000E+02  0.51100000000E-03 0. -1.
    9900012    2    1    2    0    0 -0.25333511859E+01  0.13573876240E+02 -0.12649625240E+02  0.72461521337E+02  0.69999936224E+02 0.  0.
        -12    1    1    2    0    0  0.25333511859E+01 -0.13573876240E+02  0.12649625240E+02  0.18726478663E+02  0.00000000000E+00 0.  1.
         11    1    3    3    0    0 -0.88954639028E+01 -0.73176001572E+01 -0.12783220376E+02  0.17207186683E+02  0.51100000000E-03 0. -1.
        -11    1    3    3    0    0  0.12920422156E+02 -0.12963836615E+02 -0.77562731387E+01  0.19878585004E+02  0.51100000000E-03 0.  1.
        -12    1    3    3    0    0 -0.65583094393E+01  0.33855313013E+02  0.78898682747E+01  0.35375749650E+02  0.00000000000E+00 0.  1.
</event>
<event>
 7    1  0.1358622E-013  0.7246157E+02  0.7816164E-02  0.1226708E+00
        -11   -1    0    0    0    0  0.00000000000E+00  0.00000000000E+00  0.45593999997E+02  0.45594000000E+02  0.51100000000E-03 0. -1.
         11   -1    0    0    0    0 -0.00000000000E+00 -0.00000000000E+00 -0.45593999997E+02  0.45594000000E+02  0.51100000000E-03 0.  1.
    9900012    2    1    2    0    0  0.97226272763E+00 -0.12246735722E+02  0.14133345662E+02  0.72461567071E+02  0.69999995801E+02 0.  0.
        -12    1    1    2    0    0 -0.97226272763E+00  0.12246735722E+02 -0.14133345662E+02  0.18726432929E+02  0.00000000000E+00 0.  1.
         11    1    3    3    0    0 -0.24350594809E+02 -0.74879862019E+01  0.23765273492E+02  0.34839770799E+02  0.51100000000E-03 0. -1.
        -11    1    3    3    0    0 -0.44907764261E+01  0.30373701191E+01 -0.26040642486E+01  0.60144693051E+01  0.51100000000E-03 0.  1.
        -12    1    3    3    0    0  0.29813633962E+02 -0.77961196391E+01 -0.70278635820E+01  0.31607326967E+02  0.00000000000E+00 0.  1.
</event>
<event>
 7    1  0.1358622E-013  0.7246133E+02  0.7816164E-02  0.1226709E+00
        -11   -1    0    0    0    0  0.00000000000E+00  0.00000000000E+00  0.45593999997E+02  0.45594000000E+02  0.51100000000E-03 0. -1.
         11   -1    0    0    0    0 -0.00000000000E+00 -0.00000000000E+00 -0.45593999997E+02  0.45594000000E+02  0.51100000000E-03 0.  1.
    9900012    2    1    2    0    0  0.15552211835E+02 -0.10308571103E+02  0.15969877469E+01  0.72461326483E+02  0.69999682390E+02 0.  0.
        -12    1    1    2    0    0 -0.15552211835E+02  0.10308571103E+02 -0.15969877469E+01  0.18726673517E+02  0.00000000000E+00 0.  1.
         11    1    3    3    0    0  0.24163565727E+02 -0.20483919786E+01  0.24666530439E+02  0.34590627958E+02  0.51100000000E-03 0. -1.
        -11    1    3    3    0    0  0.81076342154E+01 -0.43689438486E+01 -0.11886092265E+00  0.92106205602E+01  0.51100000000E-03 0.  1.
        -12    1    3    3    0    0 -0.16718988108E+02 -0.38912352758E+01 -0.22950681769E+02  0.28660077966E+02  0.00000000000E+00 0.  1.
</event>
<event>
 7    1  0.1358622E-013  0.7246158E+02  0.7816164E-02  0.1226708E+00
        -11   -1    0    0    0    0  0.00000000000E+00  0.00000000000E+00  0.45593999997E+02  0.45594000000E+02  0.51100000000E-03 0.  1.
         11   -1    0    0    0    0 -0.00000000000E+00 -0.00000000000E+00 -0.45593999997E+02  0.45594000000E+02  0.51100000000E-03 0. -1.
    9900012    2    1    2    0    0  0.12676427496E+02  0.57636558759E+01 -0.12520676639E+02  0.72461577848E+02  0.70000009840E+02 0.  0.
        -12    1    1    2    0    0 -0.12676427496E+02 -0.57636558759E+01  0.12520676639E+02  0.18726422152E+02  0.00000000000E+00 0.  1.
         11    1    3    3    0    0 -0.13010187115E+02 -0.33815214353E+01 -0.25060983722E+02  0.28438575234E+02  0.51100000000E-03 0. -1.
        -11    1    3    3    0    0 -0.55934226540E+01  0.88542934203E+01  0.59835554801E+01  0.12061833418E+02  0.51100000000E-03 0.  1.
         12    1    3    3    0    0  0.31280037265E+02  0.29088389089E+00  0.65567516029E+01  0.31961169196E+02  0.00000000000E+00 0. -1.
</event>
<event>
 7    1  0.1358622E-013  0.7246154E+02  0.7816164E-02  0.1226708E+00
        -11   -1    0    0    0    0  0.00000000000E+00  0.00000000000E+00  0.45593999997E+02  0.45594000000E+02  0.51100000000E-03 0.  1.
         11   -1    0    0    0    0 -0.00000000000E+00 -0.00000000000E+00 -0.45593999997E+02  0.45594000000E+02  0.51100000000E-03 0. -1.
    9900012    2    1    2    0    0 -0.10035655375E+02 -0.14222452337E+02 -0.69056469533E+01  0.72461535060E+02  0.69999954101E+02 0.  0.
        -12    1    1    2    0    0  0.10035655375E+02  0.14222452337E+02  0.69056469533E+01  0.18726464940E+02  0.00000000000E+00 0.  1.
         11    1    3    3    0    0 -0.17942127540E+02 -0.24971769976E+02 -0.59009563083E+01  0.31310230309E+02  0.51100000000E-03 0. -1.
        -11    1    3    3    0    0  0.23058301054E+02  0.91827803382E+00 -0.44466611238E+00  0.23080862425E+02  0.51100000000E-03 0.  1.
         12    1    3    3    0    0 -0.15151828890E+02  0.98310396044E+01 -0.56002453255E+00  0.18070442327E+02  0.00000000000E+00 0. -1.
</event>
<event>
 7    1  0.1358622E-013  0.7246157E+02  0.7816164E-02  0.1226708E+00
        -11   -1    0    0    0    0  0.00000000000E+00  0.00000000000E+00  0.45593999997E+02  0.45594000000E+02  0.51100000000E-03 0.  1.
         11   -1    0    0    0    0 -0.00000000000E+00 -0.00000000000E+00 -0.45593999997E+02  0.45594000000E+02  0.51100000000E-03 0. -1.
    9900012    2    1    2    0    0 -0.79854286869E+01 -0.16460279609E+02  0.39963915949E+01  0.72461574236E+02  0.70000005135E+02 0.  0.
        -12    1    1    2    0    0  0.79854286869E+01  0.16460279609E+02 -0.39963915949E+01  0.18726425764E+02  0.00000000000E+00 0.  1.
         11    1    3    3    0    0 -0.15049955179E+02 -0.94038788193E+01 -0.30988009870E+01  0.18014900931E+02  0.51100000000E-03 0. -1.
        -11    1    3    3    0    0 -0.11441658149E+02  0.38723074908E+01 -0.17829111998E+02  0.21535634224E+02  0.51100000000E-03 0.  1.
        -12    1    3    3    0    0  0.18506184641E+02 -0.10928708280E+02  0.24924304580E+02  0.32911039082E+02  0.00000000000E+00 0.  1.
</event>
<event>
 7    1  0.1358622E-013  0.7246176E+02  0.7816164E-02  0.1226708E+00
        -11   -1    0    0    0    0  0.00000000000E+00  0.00000000000E+00  0.45593999997E+02  0.45594000000E+02  0.51100000000E-03 0. -1.
         11   -1    0    0    0    0 -0.00000000000E+00 -0.00000000000E+00 -0.45593999997E+02  0.45594000000E+02  0.51100000000E-03 0.  1.
    9900012    2    1    2    0    0  0.13791141495E+02  0.76862351175E+01  0.10069665224E+02  0.72461763011E+02  0.70000251049E+02 0.  0.
        -12    1    1    2    0    0 -0.13791141495E+02 -0.76862351175E+01 -0.10069665224E+02  0.18726236989E+02  0.00000000000E+00 0.  1.
         11    1    3    3    0    0 -0.90532243455E+01  0.13586019846E+02 -0.46234817193E+01  0.16968128647E+02  0.51100000000E-03 0. -1.
        -11    1    3    3    0    0 -0.10664230749E+02  0.68838655454E+01 -0.60516190881E+01  0.14061846115E+02  0.51100000000E-03 0.  1.
        -12    1    3    3    0    0  0.33508596590E+02 -0.12783650274E+02  0.20744766032E+02  0.41431788249E+02  0.00000000000E+00 0.  1.
</event>
<event>
 7    1  0.1358622E-013  0.7246148E+02  0.7816164E-02  0.1226708E+00
        -11   -1    0    0    0    0  0.00000000000E+00  0.00000000000E+00  0.45593999997E+02  0.45594000000E+02  0.51100000000E-03 0.  1.
         11   -1    0    0    0    0 -0.00000000000E+00 -0.00000000000E+00 -0.45593999997E+02  0.45594000000E+02  0.51100000000E-03 0. -1.
    9900012    2    1    2    0    0 -0.16816035547E+02  0.82402186092E+01 -0.46730200541E-01  0.72461483027E+02  0.69999886318E+02 0.  0.
        -12    1    1    2    0    0  0.16816035547E+02 -0.82402186092E+01  0.46730200541E-01  0.18726516973E+02  0.00000000000E+00 0.  1.
         11    1    3    3    0    0 -0.17647967071E+02  0.33383540747E+01 -0.17045242176E+02  0.24761575692E+02  0.51100000000E-03 0. -1.
        -11    1    3    3    0    0  0.16298905110E+02 -0.85752594233E+01 -0.34465547306E+01  0.18736811942E+02  0.51100000000E-03 0.  1.
         12    1    3    3    0    0 -0.15466973586E+02  0.13477123958E+02  0.20445066706E+02  0.28963095392E+02  0.00000000000E+00 0. -1.
</event>
<event>
 7    1  0.1358622E-013  0.7246137E+02  0.7816164E-02  0.1226709E+00
        -11   -1    0    0    0    0  0.00000000000E+00  0.00000000000E+00  0.45593999997E+02  0.45594000000E+02  0.51100000000E-03 0.  1.
         11   -1    0    0    0    0 -0.00000000000E+00 -0.00000000000E+00 -0.45593999997E+02  0.45594000000E+02  0.51100000000E-03 0. -1.
    9900012    2    1    2    0    0  0.69916723022E+01 -0.63611417255E+01 -0.16165986312E+02  0.72461368721E+02  0.69999737412E+02 0.  0.
        -12    1    1    2    0    0 -0.69916723022E+01  0.63611417255E+01  0.16165986312E+02  0.18726631279E+02  0.00000000000E+00 0.  1.
         11    1    3    3    0    0  0.27570051316E+02 -0.23887789684E+02 -0.13258539042E+02  0.38813954749E+02  0.51100000000E-03 0. -1.
        -11    1    3    3    0    0  0.21043523538E+01  0.10559191021E+01  0.41224473100E+01  0.47474030863E+01  0.51100000000E-03 0.  1.
        -12    1    3    3    0    0 -0.22682731367E+02  0.16470728856E+02 -0.70298945805E+01  0.28900010885E+02  0.00000000000E+00 0.  1.
</event>
<event>
 7    1  0.1358622E-013  0.7246156E+02  0.7816164E-02  0.1226708E+00
        -11   -1    0    0    0    0  0.00000000000E+00  0.00000000000E+00  0.45593999997E+02  0.45594000000E+02  0.51100000000E-03 0. -1.
         11   -1    0    0    0    0 -0.00000000000E+00 -0.00000000000E+00 -0.45593999997E+02  0.45594000000E+02  0.51100000000E-03 0.  1.
    9900012    2    1    2    0    0  0.17751369160E+02  0.30109078826E+01  0.51480885083E+01  0.72461561774E+02  0.69999988901E+02 0.  0.
        -12    1    1    2    0    0 -0.17751369160E+02 -0.30109078826E+01 -0.51480885083E+01  0.18726438226E+02  0.00000000000E+00 0.  1.
         11    1    3    3    0    0  0.23667629636E+02 -0.77107534942E+01  0.66315046499E+01  0.25760226439E+02  0.51100000000E-03 0. -1.
        -11    1    3    3    0    0 -0.42203908512E+01 -0.17525163671E+02  0.22198959035E+01  0.18162351134E+02  0.51100000000E-03 0.  1.
         12    1    3    3    0    0 -0.16958696244E+01  0.28246825048E+02 -0.37033120451E+01  0.28538984200E+02  0.00000000000E+00 0. -1.
</event>
<event>
 7    1  0.1358622E-013  0.7246157E+02  0.7816164E-02  0.1226708E+00
        -11   -1    0    0    0    0  0.00000000000E+00  0.00000000000E+00  0.45593999997E+02  0.45594000000E+02  0.51100000000E-03 0. -1.
         11   -1    0    0    0    0 -0.00000000000E+00 -0.00000000000E+00 -0.45593999997E+02  0.45594000000E+02  0.51100000000E-03 0.  1.
    9900012    2    1    2    0    0  0.11483183364E+01  0.13525413938E+02  0.12900537894E+02  0.72461565872E+02  0.69999994239E+02 0.  0.
        -12    1    1    2    0    0 -0.11483183364E+01 -0.13525413938E+02 -0.12900537894E+02  0.18726434128E+02  0.00000000000E+00 0.  1.
         11    1    3    3    0    0 -0.11892610999E+02 -0.58093188216E+01 -0.15637355767E+02  0.20486807394E+02  0.51100000000E-03 0. -1.
        -11    1    3    3    0    0  0.72019409971E+01  0.14618374643E+02 -0.54380877547E+01  0.17179570135E+02  0.51100000000E-03 0.  1.
         12    1    3    3    0    0  0.58389883386E+01  0.47163581168E+01  0.33975981415E+02  0.34795188343E+02  0.00000000000E+00 0. -1.
</event>
<event>
 7    1  0.1358622E-013  0.7246157E+02  0.7816164E-02  0.1226708E+00
        -11   -1    0    0    0    0  0.00000000000E+00  0.00000000000E+00  0.45593999997E+02  0.45594000000E+02  0.51100000000E-03 0. -1.
         11   -1    0    0    0    0 -0.00000000000E+00 -0.00000000000E+00 -0.45593999997E+02  0.45594000000E+02  0.51100000000E-03 0.  1.
    9900012    2    1    2    0    0 -0.75200177142E+01 -0.15065540316E+02 -0.81949969479E+01  0.72461570912E+02  0.70000000804E+02 0.  0.
        -12    1    1    2    0    0  0.75200177142E+01  0.15065540316E+02  0.81949969479E+01  0.18726429088E+02  0.00000000000E+00 0.  1.
         11    1    3    3    0    0  0.87934083703E+01 -0.11332847156E+02  0.62337742478E+01  0.15640249265E+02  0.51100000000E-03 0. -1.
        -11    1    3    3    0    0 -0.22146866170E+02 -0.95770840058E+01  0.13533600966E+02  0.27665187051E+02  0.51100000000E-03 0.  1.
        -12    1    3    3    0    0  0.58334400855E+01  0.58443908467E+01 -0.27962372162E+02  0.29156134595E+02  0.00000000000E+00 0.  1.
</event>
<event>
 7    1  0.1358622E-013  0.7246086E+02  0.7816164E-02  0.1226710E+00
        -11   -1    0    0    0    0  0.00000000000E+00  0.00000000000E+00  0.45593999997E+02  0.45594000000E+02  0.51100000000E-03 0.  1.
         11   -1    0    0    0    0 -0.00000000000E+00 -0.00000000000E+00 -0.45593999997E+02  0.45594000000E+02  0.51100000000E-03 0. -1.
    9900012    2    1    2    0    0 -0.13927480135E+02 -0.84981013041E+01 -0.91931203544E+01  0.72460856850E+02  0.69999070600E+02 0.  0.
        -12    1    1    2    0    0  0.13927480135E+02  0.84981013041E+01  0.91931203544E+01  0.18727143150E+02  0.00000000000E+00 0.  1.
         11    1    3    3    0    0 -0.13190207277E+02 -0.77198088212E+01 -0.88270470407E+01  0.17649186269E+02  0.51100000000E-03 0. -1.
        -11    1    3    3    0    0 -0.46311994096E+01 -0.16208660911E+02  0.21779449344E+02  0.27541116726E+02  0.51100000000E-03 0.  1.
         12    1    3    3    0    0  0.38939265507E+01  0.15430368429E+02 -0.22145522658E+02  0.27270553856E+02  0.00000000000E+00 0. -1.
</event>
<event>
 7    1  0.1358622E-013  0.7246165E+02  0.7816164E-02  0.1226708E+00
        -11   -1    0    0    0    0  0.00000000000E+00  0.00000000000E+00  0.45593999997E+02  0.45594000000E+02  0.51100000000E-03 0.  1.
         11   -1    0    0    0    0 -0.00000000000E+00 -0.00000000000E+00 -0.45593999997E+02  0.45594000000E+02  0.51100000000E-03 0. -1.
    9900012    2    1    2    0    0 -0.62777650928E+01  0.12630185629E+02 -0.12318450505E+02  0.72461651012E+02  0.70000105150E+02 0.  0.
        -12    1    1    2    0    0  0.62777650928E+01 -0.12630185629E+02  0.12318450505E+02  0.18726348988E+02  0.00000000000E+00 0.  1.
         11    1    3    3    0    0  0.11992383828E+02 -0.65621612964E+01 -0.12471347788E+01  0.13727147416E+02  0.51100000000E-03 0. -1.
        -11    1    3    3    0    0 -0.46353109819E+01 -0.82285117600E+01  0.15526172363E+02  0.18172961844E+02  0.51100000000E-03 0.  1.
        -12    1    3    3    0    0 -0.13634837939E+02  0.27420858685E+02 -0.26597488089E+02  0.40561541752E+02  0.00000000000E+00 0.  1.
</event>
<event>
 7    1  0.1358622E-013  0.7246163E+02  0.7816164E-02  0.1226708E+00
        -11   -1    0    0    0    0  0.00000000000E+00  0.00000000000E+00  0.45593999997E+02  0.45594000000E+02  0.51100000000E-03 0. -1.
         11   -1    0    0    0    0 -0.00000000000E+00 -0.00000000000E+00 -0.45593999997E+02  0.45594000000E+02  0.51100000000E-03 0.  1.
    9900012    2    1    2    0    0  0.81216952646E+01 -0.51365624997E+01 -0.16072674876E+02  0.72461625926E+02  0.70000072471E+02 0.  0.
        -12    1    1    2    0    0 -0.81216952646E+01  0.51365624997E+01  0.16072674876E+02  0.18726374074E+02  0.00000000000E+00 0.  1.
         11    1    3    3    0    0  0.23783352208E+01 -0.28231759572E+02 -0.18761229840E+02  0.33980471926E+02  0.51100000000E-03 0. -1.
        -11    1    3    3    0    0  0.15226140545E+02  0.22207222154E+01  0.22393425636E+01  0.15549328553E+02  0.51100000000E-03 0.  1.
         12    1    3    3    0    0 -0.94827805013E+01  0.20874474857E+02  0.44921240079E+00  0.22931825448E+02  0.00000000000E+00 0. -1.
</event>
<event>
 7    1  0.1358622E-013  0.7246185E+02  0.7816164E-02  0.1226707E+00
        -11   -1    0    0    0    0  0.00000000000E+00  0.00000000000E+00  0.45593999997E+02  0.45594000000E+02  0.51100000000E-03 0.  1.
         11   -1    0    0    0    0 -0.00000000000E+00 -0.00000000000E+00 -0.45593999997E+02  0.45594000000E+02  0.51100000000E-03 0. -1.
    9900012    2    1    2    0    0  0.70082633756E+01  0.12250993202E+02 -0.12307159118E+02  0.72461848352E+02  0.70000362221E+02 0.  0.
        -12    1    1    2    0    0 -0.70082633756E+01 -0.12250993202E+02  0.12307159118E+02  0.18726151648E+02  0.00000000000E+00 0.  1.
         11    1    3    3    0    0 -0.10699145057E+02 -0.17209346483E+00 -0.15793560775E+01  0.10816454456E+02  0.51100000000E-03 0. -1.
        -11    1    3    3    0    0 -0.19463015855E+02  0.12625533965E+02 -0.72800908780E+01  0.24314868240E+02  0.51100000000E-03 0.  1.
        -12    1    3    3    0    0  0.37170424288E+02 -0.20244729898E+00 -0.34477121628E+01  0.37330525656E+02  0.00000000000E+00 0.  1.
</event>
<event>
 7    1  0.1358622E-013  0.7246110E+02  0.7816164E-02  0.1226709E+00
        -11   -1    0    0    0    0  0.00000000000E+00  0.00000000000E+00  0.45593999997E+02  0.45594000000E+02  0.51100000000E-03 0. -1.
         11   -1    0    0    0    0 -0.00000000000E+00 -0.00000000000E+00 -0.45593999997E+02  0.45594000000E+02  0.51100000000E-03 0.  1.
    9900012    2    1    2    0    0  0.99126486759E+01  0.15880522324E+02 -0.49519204331E+00  0.72461099343E+02  0.69999386496E+02 0.  0.
        -12    1    1    2    0    0 -0.99126486759E+01 -0.15880522324E+02  0.49519204331E+00  0.18726900657E+02  0.00000000000E+00 0.  1.
         11    1    3    3    0    0  0.18665361178E+02 -0.20894084081E+02 -0.16559054772E+01  0.28066002222E+02  0.51100000000E-03 0. -1.
        -11    1    3    3    0    0  0.74103782622E+01  0.88058887146E+01 -0.28147735237E+01  0.11848220638E+02  0.51100000000E-03 0.  1.
        -12    1    3    3    0    0 -0.16163090764E+02  0.27968717690E+02  0.39754869575E+01  0.32546876484E+02  0.00000000000E+00 0.  1.
</event>
<event>
 7    1  0.1358622E-013  0.7246152E+02  0.7816164E-02  0.1226708E+00
        -11   -1    0    0    0    0  0.00000000000E+00  0.00000000000E+00  0.45593999997E+02  0.45594000000E+02  0.51100000000E-03 0.  1.
         11   -1    0    0    0    0 -0.00000000000E+00 -0.00000000000E+00 -0.45593999997E+02  0.45594000000E+02  0.51100000000E-03 0. -1.
    9900012    2    1    2    0    0 -0.41946244150E+00 -0.12745360583E+02 -0.13713533641E+02  0.72461516880E+02  0.69999930418E+02 0.  0.
        -12    1    1    2    0    0  0.41946244150E+00  0.12745360583E+02  0.13713533641E+02  0.18726483120E+02  0.00000000000E+00 0.  1.
         11    1    3    3    0    0  0.69801636495E+01 -0.69580853477E+01 -0.32372440371E+02  0.33839511405E+02  0.51100000000E-03 0. -1.
        -11    1    3    3    0    0  0.73993088403E+01  0.35076179218E+01 -0.47060174464E+01  0.94445622062E+01  0.51100000000E-03 0.  1.
        -12    1    3    3    0    0 -0.14798934931E+02 -0.92948931568E+01  0.23364924177E+02  0.29177443269E+02  0.00000000000E+00 0.  1.
</event>
<event>
 7    1  0.1358622E-013  0.7246158E+02  0.7816164E-02  0.1226708E+00
        -11   -1    0    0    0    0  0.00000000000E+00  0.00000000000E+00  0.45593999997E+02  0.45594000000E+02  0.51100000000E-03 0. -1.
         11   -1    0    0    0    0 -0.00000000000E+00 -0.00000000000E+00 -0.45593999997E+02  0.45594000000E+02  0.51100000000E-03 0.  1.
    9900012    2    1    2    0    0 -0.16548288379E+02 -0.55575809449E+01  0.67783701775E+01  0.72461578652E+02  0.70000010888E+02 0.  0.
        -12    1    1    2    0    0  0.16548288379E+02  0.55575809449E+01 -0.67783701775E+01  0.18726421348E+02  0.00000000000E+00 0.  1.
         11    1    3    3    0    0  0.49302265867E+01 -0.28969015604E+01  0.15998273463E+00  0.57205565799E+01  0.51100000000E-03 0. -1.
        -11    1    3    3    0    0  0.19433263268E+02 -0.13248752160E+02 -0.20238117475E+01  0.23606714495E+02  0.51100000000E-03 0.  1.
         12    1    3    3    0    0 -0.40911778233E+02  0.10588072775E+02  0.86421991903E+01  0.43134307577E+02  0.00000000000E+00 0. -1.
</event>
<event>
 7    1  0.1358622E-013  0.7246159E+02  0.7816164E-02  0.1226708E+00
        -11   -1    0    0    0    0  0.00000000000E+00  0.00000000000E+00  0.45593999997E+02  0.45594000000E+02  0.51100000000E-03 0. -1.
         11   -1    0    0    0    0 -0.00000000000E+00 -0.00000000000E+00 -0.45593999997E+02  0.45594000000E+02  0.51100000000E-03 0.  1.
    9900012    2    1    2    0    0 -0.14505814822E+02  0.35576558829E+01  0.11296146706E+02  0.72461587919E+02  0.70000022959E+02 0.  0.
        -12    1    1    2    0    0  0.14505814822E+02 -0.35576558829E+01 -0.11296146706E+02  0.18726412081E+02  0.00000000000E+00 0.  1.
         11    1    3    3    0    0 -0.23859345168E+02 -0.20518401931E+02  0.13107706542E+01  0.31495893218E+02  0.51100000000E-03 0. -1.
        -11    1    3    3    0    0  0.12228707664E+02  0.63858869904E+00  0.12154093176E+02  0.17253146607E+02  0.51100000000E-03 0.  1.
        -12    1    3    3    0    0 -0.28751773173E+01  0.23437469115E+02 -0.21687171239E+01  0.23712548093E+02  0.00000000000E+00 0.  1.
</event>
<event>
 7    1  0.1358622E-013  0.7246158E+02  0.7816164E-02  0.1226708E+00
        -11   -1    0    0    0    0  0.00000000000E+00  0.00000000000E+00  0.45593999997E+02  0.45594000000E+02  0.51100000000E-03 0.  1.
         11   -1    0    0    0    0 -0.00000000000E+00 -0.00000000000E+00 -0.45593999997E+02  0.45594000000E+02  0.51100000000E-03 0. -1.
    9900012    2    1    2    0    0 -0.14699321149E+02 -0.22193996355E+01 -0.11387844215E+02  0.72461580886E+02  0.70000013798E+02 0.  0.
        -12    1    1    2    0    0  0.14699321149E+02  0.22193996355E+01  0.11387844215E+02  0.18726419114E+02  0.00000000000E+00 0.  1.
         11    1    3    3    0    0 -0.20123929525E+02 -0.82841352541E+01  0.17781745333E+02  0.28103200953E+02  0.51100000000E-03 0.  1.
        -11    1    3    3    0    0 -0.10163308511E+02 -0.65670617731E+01 -0.53930917907E+01  0.13247814142E+02  0.51100000000E-03 0. -1.
         12    1    3    3    0    0  0.15587916888E+02  0.12631797392E+02 -0.23776497757E+02  0.31110565791E+02  0.00000000000E+00 0. -1.
</event>
<event>
 7    1  0.1358622E-013  0.7246154E+02  0.7816164E-02  0.1226708E+00
        -11   -1    0    0    0    0  0.00000000000E+00  0.00000000000E+00  0.45593999997E+02  0.45594000000E+02  0.51100000000E-03 0. -1.
         11   -1    0    0    0    0 -0.00000000000E+00 -0.00000000000E+00 -0.45593999997E+02  0.45594000000E+02  0.51100000000E-03 0.  1.
    9900012    2    1    2    0    0 -0.47530131245E+01  0.11238829275E+02 -0.14204856820E+02  0.72461538121E+02  0.69999958088E+02 0.  0.
        -12    1    1    2    0    0  0.47530131245E+01 -0.11238829275E+02  0.14204856820E+02  0.18726461879E+02  0.00000000000E+00 0.  1.
         11    1    3    3    0    0  0.34282957437E+01 -0.99196267861E+01  0.82019640676E+01  0.13320075905E+02  0.51100000000E-03 0. -1.
        -11    1    3    3    0    0  0.10218189734E+02 -0.17762273597E+01  0.10673525769E+02  0.14882558170E+02  0.51100000000E-03 0.  1.
        -12    1    3    3    0    0 -0.18399498602E+02  0.22934683421E+02 -0.33080346657E+02  0.44258904046E+02  0.00000000000E+00 0.  1.
</event>
<event>
 7    1  0.1358622E-013  0.7246155E+02  0.7816164E-02  0.1226708E+00
        -11   -1    0    0    0    0  0.00000000000E+00  0.00000000000E+00  0.45593999997E+02  0.45594000000E+02  0.51100000000E-03 0.  1.
         11   -1    0    0    0    0 -0.00000000000E+00 -0.00000000000E+00 -0.45593999997E+02  0.45594000000E+02  0.51100000000E-03 0. -1.
    9900012    2    1    2    0    0 -0.11338973925E+02  0.14441639427E+02 -0.36806012585E+01  0.72461545326E+02  0.69999967475E+02 0.  0.
        -12    1    1    2    0    0  0.11338973925E+02 -0.14441639427E+02  0.36806012585E+01  0.18726454674E+02  0.00000000000E+00 0.  1.
         11    1    3    3    0    0 -0.21877053682E+02  0.36443662496E+01 -0.17523520828E+01  0.22247643049E+02  0.51100000000E-03 0. -1.
        -11    1    3    3    0    0 -0.49645781023E+01 -0.71774083907E+01  0.17490051385E+02  0.19546460668E+02  0.51100000000E-03 0.  1.
         12    1    3    3    0    0  0.15502657859E+02  0.17974681568E+02 -0.19418300561E+02  0.30667441609E+02  0.00000000000E+00 0. -1.
</event>
<event>
 7    1  0.1358622E-013  0.7246157E+02  0.7816164E-02  0.1226708E+00
        -11   -1    0    0    0    0  0.00000000000E+00  0.00000000000E+00  0.45593999997E+02  0.45594000000E+02  0.51100000000E-03 0.  1.
         11   -1    0    0    0    0 -0.00000000000E+00 -0.00000000000E+00 -0.45593999997E+02  0.45594000000E+02  0.51100000000E-03 0. -1.
    9900012    2    1    2    0    0  0.47474680155E+00  0.18604597957E+02  0.20790930651E+01  0.72461572747E+02  0.70000003196E+02 0.  0.
        -12    1    1    2    0    0 -0.47474680155E+00 -0.18604597957E+02 -0.20790930651E+01  0.18726427253E+02  0.00000000000E+00 0.  1.
         11    1    3    3    0    0 -0.12653446875E+02  0.21667902634E+02  0.89771614008E+01  0.26649524376E+02  0.51100000000E-03 0. -1.
        -11    1    3    3    0    0  0.14812319182E+02  0.89920155156E+01  0.13562394394E+02  0.22004537817E+02  0.51100000000E-03 0.  1.
         12    1    3    3    0    0 -0.16841255064E+01 -0.12055320193E+02 -0.20460462730E+02  0.23807510554E+02  0.00000000000E+00 0. -1.
</event>
<event>
 7    1  0.1358622E-013  0.7246152E+02  0.7816164E-02  0.1226708E+00
        -11   -1    0    0    0    0  0.00000000000E+00  0.00000000000E+00  0.45593999997E+02  0.45594000000E+02  0.51100000000E-03 0.  1.
         11   -1    0    0    0    0 -0.00000000000E+00 -0.00000000000E+00 -0.45593999997E+02  0.45594000000E+02  0.51100000000E-03 0. -1.
    9900012    2    1    2    0    0  0.51182226310E+01 -0.42941145801E+01 -0.17494153930E+02  0.72461520228E+02  0.69999934780E+02 0.  0.
        -12    1    1    2    0    0 -0.51182226310E+01  0.42941145801E+01  0.17494153930E+02  0.18726479772E+02  0.00000000000E+00 0.  1.
         11    1    3    3    0    0  0.97924796983E+01 -0.66595050740E-02 -0.60754345619E+01  0.11524044792E+02  0.51100000000E-03 0. -1.
        -11    1    3    3    0    0 -0.97248210546E+01 -0.23666423475E+02 -0.25758439661E+02  0.36306596627E+02  0.51100000000E-03 0.  1.
         12    1    3    3    0    0  0.50505639873E+01  0.19378968400E+02  0.14339720293E+02  0.24630878809E+02  0.00000000000E+00 0. -1.
</event>
<event>
 7    1  0.1358622E-013  0.7246159E+02  0.7816164E-02  0.1226708E+00
        -11   -1    0    0    0    0  0.00000000000E+00  0.00000000000E+00  0.45593999997E+02  0.45594000000E+02  0.51100000000E-03 0.  1.
         11   -1    0    0    0    0 -0.00000000000E+00 -0.00000000000E+00 -0.45593999997E+02  0.45594000000E+02  0.51100000000E-03 0. -1.
    9900012    2    1    2    0    0 -0.12424859773E+02 -0.89087582967E+01  0.10813656198E+02  0.72461594174E+02  0.70000031108E+02 0.  0.
        -12    1    1    2    0    0  0.12424859773E+02  0.89087582967E+01 -0.10813656198E+02  0.18726405826E+02  0.00000000000E+00 0.  1.
         11    1    3    3    0    0  0.68462050783E+01  0.72405810627E+01  0.22245746606E+02  0.24375598053E+02  0.51100000000E-03 0. -1.
        -11    1    3    3    0    0 -0.17581336561E+02 -0.73135726522E+01  0.12325140696E+02  0.22682610820E+02  0.51100000000E-03 0.  1.
         12    1    3    3    0    0 -0.16897282910E+01 -0.88357667072E+01 -0.23757231104E+02  0.25403385301E+02  0.00000000000E+00 0. -1.
</event>
<event>
 7    1  0.1358622E-013  0.7246155E+02  0.7816164E-02  0.1226708E+00
        -11   -1    0    0    0    0  0.00000000000E+00  0.00000000000E+00  0.45593999997E+02  0.45594000000E+02  0.51100000000E-03 0. -1.
         11   -1    0    0    0    0 -0.00000000000E+00 -0.00000000000E+00 -0.45593999997E+02  0.45594000000E+02  0.51100000000E-03 0.  1.
    9900012    2    1    2    0    0  0.14390063518E+02  0.11324594580E+02  0.39191482692E+01  0.72461545621E+02  0.69999967859E+02 0.  0.
        -12    1    1    2    0    0 -0.14390063518E+02 -0.11324594580E+02 -0.39191482692E+01  0.18726454379E+02  0.00000000000E+00 0.  1.
         11    1    3    3    0    0 -0.25593680193E+01  0.19865591117E+02  0.55667296454E+01  0.20788952699E+02  0.51100000000E-03 0. -1.
        -11    1    3    3    0    0 -0.14956937362E+02 -0.10514748963E+02  0.51415695034E+01  0.18992252584E+02  0.51100000000E-03 0.  1.
         12    1    3    3    0    0  0.31906368899E+02  0.19737524256E+01 -0.67891508797E+01  0.32680340338E+02  0.00000000000E+00 0. -1.
</event>
<event>
 7    1  0.1358622E-013  0.7246171E+02  0.7816164E-02  0.1226708E+00
        -11   -1    0    0    0    0  0.00000000000E+00  0.00000000000E+00  0.45593999997E+02  0.45594000000E+02  0.51100000000E-03 0.  1.
         11   -1    0    0    0    0 -0.00000000000E+00 -0.00000000000E+00 -0.45593999997E+02  0.45594000000E+02  0.51100000000E-03 0. -1.
    9900012    2    1    2    0    0  0.93026815357E+01 -0.12020077022E+02 -0.10938551143E+02  0.72461707348E+02  0.70000178538E+02 0.  0.
        -12    1    1    2    0    0 -0.93026815357E+01  0.12020077022E+02  0.10938551143E+02  0.18726292652E+02  0.00000000000E+00 0.  1.
         11    1    3    3    0    0  0.44111100562E+01  0.82587025083E+01 -0.21729610455E+02  0.23660938905E+02  0.51100000000E-03 0. -1.
        -11    1    3    3    0    0 -0.12984280769E+02  0.32526740434E+01  0.13642181920E+02  0.19112314442E+02  0.51100000000E-03 0.  1.
         12    1    3    3    0    0  0.17875852249E+02 -0.23531453574E+02 -0.28511226074E+01  0.29688454002E+02  0.00000000000E+00 0. -1.
</event>
<event>
 7    1  0.1358622E-013  0.7246157E+02  0.7816164E-02  0.1226708E+00
        -11   -1    0    0    0    0  0.00000000000E+00  0.00000000000E+00  0.45593999997E+02  0.45594000000E+02  0.51100000000E-03 0.  1.
         11   -1    0    0    0    0 -0.00000000000E+00 -0.00000000000E+00 -0.45593999997E+02  0.45594000000E+02  0.51100000000E-03 0. -1.
    9900012    2    1    2    0    0  0.23001337952E+01 -0.17808174835E+02 -0.53157808447E+01  0.72461568615E+02  0.69999997812E+02 0.  0.
        -12    1    1    2    0    0 -0.23001337952E+01  0.17808174835E+02  0.53157808447E+01  0.18726431385E+02  0.00000000000E+00 0.  1.
         11    1    3    3    0    0 -0.23481770011E+01  0.14814082321E+02  0.31290218697E+01  0.15321936834E+02  0.51100000000E-03 0. -1.
        -11    1    3    3    0    0  0.15102960064E+02  0.37763152951E+01 -0.11186555263E+02  0.19170262879E+02  0.51100000000E-03 0.  1.
        -12    1    3    3    0    0 -0.10454649268E+02 -0.36398572451E+02  0.27417525487E+01  0.37969368902E+02  0.00000000000E+00 0.  1.
</event>
<event>
 7    1  0.1358622E-013  0.7246162E+02  0.7816164E-02  0.1226708E+00
        -11   -1    0    0    0    0  0.00000000000E+00  0.00000000000E+00  0.45593999997E+02  0.45594000000E+02  0.51100000000E-03 0.  1.
         11   -1    0    0    0    0 -0.00000000000E+00 -0.00000000000E+00 -0.45593999997E+02  0.45594000000E+02  0.51100000000E-03 0. -1.
    9900012    2    1    2    0    0  0.12658470870E+02  0.71582142992E+01 -0.11798321651E+02  0.72461619931E+02  0.70000064661E+02 0.  0.
        -12    1    1    2    0    0 -0.12658470870E+02 -0.71582142992E+01  0.11798321651E+02  0.18726380069E+02  0.00000000000E+00 0.  1.
         11    1    3    3    0    0  0.49641586448E+01 -0.22398796307E+02 -0.13943996804E+01  0.22984631774E+02  0.51100000000E-03 0. -1.
        -11    1    3    3    0    0 -0.38025410152E+00 -0.37640164950E+00  0.11502652116E+02  0.11515089116E+02  0.51100000000E-03 0.  1.
         12    1    3    3    0    0  0.80745663269E+01  0.29933412255E+02 -0.21906574086E+02  0.37961899041E+02  0.00000000000E+00 0. -1.
</event>
<event>
 7    1  0.1358622E-013  0.7246156E+02  0.7816164E-02  0.1226708E+00
        -11   -1    0    0    0    0  0.00000000000E+00  0.00000000000E+00  0.45593999997E+02  0.45594000000E+02  0.51100000000E-03 0. -1.
         11   -1    0    0    0    0 -0.00000000000E+00 -0.00000000000E+00 -0.45593999997E+02  0.45594000000E+02  0.51100000000E-03 0.  1.
    9900012    2    1    2    0    0  0.16580288845E+02  0.15747788508E+01  0.85611782482E+01  0.72461556675E+02  0.69999982258E+02 0.  0.
        -12    1    1    2    0    0 -0.16580288845E+02 -0.15747788508E+01 -0.85611782482E+01  0.18726443325E+02  0.00000000000E+00 0.  1.
         11    1    3    3    0    0  0.11170349070E+02  0.13438163666E+02 -0.14629419526E+02  0.22789928850E+02  0.51100000000E-03 0. -1.
        -11    1    3    3    0    0  0.45518534881E+01 -0.22016489861E+02 -0.19284319110E+01  0.22564663655E+02  0.51100000000E-03 0.  1.
         12    1    3    3    0    0  0.85808628749E+00  0.10153105046E+02  0.25119029685E+02  0.27106964169E+02  0.00000000000E+00 0. -1.
</event>
<event>
 7    1  0.1358622E-013  0.7246154E+02  0.7816164E-02  0.1226708E+00
        -11   -1    0    0    0    0  0.00000000000E+00  0.00000000000E+00  0.45593999997E+02  0.45594000000E+02  0.51100000000E-03 0.  1.
         11   -1    0    0    0    0 -0.00000000000E+00 -0.00000000000E+00 -0.45593999997E+02  0.45594000000E+02  0.51100000000E-03 0. -1.
    9900012    2    1    2    0    0  0.18311011677E+02 -0.29913924624E+00 -0.39112112709E+01  0.72461542606E+02  0.69999963930E+02 0.  0.
        -12    1    1    2    0    0 -0.18311011677E+02  0.29913924624E+00  0.39112112709E+01  0.18726457394E+02  0.00000000000E+00 0.  1.
         11    1    3    3    0    0  0.83337084137E+01 -0.14466736708E+02  0.82320111626E+00  0.16715706005E+02  0.51100000000E-03 0. -1.
        -11    1    3    3    0    0 -0.16544043349E+02 -0.64154466387E+01 -0.11968933574E+02  0.21403707554E+02  0.51100000000E-03 0.  1.
        -12    1    3    3    0    0  0.26521346613E+02  0.20583044101E+02  0.72345211871E+01  0.34342129046E+02  0.00000000000E+00 0.  1.
</event>
<event>
 7    1  0.1358622E-013  0.7246148E+02  0.7816164E-02  0.1226708E+00
        -11   -1    0    0    0    0  0.00000000000E+00  0.00000000000E+00  0.45593999997E+02  0.45594000000E+02  0.51100000000E-03 0. -1.
         11   -1    0    0    0    0 -0.00000000000E+00 -0.00000000000E+00 -0.45593999997E+02  0.45594000000E+02  0.51100000000E-03 0.  1.
    9900012    2    1    2    0    0 -0.19737388553E+01 -0.16889375332E+02  0.78444937203E+01  0.72461475339E+02  0.69999876303E+02 0.  0.
        -12    1    1    2    0    0  0.19737388553E+01  0.16889375332E+02 -0.78444937203E+01  0.18726524661E+02  0.00000000000E+00 0.  1.
         11    1    3    3    0    0  0.13012931757E+02 -0.12214623982E+02 -0.12807164768E+02  0.21967177825E+02  0.51100000000E-03 0. -1.
        -11    1    3    3    0    0 -0.13661546922E+02 -0.13177017853E+02 -0.79855297879E+01  0.20592240045E+02  0.51100000000E-03 0.  1.
         12    1    3    3    0    0 -0.13251236906E+01  0.85022665040E+01  0.28637188276E+02  0.29902057469E+02  0.00000000000E+00 0. -1.
</event>
<event>
 7    1  0.1358622E-013  0.7246155E+02  0.7816164E-02  0.1226708E+00
        -11   -1    0    0    0    0  0.00000000000E+00  0.00000000000E+00  0.45593999997E+02  0.45594000000E+02  0.51100000000E-03 0.  1.
         11   -1    0    0    0    0 -0.00000000000E+00 -0.00000000000E+00 -0.45593999997E+02  0.45594000000E+02  0.51100000000E-03 0. -1.
    9900012    2    1    2    0    0 -0.53245932914E+01  0.86218081095E+01  0.15747790678E+02  0.72461553994E+02  0.69999978765E+02 0.  0.
        -12    1    1    2    0    0  0.53245932914E+01 -0.86218081095E+01 -0.15747790678E+02  0.18726446006E+02  0.00000000000E+00 0.  1.
         11    1    3    3    0    0 -0.16109725875E+02 -0.88691137382E+01  0.23209393598E+01  0.18535673876E+02  0.51100000000E-03 0. -1.
        -11    1    3    3    0    0  0.41592199555E+01 -0.62643845821E+00  0.28894840953E+02  0.29199372763E+02  0.51100000000E-03 0.  1.
         12    1    3    3    0    0  0.66259126277E+01  0.18117360306E+02 -0.15467989635E+02  0.24726507355E+02  0.00000000000E+00 0. -1.
</event>
<event>
 7    1  0.1358622E-013  0.7246159E+02  0.7816164E-02  0.1226708E+00
        -11   -1    0    0    0    0  0.00000000000E+00  0.00000000000E+00  0.45593999997E+02  0.45594000000E+02  0.51100000000E-03 0. -1.
         11   -1    0    0    0    0 -0.00000000000E+00 -0.00000000000E+00 -0.45593999997E+02  0.45594000000E+02  0.51100000000E-03 0.  1.
    9900012    2    1    2    0    0  0.85219752466E+01  0.15727152386E+02 -0.55417508792E+01  0.72461591185E+02  0.70000027214E+02 0.  0.
        -12    1    1    2    0    0 -0.85219752466E+01 -0.15727152386E+02  0.55417508792E+01  0.18726408815E+02  0.00000000000E+00 0.  1.
         11    1    3    3    0    0  0.36496336464E+00  0.14691030402E+02  0.27140973874E+00  0.14698069126E+02  0.51100000000E-03 0. -1.
        -11    1    3    3    0    0  0.24026573667E+02  0.16591826207E+02  0.95806626832E+01  0.30730343909E+02  0.51100000000E-03 0.  1.
        -12    1    3    3    0    0 -0.15869561785E+02 -0.15555704222E+02 -0.15393823301E+02  0.27033178151E+02  0.00000000000E+00 0.  1.
</event>
<event>
 7    1  0.1358622E-013  0.7246158E+02  0.7816164E-02  0.1226708E+00
        -11   -1    0    0    0    0  0.00000000000E+00  0.00000000000E+00  0.45593999997E+02  0.45594000000E+02  0.51100000000E-03 0.  1.
         11   -1    0    0    0    0 -0.00000000000E+00 -0.00000000000E+00 -0.45593999997E+02  0.45594000000E+02  0.51100000000E-03 0. -1.
    9900012    2    1    2    0    0 -0.10270898905E+02 -0.15602401375E+02 -0.13238228615E+01  0.72461580162E+02  0.70000012855E+02 0.  0.
        -12    1    1    2    0    0  0.10270898905E+02  0.15602401375E+02  0.13238228615E+01  0.18726419838E+02  0.00000000000E+00 0.  1.
         11    1    3    3    0    0  0.13297513434E+02  0.89957530540E+01 -0.11158320759E+02  0.19551356959E+02  0.51100000000E-03 0. -1.
        -11    1    3    3    0    0 -0.29488810254E+00  0.10008963408E+02  0.40693443753E+01  0.10808601732E+02  0.51100000000E-03 0.  1.
         12    1    3    3    0    0 -0.23273524236E+02 -0.34607117837E+02  0.57651535220E+01  0.42101621471E+02  0.00000000000E+00 0. -1.
</event>
<event>
 7    1  0.1358622E-013  0.7246155E+02  0.7816164E-02  0.1226708E+00
        -11   -1    0    0    0    0  0.00000000000E+00  0.00000000000E+00  0.45593999997E+02  0.45594000000E+02  0.51100000000E-03 0.  1.
         11   -1    0    0    0    0 -0.00000000000E+00 -0.00000000000E+00 -0.45593999997E+02  0.45594000000E+02  0.51100000000E-03 0. -1.
    9900012    2    1    2    0    0  0.14925469820E+02  0.11254744080E+02  0.11140265238E+01  0.72461548955E+02  0.69999972202E+02 0.  0.
        -12    1    1    2    0    0 -0.14925469820E+02 -0.11254744080E+02 -0.11140265238E+01  0.18726451045E+02  0.00000000000E+00 0.  1.
         11    1    3    3    0    0  0.16281236650E+02 -0.80547944895E+01 -0.45564311484E+01  0.18727505071E+02  0.51100000000E-03 0. -1.
        -11    1    3    3    0    0  0.22095743981E+02  0.18800775545E+02  0.81802799968E+01  0.30143125987E+02  0.51100000000E-03 0.  1.
        -12    1    3    3    0    0 -0.23451510811E+02  0.50876302384E+00 -0.25098223246E+01  0.23590917897E+02  0.00000000000E+00 0.  1.
</event>
<event>
 7    1  0.1358622E-013  0.7246154E+02  0.7816164E-02  0.1226708E+00
        -11   -1    0    0    0    0  0.00000000000E+00  0.00000000000E+00  0.45593999997E+02  0.45594000000E+02  0.51100000000E-03 0.  1.
         11   -1    0    0    0    0 -0.00000000000E+00 -0.00000000000E+00 -0.45593999997E+02  0.45594000000E+02  0.51100000000E-03 0. -1.
    9900012    2    1    2    0    0 -0.14525910431E+02 -0.10232701665E+02 -0.59135586951E+01  0.72461536541E+02  0.69999956030E+02 0.  0.
        -12    1    1    2    0    0  0.14525910431E+02  0.10232701665E+02  0.59135586951E+01  0.18726463459E+02  0.00000000000E+00 0.  1.
         11    1    3    3    0    0  0.23739436604E+02 -0.71908295300E+00  0.90271978738E+01  0.25408034797E+02  0.51100000000E-03 0. -1.
        -11    1    3    3    0    0 -0.11023931924E+02  0.64415463307E+01 -0.19533726552E+01  0.12916511107E+02  0.51100000000E-03 0.  1.
        -12    1    3    3    0    0 -0.27241415111E+02 -0.15955165043E+02 -0.12987383914E+02  0.34136990637E+02  0.00000000000E+00 0.  1.
</event>
<event>
 7    1  0.1358622E-013  0.7246215E+02  0.7816164E-02  0.1226706E+00
        -11   -1    0    0    0    0  0.00000000000E+00  0.00000000000E+00  0.45593999997E+02  0.45594000000E+02  0.51100000000E-03 0.  1.
         11   -1    0    0    0    0 -0.00000000000E+00 -0.00000000000E+00 -0.45593999997E+02  0.45594000000E+02  0.51100000000E-03 0. -1.
    9900012    2    1    2    0    0  0.12305380566E+02 -0.88729136560E+01 -0.10977540597E+02  0.72462151950E+02  0.70000757710E+02 0.  0.
        -12    1    1    2    0    0 -0.12305380566E+02  0.88729136560E+01  0.10977540597E+02  0.18725848050E+02  0.00000000000E+00 0.  1.
         11    1    3    3    0    0  0.15108393299E+02  0.78684890479E+00  0.55693372435E+01  0.16121420436E+02  0.51100000000E-03 0. -1.
        -11    1    3    3    0    0 -0.12162233127E+02  0.13645503698E+02  0.91226523077E+01  0.20428961579E+02  0.51100000000E-03 0.  1.
         12    1    3    3    0    0  0.93592203943E+01 -0.23305266259E+02 -0.25669530148E+02  0.35911769935E+02  0.00000000000E+00 0. -1.
</event>
<event>
 7    1  0.1358622E-013  0.7246153E+02  0.7816164E-02  0.1226708E+00
        -11   -1    0    0    0    0  0.00000000000E+00  0.00000000000E+00  0.45593999997E+02  0.45594000000E+02  0.51100000000E-03 0.  1.
         11   -1    0    0    0    0 -0.00000000000E+00 -0.00000000000E+00 -0.45593999997E+02  0.45594000000E+02  0.51100000000E-03 0. -1.
    9900012    2    1    2    0    0 -0.42644792812E+01  0.56064991504E+01 -0.17351139817E+02  0.72461530252E+02  0.69999947838E+02 0.  0.
        -12    1    1    2    0    0  0.42644792812E+01 -0.56064991504E+01  0.17351139817E+02  0.18726469748E+02  0.00000000000E+00 0.  1.
         11    1    3    3    0    0 -0.94175441306E+01  0.10219679565E+02 -0.28087812455E+02  0.31337791827E+02  0.51100000000E-03 0. -1.
        -11    1    3    3    0    0 -0.16497526204E+02  0.28138734624E+01  0.57655856496E+01  0.17701079991E+02  0.51100000000E-03 0.  1.
        -12    1    3    3    0    0  0.21650591053E+02 -0.74270538775E+01  0.49710869883E+01  0.23422658434E+02  0.00000000000E+00 0.  1.
</event>
<event>
 7    1  0.1358622E-013  0.7246165E+02  0.7816164E-02  0.1226708E+00
        -11   -1    0    0    0    0  0.00000000000E+00  0.00000000000E+00  0.45593999997E+02  0.45594000000E+02  0.51100000000E-03 0.  1.
         11   -1    0    0    0    0 -0.00000000000E+00 -0.00000000000E+00 -0.45593999997E+02  0.45594000000E+02  0.51100000000E-03 0. -1.
    9900012    2    1    2    0    0  0.80976641886E+01  0.16534771898E+02  0.34213054290E+01  0.72461650173E+02  0.70000104056E+02 0.  0.
        -12    1    1    2    0    0 -0.80976641886E+01 -0.16534771898E+02 -0.34213054290E+01  0.18726349827E+02  0.00000000000E+00 0.  1.
         11    1    3    3    0    0 -0.85526654731E+01 -0.43198530099E+01  0.16745077169E+02  0.19292662501E+02  0.51100000000E-03 0. -1.
        -11    1    3    3    0    0 -0.12514366553E+02  0.70768026379E+01  0.59885552708E+01  0.15574122778E+02  0.51100000000E-03 0.  1.
         12    1    3    3    0    0  0.29164696215E+02  0.13777822270E+02 -0.19312327011E+02  0.37594864894E+02  0.00000000000E+00 0. -1.
</event>
<event>
 7    1  0.1358622E-013  0.7246193E+02  0.7816164E-02  0.1226707E+00
        -11   -1    0    0    0    0  0.00000000000E+00  0.00000000000E+00  0.45593999997E+02  0.45594000000E+02  0.51100000000E-03 0. -1.
         11   -1    0    0    0    0 -0.00000000000E+00 -0.00000000000E+00 -0.45593999997E+02  0.45594000000E+02  0.51100000000E-03 0.  1.
    9900012    2    1    2    0    0  0.10387777735E+02  0.13512820724E+02 -0.77565185461E+01  0.72461926463E+02  0.70000463974E+02 0.  0.
        -12    1    1    2    0    0 -0.10387777735E+02 -0.13512820724E+02  0.77565185461E+01  0.18726073537E+02  0.00000000000E+00 0.  1.
         11    1    3    3    0    0  0.92306758079E+01  0.21163078987E+02  0.13424356086E+02  0.26707576166E+02  0.51100000000E-03 0. -1.
        -11    1    3    3    0    0  0.14921093422E+02  0.93628214266E+01 -0.14666325059E+02  0.22921661043E+02  0.51100000000E-03 0.  1.
        -12    1    3    3    0    0 -0.13763991495E+02 -0.17013079690E+02 -0.65145495728E+01  0.22832689254E+02  0.00000000000E+00 0.  1.
</event>
<event>
 7    1  0.1358622E-013  0.7246153E+02  0.7816164E-02  0.1226708E+00
        -11   -1    0    0    0    0  0.00000000000E+00  0.00000000000E+00  0.45593999997E+02  0.45594000000E+02  0.51100000000E-03 0.  1.
         11   -1    0    0    0    0 -0.00000000000E+00 -0.00000000000E+00 -0.45593999997E+02  0.45594000000E+02  0.51100000000E-03 0. -1.
    9900012    2    1    2    0    0  0.44013039039E+01 -0.18136430210E+02  0.15424178856E+01  0.72461531306E+02  0.69999949211E+02 0.  0.
        -12    1    1    2    0    0 -0.44013039039E+01  0.18136430210E+02 -0.15424178856E+01  0.18726468694E+02  0.00000000000E+00 0.  1.
         11    1    3    3    0    0 -0.16437887031E+02 -0.56791469596E+01 -0.66115990588E+01  0.18605646525E+02  0.51100000000E-03 0. -1.
        -11    1    3    3    0    0 -0.66549113589E+01  0.13733259320E+02  0.25651688416E+01  0.15474829504E+02  0.51100000000E-03 0.  1.
         12    1    3    3    0    0  0.27494102294E+02 -0.26190542570E+02  0.55888481029E+01  0.38381055277E+02  0.00000000000E+00 0. -1.
</event>
<event>
 7    1  0.1358622E-013  0.7246159E+02  0.7816164E-02  0.1226708E+00
        -11   -1    0    0    0    0  0.00000000000E+00  0.00000000000E+00  0.45593999997E+02  0.45594000000E+02  0.51100000000E-03 0.  1.
         11   -1    0    0    0    0 -0.00000000000E+00 -0.00000000000E+00 -0.45593999997E+02  0.45594000000E+02  0.51100000000E-03 0. -1.
    9900012    2    1    2    0    0 -0.67435754838E+01 -0.14910720564E+02 -0.91034617557E+01  0.72461590468E+02  0.70000026280E+02 0.  0.
        -12    1    1    2    0    0  0.67435754838E+01  0.14910720564E+02  0.91034617557E+01  0.18726409532E+02  0.00000000000E+00 0.  1.
         11    1    3    3    0    0 -0.14845557181E+01  0.32664081112E+01 -0.24801243121E+02  0.25059429128E+02  0.51100000000E-03 0. -1.
        -11    1    3    3    0    0  0.21102469868E+01  0.22546257900E+01 -0.11893270674E+02  0.12287651011E+02  0.51100000000E-03 0.  1.
        -12    1    3    3    0    0 -0.73692667525E+01 -0.20431754465E+02  0.27591052039E+02  0.35114510328E+02  0.00000000000E+00 0.  1.
</event>
<event>
 7    1  0.1358622E-013  0.7246183E+02  0.7816164E-02  0.1226707E+00
        -11   -1    0    0    0    0  0.00000000000E+00  0.00000000000E+00  0.45593999997E+02  0.45594000000E+02  0.51100000000E-03 0.  1.
         11   -1    0    0    0    0 -0.00000000000E+00 -0.00000000000E+00 -0.45593999997E+02  0.45594000000E+02  0.51100000000E-03 0. -1.
    9900012    2    1    2    0    0 -0.18622799802E+02 -0.19262112592E+01 -0.38797388910E+00  0.72461828848E+02  0.70000336813E+02 0.  0.
        -12    1    1    2    0    0  0.18622799802E+02  0.19262112592E+01  0.38797388910E+00  0.18726171152E+02  0.00000000000E+00 0.  1.
         11    1    3    3    0    0  0.10032289927E+02  0.96932547202E+01 -0.12516936533E+02  0.18742457915E+02  0.51100000000E-03 0. -1.
        -11    1    3    3    0    0 -0.72767925049E+01 -0.13829709719E+02  0.24396526644E+02  0.28972454031E+02  0.51100000000E-03 0.  1.
         12    1    3    3    0    0 -0.21378297225E+02  0.22102437393E+01 -0.12267564000E+02  0.24746916901E+02  0.00000000000E+00 0. -1.
</event>
<event>
 7    1  0.1358622E-013  0.7246153E+02  0.7816164E-02  0.1226708E+00
        -11   -1    0    0    0    0  0.00000000000E+00  0.00000000000E+00  0.45593999997E+02  0.45594000000E+02  0.51100000000E-03 0.  1.
         11   -1    0    0    0    0 -0.00000000000E+00 -0.00000000000E+00 -0.45593999997E+02  0.45594000000E+02  0.51100000000E-03 0. -1.
    9900012    2    1    2    0    0  0.81612393179E+01 -0.15558328302E+02 -0.64817724864E+01  0.72461527259E+02  0.69999943938E+02 0.  0.
        -12    1    1    2    0    0 -0.81612393179E+01  0.15558328302E+02  0.64817724864E+01  0.18726472741E+02  0.00000000000E+00 0.  1.
         11    1    3    3    0    0 -0.30577418626E+01  0.35392975125E+00  0.11704446718E+01  0.32931736301E+01  0.51100000000E-03 0. -1.
        -11    1    3    3    0    0 -0.22875828320E+02  0.87030591790E+01 -0.11300774634E+02  0.26958380293E+02  0.51100000000E-03 0.  1.
         12    1    3    3    0    0  0.34094809501E+02 -0.24615317232E+02  0.36485574756E+01  0.42209973336E+02  0.00000000000E+00 0. -1.
</event>
<event>
 7    1  0.1358622E-013  0.7246157E+02  0.7816164E-02  0.1226708E+00
        -11   -1    0    0    0    0  0.00000000000E+00  0.00000000000E+00  0.45593999997E+02  0.45594000000E+02  0.51100000000E-03 0.  1.
         11   -1    0    0    0    0 -0.00000000000E+00 -0.00000000000E+00 -0.45593999997E+02  0.45594000000E+02  0.51100000000E-03 0. -1.
    9900012    2    1    2    0    0  0.14998460722E+02 -0.14858762636E+01 -0.11113850176E+02  0.72461566329E+02  0.69999994835E+02 0.  0.
        -12    1    1    2    0    0 -0.14998460722E+02  0.14858762636E+01  0.11113850176E+02  0.18726433671E+02  0.00000000000E+00 0.  1.
         11    1    3    3    0    0 -0.15719222433E+02  0.38998894478E+01 -0.26917661921E+02  0.31414385481E+02  0.51100000000E-03 0. -1.
        -11    1    3    3    0    0  0.13285986650E+02 -0.88999972090E+00 -0.43648726588E+01  0.14012910275E+02  0.51100000000E-03 0.  1.
        -12    1    3    3    0    0  0.17431696504E+02 -0.44957659905E+01  0.20168684404E+02  0.27034270573E+02  0.00000000000E+00 0.  1.
</event>
<event>
 7    1  0.1358622E-013  0.7246158E+02  0.7816164E-02  0.1226708E+00
        -11   -1    0    0    0    0  0.00000000000E+00  0.00000000000E+00  0.45593999997E+02  0.45594000000E+02  0.51100000000E-03 0. -1.
         11   -1    0    0    0    0 -0.00000000000E+00 -0.00000000000E+00 -0.45593999997E+02  0.45594000000E+02  0.51100000000E-03 0.  1.
    9900012    2    1    2    0    0  0.10601129065E+02  0.22396628041E+01  0.15273468909E+02  0.72461578039E+02  0.70000010089E+02 0.  0.
        -12    1    1    2    0    0 -0.10601129065E+02 -0.22396628041E+01 -0.15273468909E+02  0.18726421961E+02  0.00000000000E+00 0.  1.
         11    1    3    3    0    0 -0.31062253657E+01  0.28562287792E+01  0.18192012291E+02  0.18675009781E+02  0.51100000000E-03 0. -1.
        -11    1    3    3    0    0 -0.10329524095E+02  0.99446300124E+01  0.15955592011E+02  0.21451705079E+02  0.51100000000E-03 0.  1.
        -12    1    3    3    0    0  0.24036878526E+02 -0.10561195987E+02 -0.18874135393E+02  0.32334863179E+02  0.00000000000E+00 0.  1.
</event>
<event>
 7    1  0.1358622E-013  0.7246161E+02  0.7816164E-02  0.1226708E+00
        -11   -1    0    0    0    0  0.00000000000E+00  0.00000000000E+00  0.45593999997E+02  0.45594000000E+02  0.51100000000E-03 0. -1.
         11   -1    0    0    0    0 -0.00000000000E+00 -0.00000000000E+00 -0.45593999997E+02  0.45594000000E+02  0.51100000000E-03 0.  1.
    9900012    2    1    2    0    0 -0.46376343130E+01  0.99809043633E+01  0.15150959559E+02  0.72461610079E+02  0.70000051826E+02 0.  0.
        -12    1    1    2    0    0  0.46376343130E+01 -0.99809043633E+01 -0.15150959559E+02  0.18726389921E+02  0.00000000000E+00 0.  1.
         11    1    3    3    0    0 -0.96874114645E+00  0.18749620578E+02  0.87294050621E+01  0.20704812104E+02  0.51100000000E-03 0. -1.
        -11    1    3    3    0    0 -0.18289260756E+02  0.12507111329E+02  0.12213361567E+02  0.25300021617E+02  0.51100000000E-03 0.  1.
        -12    1    3    3    0    0  0.14620367589E+02 -0.21275827544E+02 -0.57918070703E+01  0.26456776358E+02  0.00000000000E+00 0.  1.
</event>
<event>
 7    1  0.1358622E-013  0.7246156E+02  0.7816164E-02  0.1226708E+00
        -11   -1    0    0    0    0  0.00000000000E+00  0.00000000000E+00  0.45593999997E+02  0.45594000000E+02  0.51100000000E-03 0.  1.
         11   -1    0    0    0    0 -0.00000000000E+00 -0.00000000000E+00 -0.45593999997E+02  0.45594000000E+02  0.51100000000E-03 0. -1.
    9900012    2    1    2    0    0 -0.10193640005E+02 -0.42827472539E+01 -0.15113812118E+02  0.72461560474E+02  0.69999987207E+02 0.  0.
        -12    1    1    2    0    0  0.10193640005E+02  0.42827472539E+01  0.15113812118E+02  0.18726439526E+02  0.00000000000E+00 0.  1.
         11    1    3    3    0    0  0.88852074873E+01 -0.14052289963E+02 -0.88624272641E+00  0.16649300037E+02  0.51100000000E-03 0. -1.
        -11    1    3    3    0    0  0.72901241552E+01 -0.50368872314E+01  0.12588096234E+02  0.15394034891E+02  0.51100000000E-03 0.  1.
         12    1    3    3    0    0 -0.26368971648E+02  0.14806429940E+02 -0.26815665625E+02  0.40418225546E+02  0.00000000000E+00 0. -1.
</event>
<event>
 7    1  0.1358622E-013  0.7246150E+02  0.7816164E-02  0.1226708E+00
        -11   -1    0    0    0    0  0.00000000000E+00  0.00000000000E+00  0.45593999997E+02  0.45594000000E+02  0.51100000000E-03 0.  1.
         11   -1    0    0    0    0 -0.00000000000E+00 -0.00000000000E+00 -0.45593999997E+02  0.45594000000E+02  0.51100000000E-03 0. -1.
    9900012    2    1    2    0    0 -0.73355459336E+00  0.81750965111E+01 -0.16831862506E+02  0.72461497370E+02  0.69999905003E+02 0.  0.
        -12    1    1    2    0    0  0.73355459336E+00 -0.81750965111E+01  0.16831862506E+02  0.18726502630E+02  0.00000000000E+00 0.  1.
         11    1    3    3    0    0 -0.32402681968E+01 -0.14970656188E+01  0.21379965368E+01  0.41607178355E+01  0.51100000000E-03 0. -1.
        -11    1    3    3    0    0  0.80185067992E+00  0.31268610799E+02  0.93487384475E+01  0.32646100788E+02  0.51100000000E-03 0.  1.
         12    1    3    3    0    0  0.17048629235E+01 -0.21596448670E+02 -0.28318597490E+02  0.35654678747E+02  0.00000000000E+00 0. -1.
</event>
<event>
 7    1  0.1358622E-013  0.7246157E+02  0.7816164E-02  0.1226708E+00
        -11   -1    0    0    0    0  0.00000000000E+00  0.00000000000E+00  0.45593999997E+02  0.45594000000E+02  0.51100000000E-03 0. -1.
         11   -1    0    0    0    0 -0.00000000000E+00 -0.00000000000E+00 -0.45593999997E+02  0.45594000000E+02  0.51100000000E-03 0.  1.
    9900012    2    1    2    0    0 -0.95121871269E+01 -0.12028171763E+02  0.10748053566E+02  0.72461567469E+02  0.69999996319E+02 0.  0.
        -12    1    1    2    0    0  0.95121871269E+01  0.12028171763E+02 -0.10748053566E+02  0.18726432531E+02  0.00000000000E+00 0.  1.
         11    1    3    3    0    0  0.18971808761E+02  0.35982986870E+00  0.21651363437E+02  0.28789590899E+02  0.51100000000E-03 0. -1.
        -11    1    3    3    0    0 -0.84866943000E+01 -0.79455694805E+01  0.93095417732E+01  0.14893744418E+02  0.51100000000E-03 0.  1.
        -12    1    3    3    0    0 -0.19997301587E+02 -0.44424321510E+01 -0.20212851644E+02  0.28778232152E+02  0.00000000000E+00 0.  1.
</event>
<event>
 7    1  0.1358622E-013  0.7246158E+02  0.7816164E-02  0.1226708E+00
        -11   -1    0    0    0    0  0.00000000000E+00  0.00000000000E+00  0.45593999997E+02  0.45594000000E+02  0.51100000000E-03 0. -1.
         11   -1    0    0    0    0 -0.00000000000E+00 -0.00000000000E+00 -0.45593999997E+02  0.45594000000E+02  0.51100000000E-03 0.  1.
    9900012    2    1    2    0    0  0.30245878979E+01  0.18129159246E+02  0.35867009257E+01  0.72461575609E+02  0.70000006924E+02 0.  0.
        -12    1    1    2    0    0 -0.30245878979E+01 -0.18129159246E+02 -0.35867009257E+01  0.18726424391E+02  0.00000000000E+00 0.  1.
         11    1    3    3    0    0 -0.22928940974E+02  0.25407600438E+02  0.10674280045E+02  0.35850003472E+02  0.51100000000E-03 0. -1.
        -11    1    3    3    0    0  0.17567531057E+02  0.21625278249E+01  0.57438036504E+01  0.18608760159E+02  0.51100000000E-03 0.  1.
        -12    1    3    3    0    0  0.83859978152E+01 -0.94409690168E+01 -0.12831382770E+02  0.18002811978E+02  0.00000000000E+00 0.  1.
</event>
<event>
 7    1  0.1358622E-013  0.7246157E+02  0.7816164E-02  0.1226708E+00
        -11   -1    0    0    0    0  0.00000000000E+00  0.00000000000E+00  0.45593999997E+02  0.45594000000E+02  0.51100000000E-03 0.  1.
         11   -1    0    0    0    0 -0.00000000000E+00 -0.00000000000E+00 -0.45593999997E+02  0.45594000000E+02  0.51100000000E-03 0. -1.
    9900012    2    1    2    0    0 -0.57354155149E+01 -0.17809205748E+02  0.78514253084E+00  0.72461568165E+02  0.69999997226E+02 0.  0.
        -12    1    1    2    0    0  0.57354155149E+01  0.17809205748E+02 -0.78514253084E+00  0.18726431835E+02  0.00000000000E+00 0.  1.
         11    1    3    3    0    0  0.23589030762E+01 -0.11950105067E+01 -0.63302562858E+01  0.68603657875E+01  0.51100000000E-03 0. -1.
        -11    1    3    3    0    0  0.26580831581E+02 -0.71874123199E+01  0.10586172865E+02  0.29500280669E+02  0.51100000000E-03 0.  1.
         12    1    3    3    0    0 -0.34675150172E+02 -0.94267829211E+01 -0.34707740481E+01  0.36100921708E+02  0.00000000000E+00 0. -1.
</event>
<event>
 7    1  0.1358622E-013  0.7246140E+02  0.7816164E-02  0.1226708E+00
        -11   -1    0    0    0    0  0.00000000000E+00  0.00000000000E+00  0.45593999997E+02  0.45594000000E+02  0.51100000000E-03 0.  1.
         11   -1    0    0    0    0 -0.00000000000E+00 -0.00000000000E+00 -0.45593999997E+02  0.45594000000E+02  0.51100000000E-03 0. -1.
    9900012    2    1    2    0    0 -0.17084967931E+02  0.20182197078E+01 -0.73970499866E+01  0.72461396237E+02  0.69999773257E+02 0.  0.
        -12    1    1    2    0    0  0.17084967931E+02 -0.20182197078E+01  0.73970499866E+01  0.18726603763E+02  0.00000000000E+00 0.  1.
         11    1    3    3    0    0 -0.14064296691E+02  0.26899885145E+01 -0.22038486172E+02  0.26281844544E+02  0.51100000000E-03 0. -1.
        -11    1    3    3    0    0  0.17815818142E+02  0.81520231240E+01  0.12956813403E+02  0.23489101108E+02  0.51100000000E-03 0.  1.
         12    1    3    3    0    0 -0.20836489382E+02 -0.88237919308E+01  0.16846227826E+01  0.22690450584E+02  0.00000000000E+00 0. -1.
</event>
<event>
 7    1  0.1358622E-013  0.7246159E+02  0.7816164E-02  0.1226708E+00
        -11   -1    0    0    0    0  0.00000000000E+00  0.00000000000E+00  0.45593999997E+02  0.45594000000E+02  0.51100000000E-03 0. -1.
         11   -1    0    0    0    0 -0.00000000000E+00 -0.00000000000E+00 -0.45593999997E+02  0.45594000000E+02  0.51100000000E-03 0.  1.
    9900012    2    1    2    0    0 -0.16276074686E+02  0.69679630576E+01  0.61004452028E+01  0.72461586888E+02  0.70000021617E+02 0.  0.
        -12    1    1    2    0    0  0.16276074686E+02 -0.69679630576E+01 -0.61004452028E+01  0.18726413112E+02  0.00000000000E+00 0.  1.
         11    1    3    3    0    0 -0.73383823789E+01  0.12336548037E+02 -0.23733467532E+02  0.27736613974E+02  0.51100000000E-03 0. -1.
        -11    1    3    3    0    0 -0.88213823965E+01 -0.13995834026E+01 -0.46111629592E+01  0.10051788158E+02  0.51100000000E-03 0.  1.
         12    1    3    3    0    0 -0.11630991049E+00 -0.39690015765E+01  0.34445075694E+02  0.34673184756E+02  0.00000000000E+00 0. -1.
</event>
<event>
 7    1  0.1358622E-013  0.7246157E+02  0.7816164E-02  0.1226708E+00
        -11   -1    0    0    0    0  0.00000000000E+00  0.00000000000E+00  0.45593999997E+02  0.45594000000E+02  0.51100000000E-03 0.  1.
         11   -1    0    0    0    0 -0.00000000000E+00 -0.00000000000E+00 -0.45593999997E+02  0.45594000000E+02  0.51100000000E-03 0. -1.
    9900012    2    1    2    0    0 -0.39184212973E+01 -0.29326726220E+01 -0.18075521956E+02  0.72461572467E+02  0.70000002830E+02 0.  0.
        -12    1    1    2    0    0  0.39184212973E+01  0.29326726220E+01  0.18075521956E+02  0.18726427533E+02  0.00000000000E+00 0.  1.
         11    1    3    3    0    0  0.16484404718E+02  0.13237987718E+02  0.65634724228E+01  0.22137278248E+02  0.51100000000E-03 0. -1.
        -11    1    3    3    0    0  0.80295245651E+01 -0.81544901431E+01 -0.15762253647E+02  0.19478645089E+02  0.51100000000E-03 0.  1.
        -12    1    3    3    0    0 -0.28432350581E+02 -0.80161701967E+01 -0.88767407321E+01  0.30845649129E+02  0.00000000000E+00 0.  1.
</event>
<event>
 7    1  0.1358622E-013  0.7246220E+02  0.7816164E-02  0.1226706E+00
        -11   -1    0    0    0    0  0.00000000000E+00  0.00000000000E+00  0.45593999997E+02  0.45594000000E+02  0.51100000000E-03 0. -1.
         11   -1    0    0    0    0 -0.00000000000E+00 -0.00000000000E+00 -0.45593999997E+02  0.45594000000E+02  0.51100000000E-03 0.  1.
    9900012    2    1    2    0    0 -0.46704945636E+01 -0.15577724225E+02  0.92831402169E+01  0.72462196845E+02  0.70000816194E+02 0.  0.
        -12    1    1    2    0    0  0.46704945636E+01  0.15577724225E+02 -0.92831402169E+01  0.18725803155E+02  0.00000000000E+00 0.  1.
         11    1    3    3    0    0 -0.96056022265E+01 -0.20799516575E+02 -0.46268590452E+01  0.23372961061E+02  0.51100000000E-03 0. -1.
        -11    1    3    3    0    0  0.23871203487E+02  0.98261918137E+01  0.14469891355E+02  0.29593346508E+02  0.51100000000E-03 0.  1.
         12    1    3    3    0    0 -0.18936095824E+02 -0.46043994640E+01 -0.55989209254E+00  0.19495889275E+02  0.00000000000E+00 0. -1.
</event>
<event>
 7    1  0.1358622E-013  0.7246167E+02  0.7816164E-02  0.1226708E+00
        -11   -1    0    0    0    0  0.00000000000E+00  0.00000000000E+00  0.45593999997E+02  0.45594000000E+02  0.51100000000E-03 0. -1.
         11   -1    0    0    0    0 -0.00000000000E+00 -0.00000000000E+00 -0.45593999997E+02  0.45594000000E+02  0.51100000000E-03 0.  1.
    9900012    2    1    2    0    0  0.72032490466E+01 -0.18920735975E+01  0.17181639361E+02  0.72461669060E+02  0.70000128661E+02 0.  0.
        -12    1    1    2    0    0 -0.72032490466E+01  0.18920735975E+01 -0.17181639361E+02  0.18726330940E+02  0.00000000000E+00 0.  1.
         11    1    3    3    0    0 -0.71673610797E+01  0.21613247099E+02  0.85827051006E+01  0.24334468191E+02  0.51100000000E-03 0. -1.
        -11    1    3    3    0    0  0.15696490029E+02  0.11330803965E+01  0.15924467654E+02  0.22388665452E+02  0.51100000000E-03 0.  1.
        -12    1    3    3    0    0 -0.13258799025E+01 -0.24638401093E+02 -0.73255333931E+01  0.25738535417E+02  0.00000000000E+00 0.  1.
</event>
<event>
 7    1  0.1358622E-013  0.7246168E+02  0.7816164E-02  0.1226708E+00
        -11   -1    0    0    0    0  0.00000000000E+00  0.00000000000E+00  0.45593999997E+02  0.45594000000E+02  0.51100000000E-03 0.  1.
         11   -1    0    0    0    0 -0.00000000000E+00 -0.00000000000E+00 -0.45593999997E+02  0.45594000000E+02  0.51100000000E-03 0. -1.
    9900012    2    1    2    0    0 -0.18613946629E+02 -0.20426811389E+01  0.15329573099E+00  0.72461680155E+02  0.70000143114E+02 0.  0.
        -12    1    1    2    0    0  0.18613946629E+02  0.20426811389E+01 -0.15329573099E+00  0.18726319845E+02  0.00000000000E+00 0.  1.
         11    1    3    3    0    0 -0.13583614101E+02  0.19138734720E+02  0.54376993662E+01  0.24090959163E+02  0.51100000000E-03 0. -1.
        -11    1    3    3    0    0  0.18776022255E+02 -0.90607268714E+01  0.11941141066E+01  0.20882090220E+02  0.51100000000E-03 0.  1.
         12    1    3    3    0    0 -0.23806354784E+02 -0.12120688988E+02 -0.64785177418E+01  0.27488630773E+02  0.00000000000E+00 0. -1.
</event>
<event>
 7    1  0.1358622E-013  0.7246157E+02  0.7816164E-02  0.1226708E+00
        -11   -1    0    0    0    0  0.00000000000E+00  0.00000000000E+00  0.45593999997E+02  0.45594000000E+02  0.51100000000E-03 0.  1.
         11   -1    0    0    0    0 -0.00000000000E+00 -0.00000000000E+00 -0.45593999997E+02  0.45594000000E+02  0.51100000000E-03 0. -1.
    9900012    2    1    2    0    0 -0.74120399845E+01  0.15719465903E+02 -0.69741900227E+01  0.72461567572E+02  0.69999996453E+02 0.  0.
        -12    1    1    2    0    0  0.74120399845E+01 -0.15719465903E+02  0.69741900227E+01  0.18726432428E+02  0.00000000000E+00 0.  1.
         11    1    3    3    0    0 -0.67056929729E+01  0.90616683075E+01 -0.69341043304E+01  0.13234876421E+02  0.51100000000E-03 0. -1.
        -11    1    3    3    0    0 -0.16243856261E+02  0.12168729279E+02  0.23141353711E+02  0.30780888394E+02  0.51100000000E-03 0.  1.
         12    1    3    3    0    0  0.15537509249E+02 -0.55109316835E+01 -0.23181439403E+02  0.28445802757E+02  0.00000000000E+00 0. -1.
</event>
<event>
 7    1  0.1358622E-013  0.7246147E+02  0.7816164E-02  0.1226708E+00
        -11   -1    0    0    0    0  0.00000000000E+00  0.00000000000E+00  0.45593999997E+02  0.45594000000E+02  0.51100000000E-03 0.  1.
         11   -1    0    0    0    0 -0.00000000000E+00 -0.00000000000E+00 -0.45593999997E+02  0.45594000000E+02  0.51100000000E-03 0. -1.
    9900012    2    1    2    0    0  0.16203186137E+02  0.79701515637E+01 -0.49615055211E+01  0.72461465511E+02  0.69999863500E+02 0.  0.
        -12    1    1    2    0    0 -0.16203186137E+02 -0.79701515637E+01  0.49615055211E+01  0.18726534489E+02  0.00000000000E+00 0.  1.
         11    1    3    3    0    0 -0.22173039870E+00  0.35470405507E+01  0.18047869567E+02  0.18394462678E+02  0.51100000000E-03 0. -1.
        -11    1    3    3    0    0  0.15027865047E+02  0.11083530867E+02  0.94317026825E+01  0.20919808797E+02  0.51100000000E-03 0.  1.
         12    1    3    3    0    0  0.13970514888E+01 -0.66604198540E+01 -0.32441077771E+02  0.33147194036E+02  0.00000000000E+00 0. -1.
</event>
<event>
 7    1  0.1358622E-013  0.7246139E+02  0.7816164E-02  0.1226708E+00
        -11   -1    0    0    0    0  0.00000000000E+00  0.00000000000E+00  0.45593999997E+02  0.45594000000E+02  0.51100000000E-03 0.  1.
         11   -1    0    0    0    0 -0.00000000000E+00 -0.00000000000E+00 -0.45593999997E+02  0.45594000000E+02  0.51100000000E-03 0. -1.
    9900012    2    1    2    0    0 -0.53508023407E+01 -0.16938682648E+02  0.59275467384E+01  0.72461391501E+02  0.69999767088E+02 0.  0.
        -12    1    1    2    0    0  0.53508023407E+01  0.16938682648E+02 -0.59275467384E+01  0.18726608499E+02  0.00000000000E+00 0.  1.
         11    1    3    3    0    0  0.41079938211E+01  0.18114700906E+00 -0.53368213581E+01  0.67372167801E+01  0.51100000000E-03 0. -1.
        -11    1    3    3    0    0  0.12035532881E+02  0.67949376076E+01  0.26693447001E+02  0.30059363630E+02  0.51100000000E-03 0.  1.
         12    1    3    3    0    0 -0.21494329043E+02 -0.23914767265E+02 -0.15429078904E+02  0.35664811091E+02  0.00000000000E+00 0. -1.
</event>
<event>
 7    1  0.1358622E-013  0.7246158E+02  0.7816164E-02  0.1226708E+00
        -11   -1    0    0    0    0  0.00000000000E+00  0.00000000000E+00  0.45593999997E+02  0.45594000000E+02  0.51100000000E-03 0.  1.
         11   -1    0    0    0    0 -0.00000000000E+00 -0.00000000000E+00 -0.45593999997E+02  0.45594000000E+02  0.51100000000E-03 0. -1.
    9900012    2    1    2    0    0  0.10170161804E+02 -0.24922522700E+01  0.15525315267E+02  0.72461576780E+02  0.70000008448E+02 0.  0.
        -12    1    1    2    0    0 -0.10170161804E+02  0.24922522700E+01 -0.15525315267E+02  0.18726423220E+02  0.00000000000E+00 0.  1.
         11    1    3    3    0    0 -0.86263902860E+01 -0.44777104046E+00  0.20592843798E+01  0.88800766151E+01  0.51100000000E-03 0. -1.
        -11    1    3    3    0    0 -0.17817184099E+02 -0.87959462839E+01  0.17044496783E+02  0.26178915010E+02  0.51100000000E-03 0.  1.
         12    1    3    3    0    0  0.36613736189E+02  0.67514650544E+01 -0.35784658956E+01  0.37402585154E+02  0.00000000000E+00 0. -1.
</event>
<event>
 7    1  0.1358622E-013  0.7246159E+02  0.7816164E-02  0.1226708E+00
        -11   -1    0    0    0    0  0.00000000000E+00  0.00000000000E+00  0.45593999997E+02  0.45594000000E+02  0.51100000000E-03 0. -1.
         11   -1    0    0    0    0 -0.00000000000E+00 -0.00000000000E+00 -0.45593999997E+02  0.45594000000E+02  0.51100000000E-03 0.  1.
    9900012    2    1    2    0    0  0.17562567094E+02  0.10031223550E+01  0.64209458949E+01  0.72461586473E+02  0.70000021076E+02 0.  0.
        -12    1    1    2    0    0 -0.17562567094E+02 -0.10031223550E+01 -0.64209458949E+01  0.18726413527E+02  0.00000000000E+00 0.  1.
         11    1    3    3    0    0  0.22078792299E+02 -0.89437655899E+01 -0.11963408931E+01  0.23851524985E+02  0.51100000000E-03 0.  1.
        -11    1    3    3    0    0  0.99144505952E+01 -0.54343513403E+01  0.20845375682E+02  0.23714092702E+02  0.51100000000E-03 0. -1.
        -12    1    3    3    0    0 -0.14430675800E+02  0.15381239285E+02 -0.13228088894E+02  0.24895968786E+02  0.00000000000E+00 0.  1.
</event>
<event>
 7    1  0.1358622E-013  0.7246156E+02  0.7816164E-02  0.1226708E+00
        -11   -1    0    0    0    0  0.00000000000E+00  0.00000000000E+00  0.45593999997E+02  0.45594000000E+02  0.51100000000E-03 0. -1.
         11   -1    0    0    0    0 -0.00000000000E+00 -0.00000000000E+00 -0.45593999997E+02  0.45594000000E+02  0.51100000000E-03 0.  1.
    9900012    2    1    2    0    0  0.19930478835E+01  0.93946196935E+01  0.16076332323E+02  0.72461559334E+02  0.69999985722E+02 0.  0.
        -12    1    1    2    0    0 -0.19930478835E+01 -0.93946196935E+01 -0.16076332323E+02  0.18726440666E+02  0.00000000000E+00 0.  1.
         11    1    3    3    0    0 -0.18131662785E+02 -0.18294511940E+02 -0.40783511418E+01  0.26078330291E+02  0.51100000000E-03 0. -1.
        -11    1    3    3    0    0 -0.34376834088E+01  0.27001337597E+01 -0.26910245174E+01  0.51332253753E+01  0.51100000000E-03 0.  1.
         12    1    3    3    0    0  0.23562394078E+02  0.24988997873E+02  0.22845707982E+02  0.41250003668E+02  0.00000000000E+00 0. -1.
</event>
<event>
 7    1  0.1358622E-013  0.7246157E+02  0.7816164E-02  0.1226708E+00
        -11   -1    0    0    0    0  0.00000000000E+00  0.00000000000E+00  0.45593999997E+02  0.45594000000E+02  0.51100000000E-03 0. -1.
         11   -1    0    0    0    0 -0.00000000000E+00 -0.00000000000E+00 -0.45593999997E+02  0.45594000000E+02  0.51100000000E-03 0.  1.
    9900012    2    1    2    0    0  0.95606004180E+01  0.11442792360E+02  0.11328582324E+02  0.72461565347E+02  0.69999993555E+02 0.  0.
        -12    1    1    2    0    0 -0.95606004180E+01 -0.11442792360E+02 -0.11328582324E+02  0.18726434653E+02  0.00000000000E+00 0.  1.
         11    1    3    3    0    0  0.45417019955E+01  0.32711724284E+02  0.21976717455E+02  0.39669384581E+02  0.51100000000E-03 0. -1.
        -11    1    3    3    0    0 -0.53776407404E+01 -0.14654282692E+02  0.12541837617E+01  0.15660140431E+02  0.51100000000E-03 0.  1.
        -12    1    3    3    0    0  0.10396539163E+02 -0.66146492319E+01 -0.11902318892E+02  0.17132040335E+02  0.00000000000E+00 0.  1.
</event>
<event>
 7    1  0.1358622E-013  0.7246160E+02  0.7816164E-02  0.1226708E+00
        -11   -1    0    0    0    0  0.00000000000E+00  0.00000000000E+00  0.45593999997E+02  0.45594000000E+02  0.51100000000E-03 0. -1.
         11   -1    0    0    0    0 -0.00000000000E+00 -0.00000000000E+00 -0.45593999997E+02  0.45594000000E+02  0.51100000000E-03 0.  1.
    9900012    2    1    2    0    0  0.65589078017E+01 -0.17360633799E+02  0.25034216958E+01  0.72461601584E+02  0.70000040760E+02 0.  0.
        -12    1    1    2    0    0 -0.65589078017E+01  0.17360633799E+02 -0.25034216958E+01  0.18726398416E+02  0.00000000000E+00 0.  1.
         11    1    3    3    0    0 -0.11158816415E+02 -0.20058231642E+02  0.21367565620E+02  0.31359603013E+02  0.51100000000E-03 0. -1.
        -11    1    3    3    0    0  0.12299705607E+02  0.70181314379E+01  0.59337539398E+01  0.15354034094E+02  0.51100000000E-03 0.  1.
        -12    1    3    3    0    0  0.54180186100E+01 -0.43205335948E+01 -0.24797897864E+02  0.25747964476E+02  0.00000000000E+00 0.  1.
</event>
<event>
 7    1  0.1358622E-013  0.7246114E+02  0.7816164E-02  0.1226709E+00
        -11   -1    0    0    0    0  0.00000000000E+00  0.00000000000E+00  0.45593999997E+02  0.45594000000E+02  0.51100000000E-03 0.  1.
         11   -1    0    0    0    0 -0.00000000000E+00 -0.00000000000E+00 -0.45593999997E+02  0.45594000000E+02  0.51100000000E-03 0. -1.
    9900012    2    1    2    0    0  0.84398278254E+01 -0.10941002712E+02 -0.12639589155E+02  0.72461135659E+02  0.69999433804E+02 0.  0.
        -12    1    1    2    0    0 -0.84398278254E+01  0.10941002712E+02  0.12639589155E+02  0.18726864341E+02  0.00000000000E+00 0.  1.
         11    1    3    3    0    0  0.42733453856E+01  0.80063578894E+01 -0.26642772914E+02  0.28146058272E+02  0.51100000000E-03 0. -1.
        -11    1    3    3    0    0 -0.12388532619E+02 -0.79103646322E+01 -0.62059277605E+01  0.15955035214E+02  0.51100000000E-03 0.  1.
        -12    1    3    3    0    0  0.16555015058E+02 -0.11036995969E+02  0.20209111520E+02  0.28360042172E+02  0.00000000000E+00 0.  1.
</event>
<event>
 7    1  0.1358622E-013  0.7246101E+02  0.7816164E-02  0.1226710E+00
        -11   -1    0    0    0    0  0.00000000000E+00  0.00000000000E+00  0.45593999997E+02  0.45594000000E+02  0.51100000000E-03 0. -1.
         11   -1    0    0    0    0 -0.00000000000E+00 -0.00000000000E+00 -0.45593999997E+02  0.45594000000E+02  0.51100000000E-03 0.  1.
    9900012    2    1    2    0    0 -0.16449959453E+02 -0.68132201712E+01  0.58033733979E+01  0.72461006704E+02  0.69999265815E+02 0.  0.
        -12    1    1    2    0    0  0.16449959453E+02  0.68132201712E+01 -0.58033733979E+01  0.18726993296E+02  0.00000000000E+00 0.  1.
         11    1    3    3    0    0 -0.85833211437E+01  0.98422925055E+01 -0.70531400713E+01  0.14842200266E+02  0.51100000000E-03 0. -1.
        -11    1    3    3    0    0  0.13647593311E+02  0.30691940237E+01 -0.12647449947E+02  0.18858280557E+02  0.51100000000E-03 0.  1.
         12    1    3    3    0    0 -0.21514231620E+02 -0.19724706700E+02  0.25503963417E+02  0.38760525881E+02  0.00000000000E+00 0. -1.
</event>
<event>
 7    1  0.1358622E-013  0.7246204E+02  0.7816164E-02  0.1226707E+00
        -11   -1    0    0    0    0  0.00000000000E+00  0.00000000000E+00  0.45593999997E+02  0.45594000000E+02  0.51100000000E-03 0.  1.
         11   -1    0    0    0    0 -0.00000000000E+00 -0.00000000000E+00 -0.45593999997E+02  0.45594000000E+02  0.51100000000E-03 0. -1.
    9900012    2    1    2    0    0 -0.75128725164E+01 -0.12745042529E+02 -0.11479647649E+02  0.72462037470E+02  0.70000608581E+02 0.  0.
        -12    1    1    2    0    0  0.75128725164E+01  0.12745042529E+02  0.11479647649E+02  0.18725962530E+02  0.00000000000E+00 0.  1.
         11    1    3    3    0    0 -0.12819854233E+02 -0.20534160559E+02 -0.13525648458E+01  0.24245202501E+02  0.51100000000E-03 0. -1.
        -11    1    3    3    0    0 -0.19412590608E+02 -0.27851491548E+01 -0.36999595499E+00  0.19614857307E+02  0.51100000000E-03 0.  1.
         12    1    3    3    0    0  0.24719572324E+02  0.10574267185E+02 -0.97570868486E+01  0.28601977662E+02  0.00000000000E+00 0. -1.
</event>
<event>
 7    1  0.1358622E-013  0.7246161E+02  0.7816164E-02  0.1226708E+00
        -11   -1    0    0    0    0  0.00000000000E+00  0.00000000000E+00  0.45593999997E+02  0.45594000000E+02  0.51100000000E-03 0. -1.
         11   -1    0    0    0    0 -0.00000000000E+00 -0.00000000000E+00 -0.45593999997E+02  0.45594000000E+02  0.51100000000E-03 0.  1.
    9900012    2    1    2    0    0 -0.40316305469E+01  0.14782296027E+01  0.18227410358E+02  0.72461609639E+02  0.70000051253E+02 0.  0.
        -12    1    1    2    0    0  0.40316305469E+01 -0.14782296027E+01 -0.18227410358E+02  0.18726390361E+02  0.00000000000E+00 0.  1.
         11    1    3    3    0    0 -0.11556527986E+01  0.21200362351E+02  0.20182262045E+02  0.29293593134E+02  0.51100000000E-03 0. -1.
        -11    1    3    3    0    0 -0.32535964418E+01 -0.15601121396E+02  0.17271843775E+02  0.23501009899E+02  0.51100000000E-03 0.  1.
        -12    1    3    3    0    0  0.37761869344E+00 -0.41210113519E+01 -0.19226695462E+02  0.19667006606E+02  0.00000000000E+00 0.  1.
</event>
<event>
 7    1  0.1358622E-013  0.7246161E+02  0.7816164E-02  0.1226708E+00
        -11   -1    0    0    0    0  0.00000000000E+00  0.00000000000E+00  0.45593999997E+02  0.45594000000E+02  0.51100000000E-03 0.  1.
         11   -1    0    0    0    0 -0.00000000000E+00 -0.00000000000E+00 -0.45593999997E+02  0.45594000000E+02  0.51100000000E-03 0. -1.
    9900012    2    1    2    0    0  0.11076196940E+02  0.11991020808E+02 -0.91766533797E+01  0.72461609907E+02  0.70000051603E+02 0.  0.
        -12    1    1    2    0    0 -0.11076196940E+02 -0.11991020808E+02  0.91766533797E+01  0.18726390093E+02  0.00000000000E+00 0.  1.
         11    1    3    3    0    0 -0.11311783869E+02 -0.14937102287E+02 -0.89675505718E+01  0.20772348027E+02  0.51100000000E-03 0. -1.
        -11    1    3    3    0    0 -0.24511048526E+01 -0.71620682089E+01  0.51716224292E+01  0.91678140710E+01  0.51100000000E-03 0.  1.
        -12    1    3    3    0    0  0.24839085662E+02  0.34090191304E+02 -0.53807252372E+01  0.42521447809E+02  0.00000000000E+00 0.  1.
</event>
<event>
 7    1  0.1358622E-013  0.7246118E+02  0.7816164E-02  0.1226709E+00
        -11   -1    0    0    0    0  0.00000000000E+00  0.00000000000E+00  0.45593999997E+02  0.45594000000E+02  0.51100000000E-03 0.  1.
         11   -1    0    0    0    0 -0.00000000000E+00 -0.00000000000E+00 -0.45593999997E+02  0.45594000000E+02  0.51100000000E-03 0. -1.
    9900012    2    1    2    0    0  0.16724158342E+02  0.25081683167E+01 -0.80439766512E+01  0.72461175899E+02  0.69999486225E+02 0.  0.
        -12    1    1    2    0    0 -0.16724158342E+02 -0.25081683167E+01  0.80439766512E+01  0.18726824101E+02  0.00000000000E+00 0.  1.
         11    1    3    3    0    0 -0.33340956756E+01  0.33869569638E+01  0.11623368349E+01  0.48927189402E+01  0.51100000000E-03 0. -1.
        -11    1    3    3    0    0 -0.17436747828E+02  0.15614617497E+02 -0.12388692533E+02  0.26482752072E+02  0.51100000000E-03 0.  1.
         12    1    3    3    0    0  0.37495001845E+02 -0.16493406144E+02  0.31823790464E+01  0.41085704886E+02  0.00000000000E+00 0. -1.
</event>
<event>
 7    1  0.1358622E-013  0.7246158E+02  0.7816164E-02  0.1226708E+00
        -11   -1    0    0    0    0  0.00000000000E+00  0.00000000000E+00  0.45593999997E+02  0.45594000000E+02  0.51100000000E-03 0. -1.
         11   -1    0    0    0    0 -0.00000000000E+00 -0.00000000000E+00 -0.45593999997E+02  0.45594000000E+02  0.51100000000E-03 0.  1.
    9900012    2    1    2    0    0  0.10883521160E+02 -0.14999891429E+02 -0.26890813549E+01  0.72461576576E+02  0.70000008183E+02 0.  0.
        -12    1    1    2    0    0 -0.10883521160E+02  0.14999891429E+02  0.26890813549E+01  0.18726423424E+02  0.00000000000E+00 0.  1.
         11    1    3    3    0    0 -0.10924121790E+02 -0.23389190012E+02  0.14603349630E+02  0.29658868268E+02  0.51100000000E-03 0. -1.
        -11    1    3    3    0    0 -0.25067566938E+00  0.12780424310E+02  0.22837606853E+01  0.12985285787E+02  0.51100000000E-03 0.  1.
        -12    1    3    3    0    0  0.22058318620E+02 -0.43911257270E+01 -0.19576191670E+02  0.29817422521E+02  0.00000000000E+00 0.  1.
</event>
<event>
 7    1  0.1358622E-013  0.7246150E+02  0.7816164E-02  0.1226708E+00
        -11   -1    0    0    0    0  0.00000000000E+00  0.00000000000E+00  0.45593999997E+02  0.45594000000E+02  0.51100000000E-03 0.  1.
         11   -1    0    0    0    0 -0.00000000000E+00 -0.00000000000E+00 -0.45593999997E+02  0.45594000000E+02  0.51100000000E-03 0. -1.
    9900012    2    1    2    0    0  0.12640096912E+02 -0.36841518967E+01 -0.13316782973E+02  0.72461501825E+02  0.69999910807E+02 0.  0.
        -12    1    1    2    0    0 -0.12640096912E+02  0.36841518967E+01  0.13316782973E+02  0.18726498175E+02  0.00000000000E+00 0.  1.
         11    1    3    3    0    0  0.14977421427E+02 -0.15395758841E+02  0.33285084261E+01  0.21735489677E+02  0.51100000000E-03 0. -1.
        -11    1    3    3    0    0  0.10343379110E+02 -0.37207197170E+01  0.11697772314E+02  0.16052013082E+02  0.51100000000E-03 0.  1.
         12    1    3    3    0    0 -0.12680703625E+02  0.15432326662E+02 -0.28343063712E+02  0.34673999066E+02  0.00000000000E+00 0. -1.
</event>
<event>
 7    1  0.1358622E-013  0.7246155E+02  0.7816164E-02  0.1226708E+00
        -11   -1    0    0    0    0  0.00000000000E+00  0.00000000000E+00  0.45593999997E+02  0.45594000000E+02  0.51100000000E-03 0.  1.
         11   -1    0    0    0    0 -0.00000000000E+00 -0.00000000000E+00 -0.45593999997E+02  0.45594000000E+02  0.51100000000E-03 0. -1.
    9900012    2    1    2    0    0 -0.10266480147E+02  0.14989936156E+02  0.45366262180E+01  0.72461554047E+02  0.69999978835E+02 0.  0.
        -12    1    1    2    0    0  0.10266480147E+02 -0.14989936156E+02 -0.45366262180E+01  0.18726445953E+02  0.00000000000E+00 0.  1.
         11    1    3    3    0    0 -0.88445958734E+01 -0.24120400930E+02  0.57709713891E+01  0.26331060142E+02  0.51100000000E-03 0. -1.
        -11    1    3    3    0    0 -0.40517302744E+01 -0.17941227456E+01  0.22944188925E+01  0.49899652261E+01  0.51100000000E-03 0.  1.
        -12    1    3    3    0    0  0.26298460005E+01  0.40904459832E+02 -0.35287640636E+01  0.41140528679E+02  0.00000000000E+00 0.  1.
</event>
<event>
 7    1  0.1358622E-013  0.7246161E+02  0.7816164E-02  0.1226708E+00
        -11   -1    0    0    0    0  0.00000000000E+00  0.00000000000E+00  0.45593999997E+02  0.45594000000E+02  0.51100000000E-03 0. -1.
         11   -1    0    0    0    0 -0.00000000000E+00 -0.00000000000E+00 -0.45593999997E+02  0.45594000000E+02  0.51100000000E-03 0.  1.
    9900012    2    1    2    0    0  0.18622880847E+02 -0.73648595164E+00  0.18231009145E+01  0.72461606874E+02  0.70000047651E+02 0.  0.
        -12    1    1    2    0    0 -0.18622880847E+02  0.73648595164E+00 -0.18231009145E+01  0.18726393126E+02  0.00000000000E+00 0.  1.
         11    1    3    3    0    0 -0.19973630576E+01  0.10353767280E+02  0.11764355662E+02  0.15798418290E+02  0.51100000000E-03 0. -1.
        -11    1    3    3    0    0 -0.34535353575E+01 -0.24836654933E+02 -0.13883152434E+02  0.28662314221E+02  0.51100000000E-03 0.  1.
         12    1    3    3    0    0  0.24073779262E+02  0.13746401702E+02  0.39418976861E+01  0.28000874362E+02  0.00000000000E+00 0. -1.
</event>
<event>
 7    1  0.1358622E-013  0.7246151E+02  0.7816164E-02  0.1226708E+00
        -11   -1    0    0    0    0  0.00000000000E+00  0.00000000000E+00  0.45593999997E+02  0.45594000000E+02  0.51100000000E-03 0. -1.
         11   -1    0    0    0    0 -0.00000000000E+00 -0.00000000000E+00 -0.45593999997E+02  0.45594000000E+02  0.51100000000E-03 0.  1.
    9900012    2    1    2    0    0  0.13910858585E+02 -0.32109355961E+01  0.12118545736E+02  0.72461514886E+02  0.69999927820E+02 0.  0.
        -12    1    1    2    0    0 -0.13910858585E+02  0.32109355961E+01 -0.12118545736E+02  0.18726485114E+02  0.00000000000E+00 0.  1.
         11    1    3    3    0    0  0.68870057209E+01  0.87522127684E+01 -0.16747902452E+02  0.20112789785E+02  0.51100000000E-03 0. -1.
        -11    1    3    3    0    0  0.19850231038E+02  0.37933037675E+00  0.17754721134E+01  0.19933084690E+02  0.51100000000E-03 0.  1.
        -12    1    3    3    0    0 -0.12826378174E+02 -0.12342478741E+02  0.27090976075E+02  0.32415640411E+02  0.00000000000E+00 0.  1.
</event>
<event>
 7    1  0.1358622E-013  0.7246160E+02  0.7816164E-02  0.1226708E+00
        -11   -1    0    0    0    0  0.00000000000E+00  0.00000000000E+00  0.45593999997E+02  0.45594000000E+02  0.51100000000E-03 0.  1.
         11   -1    0    0    0    0 -0.00000000000E+00 -0.00000000000E+00 -0.45593999997E+02  0.45594000000E+02  0.51100000000E-03 0. -1.
    9900012    2    1    2    0    0 -0.15358807270E+01 -0.90725071020E+01 -0.16309775565E+02  0.72461599019E+02  0.70000037420E+02 0.  0.
        -12    1    1    2    0    0  0.15358807270E+01  0.90725071020E+01  0.16309775565E+02  0.18726400981E+02  0.00000000000E+00 0.  1.
         11    1    3    3    0    0  0.78729284410E+01 -0.18271076878E+01  0.31271524785E+01  0.86660491358E+01  0.51100000000E-03 0. -1.
        -11    1    3    3    0    0  0.16746276522E+02 -0.12089244249E+02  0.10977681686E+02  0.23390106869E+02  0.51100000000E-03 0.  1.
         12    1    3    3    0    0 -0.26155085690E+02  0.48438448353E+01 -0.30414609729E+02  0.40405443015E+02  0.00000000000E+00 0. -1.
</event>
<event>
 7    1  0.1358622E-013  0.7246155E+02  0.7816164E-02  0.1226708E+00
        -11   -1    0    0    0    0  0.00000000000E+00  0.00000000000E+00  0.45593999997E+02  0.45594000000E+02  0.51100000000E-03 0.  1.
         11   -1    0    0    0    0 -0.00000000000E+00 -0.00000000000E+00 -0.45593999997E+02  0.45594000000E+02  0.51100000000E-03 0. -1.
    9900012    2    1    2    0    0  0.59286294423E+01 -0.60445251357E+01  0.16703140383E+02  0.72461552664E+02  0.69999977033E+02 0.  0.
        -12    1    1    2    0    0 -0.59286294423E+01  0.60445251357E+01 -0.16703140383E+02  0.18726447336E+02  0.00000000000E+00 0.  1.
         11    1    3    3    0    0  0.14012037216E+02 -0.61450081307E+01  0.13433458705E+01  0.15359130517E+02  0.51100000000E-03 0. -1.
        -11    1    3    3    0    0 -0.20193990578E+02 -0.20831025910E+02  0.15554404384E+02  0.32919118942E+02  0.51100000000E-03 0.  1.
         12    1    3    3    0    0  0.12110582804E+02  0.20931508905E+02 -0.19460987140E+00  0.24183303205E+02  0.00000000000E+00 0. -1.
</event>
<event>
 7    1  0.1358622E-013  0.7246158E+02  0.7816164E-02  0.1226708E+00
        -11   -1    0    0    0    0  0.00000000000E+00  0.00000000000E+00  0.45593999997E+02  0.45594000000E+02  0.51100000000E-03 0.  1.
         11   -1    0    0    0    0 -0.00000000000E+00 -0.00000000000E+00 -0.45593999997E+02  0.45594000000E+02  0.51100000000E-03 0. -1.
    9900012    2    1    2    0    0 -0.78110956555E+01 -0.58960522800E+01 -0.15965661422E+02  0.72461575022E+02  0.70000006159E+02 0.  0.
        -12    1    1    2    0    0  0.78110956555E+01  0.58960522800E+01  0.15965661422E+02  0.18726424978E+02  0.00000000000E+00 0.  1.
         11    1    3    3    0    0  0.33349602131E+01  0.33257956610E+01 -0.79551427022E+01  0.92448457032E+01  0.51100000000E-03 0. -1.
        -11    1    3    3    0    0  0.15839565246E+02  0.15816486118E+02  0.70126398430E+01  0.23456985700E+02  0.51100000000E-03 0.  1.
         12    1    3    3    0    0 -0.26985621115E+02 -0.25038334059E+02 -0.15023158562E+02  0.39759743618E+02  0.00000000000E+00 0. -1.
</event>
<event>
 7    1  0.1358622E-013  0.7246169E+02  0.7816164E-02  0.1226708E+00
        -11   -1    0    0    0    0  0.00000000000E+00  0.00000000000E+00  0.45593999997E+02  0.45594000000E+02  0.51100000000E-03 0. -1.
         11   -1    0    0    0    0 -0.00000000000E+00 -0.00000000000E+00 -0.45593999997E+02  0.45594000000E+02  0.51100000000E-03 0.  1.
    9900012    2    1    2    0    0  0.50998484169E+01  0.17321528193E+01  0.17935047588E+02  0.72461688584E+02  0.70000154094E+02 0.  0.
        -12    1    1    2    0    0 -0.50998484169E+01 -0.17321528193E+01 -0.17935047588E+02  0.18726311416E+02  0.00000000000E+00 0.  1.
         11    1    3    3    0    0 -0.23067541954E+02  0.79471419299E+01  0.43489735412E+00  0.24402001816E+02  0.51100000000E-03 0. -1.
        -11    1    3    3    0    0 -0.80680318829E+01 -0.60378279169E+00  0.33526742976E+01  0.87577461330E+01  0.51100000000E-03 0.  1.
        -12    1    3    3    0    0  0.36235422254E+02 -0.56112063189E+01  0.14147475936E+02  0.39301940635E+02  0.00000000000E+00 0.  1.
</event>
<event>
 7    1  0.1358622E-013  0.7246157E+02  0.7816164E-02  0.1226708E+00
        -11   -1    0    0    0    0  0.00000000000E+00  0.00000000000E+00  0.45593999997E+02  0.45594000000E+02  0.51100000000E-03 0. -1.
         11   -1    0    0    0    0 -0.00000000000E+00 -0.00000000000E+00 -0.45593999997E+02  0.45594000000E+02  0.51100000000E-03 0.  1.
    9900012    2    1    2    0    0 -0.11734344785E+02  0.62565344696E+01  0.13184842192E+02  0.72461571224E+02  0.70000001211E+02 0.  0.
        -12    1    1    2    0    0  0.11734344785E+02 -0.62565344696E+01 -0.13184842192E+02  0.18726428776E+02  0.00000000000E+00 0.  1.
         11    1    3    3    0    0 -0.81687592804E+01  0.80111954185E+01 -0.11464226310E+02  0.16196801085E+02  0.51100000000E-03 0. -1.
        -11    1    3    3    0    0  0.14601076988E+02 -0.14601453709E+01 -0.95717255193E+01  0.17519743246E+02  0.51100000000E-03 0.  1.
         12    1    3    3    0    0 -0.18166662492E+02 -0.29451557801E+00  0.34220794021E+02  0.38745026894E+02  0.00000000000E+00 0. -1.
</event>
<event>
 7    1  0.1358622E-013  0.7246156E+02  0.7816164E-02  0.1226708E+00
        -11   -1    0    0    0    0  0.00000000000E+00  0.00000000000E+00  0.45593999997E+02  0.45594000000E+02  0.51100000000E-03 0.  1.
         11   -1    0    0    0    0 -0.00000000000E+00 -0.00000000000E+00 -0.45593999997E+02  0.45594000000E+02  0.51100000000E-03 0. -1.
    9900012    2    1    2    0    0  0.64123798086E+01 -0.16477691815E+02 -0.61681805642E+01  0.72461564305E+02  0.69999992198E+02 0.  0.
        -12    1    1    2    0    0 -0.64123798086E+01  0.16477691815E+02  0.61681805642E+01  0.18726435695E+02  0.00000000000E+00 0.  1.
         11    1    3    3    0    0  0.26458873539E+02 -0.13102550436E+02 -0.21881671407E+02  0.36749916472E+02  0.51100000000E-03 0. -1.
        -11    1    3    3    0    0  0.40249334000E-01 -0.98330311133E+01  0.96052497982E+01  0.13745942850E+02  0.51100000000E-03 0.  1.
        -12    1    3    3    0    0 -0.20086743064E+02  0.64578897349E+01  0.61082410449E+01  0.21965704983E+02  0.00000000000E+00 0.  1.
</event>
<event>
 7    1  0.1358622E-013  0.7246163E+02  0.7816164E-02  0.1226708E+00
        -11   -1    0    0    0    0  0.00000000000E+00  0.00000000000E+00  0.45593999997E+02  0.45594000000E+02  0.51100000000E-03 0.  1.
         11   -1    0    0    0    0 -0.00000000000E+00 -0.00000000000E+00 -0.45593999997E+02  0.45594000000E+02  0.51100000000E-03 0. -1.
    9900012    2    1    2    0    0  0.11176444097E+02 -0.40601458721E+01 -0.14466488962E+02  0.72461628487E+02  0.70000075807E+02 0.  0.
        -12    1    1    2    0    0 -0.11176444097E+02  0.40601458721E+01  0.14466488962E+02  0.18726371513E+02  0.00000000000E+00 0.  1.
         11    1    3    3    0    0 -0.59213199459E+01 -0.24095383579E+02 -0.24402456296E+02  0.34801284649E+02  0.51100000000E-03 0. -1.
        -11    1    3    3    0    0  0.89519617491E+01 -0.39324605683E+01 -0.14838104443E+01  0.98895681894E+01  0.51100000000E-03 0.  1.
        -12    1    3    3    0    0  0.81458022933E+01  0.23967698275E+02  0.11419777778E+02  0.27770775648E+02  0.00000000000E+00 0.  1.
</event>
<event>
 7    1  0.1358622E-013  0.7246157E+02  0.7816164E-02  0.1226708E+00
        -11   -1    0    0    0    0  0.00000000000E+00  0.00000000000E+00  0.45593999997E+02  0.45594000000E+02  0.51100000000E-03 0.  1.
         11   -1    0    0    0    0 -0.00000000000E+00 -0.00000000000E+00 -0.45593999997E+02  0.45594000000E+02  0.51100000000E-03 0. -1.
    9900012    2    1    2    0    0 -0.12907681068E+02  0.12602678916E+02 -0.50242685709E+01  0.72461574258E+02  0.70000005163E+02 0.  0.
        -12    1    1    2    0    0  0.12907681068E+02 -0.12602678916E+02  0.50242685709E+01  0.18726425742E+02  0.00000000000E+00 0.  1.
         11    1    3    3    0    0 -0.24628593930E+02  0.24604611639E+02 -0.16924261181E+02  0.38708980478E+02  0.51100000000E-03 0. -1.
        -11    1    3    3    0    0 -0.42185462785E+01 -0.78228435441E+00 -0.59409599203E+01  0.73282403448E+01  0.51100000000E-03 0.  1.
        -12    1    3    3    0    0  0.15939459141E+02 -0.11219648369E+02  0.17840952531E+02  0.26424353434E+02  0.00000000000E+00 0.  1.
</event>
<event>
 7    1  0.1358622E-013  0.7246157E+02  0.7816164E-02  0.1226708E+00
        -11   -1    0    0    0    0  0.00000000000E+00  0.00000000000E+00  0.45593999997E+02  0.45594000000E+02  0.51100000000E-03 0.  1.
         11   -1    0    0    0    0 -0.00000000000E+00 -0.00000000000E+00 -0.45593999997E+02  0.45594000000E+02  0.51100000000E-03 0. -1.
    9900012    2    1    2    0    0  0.12539457219E+02 -0.13877782405E+02 -0.92099314621E+00  0.72461573213E+02  0.70000003803E+02 0.  0.
        -12    1    1    2    0    0 -0.12539457219E+02  0.13877782405E+02  0.92099314621E+00  0.18726426787E+02  0.00000000000E+00 0.  1.
         11    1    3    3    0    0  0.88561997223E+01  0.67609430739E+01 -0.16761935022E+02  0.20127222628E+02  0.51100000000E-03 0. -1.
        -11    1    3    3    0    0  0.16625455756E+02 -0.70912338560E+01 -0.98133454202E+01  0.20566796671E+02  0.51100000000E-03 0.  1.
        -12    1    3    3    0    0 -0.12942198259E+02 -0.13547491623E+02  0.25654287296E+02  0.31767553915E+02  0.00000000000E+00 0.  1.
</event>
<event>
 7    1  0.1358622E-013  0.7246142E+02  0.7816164E-02  0.1226708E+00
        -11   -1    0    0    0    0  0.00000000000E+00  0.00000000000E+00  0.45593999997E+02  0.45594000000E+02  0.51100000000E-03 0.  1.
         11   -1    0    0    0    0 -0.00000000000E+00 -0.00000000000E+00 -0.45593999997E+02  0.45594000000E+02  0.51100000000E-03 0. -1.
    9900012    2    1    2    0    0 -0.14668726534E+00 -0.18719844893E+02  0.48015253610E+00  0.72461423793E+02  0.69999809155E+02 0.  0.
        -12    1    1    2    0    0  0.14668726534E+00  0.18719844893E+02 -0.48015253610E+00  0.18726576207E+02  0.00000000000E+00 0.  1.
         11    1    3    3    0    0  0.19576920577E+02 -0.61177643227E+01  0.54710202502E+01  0.21227692348E+02  0.51100000000E-03 0. -1.
        -11    1    3    3    0    0  0.16908016107E+01 -0.12257422452E+02  0.16677999466E+02  0.20766773503E+02  0.51100000000E-03 0.  1.
         12    1    3    3    0    0 -0.21414409453E+02 -0.34465811825E+00 -0.21668867180E+02  0.30466957943E+02  0.00000000000E+00 0. -1.
</event>
<event>
 7    1  0.1358622E-013  0.7246159E+02  0.7816164E-02  0.1226708E+00
        -11   -1    0    0    0    0  0.00000000000E+00  0.00000000000E+00  0.45593999997E+02  0.45594000000E+02  0.51100000000E-03 0.  1.
         11   -1    0    0    0    0 -0.00000000000E+00 -0.00000000000E+00 -0.45593999997E+02  0.45594000000E+02  0.51100000000E-03 0. -1.
    9900012    2    1    2    0    0 -0.74755741725E+01 -0.31246589069E+01 -0.16882856161E+02  0.72461587245E+02  0.70000022082E+02 0.  0.
        -12    1    1    2    0    0  0.74755741725E+01  0.31246589069E+01  0.16882856161E+02  0.18726412755E+02  0.00000000000E+00 0.  1.
         11    1    3    3    0    0 -0.57864783155E+00  0.12601454232E+00  0.47939530428E+01  0.48303932568E+01  0.51100000000E-03 0. -1.
        -11    1    3    3    0    0 -0.14514572501E+02  0.27589749131E+02 -0.44415089221E+01  0.31489586751E+02  0.51100000000E-03 0.  1.
         12    1    3    3    0    0  0.76176461598E+01 -0.30840422580E+02 -0.17235300282E+02  0.36141607238E+02  0.00000000000E+00 0. -1.
</event>
<event>
 7    1  0.1358622E-013  0.7246156E+02  0.7816164E-02  0.1226708E+00
        -11   -1    0    0    0    0  0.00000000000E+00  0.00000000000E+00  0.45593999997E+02  0.45594000000E+02  0.51100000000E-03 0. -1.
         11   -1    0    0    0    0 -0.00000000000E+00 -0.00000000000E+00 -0.45593999997E+02  0.45594000000E+02  0.51100000000E-03 0.  1.
    9900012    2    1    2    0    0  0.30380334630E+01 -0.65160990245E+01  0.17291338722E+02  0.72461559104E+02  0.69999985423E+02 0.  0.
        -12    1    1    2    0    0 -0.30380334630E+01  0.65160990245E+01 -0.17291338722E+02  0.18726440896E+02  0.00000000000E+00 0.  1.
         11    1    3    3    0    0 -0.37776246945E+01  0.49252667818E+01  0.71240850469E+01  0.94488776699E+01  0.51100000000E-03 0. -1.
        -11    1    3    3    0    0  0.43795766149E+01  0.18454560327E+02  0.23490362133E+02  0.30191863168E+02  0.51100000000E-03 0.  1.
        -12    1    3    3    0    0  0.24360815427E+01 -0.29895926134E+02 -0.13323108457E+02  0.32820818266E+02  0.00000000000E+00 0.  1.
</event>
<event>
 7    1  0.1358622E-013  0.7246159E+02  0.7816164E-02  0.1226708E+00
        -11   -1    0    0    0    0  0.00000000000E+00  0.00000000000E+00  0.45593999997E+02  0.45594000000E+02  0.51100000000E-03 0.  1.
         11   -1    0    0    0    0 -0.00000000000E+00 -0.00000000000E+00 -0.45593999997E+02  0.45594000000E+02  0.51100000000E-03 0. -1.
    9900012    2    1    2    0    0 -0.18555966629E+02  0.23622388116E+01 -0.87993951471E+00  0.72461591821E+02  0.70000028042E+02 0.  0.
        -12    1    1    2    0    0  0.18555966629E+02 -0.23622388116E+01  0.87993951471E+00  0.18726408179E+02  0.00000000000E+00 0.  1.
         11    1    3    3    0    0 -0.20670159766E+02 -0.23987301786E+02 -0.19123953017E+02  0.36991508904E+02  0.51100000000E-03 0. -1.
        -11    1    3    3    0    0  0.16500453838E+01  0.16762339955E+02  0.24957423702E+01  0.17027255233E+02  0.51100000000E-03 0.  1.
        -12    1    3    3    0    0  0.46414775319E+00  0.95872006425E+01  0.15748271133E+02  0.18442827683E+02  0.00000000000E+00 0.  1.
</event>
<event>
 7    1  0.1358622E-013  0.7246158E+02  0.7816164E-02  0.1226708E+00
        -11   -1    0    0    0    0  0.00000000000E+00  0.00000000000E+00  0.45593999997E+02  0.45594000000E+02  0.51100000000E-03 0.  1.
         11   -1    0    0    0    0 -0.00000000000E+00 -0.00000000000E+00 -0.45593999997E+02  0.45594000000E+02  0.51100000000E-03 0. -1.
    9900012    2    1    2    0    0 -0.65144158501E+01  0.32960360029E+01 -0.17244636479E+02  0.72461576036E+02  0.70000007479E+02 0.  0.
        -12    1    1    2    0    0  0.65144158501E+01 -0.32960360029E+01  0.17244636479E+02  0.18726423964E+02  0.00000000000E+00 0.  1.
         11    1    3    3    0    0 -0.11761327706E+02  0.70762917206E+01  0.10746205114E+02  0.17432259134E+02  0.51100000000E-03 0. -1.
        -11    1    3    3    0    0 -0.19661177463E+02 -0.26168555876E+01 -0.36196786632E+01  0.20162140419E+02  0.51100000000E-03 0.  1.
        -12    1    3    3    0    0  0.24908089318E+02 -0.11634001301E+01 -0.24371162930E+02  0.34867176483E+02  0.00000000000E+00 0.  1.
</event>
<event>
 7    1  0.1358622E-013  0.7246151E+02  0.7816164E-02  0.1226708E+00
        -11   -1    0    0    0    0  0.00000000000E+00  0.00000000000E+00  0.45593999997E+02  0.45594000000E+02  0.51100000000E-03 0.  1.
         11   -1    0    0    0    0 -0.00000000000E+00 -0.00000000000E+00 -0.45593999997E+02  0.45594000000E+02  0.51100000000E-03 0. -1.
    9900012    2    1    2    0    0 -0.77242998229E+01  0.13328712232E+02 -0.10647166863E+02  0.72461507009E+02  0.69999917559E+02 0.  0.
        -12    1    1    2    0    0  0.77242998229E+01 -0.13328712232E+02  0.10647166863E+02  0.18726492991E+02  0.00000000000E+00 0.  1.
         11    1    3    3    0    0 -0.23106685329E+01 -0.74535964526E+01 -0.58054894895E+01  0.97262016030E+01  0.51100000000E-03 0. -1.
        -11    1    3    3    0    0 -0.24221665609E+02  0.25466052032E+01 -0.20827382117E+02  0.32046125024E+02  0.51100000000E-03 0.  1.
         12    1    3    3    0    0  0.18808034319E+02  0.18235703481E+02  0.15985704743E+02  0.30689180383E+02  0.00000000000E+00 0. -1.
</event>
<event>
 7    1  0.1358622E-013  0.7246159E+02  0.7816164E-02  0.1226708E+00
        -11   -1    0    0    0    0  0.00000000000E+00  0.00000000000E+00  0.45593999997E+02  0.45594000000E+02  0.51100000000E-03 0. -1.
         11   -1    0    0    0    0 -0.00000000000E+00 -0.00000000000E+00 -0.45593999997E+02  0.45594000000E+02  0.51100000000E-03 0.  1.
    9900012    2    1    2    0    0 -0.33943218826E+01 -0.17099287190E+02  0.68389556369E+01  0.72461591972E+02  0.70000028239E+02 0.  0.
        -12    1    1    2    0    0  0.33943218826E+01  0.17099287190E+02 -0.68389556369E+01  0.18726408028E+02  0.00000000000E+00 0.  1.
         11    1    3    3    0    0  0.17269267873E+01  0.56717125558E+01 -0.19619020408E+02  0.20495281444E+02  0.51100000000E-03 0. -1.
        -11    1    3    3    0    0 -0.64095863407E+01  0.88655012033E+01  0.37915161085E+00  0.10946399630E+02  0.51100000000E-03 0.  1.
         12    1    3    3    0    0  0.12883376708E+01 -0.31636500949E+02  0.26078824434E+02  0.41019910898E+02  0.00000000000E+00 0. -1.
</event>
<event>
 7    1  0.1358622E-013  0.7246157E+02  0.7816164E-02  0.1226708E+00
        -11   -1    0    0    0    0  0.00000000000E+00  0.00000000000E+00  0.45593999997E+02  0.45594000000E+02  0.51100000000E-03 0.  1.
         11   -1    0    0    0    0 -0.00000000000E+00 -0.00000000000E+00 -0.45593999997E+02  0.45594000000E+02  0.51100000000E-03 0. -1.
    9900012    2    1    2    0    0  0.85528453135E+01  0.16322924392E+02  0.33301907697E+01  0.72461569635E+02  0.69999999141E+02 0.  0.
        -12    1    1    2    0    0 -0.85528453135E+01 -0.16322924392E+02 -0.33301907697E+01  0.18726430365E+02  0.00000000000E+00 0.  1.
         11    1    3    3    0    0 -0.16373572060E+01 -0.23702505123E+01  0.52205656406E+00  0.29277242747E+01  0.51100000000E-03 0. -1.
        -11    1    3    3    0    0  0.10590316314E+02 -0.21685780903E+02 -0.11446883938E+02  0.26710654150E+02  0.51100000000E-03 0.  1.
         12    1    3    3    0    0 -0.40011379435E+00  0.40378955807E+02  0.14255018144E+02  0.42823191210E+02  0.00000000000E+00 0. -1.
</event>
<event>
 7    1  0.1358622E-013  0.7246158E+02  0.7816164E-02  0.1226708E+00
        -11   -1    0    0    0    0  0.00000000000E+00  0.00000000000E+00  0.45593999997E+02  0.45594000000E+02  0.51100000000E-03 0. -1.
         11   -1    0    0    0    0 -0.00000000000E+00 -0.00000000000E+00 -0.45593999997E+02  0.45594000000E+02  0.51100000000E-03 0.  1.
    9900012    2    1    2    0    0  0.43455274116E+01 -0.80455029543E+01  0.16342126775E+02  0.72461579258E+02  0.70000011677E+02 0.  0.
        -12    1    1    2    0    0 -0.43455274116E+01  0.80455029543E+01 -0.16342126775E+02  0.18726420742E+02  0.00000000000E+00 0.  1.
         11    1    3    3    0    0  0.36991936017E+00 -0.60491949043E+01  0.11127181853E+02  0.12670587026E+02  0.51100000000E-03 0. -1.
        -11    1    3    3    0    0 -0.18773732616E+02 -0.26451374714E+01  0.23785580836E+02  0.30417160363E+02  0.51100000000E-03 0.  1.
        -12    1    3    3    0    0  0.22749340668E+02  0.64882942135E+00 -0.18570635914E+02  0.29373831869E+02  0.00000000000E+00 0.  1.
</event>
<event>
 7    1  0.1358622E-013  0.7246156E+02  0.7816164E-02  0.1226708E+00
        -11   -1    0    0    0    0  0.00000000000E+00  0.00000000000E+00  0.45593999997E+02  0.45594000000E+02  0.51100000000E-03 0.  1.
         11   -1    0    0    0    0 -0.00000000000E+00 -0.00000000000E+00 -0.45593999997E+02  0.45594000000E+02  0.51100000000E-03 0. -1.
    9900012    2    1    2    0    0  0.14217773906E+01  0.25285602720E+01 -0.18500388364E+02  0.72461563136E+02  0.69999990675E+02 0.  0.
        -12    1    1    2    0    0 -0.14217773906E+01 -0.25285602720E+01  0.18500388364E+02  0.18726436864E+02  0.00000000000E+00 0.  1.
         11    1    3    3    0    0 -0.67328327474E+01 -0.15749739339E+02 -0.11890659258E+02  0.20851213487E+02  0.51100000000E-03 0. -1.
        -11    1    3    3    0    0 -0.19806308961E+02  0.76810546498E+01 -0.37521340290E+01  0.21572366241E+02  0.51100000000E-03 0.  1.
         12    1    3    3    0    0  0.27960919099E+02  0.10597244961E+02 -0.28575950771E+01  0.30037983408E+02  0.00000000000E+00 0. -1.
</event>
<event>
 7    1  0.1358622E-013  0.7246160E+02  0.7816164E-02  0.1226708E+00
        -11   -1    0    0    0    0  0.00000000000E+00  0.00000000000E+00  0.45593999997E+02  0.45594000000E+02  0.51100000000E-03 0.  1.
         11   -1    0    0    0    0 -0.00000000000E+00 -0.00000000000E+00 -0.45593999997E+02  0.45594000000E+02  0.51100000000E-03 0. -1.
    9900012    2    1    2    0    0 -0.89198857727E+01  0.69274043908E+01 -0.14937363588E+02  0.72461598190E+02  0.70000036339E+02 0.  0.
        -12    1    1    2    0    0  0.89198857727E+01 -0.69274043908E+01  0.14937363588E+02  0.18726401810E+02  0.00000000000E+00 0.  1.
         11    1    3    3    0    0  0.12523281460E+01  0.78385455477E+01  0.13786078183E+02  0.15908082034E+02  0.51100000000E-03 0. -1.
        -11    1    3    3    0    0 -0.25416770372E+02 -0.61922040912E+01 -0.31952613603E+01  0.26354606867E+02  0.51100000000E-03 0.  1.
        -12    1    3    3    0    0  0.15244556454E+02  0.52810629343E+01 -0.25528180410E+02  0.30198909289E+02  0.00000000000E+00 0.  1.
</event>
<event>
 7    1  0.1358622E-013  0.7246158E+02  0.7816164E-02  0.1226708E+00
        -11   -1    0    0    0    0  0.00000000000E+00  0.00000000000E+00  0.45593999997E+02  0.45594000000E+02  0.51100000000E-03 0.  1.
         11   -1    0    0    0    0 -0.00000000000E+00 -0.00000000000E+00 -0.45593999997E+02  0.45594000000E+02  0.51100000000E-03 0. -1.
    9900012    2    1    2    0    0  0.46133453064E+01 -0.26280717565E+01 -0.17957985030E+02  0.72461576358E+02  0.70000007899E+02 0.  0.
        -12    1    1    2    0    0 -0.46133453064E+01  0.26280717565E+01  0.17957985030E+02  0.18726423642E+02  0.00000000000E+00 0.  1.
         11    1    3    3    0    0  0.87459042220E+01 -0.19896129221E+02 -0.37257459107E+02  0.43133108606E+02  0.51100000000E-03 0. -1.
        -11    1    3    3    0    0 -0.50196549631E+01  0.28289593823E+01  0.75854753217E+00  0.58116556810E+01  0.51100000000E-03 0.  1.
        -12    1    3    3    0    0  0.88709604740E+00  0.14439098083E+02  0.18540926545E+02  0.23516812071E+02  0.00000000000E+00 0.  1.
</event>
<event>
 7    1  0.1358622E-013  0.7246157E+02  0.7816164E-02  0.1226708E+00
        -11   -1    0    0    0    0  0.00000000000E+00  0.00000000000E+00  0.45593999997E+02  0.45594000000E+02  0.51100000000E-03 0.  1.
         11   -1    0    0    0    0 -0.00000000000E+00 -0.00000000000E+00 -0.45593999997E+02  0.45594000000E+02  0.51100000000E-03 0. -1.
    9900012    2    1    2    0    0  0.66046578968E+01  0.14078636789E+02 -0.10433099846E+02  0.72461572360E+02  0.70000002691E+02 0.  0.
        -12    1    1    2    0    0 -0.66046578968E+01 -0.14078636789E+02  0.10433099846E+02  0.18726427640E+02  0.00000000000E+00 0.  1.
         11    1    3    3    0    0 -0.33271392236E+01  0.30173963485E+01 -0.45767338210E+01  0.64125680399E+01  0.51100000000E-03 0. -1.
        -11    1    3    3    0    0 -0.25773575313E+02  0.25202802082E+01 -0.12474721124E+02  0.28744524073E+02  0.51100000000E-03 0.  1.
        -12    1    3    3    0    0  0.35705372434E+02  0.85409602319E+01  0.66183550994E+01  0.37304480248E+02  0.00000000000E+00 0.  1.
</event>
<event>
 7    1  0.1358622E-013  0.7246171E+02  0.7816164E-02  0.1226708E+00
        -11   -1    0    0    0    0  0.00000000000E+00  0.00000000000E+00  0.45593999997E+02  0.45594000000E+02  0.51100000000E-03 0. -1.
         11   -1    0    0    0    0 -0.00000000000E+00 -0.00000000000E+00 -0.45593999997E+02  0.45594000000E+02  0.51100000000E-03 0.  1.
    9900012    2    1    2    0    0  0.72553816921E+01  0.13986048563E+02  0.10120462147E+02  0.72461711741E+02  0.70000184260E+02 0.  0.
        -12    1    1    2    0    0 -0.72553816921E+01 -0.13986048563E+02 -0.10120462147E+02  0.18726288259E+02  0.00000000000E+00 0.  1.
         11    1    3    3    0    0 -0.91513565633E+01  0.50034862071E+01  0.20907218889E+02  0.23364374657E+02  0.51100000000E-03 0. -1.
        -11    1    3    3    0    0 -0.51986222740E+01  0.12068991182E+01  0.14195492547E+02  0.15165562566E+02  0.51100000000E-03 0.  1.
        -12    1    3    3    0    0  0.21605360529E+02  0.77756632376E+01 -0.24982249289E+02  0.33931774518E+02  0.00000000000E+00 0.  1.
</event>
<event>
 7    1  0.1358622E-013  0.7246151E+02  0.7816164E-02  0.1226708E+00
        -11   -1    0    0    0    0  0.00000000000E+00  0.00000000000E+00  0.45593999997E+02  0.45594000000E+02  0.51100000000E-03 0.  1.
         11   -1    0    0    0    0 -0.00000000000E+00 -0.00000000000E+00 -0.45593999997E+02  0.45594000000E+02  0.51100000000E-03 0. -1.
    9900012    2    1    2    0    0  0.74905257316E+01 -0.13284961241E+02 -0.10866610461E+02  0.72461510905E+02  0.69999922634E+02 0.  0.
        -12    1    1    2    0    0 -0.74905257316E+01  0.13284961241E+02  0.10866610461E+02  0.18726489095E+02  0.00000000000E+00 0.  1.
         11    1    3    3    0    0  0.98570283585E+01 -0.21618941118E+01  0.11631024762E+02  0.15398556149E+02  0.51100000000E-03 0. -1.
        -11    1    3    3    0    0  0.17664045425E+02  0.99283044420E+01  0.82009071747E-01  0.20263179801E+02  0.51100000000E-03 0.  1.
         12    1    3    3    0    0 -0.20030548052E+02 -0.21051371572E+02 -0.22579644294E+02  0.36799774955E+02  0.00000000000E+00 0. -1.
</event>
<event>
 7    1  0.1358622E-013  0.7246154E+02  0.7816164E-02  0.1226708E+00
        -11   -1    0    0    0    0  0.00000000000E+00  0.00000000000E+00  0.45593999997E+02  0.45594000000E+02  0.51100000000E-03 0. -1.
         11   -1    0    0    0    0 -0.00000000000E+00 -0.00000000000E+00 -0.45593999997E+02  0.45594000000E+02  0.51100000000E-03 0.  1.
    9900012    2    1    2    0    0 -0.47074783194E+01  0.80990752191E+01 -0.16214954900E+02  0.72461544544E+02  0.69999966456E+02 0.  0.
        -12    1    1    2    0    0  0.47074783194E+01 -0.80990752191E+01  0.16214954900E+02  0.18726455456E+02  0.00000000000E+00 0.  1.
         11    1    3    3    0    0 -0.25290699064E+01  0.35373139212E+01 -0.12803547071E+02  0.13521819486E+02  0.51100000000E-03 0. -1.
        -11    1    3    3    0    0  0.74844074438E+01  0.55203384200E+01 -0.29590635530E+02  0.31017675645E+02  0.51100000000E-03 0.  1.
         12    1    3    3    0    0 -0.96628158568E+01 -0.95857712212E+00  0.26179227701E+02  0.27922049413E+02  0.00000000000E+00 0. -1.
</event>
<event>
 7    1  0.1358622E-013  0.7246157E+02  0.7816164E-02  0.1226708E+00
        -11   -1    0    0    0    0  0.00000000000E+00  0.00000000000E+00  0.45593999997E+02  0.45594000000E+02  0.51100000000E-03 0. -1.
         11   -1    0    0    0    0 -0.00000000000E+00 -0.00000000000E+00 -0.45593999997E+02  0.45594000000E+02  0.51100000000E-03 0.  1.
    9900012    2    1    2    0    0  0.14515513459E+02  0.62584210955E+01  0.10040469645E+02  0.72461574920E+02  0.70000006026E+02 0.  0.
        -12    1    1    2    0    0 -0.14515513459E+02 -0.62584210955E+01 -0.10040469645E+02  0.18726425080E+02  0.00000000000E+00 0.  1.
         11    1    3    3    0    0 -0.22057094915E+00 -0.29246800844E+01  0.30098188163E+02  0.30240756209E+02  0.51100000000E-03 0. -1.
        -11    1    3    3    0    0 -0.13934191168E+01  0.55511720969E+00  0.83223692471E+01  0.84564532813E+01  0.51100000000E-03 0.  1.
        -12    1    3    3    0    0  0.16129503525E+02  0.86279839703E+01 -0.28380087765E+02  0.33764365430E+02  0.00000000000E+00 0.  1.
</event>
<event>
 7    1  0.1358622E-013  0.7246158E+02  0.7816164E-02  0.1226708E+00
        -11   -1    0    0    0    0  0.00000000000E+00  0.00000000000E+00  0.45593999997E+02  0.45594000000E+02  0.51100000000E-03 0.  1.
         11   -1    0    0    0    0 -0.00000000000E+00 -0.00000000000E+00 -0.45593999997E+02  0.45594000000E+02  0.51100000000E-03 0. -1.
    9900012    2    1    2    0    0 -0.82641440559E+01 -0.39108599267E+01 -0.16342819255E+02  0.72461584338E+02  0.70000018295E+02 0.  0.
        -12    1    1    2    0    0  0.82641440559E+01  0.39108599267E+01  0.16342819255E+02  0.18726415662E+02  0.00000000000E+00 0.  1.
         11    1    3    3    0    0  0.92599245987E+01 -0.61084337065E+01  0.13196554532E+02  0.17239727889E+02  0.51100000000E-03 0. -1.
        -11    1    3    3    0    0  0.81807643213E+01 -0.13920511428E+02 -0.80470208019E+01  0.18040512392E+02  0.51100000000E-03 0.  1.
         12    1    3    3    0    0 -0.25704832976E+02  0.16118085208E+02 -0.21492352985E+02  0.37181344057E+02  0.00000000000E+00 0. -1.
</event>
<event>
 7    1  0.1358622E-013  0.7246158E+02  0.7816164E-02  0.1226708E+00
        -11   -1    0    0    0    0  0.00000000000E+00  0.00000000000E+00  0.45593999997E+02  0.45594000000E+02  0.51100000000E-03 0. -1.
         11   -1    0    0    0    0 -0.00000000000E+00 -0.00000000000E+00 -0.45593999997E+02  0.45594000000E+02  0.51100000000E-03 0.  1.
    9900012    2    1    2    0    0 -0.11463615433E+02 -0.32849193855E+01  0.14438614987E+02  0.72461580777E+02  0.70000013656E+02 0.  0.
        -12    1    1    2    0    0  0.11463615433E+02  0.32849193855E+01 -0.14438614987E+02  0.18726419223E+02  0.00000000000E+00 0.  1.
         11    1    3    3    0    0  0.79376652370E+01 -0.11957277665E+02 -0.65491019536E+01  0.15775733112E+02  0.51100000000E-03 0. -1.
        -11    1    3    3    0    0 -0.12208141152E+02 -0.92556319199E+01 -0.11316546396E+02  0.19046512941E+02  0.51100000000E-03 0.  1.
         12    1    3    3    0    0 -0.71931395173E+01  0.17927990199E+02  0.32304263337E+02  0.37639334724E+02  0.00000000000E+00 0. -1.
</event>
<event>
 7    1  0.1358622E-013  0.7246159E+02  0.7816164E-02  0.1226708E+00
        -11   -1    0    0    0    0  0.00000000000E+00  0.00000000000E+00  0.45593999997E+02  0.45594000000E+02  0.51100000000E-03 0. -1.
         11   -1    0    0    0    0 -0.00000000000E+00 -0.00000000000E+00 -0.45593999997E+02  0.45594000000E+02  0.51100000000E-03 0.  1.
    9900012    2    1    2    0    0  0.15315225789E+02  0.77737788190E+01  0.74626131674E+01  0.72461591551E+02  0.70000027691E+02 0.  0.
        -12    1    1    2    0    0 -0.15315225789E+02 -0.77737788190E+01 -0.74626131674E+01  0.18726408449E+02  0.00000000000E+00 0.  1.
         11    1    3    3    0    0  0.80850233562E+01 -0.20548816348E+02  0.10942223011E+02  0.24644547078E+02  0.51100000000E-03 0. -1.
        -11    1    3    3    0    0  0.81026091429E+01 -0.16387423280E+01  0.11615286720E+02  0.14256669919E+02  0.51100000000E-03 0.  1.
        -12    1    3    3    0    0 -0.87240670969E+00  0.29961337495E+02 -0.15094896564E+02  0.33560374554E+02  0.00000000000E+00 0.  1.
</event>
<event>
 7    1  0.1358622E-013  0.7246158E+02  0.7816164E-02  0.1226708E+00
        -11   -1    0    0    0    0  0.00000000000E+00  0.00000000000E+00  0.45593999997E+02  0.45594000000E+02  0.51100000000E-03 0.  1.
         11   -1    0    0    0    0 -0.00000000000E+00 -0.00000000000E+00 -0.45593999997E+02  0.45594000000E+02  0.51100000000E-03 0. -1.
    9900012    2    1    2    0    0  0.17667303932E+02  0.92567404629E+00 -0.61390951619E+01  0.72461575085E+02  0.70000006241E+02 0.  0.
        -12    1    1    2    0    0 -0.17667303932E+02 -0.92567404629E+00  0.61390951619E+01  0.18726424915E+02  0.00000000000E+00 0.  1.
         11    1    3    3    0    0  0.57270920342E+01  0.98006185792E+01 -0.22747869015E+02  0.25422770358E+02  0.51100000000E-03 0. -1.
        -11    1    3    3    0    0 -0.10190630798E+01 -0.11771344527E+02 -0.11163583671E+02  0.16255111263E+02  0.51100000000E-03 0.  1.
        -12    1    3    3    0    0  0.12959274978E+02  0.28963999940E+01  0.27772357524E+02  0.30783693464E+02  0.00000000000E+00 0.  1.
</event>
<event>
 7    1  0.1358622E-013  0.7246152E+02  0.7816164E-02  0.1226708E+00
        -11   -1    0    0    0    0  0.00000000000E+00  0.00000000000E+00  0.45593999997E+02  0.45594000000E+02  0.51100000000E-03 0.  1.
         11   -1    0    0    0    0 -0.00000000000E+00 -0.00000000000E+00 -0.45593999997E+02  0.45594000000E+02  0.51100000000E-03 0. -1.
    9900012    2    1    2    0    0 -0.12376000726E+01 -0.16225434924E+02 -0.92673931392E+01  0.72461522275E+02  0.69999937445E+02 0.  0.
        -12    1    1    2    0    0  0.12376000726E+01  0.16225434924E+02  0.92673931392E+01  0.18726477725E+02  0.00000000000E+00 0.  1.
         11    1    3    3    0    0  0.30877677208E+01 -0.71509465778E+01 -0.16420589882E+02  0.18174325814E+02  0.51100000000E-03 0. -1.
        -11    1    3    3    0    0 -0.54836171998E+01 -0.24672461354E+02  0.21409876252E+02  0.33123755950E+02  0.51100000000E-03 0.  1.
         12    1    3    3    0    0  0.11582494064E+01  0.15597973008E+02 -0.14256679508E+02  0.21163440511E+02  0.00000000000E+00 0. -1.
</event>
<event>
 7    1  0.1358622E-013  0.7246159E+02  0.7816164E-02  0.1226708E+00
        -11   -1    0    0    0    0  0.00000000000E+00  0.00000000000E+00  0.45593999997E+02  0.45594000000E+02  0.51100000000E-03 0.  1.
         11   -1    0    0    0    0 -0.00000000000E+00 -0.00000000000E+00 -0.45593999997E+02  0.45594000000E+02  0.51100000000E-03 0. -1.
    9900012    2    1    2    0    0 -0.55344310570E+01 -0.10930757365E+02 -0.14162173896E+02  0.72461586752E+02  0.70000021439E+02 0.  0.
        -12    1    1    2    0    0  0.55344310570E+01  0.10930757365E+02  0.14162173896E+02  0.18726413248E+02  0.00000000000E+00 0.  1.
         11    1    3    3    0    0 -0.12580730463E+02  0.69386208096E+01 -0.20779095309E+01  0.14516781530E+02  0.51100000000E-03 0. -1.
        -11    1    3    3    0    0 -0.64194874357E+00  0.18965026674E+02 -0.27296144270E+01  0.19171205755E+02  0.51100000000E-03 0.  1.
        -12    1    3    3    0    0  0.76882481497E+01 -0.36834404848E+02 -0.93546499380E+01  0.38773599466E+02  0.00000000000E+00 0.  1.
</event>
<event>
 7    1  0.1358622E-013  0.7246152E+02  0.7816164E-02  0.1226708E+00
        -11   -1    0    0    0    0  0.00000000000E+00  0.00000000000E+00  0.45593999997E+02  0.45594000000E+02  0.51100000000E-03 0. -1.
         11   -1    0    0    0    0 -0.00000000000E+00 -0.00000000000E+00 -0.45593999997E+02  0.45594000000E+02  0.51100000000E-03 0.  1.
    9900012    2    1    2    0    0 -0.95215808517E+01  0.15412465612E+02 -0.47409166195E+01  0.72461524396E+02  0.69999940208E+02 0.  0.
        -12    1    1    2    0    0  0.95215808517E+01 -0.15412465612E+02  0.47409166195E+01  0.18726475604E+02  0.00000000000E+00 0.  1.
         11    1    3    3    0    0 -0.99535435992E+01 -0.12465779342E+01 -0.15159192353E+01  0.10145195815E+02  0.51100000000E-03 0. -1.
        -11    1    3    3    0    0 -0.57728086148E+01  0.35487407085E+02 -0.15332958358E+02  0.39086839130E+02  0.51100000000E-03 0.  1.
         12    1    3    3    0    0  0.62047713624E+01 -0.18828363539E+02  0.12107960974E+02  0.23229489451E+02  0.00000000000E+00 0. -1.
</event>
<event>
 7    1  0.1358622E-013  0.7246162E+02  0.7816164E-02  0.1226708E+00
        -11   -1    0    0    0    0  0.00000000000E+00  0.00000000000E+00  0.45593999997E+02  0.45594000000E+02  0.51100000000E-03 0.  1.
         11   -1    0    0    0    0 -0.00000000000E+00 -0.00000000000E+00 -0.45593999997E+02  0.45594000000E+02  0.51100000000E-03 0. -1.
    9900012    2    1    2    0    0 -0.47806892765E+00 -0.18212552248E+02  0.43303364822E+01  0.72461616918E+02  0.70000060735E+02 0.  0.
        -12    1    1    2    0    0  0.47806892765E+00  0.18212552248E+02 -0.43303364822E+01  0.18726383082E+02  0.00000000000E+00 0.  1.
         11    1    3    3    0    0 -0.73698225465E+01  0.11111704172E+02 -0.55599361688E+01  0.14446354019E+02  0.51100000000E-03 0. -1.
        -11    1    3    3    0    0 -0.81033039626E+01 -0.20130649321E+02  0.26205763196E+02  0.34024235512E+02  0.51100000000E-03 0.  1.
         12    1    3    3    0    0  0.14995057581E+02 -0.91936070990E+01 -0.16315490545E+02  0.23991027387E+02  0.00000000000E+00 0. -1.
</event>
<event>
 7    1  0.1358622E-013  0.7246157E+02  0.7816164E-02  0.1226708E+00
        -11   -1    0    0    0    0  0.00000000000E+00  0.00000000000E+00  0.45593999997E+02  0.45594000000E+02  0.51100000000E-03 0.  1.
         11   -1    0    0    0    0 -0.00000000000E+00 -0.00000000000E+00 -0.45593999997E+02  0.45594000000E+02  0.51100000000E-03 0. -1.
    9900012    2    1    2    0    0  0.32172587439E+01 -0.13972512369E+01 -0.18395006666E+02  0.72461565874E+02  0.69999994241E+02 0.  0.
        -12    1    1    2    0    0 -0.32172587439E+01  0.13972512369E+01  0.18395006666E+02  0.18726434126E+02  0.00000000000E+00 0.  1.
         11    1    3    3    0    0 -0.78053289593E+01  0.70420375833E+00  0.10490446294E+02  0.13094599147E+02  0.51100000000E-03 0. -1.
        -11    1    3    3    0    0  0.25985471644E+00 -0.53567009243E+01  0.14020974332E+02  0.15011645171E+02  0.51100000000E-03 0.  1.
         12    1    3    3    0    0  0.10762732987E+02  0.32552459291E+01 -0.42906427292E+02  0.44355321556E+02  0.00000000000E+00 0. -1.
</event>
<event>
 7    1  0.1358622E-013  0.7246151E+02  0.7816164E-02  0.1226708E+00
        -11   -1    0    0    0    0  0.00000000000E+00  0.00000000000E+00  0.45593999997E+02  0.45594000000E+02  0.51100000000E-03 0.  1.
         11   -1    0    0    0    0 -0.00000000000E+00 -0.00000000000E+00 -0.45593999997E+02  0.45594000000E+02  0.51100000000E-03 0. -1.
    9900012    2    1    2    0    0  0.55272822016E+01  0.10444424598E+02 -0.14527379142E+02  0.72461505441E+02  0.69999915516E+02 0.  0.
        -12    1    1    2    0    0 -0.55272822016E+01 -0.10444424598E+02  0.14527379142E+02  0.18726494559E+02  0.00000000000E+00 0.  1.
         11    1    3    3    0    0  0.54820693005E+01 -0.10227043735E+02 -0.20362011245E+02  0.23436232837E+02  0.51100000000E-03 0. -1.
        -11    1    3    3    0    0 -0.17669142808E+01  0.20181200765E+01  0.23272304925E+02  0.23426373417E+02  0.51100000000E-03 0.  1.
         12    1    3    3    0    0  0.18121271819E+01  0.18653348257E+02 -0.17437672822E+02  0.25598899186E+02  0.00000000000E+00 0. -1.
</event>
<event>
 7    1  0.1358622E-013  0.7246159E+02  0.7816164E-02  0.1226708E+00
        -11   -1    0    0    0    0  0.00000000000E+00  0.00000000000E+00  0.45593999997E+02  0.45594000000E+02  0.51100000000E-03 0.  1.
         11   -1    0    0    0    0 -0.00000000000E+00 -0.00000000000E+00 -0.45593999997E+02  0.45594000000E+02  0.51100000000E-03 0. -1.
    9900012    2    1    2    0    0 -0.89846584782E+01  0.49980674394E+01 -0.15651637168E+02  0.72461587847E+02  0.70000022865E+02 0.  0.
        -12    1    1    2    0    0  0.89846584782E+01 -0.49980674394E+01  0.15651637168E+02  0.18726412153E+02  0.00000000000E+00 0.  1.
         11    1    3    3    0    0  0.19019446249E+02  0.15825212858E+02 -0.17560527107E+01  0.24804443534E+02  0.51100000000E-03 0. -1.
        -11    1    3    3    0    0  0.15202589171E+01 -0.63090802967E+01  0.82342196279E+01  0.10484181156E+02  0.51100000000E-03 0.  1.
         12    1    3    3    0    0 -0.29524363644E+02 -0.45180651220E+01 -0.22129804085E+02  0.37172963157E+02  0.00000000000E+00 0. -1.
</event>
<event>
 7    1  0.1358622E-013  0.7246153E+02  0.7816164E-02  0.1226708E+00
        -11   -1    0    0    0    0  0.00000000000E+00  0.00000000000E+00  0.45593999997E+02  0.45594000000E+02  0.51100000000E-03 0. -1.
         11   -1    0    0    0    0 -0.00000000000E+00 -0.00000000000E+00 -0.45593999997E+02  0.45594000000E+02  0.51100000000E-03 0.  1.
    9900012    2    1    2    0    0 -0.77805387137E+01 -0.29658358295E+01  0.16773424634E+02  0.72461528395E+02  0.69999945418E+02 0.  0.
        -12    1    1    2    0    0  0.77805387137E+01  0.29658358295E+01 -0.16773424634E+02  0.18726471605E+02  0.00000000000E+00 0.  1.
         11    1    3    3    0    0 -0.36581030383E+01  0.17750361032E+01  0.11520967120E+01  0.42260854347E+01  0.51100000000E-03 0. -1.
        -11    1    3    3    0    0 -0.62342418223E+01  0.30139436343E+02  0.23897738359E+01  0.30870089300E+02  0.51100000000E-03 0.  1.
         12    1    3    3    0    0  0.21118061469E+01 -0.34880308276E+02  0.13231554086E+02  0.37365353660E+02  0.00000000000E+00 0. -1.
</event>
<event>
 7    1  0.1358622E-013  0.7246155E+02  0.7816164E-02  0.1226708E+00
        -11   -1    0    0    0    0  0.00000000000E+00  0.00000000000E+00  0.45593999997E+02  0.45594000000E+02  0.51100000000E-03 0.  1.
         11   -1    0    0    0    0 -0.00000000000E+00 -0.00000000000E+00 -0.45593999997E+02  0.45594000000E+02  0.51100000000E-03 0. -1.
    9900012    2    1    2    0    0  0.12801527289E+02  0.12540157386E+02 -0.54355701461E+01  0.72461546224E+02  0.69999968644E+02 0.  0.
        -12    1    1    2    0    0 -0.12801527289E+02 -0.12540157386E+02  0.54355701461E+01  0.18726453776E+02  0.00000000000E+00 0.  1.
         11    1    3    3    0    0  0.49377749640E+01  0.12326774479E+02 -0.74749461683E+01  0.15238300795E+02  0.51100000000E-03 0. -1.
        -11    1    3    3    0    0 -0.33719054566E+01  0.22898264702E+02  0.16167514796E+02  0.28232761248E+02  0.51100000000E-03 0.  1.
         12    1    3    3    0    0  0.11235657782E+02 -0.22684881795E+02 -0.14128138773E+02  0.28990484181E+02  0.00000000000E+00 0. -1.
</event>
<event>
 7    1  0.1358622E-013  0.7246173E+02  0.7816164E-02  0.1226708E+00
        -11   -1    0    0    0    0  0.00000000000E+00  0.00000000000E+00  0.45593999997E+02  0.45594000000E+02  0.51100000000E-03 0.  1.
         11   -1    0    0    0    0 -0.00000000000E+00 -0.00000000000E+00 -0.45593999997E+02  0.45594000000E+02  0.51100000000E-03 0. -1.
    9900012    2    1    2    0    0  0.86478103130E+01 -0.98397719774E+01 -0.13381605361E+02  0.72461732411E+02  0.70000211187E+02 0.  0.
        -12    1    1    2    0    0 -0.86478103130E+01  0.98397719774E+01  0.13381605361E+02  0.18726267589E+02  0.00000000000E+00 0.  1.
         11    1    3    3    0    0  0.99692560540E+01 -0.14208518879E+02 -0.71926374610E+00  0.17371972128E+02  0.51100000000E-03 0. -1.
        -11    1    3    3    0    0 -0.15104638661E+02 -0.46356540755E+01  0.15713577612E+02  0.22283534716E+02  0.51100000000E-03 0.  1.
         12    1    3    3    0    0  0.13783192920E+02  0.90044009771E+01 -0.28375919227E+02  0.32806225568E+02  0.00000000000E+00 0. -1.
</event>
<event>
 7    1  0.1358622E-013  0.7246165E+02  0.7816164E-02  0.1226708E+00
        -11   -1    0    0    0    0  0.00000000000E+00  0.00000000000E+00  0.45593999997E+02  0.45594000000E+02  0.51100000000E-03 0.  1.
         11   -1    0    0    0    0 -0.00000000000E+00 -0.00000000000E+00 -0.45593999997E+02  0.45594000000E+02  0.51100000000E-03 0. -1.
    9900012    2    1    2    0    0  0.80246812395E+01  0.16205056111E+02 -0.48659036043E+01  0.72461645031E+02  0.70000097358E+02 0.  0.
        -12    1    1    2    0    0 -0.80246812395E+01 -0.16205056111E+02  0.48659036043E+01  0.18726354969E+02  0.00000000000E+00 0.  1.
         11    1    3    3    0    0  0.83223654708E+00  0.12440656945E+02  0.64308202247E+01  0.14029184293E+02  0.51100000000E-03 0. -1.
        -11    1    3    3    0    0  0.18693161111E+02  0.14393596506E+02  0.14905727142E+02  0.27906819858E+02  0.51100000000E-03 0.  1.
         12    1    3    3    0    0 -0.11500716419E+02 -0.10629197340E+02 -0.26202450971E+02  0.30525640880E+02  0.00000000000E+00 0. -1.
</event>
<event>
 7    1  0.1358622E-013  0.7246157E+02  0.7816164E-02  0.1226708E+00
        -11   -1    0    0    0    0  0.00000000000E+00  0.00000000000E+00  0.45593999997E+02  0.45594000000E+02  0.51100000000E-03 0.  1.
         11   -1    0    0    0    0 -0.00000000000E+00 -0.00000000000E+00 -0.45593999997E+02  0.45594000000E+02  0.51100000000E-03 0. -1.
    9900012    2    1    2    0    0  0.49691830816E+01 -0.12425830370E+02 -0.13099051488E+02  0.72461569727E+02  0.69999999261E+02 0.  0.
        -12    1    1    2    0    0 -0.49691830816E+01  0.12425830370E+02  0.13099051488E+02  0.18726430273E+02  0.00000000000E+00 0.  1.
         11    1    3    3    0    0 -0.89056347126E+01 -0.80212698387E+01  0.22816709544E-01  0.11985475390E+02  0.51100000000E-03 0. -1.
        -11    1    3    3    0    0 -0.10106560401E+02  0.53449732515E+01  0.17170805188E+02  0.20628811243E+02  0.51100000000E-03 0.  1.
         12    1    3    3    0    0  0.23981378195E+02 -0.97495337826E+01 -0.30292673386E+02  0.39847283094E+02  0.00000000000E+00 0. -1.
</event>
<event>
 7    1  0.1358622E-013  0.7246151E+02  0.7816164E-02  0.1226708E+00
        -11   -1    0    0    0    0  0.00000000000E+00  0.00000000000E+00  0.45593999997E+02  0.45594000000E+02  0.51100000000E-03 0. -1.
         11   -1    0    0    0    0 -0.00000000000E+00 -0.00000000000E+00 -0.45593999997E+02  0.45594000000E+02  0.51100000000E-03 0.  1.
    9900012    2    1    2    0    0 -0.38264957854E+01  0.16362194346E+02 -0.82654566591E+01  0.72461514809E+02  0.69999927720E+02 0.  0.
        -12    1    1    2    0    0  0.38264957854E+01 -0.16362194346E+02  0.82654566591E+01  0.18726485191E+02  0.00000000000E+00 0.  1.
         11    1    3    3    0    0 -0.60638786502E+01 -0.54135418598E+01 -0.16035113642E+01  0.82854274910E+01  0.51100000000E-03 0. -1.
        -11    1    3    3    0    0  0.78155522620E+00  0.22147154969E+02 -0.31928104700E+02  0.38865295211E+02  0.51100000000E-03 0.  1.
         12    1    3    3    0    0  0.14558276386E+01 -0.37141876314E+00  0.25266159405E+02  0.25310792107E+02  0.00000000000E+00 0. -1.
</event>
<event>
 7    1  0.1358622E-013  0.7246162E+02  0.7816164E-02  0.1226708E+00
        -11   -1    0    0    0    0  0.00000000000E+00  0.00000000000E+00  0.45593999997E+02  0.45594000000E+02  0.51100000000E-03 0. -1.
         11   -1    0    0    0    0 -0.00000000000E+00 -0.00000000000E+00 -0.45593999997E+02  0.45594000000E+02  0.51100000000E-03 0.  1.
    9900012    2    1    2    0    0  0.61496772585E+01  0.17018653581E+02  0.48191476870E+01  0.72461620625E+02  0.70000065564E+02 0.  0.
        -12    1    1    2    0    0 -0.61496772585E+01 -0.17018653581E+02 -0.48191476870E+01  0.18726379375E+02  0.00000000000E+00 0.  1.
         11    1    3    3    0    0 -0.10620110267E+02  0.23275831262E+02  0.16239135783E+02  0.30302814955E+02  0.51100000000E-03 0. -1.
        -11    1    3    3    0    0 -0.56585112492E+01  0.10248550899E+02  0.82999093185E+00  0.11736286904E+02  0.51100000000E-03 0.  1.
        -12    1    3    3    0    0  0.22428298774E+02 -0.16505728580E+02 -0.12249979027E+02  0.30422518765E+02  0.00000000000E+00 0.  1.
</event>
<event>
 7    1  0.1358622E-013  0.7246166E+02  0.7816164E-02  0.1226708E+00
        -11   -1    0    0    0    0  0.00000000000E+00  0.00000000000E+00  0.45593999997E+02  0.45594000000E+02  0.51100000000E-03 0.  1.
         11   -1    0    0    0    0 -0.00000000000E+00 -0.00000000000E+00 -0.45593999997E+02  0.45594000000E+02  0.51100000000E-03 0. -1.
    9900012    2    1    2    0    0  0.18373408745E+02 -0.10993589402E+01 -0.34474501136E+01  0.72461664233E+02  0.70000122372E+02 0.  0.
        -12    1    1    2    0    0 -0.18373408745E+02  0.10993589402E+01  0.34474501136E+01  0.18726335767E+02  0.00000000000E+00 0.  1.
         11    1    3    3    0    0  0.94054022969E+01 -0.15593997183E+01  0.36249715971E+01  0.10199693093E+02  0.51100000000E-03 0. -1.
        -11    1    3    3    0    0  0.18002884956E+02  0.23639066961E+02  0.10815468823E+02  0.31620937995E+02  0.51100000000E-03 0.  1.
         12    1    3    3    0    0 -0.90348785084E+01 -0.23179026183E+02 -0.17887890534E+02  0.30641033145E+02  0.00000000000E+00 0. -1.
</event>
<event>
 7    1  0.1358622E-013  0.7246162E+02  0.7816164E-02  0.1226708E+00
        -11   -1    0    0    0    0  0.00000000000E+00  0.00000000000E+00  0.45593999997E+02  0.45594000000E+02  0.51100000000E-03 0.  1.
         11   -1    0    0    0    0 -0.00000000000E+00 -0.00000000000E+00 -0.45593999997E+02  0.45594000000E+02  0.51100000000E-03 0. -1.
    9900012    2    1    2    0    0  0.11179198559E+02  0.14887002673E+02 -0.20199377078E+01  0.72461615476E+02  0.70000058857E+02 0.  0.
        -12    1    1    2    0    0 -0.11179198559E+02 -0.14887002673E+02  0.20199377078E+01  0.18726384524E+02  0.00000000000E+00 0.  1.
         11    1    3    3    0    0  0.27366115723E+02 -0.97105153249E+01 -0.21717181351E+02  0.36260644834E+02  0.51100000000E-03 0.  1.
        -11    1    3    3    0    0 -0.45464454112E+01  0.99104056404E+01  0.35599664663E+01  0.11469946266E+02  0.51100000000E-03 0. -1.
        -12    1    3    3    0    0 -0.11640471753E+02  0.14687112357E+02  0.16137277177E+02  0.24731024377E+02  0.00000000000E+00 0.  1.
</event>
<event>
 7    1  0.1358622E-013  0.7246156E+02  0.7816164E-02  0.1226708E+00
        -11   -1    0    0    0    0  0.00000000000E+00  0.00000000000E+00  0.45593999997E+02  0.45594000000E+02  0.51100000000E-03 0. -1.
         11   -1    0    0    0    0 -0.00000000000E+00 -0.00000000000E+00 -0.45593999997E+02  0.45594000000E+02  0.51100000000E-03 0.  1.
    9900012    2    1    2    0    0  0.18105380251E+02 -0.10433426301E+01  0.46675491040E+01  0.72461564874E+02  0.69999992939E+02 0.  0.
        -12    1    1    2    0    0 -0.18105380251E+02  0.10433426301E+01 -0.46675491040E+01  0.18726435126E+02  0.00000000000E+00 0.  1.
         11    1    3    3    0    0  0.10884815574E+00  0.91582028716E+01 -0.19775342267E+02  0.21793317549E+02  0.51100000000E-03 0. -1.
        -11    1    3    3    0    0 -0.10054953567E+01 -0.54937257060E+00 -0.10053719849E+02  0.10118800038E+02  0.51100000000E-03 0.  1.
         12    1    3    3    0    0  0.19002027452E+02 -0.96521729311E+01  0.34496611221E+02  0.40549447287E+02  0.00000000000E+00 0. -1.
</event>
<event>
 7    1  0.1358622E-013  0.7246156E+02  0.7816164E-02  0.1226708E+00
        -11   -1    0    0    0    0  0.00000000000E+00  0.00000000000E+00  0.45593999997E+02  0.45594000000E+02  0.51100000000E-03 0.  1.
         11   -1    0    0    0    0 -0.00000000000E+00 -0.00000000000E+00 -0.45593999997E+02  0.45594000000E+02  0.51100000000E-03 0. -1.
    9900012    2    1    2    0    0  0.17931415152E+02  0.44206311212E+00 -0.53803922526E+01  0.72461556399E+02  0.69999981899E+02 0.  0.
        -12    1    1    2    0    0 -0.17931415152E+02 -0.44206311212E+00  0.53803922526E+01  0.18726443601E+02  0.00000000000E+00 0.  1.
         11    1    3    3    0    0 -0.67537635011E+01  0.18728401402E+02 -0.64761674893E+01  0.20935784822E+02  0.51100000000E-03 0. -1.
        -11    1    3    3    0    0 -0.13501510391E+01 -0.65150904466E+01  0.17399866131E+02  0.18628597719E+02  0.51100000000E-03 0.  1.
         12    1    3    3    0    0  0.26035329692E+02 -0.11771247843E+02 -0.16304090894E+02  0.32897173858E+02  0.00000000000E+00 0. -1.
</event>
<event>
 7    1  0.1358622E-013  0.7246151E+02  0.7816164E-02  0.1226708E+00
        -11   -1    0    0    0    0  0.00000000000E+00  0.00000000000E+00  0.45593999997E+02  0.45594000000E+02  0.51100000000E-03 0. -1.
         11   -1    0    0    0    0 -0.00000000000E+00 -0.00000000000E+00 -0.45593999997E+02  0.45594000000E+02  0.51100000000E-03 0.  1.
    9900012    2    1    2    0    0  0.10423854592E+02 -0.34741534984E+01  0.15164267253E+02  0.72461508380E+02  0.69999919345E+02 0.  0.
        -12    1    1    2    0    0 -0.10423854592E+02  0.34741534984E+01 -0.15164267253E+02  0.18726491620E+02  0.00000000000E+00 0.  1.
         11    1    3    3    0    0  0.20092662245E+02  0.26237869444E+02  0.18098784150E+02  0.37678997558E+02  0.51100000000E-03 0. -1.
        -11    1    3    3    0    0 -0.95011535472E+01 -0.10588174720E+02  0.34171905225E+01  0.14630740034E+02  0.51100000000E-03 0.  1.
        -12    1    3    3    0    0 -0.16765410538E+00 -0.19123848222E+02 -0.63517074192E+01  0.20151770787E+02  0.00000000000E+00 0.  1.
</event>
<event>
 7    1  0.1358622E-013  0.7246159E+02  0.7816164E-02  0.1226708E+00
        -11   -1    0    0    0    0  0.00000000000E+00  0.00000000000E+00  0.45593999997E+02  0.45594000000E+02  0.51100000000E-03 0. -1.
         11   -1    0    0    0    0 -0.00000000000E+00 -0.00000000000E+00 -0.45593999997E+02  0.45594000000E+02  0.51100000000E-03 0.  1.
    9900012    2    1    2    0    0 -0.15298294314E+01 -0.97364156251E+01  0.15922946588E+02  0.72461590965E+02  0.70000026927E+02 0.  0.
        -12    1    1    2    0    0  0.15298294314E+01  0.97364156251E+01 -0.15922946588E+02  0.18726409035E+02  0.00000000000E+00 0.  1.
         11    1    3    3    0    0  0.10214909384E+02 -0.13051847668E+02  0.10712674951E+01  0.16608513347E+02  0.51100000000E-03 0. -1.
        -11    1    3    3    0    0 -0.15776282460E+02 -0.21851218080E+02  0.12898529468E+01  0.26982041077E+02  0.51100000000E-03 0.  1.
         12    1    3    3    0    0  0.40315436442E+01  0.25166650122E+02  0.13561826146E+02  0.28871036541E+02  0.00000000000E+00 0. -1.
</event>
<event>
 7    1  0.2357235E-013  0.7246158E+02  0.7816164E-02  0.1226708E+00
        -11   -1    0    0    0    0  0.00000000000E+00  0.00000000000E+00  0.45593999997E+02  0.45594000000E+02  0.51100000000E-03 0. -1.
         11   -1    0    0    0    0 -0.00000000000E+00 -0.00000000000E+00 -0.45593999997E+02  0.45594000000E+02  0.51100000000E-03 0.  1.
    9900012    2    1    2    0    0  0.48198628279E+01 -0.83336723454E+01  0.16062310133E+02  0.72461575375E+02  0.70000006619E+02 0.  0.
        -12    1    1    2    0    0 -0.48198628279E+01  0.83336723454E+01 -0.16062310133E+02  0.18726424625E+02  0.00000000000E+00 0.  1.
         11    1    3    3    0    0 -0.89886055034E+01 -0.15301542454E+02  0.32234656745E+02  0.36796811358E+02  0.51100000000E-03 0. -1.
        -11    1    3    3    0    0 -0.52652312539E+00  0.14536510748E+02 -0.31782091827E+01  0.14889203646E+02  0.51100000000E-03 0.  1.
        -12    1    3    3    0    0  0.14334991457E+02 -0.75686406396E+01 -0.12994137430E+02  0.20775560371E+02  0.00000000000E+00 0.  1.
</event>
<event>
 7    1  0.1358622E-013  0.7246178E+02  0.7816164E-02  0.1226707E+00
        -11   -1    0    0    0    0  0.00000000000E+00  0.00000000000E+00  0.45593999997E+02  0.45594000000E+02  0.51100000000E-03 0.  1.
         11   -1    0    0    0    0 -0.00000000000E+00 -0.00000000000E+00 -0.45593999997E+02  0.45594000000E+02  0.51100000000E-03 0. -1.
    9900012    2    1    2    0    0  0.63077817281E+01  0.13946233934E+02 -0.10788224956E+02  0.72461779106E+02  0.70000272015E+02 0.  0.
        -12    1    1    2    0    0 -0.63077817281E+01 -0.13946233934E+02  0.10788224956E+02  0.18726220894E+02  0.00000000000E+00 0.  1.
         11    1    3    3    0    0 -0.85962901295E+01  0.11975675440E+02  0.44949696632E+01  0.15411611167E+02  0.51100000000E-03 0. -1.
        -11    1    3    3    0    0  0.83212539786E+01  0.27428496245E+02 -0.84168113370E+01  0.29873205174E+02  0.51100000000E-03 0.  1.
        -12    1    3    3    0    0  0.65828178791E+01 -0.25457937750E+02 -0.68663832819E+01  0.27176962765E+02  0.00000000000E+00 0.  1.
</event>
<event>
 7    1  0.1358622E-013  0.7246153E+02  0.7816164E-02  0.1226708E+00
        -11   -1    0    0    0    0  0.00000000000E+00  0.00000000000E+00  0.45593999997E+02  0.45594000000E+02  0.51100000000E-03 0.  1.
         11   -1    0    0    0    0 -0.00000000000E+00 -0.00000000000E+00 -0.45593999997E+02  0.45594000000E+02  0.51100000000E-03 0. -1.
    9900012    2    1    2    0    0 -0.10953318653E+02  0.13183403650E+02 -0.75434234285E+01  0.72461533213E+02  0.69999951694E+02 0.  0.
        -12    1    1    2    0    0  0.10953318653E+02 -0.13183403650E+02  0.75434234285E+01  0.18726466787E+02  0.00000000000E+00 0.  1.
         11    1    3    3    0    0 -0.43144499905E+01  0.13453099779E+02  0.67753153309E+01  0.15668607803E+02  0.51100000000E-03 0. -1.
        -11    1    3    3    0    0  0.15554206535E+02 -0.19696429756E+01  0.13830593983E+02  0.20906892753E+02  0.51100000000E-03 0.  1.
         12    1    3    3    0    0 -0.22193075197E+02  0.16999468462E+01 -0.28149332743E+02  0.35886032657E+02  0.00000000000E+00 0. -1.
</event>
<event>
 7    1  0.1358622E-013  0.7246157E+02  0.7816164E-02  0.1226708E+00
        -11   -1    0    0    0    0  0.00000000000E+00  0.00000000000E+00  0.45593999997E+02  0.45594000000E+02  0.51100000000E-03 0. -1.
         11   -1    0    0    0    0 -0.00000000000E+00 -0.00000000000E+00 -0.45593999997E+02  0.45594000000E+02  0.51100000000E-03 0.  1.
    9900012    2    1    2    0    0  0.12173525841E+02 -0.12283847473E+02  0.71827214440E+01  0.72461571417E+02  0.70000001462E+02 0.  0.
        -12    1    1    2    0    0 -0.12173525841E+02  0.12283847473E+02 -0.71827214440E+01  0.18726428583E+02  0.00000000000E+00 0.  1.
         11    1    3    3    0    0  0.61936473985E+01 -0.91305759959E+01  0.23542031739E+02  0.25999152770E+02  0.51100000000E-03 0. -1.
        -11    1    3    3    0    0  0.47566801929E+01 -0.21225682404E+02  0.44152888841E+00  0.21756620786E+02  0.51100000000E-03 0.  1.
        -12    1    3    3    0    0  0.12231982494E+01  0.18072410927E+02 -0.16800839183E+02  0.24705797861E+02  0.00000000000E+00 0.  1.
</event>
<event>
 7    1  0.1358622E-013  0.7246132E+02  0.7816164E-02  0.1226709E+00
        -11   -1    0    0    0    0  0.00000000000E+00  0.00000000000E+00  0.45593999997E+02  0.45594000000E+02  0.51100000000E-03 0.  1.
         11   -1    0    0    0    0 -0.00000000000E+00 -0.00000000000E+00 -0.45593999997E+02  0.45594000000E+02  0.51100000000E-03 0. -1.
    9900012    2    1    2    0    0 -0.16323406293E+01 -0.12940423673E+02 -0.13437616991E+02  0.72461317134E+02  0.69999670211E+02 0.  0.
        -12    1    1    2    0    0  0.16323406293E+01  0.12940423673E+02  0.13437616991E+02  0.18726682866E+02  0.00000000000E+00 0.  1.
         11    1    3    3    0    0 -0.49391550065E+01 -0.36678306657E+02 -0.75158726389E+00  0.37017000352E+02  0.51100000000E-03 0. -1.
        -11    1    3    3    0    0  0.27539832912E+01 -0.37041037165E+01  0.10766231241E+01  0.47396124233E+01  0.51100000000E-03 0.  1.
        -12    1    3    3    0    0  0.55283108605E+00  0.27441986700E+02 -0.13762652851E+02  0.30704704359E+02  0.00000000000E+00 0.  1.
</event>
<event>
 7    1  0.1358622E-013  0.7246155E+02  0.7816164E-02  0.1226708E+00
        -11   -1    0    0    0    0  0.00000000000E+00  0.00000000000E+00  0.45593999997E+02  0.45594000000E+02  0.51100000000E-03 0. -1.
         11   -1    0    0    0    0 -0.00000000000E+00 -0.00000000000E+00 -0.45593999997E+02  0.45594000000E+02  0.51100000000E-03 0.  1.
    9900012    2    1    2    0    0 -0.67749057140E+01  0.14144203029E+02  0.10233383996E+02  0.72461548794E+02  0.69999971992E+02 0.  0.
        -12    1    1    2    0    0  0.67749057140E+01 -0.14144203029E+02 -0.10233383996E+02  0.18726451206E+02  0.00000000000E+00 0.  1.
         11    1    3    3    0    0  0.87985017716E+01 -0.32064589979E+01 -0.12575823378E+01  0.94486256317E+01  0.51100000000E-03 0. -1.
        -11    1    3    3    0    0 -0.14729310458E+01  0.37154342721E+02  0.10687443139E+02  0.38688966774E+02  0.51100000000E-03 0.  1.
         12    1    3    3    0    0 -0.14100476440E+02 -0.19803680694E+02  0.80352319422E+00  0.24323956389E+02  0.00000000000E+00 0. -1.
</event>
<event>
 7    1  0.1358622E-013  0.7246157E+02  0.7816164E-02  0.1226708E+00
        -11   -1    0    0    0    0  0.00000000000E+00  0.00000000000E+00  0.45593999997E+02  0.45594000000E+02  0.51100000000E-03 0.  1.
         11   -1    0    0    0    0 -0.00000000000E+00 -0.00000000000E+00 -0.45593999997E+02  0.45594000000E+02  0.51100000000E-03 0. -1.
    9900012    2    1    2    0    0 -0.56988975653E+01  0.17087004756E+02 -0.51221268841E+01  0.72461565507E+02  0.69999993764E+02 0.  0.
        -12    1    1    2    0    0  0.56988975653E+01 -0.17087004756E+02  0.51221268841E+01  0.18726434493E+02  0.00000000000E+00 0.  1.
         11    1    3    3    0    0  0.65465086999E+01  0.14895268226E+02 -0.10115231353E+02  0.19158384517E+02  0.51100000000E-03 0.  1.
        -11    1    3    3    0    0  0.12540986555E+02 -0.14178628208E+02  0.12476027804E+02  0.22670710435E+02  0.51100000000E-03 0. -1.
         12    1    3    3    0    0 -0.24786392820E+02  0.16370364737E+02 -0.74829233343E+01  0.30632470555E+02  0.00000000000E+00 0. -1.
</event>
<event>
 7    1  0.1358622E-013  0.7246162E+02  0.7816164E-02  0.1226708E+00
        -11   -1    0    0    0    0  0.00000000000E+00  0.00000000000E+00  0.45593999997E+02  0.45594000000E+02  0.51100000000E-03 0.  1.
         11   -1    0    0    0    0 -0.00000000000E+00 -0.00000000000E+00 -0.45593999997E+02  0.45594000000E+02  0.51100000000E-03 0. -1.
    9900012    2    1    2    0    0  0.14686195929E+02  0.97411268441E+01 -0.63327239971E+01  0.72461620310E+02  0.70000065155E+02 0.  0.
        -12    1    1    2    0    0 -0.14686195929E+02 -0.97411268441E+01  0.63327239971E+01  0.18726379690E+02  0.00000000000E+00 0.  1.
         11    1    3    3    0    0 -0.38909869987E+01 -0.60168407640E+01  0.19278090475E+01  0.74201482861E+01  0.51100000000E-03 0. -1.
        -11    1    3    3    0    0 -0.13326147126E+02  0.24939616492E+02 -0.13666195632E+02  0.31405979866E+02  0.51100000000E-03 0.  1.
         12    1    3    3    0    0  0.31903330054E+02 -0.91816488842E+01  0.54056625874E+01  0.33635492159E+02  0.00000000000E+00 0. -1.
</event>
<event>
 7    1  0.1358622E-013  0.7246152E+02  0.7816164E-02  0.1226708E+00
        -11   -1    0    0    0    0  0.00000000000E+00  0.00000000000E+00  0.45593999997E+02  0.45594000000E+02  0.51100000000E-03 0.  1.
         11   -1    0    0    0    0 -0.00000000000E+00 -0.00000000000E+00 -0.45593999997E+02  0.45594000000E+02  0.51100000000E-03 0. -1.
    9900012    2    1    2    0    0  0.31612248757E+01  0.32478557681E+01 -0.18169731512E+02  0.72461520004E+02  0.69999934488E+02 0.  0.
        -12    1    1    2    0    0 -0.31612248757E+01 -0.32478557681E+01  0.18169731512E+02  0.18726479996E+02  0.00000000000E+00 0.  1.
         11    1    3    3    0    0  0.19051506945E+02  0.87163770557E+01 -0.18503754100E+02  0.27952174547E+02  0.51100000000E-03 0. -1.
        -11    1    3    3    0    0  0.14036775168E+02  0.25244501815E+00  0.14352558119E+00  0.14039778682E+02  0.51100000000E-03 0.  1.
        -12    1    3    3    0    0 -0.29927057237E+02 -0.57209663058E+01  0.19049700680E+00  0.30469566775E+02  0.00000000000E+00 0.  1.
</event>
<event>
 7    1  0.1358622E-013  0.7246163E+02  0.7816164E-02  0.1226708E+00
        -11   -1    0    0    0    0  0.00000000000E+00  0.00000000000E+00  0.45593999997E+02  0.45594000000E+02  0.51100000000E-03 0. -1.
         11   -1    0    0    0    0 -0.00000000000E+00 -0.00000000000E+00 -0.45593999997E+02  0.45594000000E+02  0.51100000000E-03 0.  1.
    9900012    2    1    2    0    0  0.58353548936E+01  0.17442528950E+02  0.35190534998E+01  0.72461630345E+02  0.70000078227E+02 0.  0.
        -12    1    1    2    0    0 -0.58353548936E+01 -0.17442528950E+02 -0.35190534998E+01  0.18726369655E+02  0.00000000000E+00 0.  1.
         11    1    3    3    0    0  0.22728262289E+02  0.15476483078E+02 -0.63674849499E+01  0.28224817094E+02  0.51100000000E-03 0. -1.
        -11    1    3    3    0    0 -0.32975586506E+01  0.18599525450E+02 -0.30876768708E+01  0.19140271387E+02  0.51100000000E-03 0.  1.
        -12    1    3    3    0    0 -0.13595348745E+02 -0.16633479578E+02  0.12974215321E+02  0.25096541865E+02  0.00000000000E+00 0.  1.
</event>
<event>
 7    1  0.1358622E-013  0.7246155E+02  0.7816164E-02  0.1226708E+00
        -11   -1    0    0    0    0  0.00000000000E+00  0.00000000000E+00  0.45593999997E+02  0.45594000000E+02  0.51100000000E-03 0. -1.
         11   -1    0    0    0    0 -0.00000000000E+00 -0.00000000000E+00 -0.45593999997E+02  0.45594000000E+02  0.51100000000E-03 0.  1.
    9900012    2    1    2    0    0  0.17965299181E+02  0.29002136716E+01  0.44177597738E+01  0.72461553049E+02  0.69999977534E+02 0.  0.
        -12    1    1    2    0    0 -0.17965299181E+02 -0.29002136716E+01 -0.44177597738E+01  0.18726446951E+02  0.00000000000E+00 0.  1.
         11    1    3    3    0    0 -0.16093516518E+01 -0.16193038557E+01  0.33138141479E+01  0.40241175659E+01  0.51100000000E-03 0. -1.
        -11    1    3    3    0    0 -0.10972794158E+02 -0.77812570629E+01 -0.23671922945E+02  0.27227010656E+02  0.51100000000E-03 0.  1.
         12    1    3    3    0    0  0.30547444990E+02  0.12300774590E+02  0.24775868571E+02  0.41210424827E+02  0.00000000000E+00 0. -1.
</event>
<event>
 7    1  0.1358622E-013  0.7246155E+02  0.7816164E-02  0.1226708E+00
        -11   -1    0    0    0    0  0.00000000000E+00  0.00000000000E+00  0.45593999997E+02  0.45594000000E+02  0.51100000000E-03 0.  1.
         11   -1    0    0    0    0 -0.00000000000E+00 -0.00000000000E+00 -0.45593999997E+02  0.45594000000E+02  0.51100000000E-03 0. -1.
    9900012    2    1    2    0    0  0.10497866093E+02 -0.10783544185E+02  0.11144059650E+02  0.72461545899E+02  0.69999968221E+02 0.  0.
        -12    1    1    2    0    0 -0.10497866093E+02  0.10783544185E+02 -0.11144059650E+02  0.18726454101E+02  0.00000000000E+00 0.  1.
         11    1    3    3    0    0  0.58680242386E+01  0.63387363523E+01 -0.13034216022E+02  0.15636626061E+02  0.51100000000E-03 0. -1.
        -11    1    3    3    0    0  0.12776028016E+02 -0.15779424216E+02 -0.93085693049E+01  0.22335321426E+02  0.51100000000E-03 0.  1.
        -12    1    3    3    0    0 -0.81461861610E+01 -0.13428563213E+01  0.33486844977E+02  0.34489598412E+02  0.00000000000E+00 0.  1.
</event>
<event>
 7    1  0.1358622E-013  0.7246164E+02  0.7816164E-02  0.1226708E+00
        -11   -1    0    0    0    0  0.00000000000E+00  0.00000000000E+00  0.45593999997E+02  0.45594000000E+02  0.51100000000E-03 0.  1.
         11   -1    0    0    0    0 -0.00000000000E+00 -0.00000000000E+00 -0.45593999997E+02  0.45594000000E+02  0.51100000000E-03 0. -1.
    9900012    2    1    2    0    0 -0.92999061877E+01 -0.11985986067E+02 -0.10978368718E+02  0.72461636316E+02  0.70000086005E+02 0.  0.
        -12    1    1    2    0    0  0.92999061877E+01  0.11985986067E+02  0.10978368718E+02  0.18726363684E+02  0.00000000000E+00 0.  1.
         11    1    3    3    0    0  0.69430521638E+01 -0.24899738038E+02 -0.17409313952E+02  0.31165479945E+02  0.51100000000E-03 0. -1.
        -11    1    3    3    0    0 -0.14118272101E+01 -0.59444158882E+01  0.14700350758E+02  0.15919473892E+02  0.51100000000E-03 0.  1.
        -12    1    3    3    0    0 -0.14831131141E+02  0.18858167859E+02 -0.82694055244E+01  0.25376682479E+02  0.00000000000E+00 0.  1.
</event>
<event>
 7    1  0.1358622E-013  0.7246165E+02  0.7816164E-02  0.1226708E+00
        -11   -1    0    0    0    0  0.00000000000E+00  0.00000000000E+00  0.45593999997E+02  0.45594000000E+02  0.51100000000E-03 0. -1.
         11   -1    0    0    0    0 -0.00000000000E+00 -0.00000000000E+00 -0.45593999997E+02  0.45594000000E+02  0.51100000000E-03 0.  1.
    9900012    2    1    2    0    0 -0.79566117819E+01  0.45263084758E+01  0.16336496617E+02  0.72461647948E+02  0.70000101158E+02 0.  0.
        -12    1    1    2    0    0  0.79566117819E+01 -0.45263084758E+01 -0.16336496617E+02  0.18726352052E+02  0.00000000000E+00 0.  1.
         11    1    3    3    0    0  0.78025285597E+01 -0.10991272739E+02  0.31264551668E+01  0.13836988492E+02  0.51100000000E-03 0. -1.
        -11    1    3    3    0    0 -0.30873293192E+02 -0.52067931957E+01  0.94214096253E+01  0.32696083672E+02  0.51100000000E-03 0.  1.
        -12    1    3    3    0    0  0.15114152850E+02  0.20724374411E+02  0.37886318251E+01  0.25928575784E+02  0.00000000000E+00 0.  1.
</event>
<event>
 7    1  0.1358622E-013  0.7246153E+02  0.7816164E-02  0.1226708E+00
        -11   -1    0    0    0    0  0.00000000000E+00  0.00000000000E+00  0.45593999997E+02  0.45594000000E+02  0.51100000000E-03 0.  1.
         11   -1    0    0    0    0 -0.00000000000E+00 -0.00000000000E+00 -0.45593999997E+02  0.45594000000E+02  0.51100000000E-03 0. -1.
    9900012    2    1    2    0    0  0.55887763430E+01  0.13708254832E+02 -0.11468651615E+02  0.72461530994E+02  0.69999948804E+02 0.  0.
        -12    1    1    2    0    0 -0.55887763430E+01 -0.13708254832E+02  0.11468651615E+02  0.18726469006E+02  0.00000000000E+00 0.  1.
         11    1    3    3    0    0 -0.15096981823E+01  0.31068588830E+02  0.12024652475E+01  0.31128480905E+02  0.51100000000E-03 0. -1.
        -11    1    3    3    0    0 -0.11690839317E+02  0.24755263705E+01 -0.50044868299E+01  0.12955649094E+02  0.51100000000E-03 0.  1.
        -12    1    3    3    0    0  0.18789313842E+02 -0.19835860368E+02 -0.76666300324E+01  0.28377400996E+02  0.00000000000E+00 0.  1.
</event>
<event>
 7    1  0.1358622E-013  0.7246151E+02  0.7816164E-02  0.1226708E+00
        -11   -1    0    0    0    0  0.00000000000E+00  0.00000000000E+00  0.45593999997E+02  0.45594000000E+02  0.51100000000E-03 0. -1.
         11   -1    0    0    0    0 -0.00000000000E+00 -0.00000000000E+00 -0.45593999997E+02  0.45594000000E+02  0.51100000000E-03 0.  1.
    9900012    2    1    2    0    0  0.14400421657E+02  0.16406976484E+01  0.11858218864E+02  0.72461511079E+02  0.69999922861E+02 0.  0.
        -12    1    1    2    0    0 -0.14400421657E+02 -0.16406976484E+01 -0.11858218864E+02  0.18726488921E+02  0.00000000000E+00 0.  1.
         11    1    3    3    0    0  0.13404128107E+02 -0.16126842514E+02 -0.76998544110E+01  0.22339056783E+02  0.51100000000E-03 0. -1.
        -11    1    3    3    0    0  0.12209186609E+02 -0.41998306094E+01 -0.63187984456E+01  0.14374631434E+02  0.51100000000E-03 0.  1.
        -12    1    3    3    0    0 -0.11212893059E+02  0.21967370771E+02  0.25876871720E+02  0.35747822862E+02  0.00000000000E+00 0.  1.
</event>
<event>
 7    1  0.1358622E-013  0.7246159E+02  0.7816164E-02  0.1226708E+00
        -11   -1    0    0    0    0  0.00000000000E+00  0.00000000000E+00  0.45593999997E+02  0.45594000000E+02  0.51100000000E-03 0.  1.
         11   -1    0    0    0    0 -0.00000000000E+00 -0.00000000000E+00 -0.45593999997E+02  0.45594000000E+02  0.51100000000E-03 0. -1.
    9900012    2    1    2    0    0 -0.23506323170E+01  0.16051427404E+02 -0.93543971937E+01  0.72461587080E+02  0.70000021867E+02 0.  0.
        -12    1    1    2    0    0  0.23506323170E+01 -0.16051427404E+02  0.93543971937E+01  0.18726412920E+02  0.00000000000E+00 0.  1.
         11    1    3    3    0    0  0.18931696556E+02  0.92374247156E+01 -0.74766073449E+01  0.22352601806E+02  0.51100000000E-03 0. -1.
        -11    1    3    3    0    0  0.97681590109E+01  0.12769018320E+02 -0.79178075412E+01  0.17920838034E+02  0.51100000000E-03 0.  1.
        -12    1    3    3    0    0 -0.31050487884E+02 -0.59550156323E+01  0.60400176924E+01  0.32188147240E+02  0.00000000000E+00 0.  1.
</event>
<event>
 7    1  0.1358622E-013  0.7246125E+02  0.7816164E-02  0.1226709E+00
        -11   -1    0    0    0    0  0.00000000000E+00  0.00000000000E+00  0.45593999997E+02  0.45594000000E+02  0.51100000000E-03 0. -1.
         11   -1    0    0    0    0 -0.00000000000E+00 -0.00000000000E+00 -0.45593999997E+02  0.45594000000E+02  0.51100000000E-03 0.  1.
    9900012    2    1    2    0    0  0.12164002637E+02 -0.48485595816E+01  0.13387296502E+02  0.72461249139E+02  0.69999581635E+02 0.  0.
        -12    1    1    2    0    0 -0.12164002637E+02  0.48485595816E+01 -0.13387296502E+02  0.18726750861E+02  0.00000000000E+00 0.  1.
         11    1    3    3    0    0 -0.47014086684E+01 -0.63058515022E+01 -0.21951352071E+02  0.23317994439E+02  0.51100000000E-03 0. -1.
        -11    1    3    3    0    0  0.62183307730E+01  0.72407844708E+01 -0.21171453074E+01  0.97764462801E+01  0.51100000000E-03 0.  1.
         12    1    3    3    0    0  0.10647080532E+02 -0.57834925501E+01  0.37455793881E+02  0.39366808420E+02  0.00000000000E+00 0. -1.
</event>
<event>
 7    1  0.1358622E-013  0.7246156E+02  0.7816164E-02  0.1226708E+00
        -11   -1    0    0    0    0  0.00000000000E+00  0.00000000000E+00  0.45593999997E+02  0.45594000000E+02  0.51100000000E-03 0.  1.
         11   -1    0    0    0    0 -0.00000000000E+00 -0.00000000000E+00 -0.45593999997E+02  0.45594000000E+02  0.51100000000E-03 0. -1.
    9900012    2    1    2    0    0 -0.18880532956E+01 -0.16413526395E+02  0.88153884226E+01  0.72461557011E+02  0.69999982696E+02 0.  0.
        -12    1    1    2    0    0  0.18880532956E+01  0.16413526395E+02 -0.88153884226E+01  0.18726442989E+02  0.00000000000E+00 0.  1.
         11    1    3    3    0    0  0.26469122310E+01  0.93667562851E+01  0.63257685048E+01  0.11608514767E+02  0.51100000000E-03 0. -1.
        -11    1    3    3    0    0  0.15196983309E+02  0.98085701279E+01 -0.64256511012E+01  0.19194930112E+02  0.51100000000E-03 0.  1.
         12    1    3    3    0    0 -0.19731948836E+02 -0.35588852808E+02  0.89152710189E+01  0.41658112132E+02  0.00000000000E+00 0. -1.
</event>
<event>
 7    1  0.1358622E-013  0.7246161E+02  0.7816164E-02  0.1226708E+00
        -11   -1    0    0    0    0  0.00000000000E+00  0.00000000000E+00  0.45593999997E+02  0.45594000000E+02  0.51100000000E-03 0. -1.
         11   -1    0    0    0    0 -0.00000000000E+00 -0.00000000000E+00 -0.45593999997E+02  0.45594000000E+02  0.51100000000E-03 0.  1.
    9900012    2    1    2    0    0  0.92719454602E+01  0.15873909600E+02  0.35675679405E+01  0.72461614347E+02  0.70000057387E+02 0.  0.
        -12    1    1    2    0    0 -0.92719454602E+01 -0.15873909600E+02 -0.35675679405E+01  0.18726385653E+02  0.00000000000E+00 0.  1.
         11    1    3    3    0    0 -0.16403575932E+02  0.27013688164E+02  0.71860986513E+01  0.32410749230E+02  0.51100000000E-03 0. -1.
        -11    1    3    3    0    0  0.64040305913E+01 -0.58813234011E+01  0.11912090435E+02  0.14747863288E+02  0.51100000000E-03 0.  1.
        -12    1    3    3    0    0  0.19271490801E+02 -0.52584551628E+01 -0.15530621146E+02  0.25303001829E+02  0.00000000000E+00 0.  1.
</event>
<event>
 7    1  0.1358622E-013  0.7246155E+02  0.7816164E-02  0.1226708E+00
        -11   -1    0    0    0    0  0.00000000000E+00  0.00000000000E+00  0.45593999997E+02  0.45594000000E+02  0.51100000000E-03 0. -1.
         11   -1    0    0    0    0 -0.00000000000E+00 -0.00000000000E+00 -0.45593999997E+02  0.45594000000E+02  0.51100000000E-03 0.  1.
    9900012    2    1    2    0    0 -0.62043699163E+01  0.15365061948E+02  0.87235607655E+01  0.72461552201E+02  0.69999976430E+02 0.  0.
        -12    1    1    2    0    0  0.62043699163E+01 -0.15365061948E+02 -0.87235607655E+01  0.18726447799E+02  0.00000000000E+00 0.  1.
         11    1    3    3    0    0  0.11343548021E+01  0.34591009277E+02  0.35230579600E+01  0.34788455287E+02  0.51100000000E-03 0. -1.
        -11    1    3    3    0    0 -0.75227361794E+00  0.49907372546E+00  0.14758534034E+02  0.14786119074E+02  0.51100000000E-03 0.  1.
        -12    1    3    3    0    0 -0.65864511004E+01 -0.19725021054E+02 -0.95580312280E+01  0.22886977840E+02  0.00000000000E+00 0.  1.
</event>
<event>
 7    1  0.1358622E-013  0.7246160E+02  0.7816164E-02  0.1226708E+00
        -11   -1    0    0    0    0  0.00000000000E+00  0.00000000000E+00  0.45593999997E+02  0.45594000000E+02  0.51100000000E-03 0. -1.
         11   -1    0    0    0    0 -0.00000000000E+00 -0.00000000000E+00 -0.45593999997E+02  0.45594000000E+02  0.51100000000E-03 0.  1.
    9900012    2    1    2    0    0 -0.78700600056E+01  0.13380304159E+02  0.10474147483E+02  0.72461597532E+02  0.70000035483E+02 0.  0.
        -12    1    1    2    0    0  0.78700600056E+01 -0.13380304159E+02 -0.10474147483E+02  0.18726402468E+02  0.00000000000E+00 0.  1.
         11    1    3    3    0    0  0.21504757613E+02  0.20883178704E+02  0.13826068330E+02  0.33010936347E+02  0.51100000000E-03 0. -1.
        -11    1    3    3    0    0  0.40925624218E+01 -0.33198118102E+01  0.12346450376E+01  0.54124454974E+01  0.51100000000E-03 0.  1.
        -12    1    3    3    0    0 -0.33467380040E+02 -0.41830627350E+01 -0.45865658846E+01  0.34038215688E+02  0.00000000000E+00 0.  1.
</event>
<event>
 7    1  0.1358622E-013  0.7246158E+02  0.7816164E-02  0.1226708E+00
        -11   -1    0    0    0    0  0.00000000000E+00  0.00000000000E+00  0.45593999997E+02  0.45594000000E+02  0.51100000000E-03 0.  1.
         11   -1    0    0    0    0 -0.00000000000E+00 -0.00000000000E+00 -0.45593999997E+02  0.45594000000E+02  0.51100000000E-03 0. -1.
    9900012    2    1    2    0    0 -0.46362047331E+01 -0.46987718748E+01 -0.17524435104E+02  0.72461583440E+02  0.70000017125E+02 0.  0.
        -12    1    1    2    0    0  0.46362047331E+01  0.46987718748E+01  0.17524435104E+02  0.18726416560E+02  0.00000000000E+00 0.  1.
         11    1    3    3    0    0 -0.14231098993E+02 -0.11383088916E+02 -0.89920217057E+01  0.20321302774E+02  0.51100000000E-03 0. -1.
        -11    1    3    3    0    0  0.57675549095E+01 -0.94083046805E+01  0.17858977488E+02  0.20993426680E+02  0.51100000000E-03 0.  1.
         12    1    3    3    0    0  0.38273393506E+01  0.16092621721E+02 -0.26391390886E+02  0.31146853987E+02  0.00000000000E+00 0. -1.
</event>
<event>
 7    1  0.1358622E-013  0.7246157E+02  0.7816164E-02  0.1226708E+00
        -11   -1    0    0    0    0  0.00000000000E+00  0.00000000000E+00  0.45593999997E+02  0.45594000000E+02  0.51100000000E-03 0. -1.
         11   -1    0    0    0    0 -0.00000000000E+00 -0.00000000000E+00 -0.45593999997E+02  0.45594000000E+02  0.51100000000E-03 0.  1.
    9900012    2    1    2    0    0 -0.69025106106E+01 -0.78746469424E+01  0.15524960108E+02  0.72461572056E+02  0.70000002295E+02 0.  0.
        -12    1    1    2    0    0  0.69025106106E+01  0.78746469424E+01 -0.15524960108E+02  0.18726427944E+02  0.00000000000E+00 0.  1.
         11    1    3    3    0    0 -0.55160329653E+00 -0.27468243253E+01 -0.15167556848E+01  0.31858842005E+01  0.51100000000E-03 0. -1.
        -11    1    3    3    0    0 -0.26086654458E+02 -0.16120738200E+02 -0.11609290106E+02  0.32789744707E+02  0.51100000000E-03 0.  1.
         12    1    3    3    0    0  0.19735747144E+02  0.10992915583E+02  0.28651005899E+02  0.36485943148E+02  0.00000000000E+00 0. -1.
</event>
<event>
 7    1  0.1358622E-013  0.7246158E+02  0.7816164E-02  0.1226708E+00
        -11   -1    0    0    0    0  0.00000000000E+00  0.00000000000E+00  0.45593999997E+02  0.45594000000E+02  0.51100000000E-03 0.  1.
         11   -1    0    0    0    0 -0.00000000000E+00 -0.00000000000E+00 -0.45593999997E+02  0.45594000000E+02  0.51100000000E-03 0. -1.
    9900012    2    1    2    0    0  0.18241478377E+02 -0.34165003228E+01 -0.25009234568E+01  0.72461584807E+02  0.70000018905E+02 0.  0.
        -12    1    1    2    0    0 -0.18241478377E+02  0.34165003228E+01  0.25009234568E+01  0.18726415193E+02  0.00000000000E+00 0.  1.
         11    1    3    3    0    0  0.36164165388E+01  0.49576299212E+00 -0.27750928683E+02  0.27989967712E+02  0.51100000000E-03 0. -1.
        -11    1    3    3    0    0  0.82904564146E+01  0.14552331316E+01 -0.71379888473E+01  0.11036315331E+02  0.51100000000E-03 0.  1.
        -12    1    3    3    0    0  0.63346054239E+01 -0.53674964465E+01  0.32387994073E+02  0.33435301764E+02  0.00000000000E+00 0.  1.
</event>
<event>
 7    1  0.1358622E-013  0.7246157E+02  0.7816164E-02  0.1226708E+00
        -11   -1    0    0    0    0  0.00000000000E+00  0.00000000000E+00  0.45593999997E+02  0.45594000000E+02  0.51100000000E-03 0.  1.
         11   -1    0    0    0    0 -0.00000000000E+00 -0.00000000000E+00 -0.45593999997E+02  0.45594000000E+02  0.51100000000E-03 0. -1.
    9900012    2    1    2    0    0 -0.98852276115E+01  0.15626485334E+02 -0.29621789024E+01  0.72461567540E+02  0.69999996412E+02 0.  0.
        -12    1    1    2    0    0  0.98852276115E+01 -0.15626485334E+02  0.29621789024E+01  0.18726432460E+02  0.00000000000E+00 0.  1.
         11    1    3    3    0    0 -0.17543288787E+02  0.14827973066E+02 -0.29514113627E+01  0.23159157930E+02  0.51100000000E-03 0. -1.
        -11    1    3    3    0    0 -0.22192675018E+01  0.12924256803E+02  0.19993428485E+02  0.23910222605E+02  0.51100000000E-03 0.  1.
        -12    1    3    3    0    0  0.98773286774E+01 -0.12125744536E+02 -0.20004196025E+02  0.25392187006E+02  0.00000000000E+00 0.  1.
</event>
<event>
 7    1  0.1358622E-013  0.7246157E+02  0.7816164E-02  0.1226708E+00
        -11   -1    0    0    0    0  0.00000000000E+00  0.00000000000E+00  0.45593999997E+02  0.45594000000E+02  0.51100000000E-03 0.  1.
         11   -1    0    0    0    0 -0.00000000000E+00 -0.00000000000E+00 -0.45593999997E+02  0.45594000000E+02  0.51100000000E-03 0. -1.
    9900012    2    1    2    0    0  0.64802771685E+01 -0.85709897656E+01 -0.15336991065E+02  0.72461570744E+02  0.70000000586E+02 0.  0.
        -12    1    1    2    0    0 -0.64802771685E+01  0.85709897656E+01  0.15336991065E+02  0.18726429256E+02  0.00000000000E+00 0.  1.
         11    1    3    3    0    0 -0.17663270070E+02 -0.11380483397E+02 -0.25065453076E+02  0.32707544238E+02  0.51100000000E-03 0. -1.
        -11    1    3    3    0    0 -0.16955947088E+01 -0.86971647753E+01  0.70853524754E+01  0.11345392744E+02  0.51100000000E-03 0.  1.
        -12    1    3    3    0    0  0.25839141947E+02  0.11506658407E+02  0.26431095355E+01  0.28408633763E+02  0.00000000000E+00 0.  1.
</event>
<event>
 7    1  0.1358622E-013  0.7246153E+02  0.7816164E-02  0.1226708E+00
        -11   -1    0    0    0    0  0.00000000000E+00  0.00000000000E+00  0.45593999997E+02  0.45594000000E+02  0.51100000000E-03 0. -1.
         11   -1    0    0    0    0 -0.00000000000E+00 -0.00000000000E+00 -0.45593999997E+02  0.45594000000E+02  0.51100000000E-03 0.  1.
    9900012    2    1    2    0    0 -0.17396294150E+02 -0.29928529796E+01 -0.62523827386E+01  0.72461534530E+02  0.69999953410E+02 0.  0.
        -12    1    1    2    0    0  0.17396294150E+02  0.29928529796E+01  0.62523827386E+01  0.18726465470E+02  0.00000000000E+00 0.  1.
         11    1    3    3    0    0  0.19523014199E+00  0.57136389459E+01  0.90040560500E+01  0.10665683777E+02  0.51100000000E-03 0. -1.
        -11    1    3    3    0    0  0.12418467806E+02  0.14135863853E+02 -0.15028106547E+02  0.24080800987E+02  0.51100000000E-03 0.  1.
         12    1    3    3    0    0 -0.30009992098E+02 -0.22842355779E+02 -0.22833224192E+00  0.37715049766E+02  0.00000000000E+00 0. -1.
</event>
<event>
 7    1  0.1358622E-013  0.7246156E+02  0.7816164E-02  0.1226708E+00
        -11   -1    0    0    0    0  0.00000000000E+00  0.00000000000E+00  0.45593999997E+02  0.45594000000E+02  0.51100000000E-03 0.  1.
         11   -1    0    0    0    0 -0.00000000000E+00 -0.00000000000E+00 -0.45593999997E+02  0.45594000000E+02  0.51100000000E-03 0. -1.
    9900012    2    1    2    0    0  0.14561783348E+02 -0.10376928634E+02  0.55635741948E+01  0.72461560403E+02  0.69999987115E+02 0.  0.
        -12    1    1    2    0    0 -0.14561783348E+02  0.10376928634E+02 -0.55635741948E+01  0.18726439597E+02  0.00000000000E+00 0.  1.
         11    1    3    3    0    0  0.10889764800E+02  0.59298510241E+01  0.83057389143E+01  0.14924322756E+02  0.51100000000E-03 0. -1.
        -11    1    3    3    0    0 -0.72623040442E+01 -0.26689125766E+02  0.17173646122E+02  0.32557404927E+02  0.51100000000E-03 0.  1.
         12    1    3    3    0    0  0.10934322592E+02  0.10382346108E+02 -0.19915810841E+02  0.24979832720E+02  0.00000000000E+00 0. -1.
</event>
<event>
 7    1  0.1358622E-013  0.7246155E+02  0.7816164E-02  0.1226708E+00
        -11   -1    0    0    0    0  0.00000000000E+00  0.00000000000E+00  0.45593999997E+02  0.45594000000E+02  0.51100000000E-03 0. -1.
         11   -1    0    0    0    0 -0.00000000000E+00 -0.00000000000E+00 -0.45593999997E+02  0.45594000000E+02  0.51100000000E-03 0.  1.
    9900012    2    1    2    0    0  0.12735724205E+02  0.10912507409E+02 -0.83305654435E+01  0.72461553205E+02  0.69999977737E+02 0.  0.
        -12    1    1    2    0    0 -0.12735724205E+02 -0.10912507409E+02  0.83305654435E+01  0.18726446795E+02  0.00000000000E+00 0.  1.
         11    1    3    3    0    0 -0.70050347944E+01 -0.17039882761E+02  0.31524387408E+01  0.18691334550E+02  0.51100000000E-03 0. -1.
        -11    1    3    3    0    0 -0.10718342648E+02  0.87376372586E+01 -0.11136285042E+02  0.17755168790E+02  0.51100000000E-03 0.  1.
        -12    1    3    3    0    0  0.30459101647E+02  0.19214752912E+02 -0.34671914268E+00  0.36015049865E+02  0.00000000000E+00 0.  1.
</event>
<event>
 7    1  0.1358622E-013  0.7246159E+02  0.7816164E-02  0.1226708E+00
        -11   -1    0    0    0    0  0.00000000000E+00  0.00000000000E+00  0.45593999997E+02  0.45594000000E+02  0.51100000000E-03 0. -1.
         11   -1    0    0    0    0 -0.00000000000E+00 -0.00000000000E+00 -0.45593999997E+02  0.45594000000E+02  0.51100000000E-03 0.  1.
    9900012    2    1    2    0    0 -0.16552782580E+02 -0.84970718386E+01  0.21174853475E+01  0.72461585896E+02  0.70000020325E+02 0.  0.
        -12    1    1    2    0    0  0.16552782580E+02  0.84970718386E+01 -0.21174853475E+01  0.18726414104E+02  0.00000000000E+00 0.  1.
         11    1    3    3    0    0 -0.37954029919E+01  0.23176468137E+01 -0.64720724091E+01  0.78526614694E+01  0.51100000000E-03 0. -1.
        -11    1    3    3    0    0 -0.22335753121E+02 -0.52794976013E+01 -0.22176218179E+02  0.31914630115E+02  0.51100000000E-03 0.  1.
         12    1    3    3    0    0  0.95783735324E+01 -0.55352210510E+01  0.30765775936E+02  0.32694294312E+02  0.00000000000E+00 0. -1.
</event>
<event>
 7    1  0.1358622E-013  0.7246175E+02  0.7816164E-02  0.1226708E+00
        -11   -1    0    0    0    0  0.00000000000E+00  0.00000000000E+00  0.45593999997E+02  0.45594000000E+02  0.51100000000E-03 0. -1.
         11   -1    0    0    0    0 -0.00000000000E+00 -0.00000000000E+00 -0.45593999997E+02  0.45594000000E+02  0.51100000000E-03 0.  1.
    9900012    2    1    2    0    0  0.17903619615E+02 -0.50707550003E+01 -0.21024075365E+01  0.72461754540E+02  0.70000240013E+02 0.  0.
        -12    1    1    2    0    0 -0.17903619615E+02  0.50707550003E+01  0.21024075365E+01  0.18726245460E+02  0.00000000000E+00 0.  1.
         11    1    3    3    0    0 -0.17815573465E+02  0.13478835470E+02 -0.44735665175E+01  0.22783469032E+02  0.51100000000E-03 0. -1.
        -11    1    3    3    0    0  0.27370665856E+01 -0.81380629526E-01  0.10637474607E+02  0.10984262496E+02  0.51100000000E-03 0.  1.
        -12    1    3    3    0    0  0.32982126494E+02 -0.18468209840E+02 -0.82663156263E+01  0.38694023011E+02  0.00000000000E+00 0.  1.
</event>
<event>
 7    1  0.1358622E-013  0.7246156E+02  0.7816164E-02  0.1226708E+00
        -11   -1    0    0    0    0  0.00000000000E+00  0.00000000000E+00  0.45593999997E+02  0.45594000000E+02  0.51100000000E-03 0.  1.
         11   -1    0    0    0    0 -0.00000000000E+00 -0.00000000000E+00 -0.45593999997E+02  0.45594000000E+02  0.51100000000E-03 0. -1.
    9900012    2    1    2    0    0  0.16009234395E+01 -0.18279737865E+02 -0.37373342207E+01  0.72461563090E+02  0.69999990615E+02 0.  0.
        -12    1    1    2    0    0 -0.16009234395E+01  0.18279737865E+02  0.37373342207E+01  0.18726436910E+02  0.00000000000E+00 0.  1.
         11    1    3    3    0    0  0.10545074101E+02 -0.22636847532E+01 -0.19166336867E+02  0.21992528859E+02  0.51100000000E-03 0. -1.
        -11    1    3    3    0    0 -0.69440705909E+01  0.15012769604E+02  0.85660790855E+01  0.18627428129E+02  0.51100000000E-03 0.  1.
        -12    1    3    3    0    0 -0.20000800701E+01 -0.31028822715E+02  0.68629235604E+01  0.31841606102E+02  0.00000000000E+00 0.  1.
</event>
<event>
 7    1  0.1358622E-013  0.7246151E+02  0.7816164E-02  0.1226708E+00
        -11   -1    0    0    0    0  0.00000000000E+00  0.00000000000E+00  0.45593999997E+02  0.45594000000E+02  0.51100000000E-03 0.  1.
         11   -1    0    0    0    0 -0.00000000000E+00 -0.00000000000E+00 -0.45593999997E+02  0.45594000000E+02  0.51100000000E-03 0. -1.
    9900012    2    1    2    0    0  0.12697354176E+02 -0.42887615907E+01 -0.13079180564E+02  0.72461514924E+02  0.69999927870E+02 0.  0.
        -12    1    1    2    0    0 -0.12697354176E+02  0.42887615907E+01  0.13079180564E+02  0.18726485076E+02  0.00000000000E+00 0.  1.
         11    1    3    3    0    0 -0.18942741235E+02 -0.26813062130E+01 -0.11549520163E+02  0.22347444256E+02  0.51100000000E-03 0. -1.
        -11    1    3    3    0    0  0.17515070971E+02  0.16647674451E+02 -0.91021366121E+01  0.25821922215E+02  0.51100000000E-03 0.  1.
         12    1    3    3    0    0  0.14125024441E+02 -0.18255129829E+02  0.75724762113E+01  0.24292148453E+02  0.00000000000E+00 0. -1.
</event>
<event>
 7    1  0.1358622E-013  0.7246155E+02  0.7816164E-02  0.1226708E+00
        -11   -1    0    0    0    0  0.00000000000E+00  0.00000000000E+00  0.45593999997E+02  0.45594000000E+02  0.51100000000E-03 0. -1.
         11   -1    0    0    0    0 -0.00000000000E+00 -0.00000000000E+00 -0.45593999997E+02  0.45594000000E+02  0.51100000000E-03 0.  1.
    9900012    2    1    2    0    0 -0.45239473315E+01  0.17883934801E+02  0.32216077083E+01  0.72461548664E+02  0.69999971822E+02 0.  0.
        -12    1    1    2    0    0  0.45239473315E+01 -0.17883934801E+02 -0.32216077083E+01  0.18726451336E+02  0.00000000000E+00 0.  1.
         11    1    3    3    0    0 -0.55545596850E+01  0.28864141273E+01  0.52509713967E+01  0.81705092056E+01  0.51100000000E-03 0. -1.
        -11    1    3    3    0    0 -0.26943319097E+02  0.79790144893E+01  0.13893004055E+02  0.31346812886E+02  0.51100000000E-03 0.  1.
        -12    1    3    3    0    0  0.27973931450E+02  0.70185061846E+01 -0.15922367744E+02  0.32944226572E+02  0.00000000000E+00 0.  1.
</event>
<event>
 7    1  0.1358622E-013  0.7246146E+02  0.7816164E-02  0.1226708E+00
        -11   -1    0    0    0    0  0.00000000000E+00  0.00000000000E+00  0.45593999997E+02  0.45594000000E+02  0.51100000000E-03 0.  1.
         11   -1    0    0    0    0 -0.00000000000E+00 -0.00000000000E+00 -0.45593999997E+02  0.45594000000E+02  0.51100000000E-03 0. -1.
    9900012    2    1    2    0    0  0.13560889370E+01 -0.15950838858E+02 -0.97167407323E+01  0.72461460332E+02  0.69999856753E+02 0.  0.
        -12    1    1    2    0    0 -0.13560889370E+01  0.15950838858E+02  0.97167407323E+01  0.18726539668E+02  0.00000000000E+00 0.  1.
         11    1    3    3    0    0 -0.13728957382E+02 -0.21988224773E+01 -0.27851341882E+01  0.14180129188E+02  0.51100000000E-03 0. -1.
        -11    1    3    3    0    0  0.10302350055E+02  0.19488757854E+02  0.50670873265E+01  0.22619139541E+02  0.51100000000E-03 0.  1.
         12    1    3    3    0    0  0.47826962643E+01 -0.33240774235E+02 -0.11998693871E+02  0.35662191602E+02  0.00000000000E+00 0. -1.
</event>
<event>
 7    1  0.1358622E-013  0.7246156E+02  0.7816164E-02  0.1226708E+00
        -11   -1    0    0    0    0  0.00000000000E+00  0.00000000000E+00  0.45593999997E+02  0.45594000000E+02  0.51100000000E-03 0.  1.
         11   -1    0    0    0    0 -0.00000000000E+00 -0.00000000000E+00 -0.45593999997E+02  0.45594000000E+02  0.51100000000E-03 0. -1.
    9900012    2    1    2    0    0 -0.15519243377E+02  0.17445750196E+01 -0.10333883853E+02  0.72461558467E+02  0.69999984593E+02 0.  0.
        -12    1    1    2    0    0  0.15519243377E+02 -0.17445750196E+01  0.10333883853E+02  0.18726441533E+02  0.00000000000E+00 0.  1.
         11    1    3    3    0    0 -0.33872866078E+01 -0.40821556600E+01 -0.56194859369E+01  0.77276340397E+01  0.51100000000E-03 0. -1.
        -11    1    3    3    0    0 -0.20447502671E+02 -0.20962161459E+02  0.12481826781E+02  0.31832508204E+02  0.51100000000E-03 0.  1.
         12    1    3    3    0    0  0.83155459021E+01  0.26788892139E+02 -0.17196224697E+02  0.32901416223E+02  0.00000000000E+00 0. -1.
</event>
<event>
 7    1  0.1358622E-013  0.7246158E+02  0.7816164E-02  0.1226708E+00
        -11   -1    0    0    0    0  0.00000000000E+00  0.00000000000E+00  0.45593999997E+02  0.45594000000E+02  0.51100000000E-03 0.  1.
         11   -1    0    0    0    0 -0.00000000000E+00 -0.00000000000E+00 -0.45593999997E+02  0.45594000000E+02  0.51100000000E-03 0. -1.
    9900012    2    1    2    0    0 -0.18278261612E+02 -0.11105848938E+01 -0.39179805496E+01  0.72461579681E+02  0.70000012228E+02 0.  0.
        -12    1    1    2    0    0  0.18278261612E+02  0.11105848938E+01  0.39179805496E+01  0.18726420319E+02  0.00000000000E+00 0.  1.
         11    1    3    3    0    0 -0.98244395465E+01 -0.12018359122E+02 -0.20088163963E+01  0.15652345255E+02  0.51100000000E-03 0. -1.
        -11    1    3    3    0    0 -0.29021862717E+02  0.12537252809E+02  0.97842087557E+01  0.33093533580E+02  0.51100000000E-03 0.  1.
         12    1    3    3    0    0  0.20568040651E+02 -0.16294785807E+01 -0.11693372909E+02  0.23715700847E+02  0.00000000000E+00 0. -1.
</event>
<event>
 7    1  0.1358622E-013  0.7246156E+02  0.7816164E-02  0.1226708E+00
        -11   -1    0    0    0    0  0.00000000000E+00  0.00000000000E+00  0.45593999997E+02  0.45594000000E+02  0.51100000000E-03 0.  1.
         11   -1    0    0    0    0 -0.00000000000E+00 -0.00000000000E+00 -0.45593999997E+02  0.45594000000E+02  0.51100000000E-03 0. -1.
    9900012    2    1    2    0    0 -0.16070927693E+02  0.33241218356E+01 -0.90197067550E+01  0.72461558458E+02  0.69999984580E+02 0.  0.
        -12    1    1    2    0    0  0.16070927693E+02 -0.33241218356E+01  0.90197067550E+01  0.18726441542E+02  0.00000000000E+00 0.  1.
         11    1    3    3    0    0  0.59794052204E+01  0.15629729890E+02 -0.29672559866E+02  0.34066149658E+02  0.51100000000E-03 0. -1.
        -11    1    3    3    0    0 -0.33500696465E+01 -0.47638417434E+01 -0.36066421946E+01  0.68501841562E+01  0.51100000000E-03 0.  1.
        -12    1    3    3    0    0 -0.18700263267E+02 -0.75417663107E+01  0.24259495306E+02  0.31545224644E+02  0.00000000000E+00 0.  1.
</event>
<event>
 7    1  0.1358622E-013  0.7246159E+02  0.7816164E-02  0.1226708E+00
        -11   -1    0    0    0    0  0.00000000000E+00  0.00000000000E+00  0.45593999997E+02  0.45594000000E+02  0.51100000000E-03 0. -1.
         11   -1    0    0    0    0 -0.00000000000E+00 -0.00000000000E+00 -0.45593999997E+02  0.45594000000E+02  0.51100000000E-03 0.  1.
    9900012    2    1    2    0    0 -0.75033324314E+01  0.16656766801E+02 -0.41146828876E+01  0.72461588355E+02  0.70000023527E+02 0.  0.
        -12    1    1    2    0    0  0.75033324314E+01 -0.16656766801E+02  0.41146828876E+01  0.18726411645E+02  0.00000000000E+00 0.  1.
         11    1    3    3    0    0 -0.21123237215E+02  0.21621195653E+02  0.17435849785E+02  0.34895216146E+02  0.51100000000E-03 0. -1.
        -11    1    3    3    0    0 -0.35400960714E+01  0.67533259342E+01  0.67827359171E-02  0.76249418119E+01  0.51100000000E-03 0.  1.
        -12    1    3    3    0    0  0.17160000854E+02 -0.11717754787E+02 -0.21557315409E+02  0.29941430397E+02  0.00000000000E+00 0.  1.
</event>
<event>
 7    1  0.1358622E-013  0.7246162E+02  0.7816164E-02  0.1226708E+00
        -11   -1    0    0    0    0  0.00000000000E+00  0.00000000000E+00  0.45593999997E+02  0.45594000000E+02  0.51100000000E-03 0.  1.
         11   -1    0    0    0    0 -0.00000000000E+00 -0.00000000000E+00 -0.45593999997E+02  0.45594000000E+02  0.51100000000E-03 0. -1.
    9900012    2    1    2    0    0 -0.90495946279E+01 -0.16393771083E+02 -0.16285794954E+00  0.72461617115E+02  0.70000060992E+02 0.  0.
        -12    1    1    2    0    0  0.90495946279E+01  0.16393771083E+02  0.16285794954E+00  0.18726382885E+02  0.00000000000E+00 0.  1.
         11    1    3    3    0    0 -0.17919957903E+02  0.10745746490E+02 -0.25014581265E+01  0.21044078785E+02  0.51100000000E-03 0. -1.
        -11    1    3    3    0    0 -0.10295081194E+02 -0.11919782537E+02  0.16769467077E+02  0.23006193488E+02  0.51100000000E-03 0.  1.
        -12    1    3    3    0    0  0.19165444469E+02 -0.15219735035E+02 -0.14430866900E+02  0.28411344842E+02  0.00000000000E+00 0.  1.
</event>
<event>
 7    1  0.1358622E-013  0.7246155E+02  0.7816164E-02  0.1226708E+00
        -11   -1    0    0    0    0  0.00000000000E+00  0.00000000000E+00  0.45593999997E+02  0.45594000000E+02  0.51100000000E-03 0.  1.
         11   -1    0    0    0    0 -0.00000000000E+00 -0.00000000000E+00 -0.45593999997E+02  0.45594000000E+02  0.51100000000E-03 0. -1.
    9900012    2    1    2    0    0 -0.80914083389E-01 -0.13898466259E+02 -0.12550134646E+02  0.72461553699E+02  0.69999978381E+02 0.  0.
        -12    1    1    2    0    0  0.80914083389E-01  0.13898466259E+02  0.12550134646E+02  0.18726446301E+02  0.00000000000E+00 0.  1.
         11    1    3    3    0    0  0.19654442239E+02 -0.41289968255E+00 -0.63289540352E+01  0.20652439210E+02  0.51100000000E-03 0. -1.
        -11    1    3    3    0    0 -0.38391620537E+00 -0.25674923473E+02 -0.11813324943E+02  0.28264885166E+02  0.51100000000E-03 0.  1.
         12    1    3    3    0    0 -0.19351440117E+02  0.12189356897E+02  0.55921443320E+01  0.23544229323E+02  0.00000000000E+00 0. -1.
</event>
<event>
 7    1  0.1358622E-013  0.7246158E+02  0.7816164E-02  0.1226708E+00
        -11   -1    0    0    0    0  0.00000000000E+00  0.00000000000E+00  0.45593999997E+02  0.45594000000E+02  0.51100000000E-03 0.  1.
         11   -1    0    0    0    0 -0.00000000000E+00 -0.00000000000E+00 -0.45593999997E+02  0.45594000000E+02  0.51100000000E-03 0. -1.
    9900012    2    1    2    0    0  0.33734124470E+01  0.11018316776E+02 -0.14761281263E+02  0.72461584415E+02  0.70000018395E+02 0.  0.
        -12    1    1    2    0    0 -0.33734124470E+01 -0.11018316776E+02  0.14761281263E+02  0.18726415585E+02  0.00000000000E+00 0.  1.
         11    1    3    3    0    0  0.13250590252E+02 -0.15874145541E+01  0.52759463993E+01  0.14350388067E+02  0.51100000000E-03 0. -1.
        -11    1    3    3    0    0 -0.44460442678E+01  0.22234002774E+00  0.17581349107E+02  0.18136167771E+02  0.51100000000E-03 0.  1.
         12    1    3    3    0    0 -0.54311335372E+01  0.12383391302E+02 -0.37618576770E+02  0.39975028578E+02  0.00000000000E+00 0. -1.
</event>
<event>
 7    1  0.1358622E-013  0.7246165E+02  0.7816164E-02  0.1226708E+00
        -11   -1    0    0    0    0  0.00000000000E+00  0.00000000000E+00  0.45593999997E+02  0.45594000000E+02  0.51100000000E-03 0. -1.
         11   -1    0    0    0    0 -0.00000000000E+00 -0.00000000000E+00 -0.45593999997E+02  0.45594000000E+02  0.51100000000E-03 0.  1.
    9900012    2    1    2    0    0 -0.16977184330E+02 -0.44252004872E+01 -0.65474388095E+01  0.72461651128E+02  0.70000105300E+02 0.  0.
        -12    1    1    2    0    0  0.16977184330E+02  0.44252004872E+01  0.65474388095E+01  0.18726348872E+02  0.00000000000E+00 0.  1.
         11    1    3    3    0    0 -0.28033911946E+02  0.16549199122E+01 -0.41485338890E+01  0.28387485141E+02  0.51100000000E-03 0. -1.
        -11    1    3    3    0    0 -0.11074748961E+02 -0.15896187647E+02  0.19659719435E+01  0.19473158249E+02  0.51100000000E-03 0.  1.
        -12    1    3    3    0    0  0.22131476577E+02  0.98160672473E+01 -0.43648768640E+01  0.24601007738E+02  0.00000000000E+00 0.  1.
</event>
<event>
 7    1  0.1358622E-013  0.7246144E+02  0.7816164E-02  0.1226708E+00
        -11   -1    0    0    0    0  0.00000000000E+00  0.00000000000E+00  0.45593999997E+02  0.45594000000E+02  0.51100000000E-03 0. -1.
         11   -1    0    0    0    0 -0.00000000000E+00 -0.00000000000E+00 -0.45593999997E+02  0.45594000000E+02  0.51100000000E-03 0.  1.
    9900012    2    1    2    0    0 -0.90868394903E+01  0.58254130030E+01  0.15302872490E+02  0.72461441453E+02  0.69999832160E+02 0.  0.
        -12    1    1    2    0    0  0.90868394903E+01 -0.58254130030E+01 -0.15302872490E+02  0.18726558547E+02  0.00000000000E+00 0.  1.
         11    1    3    3    0    0 -0.67509831572E+01 -0.21840074777E+02  0.25004396783E+01  0.22996017888E+02  0.51100000000E-03 0. -1.
        -11    1    3    3    0    0  0.13423020633E+02  0.28378457780E+01 -0.55522541844E+01  0.14800620877E+02  0.51100000000E-03 0.  1.
        -12    1    3    3    0    0 -0.15758876966E+02  0.24827642002E+02  0.18354686996E+02  0.34664802687E+02  0.00000000000E+00 0.  1.
</event>
<event>
 7    1  0.1358622E-013  0.7246159E+02  0.7816164E-02  0.1226708E+00
        -11   -1    0    0    0    0  0.00000000000E+00  0.00000000000E+00  0.45593999997E+02  0.45594000000E+02  0.51100000000E-03 0.  1.
         11   -1    0    0    0    0 -0.00000000000E+00 -0.00000000000E+00 -0.45593999997E+02  0.45594000000E+02  0.51100000000E-03 0. -1.
    9900012    2    1    2    0    0 -0.46555242204E+01  0.13667303969E+02 -0.11925156828E+02  0.72461589001E+02  0.70000024368E+02 0.  0.
        -12    1    1    2    0    0  0.46555242204E+01 -0.13667303969E+02  0.11925156828E+02  0.18726410999E+02  0.00000000000E+00 0.  1.
         11    1    3    3    0    0  0.96414562962E+01  0.29000763774E+01 -0.26045429985E+02  0.27923691480E+02  0.51100000000E-03 0. -1.
        -11    1    3    3    0    0 -0.25208921674E+02 -0.52268085405E+00  0.32094281041E+01  0.25417776383E+02  0.51100000000E-03 0.  1.
         12    1    3    3    0    0  0.10911941157E+02  0.11289908446E+02  0.10910845053E+02  0.19120121137E+02  0.00000000000E+00 0. -1.
</event>
<event>
 7    1  0.1358622E-013  0.7246128E+02  0.7816164E-02  0.1226709E+00
        -11   -1    0    0    0    0  0.00000000000E+00  0.00000000000E+00  0.45593999997E+02  0.45594000000E+02  0.51100000000E-03 0. -1.
         11   -1    0    0    0    0 -0.00000000000E+00 -0.00000000000E+00 -0.45593999997E+02  0.45594000000E+02  0.51100000000E-03 0.  1.
    9900012    2    1    2    0    0 -0.16842769328E+02 -0.52073342356E+01  0.63162456849E+01  0.72461276634E+02  0.69999617452E+02 0.  0.
        -12    1    1    2    0    0  0.16842769328E+02  0.52073342356E+01 -0.63162456849E+01  0.18726723366E+02  0.00000000000E+00 0.  1.
         11    1    3    3    0    0 -0.96281827305E+01  0.15783771220E+02  0.23476017744E+02  0.29882314937E+02  0.51100000000E-03 0. -1.
        -11    1    3    3    0    0 -0.14030740908E+01  0.58688071135E+01 -0.13586481605E+02  0.14866203164E+02  0.51100000000E-03 0.  1.
        -12    1    3    3    0    0 -0.58115125069E+01 -0.26859912569E+02 -0.35732904539E+01  0.27712758533E+02  0.00000000000E+00 0.  1.
</event>
<event>
 7    1  0.1358622E-013  0.7246153E+02  0.7816164E-02  0.1226708E+00
        -11   -1    0    0    0    0  0.00000000000E+00  0.00000000000E+00  0.45593999997E+02  0.45594000000E+02  0.51100000000E-03 0.  1.
         11   -1    0    0    0    0 -0.00000000000E+00 -0.00000000000E+00 -0.45593999997E+02  0.45594000000E+02  0.51100000000E-03 0. -1.
    9900012    2    1    2    0    0 -0.36815326421E+01  0.15088734632E+02 -0.10462173834E+02  0.72461530052E+02  0.69999947577E+02 0.  0.
        -12    1    1    2    0    0  0.36815326421E+01 -0.15088734632E+02  0.10462173834E+02  0.18726469948E+02  0.00000000000E+00 0.  1.
         11    1    3    3    0    0 -0.13669979192E+02 -0.97327067987E+01 -0.13876069811E+02  0.21774738262E+02  0.51100000000E-03 0. -1.
        -11    1    3    3    0    0 -0.14789278389E+02  0.20674490400E+02  0.25855665996E+01  0.25550782052E+02  0.51100000000E-03 0.  1.
         12    1    3    3    0    0  0.24777724938E+02  0.41469510308E+01  0.82832937750E+00  0.25136009738E+02  0.00000000000E+00 0. -1.
</event>
<event>
 7    1  0.1358622E-013  0.7246157E+02  0.7816164E-02  0.1226708E+00
        -11   -1    0    0    0    0  0.00000000000E+00  0.00000000000E+00  0.45593999997E+02  0.45594000000E+02  0.51100000000E-03 0.  1.
         11   -1    0    0    0    0 -0.00000000000E+00 -0.00000000000E+00 -0.45593999997E+02  0.45594000000E+02  0.51100000000E-03 0. -1.
    9900012    2    1    2    0    0 -0.71172556720E+01 -0.50158203683E+00 -0.17313937327E+02  0.72461565780E+02  0.69999994119E+02 0.  0.
        -12    1    1    2    0    0  0.71172556720E+01  0.50158203683E+00  0.17313937327E+02  0.18726434220E+02  0.00000000000E+00 0.  1.
         11    1    3    3    0    0 -0.20511431893E+02 -0.69458046606E+01  0.17624075507E+02  0.27920800104E+02  0.51100000000E-03 0. -1.
        -11    1    3    3    0    0 -0.26765501845E+01  0.27382144171E+01  0.18295227946E+01  0.42436886080E+01  0.51100000000E-03 0.  1.
        -12    1    3    3    0    0  0.16070726406E+02  0.37060082066E+01 -0.36767535629E+02  0.40297077068E+02  0.00000000000E+00 0.  1.
</event>
<event>
 7    1  0.1358622E-013  0.7246157E+02  0.7816164E-02  0.1226708E+00
        -11   -1    0    0    0    0  0.00000000000E+00  0.00000000000E+00  0.45593999997E+02  0.45594000000E+02  0.51100000000E-03 0.  1.
         11   -1    0    0    0    0 -0.00000000000E+00 -0.00000000000E+00 -0.45593999997E+02  0.45594000000E+02  0.51100000000E-03 0. -1.
    9900012    2    1    2    0    0 -0.89461673949E+01 -0.10443125042E+02 -0.12711658747E+02  0.72461573758E+02  0.70000004512E+02 0.  0.
        -12    1    1    2    0    0  0.89461673949E+01  0.10443125042E+02  0.12711658747E+02  0.18726426242E+02  0.00000000000E+00 0.  1.
         11    1    3    3    0    0  0.11382809279E+02 -0.63638550200E+01  0.38640019748E+01  0.13601378949E+02  0.51100000000E-03 0. -1.
        -11    1    3    3    0    0 -0.61994986773E+01 -0.13454968730E+02  0.16203265680E+02  0.21954857921E+02  0.51100000000E-03 0.  1.
         12    1    3    3    0    0 -0.14129477996E+02  0.93756987080E+01 -0.32778926402E+02  0.36905336887E+02  0.00000000000E+00 0. -1.
</event>
<event>
 7    1  0.1358622E-013  0.7246158E+02  0.7816164E-02  0.1226708E+00
        -11   -1    0    0    0    0  0.00000000000E+00  0.00000000000E+00  0.45593999997E+02  0.45594000000E+02  0.51100000000E-03 0.  1.
         11   -1    0    0    0    0 -0.00000000000E+00 -0.00000000000E+00 -0.45593999997E+02  0.45594000000E+02  0.51100000000E-03 0. -1.
    9900012    2    1    2    0    0  0.14526439137E+02 -0.88894083572E+01 -0.77871544630E+01  0.72461580439E+02  0.70000013215E+02 0.  0.
        -12    1    1    2    0    0 -0.14526439137E+02  0.88894083572E+01  0.77871544630E+01  0.18726419561E+02  0.00000000000E+00 0.  1.
         11    1    3    3    0    0 -0.47287718855E+01 -0.12897148214E+02 -0.18691080393E+02  0.23195995390E+02  0.51100000000E-03 0. -1.
        -11    1    3    3    0    0  0.22440740523E+02 -0.16127426089E+02  0.55145287729E+01  0.28179615600E+02  0.51100000000E-03 0.  1.
        -12    1    3    3    0    0 -0.31855295003E+01  0.20135165946E+02  0.53893971574E+01  0.21085969449E+02  0.00000000000E+00 0.  1.
</event>
<event>
 7    1  0.1358622E-013  0.7246156E+02  0.7816164E-02  0.1226708E+00
        -11   -1    0    0    0    0  0.00000000000E+00  0.00000000000E+00  0.45593999997E+02  0.45594000000E+02  0.51100000000E-03 0.  1.
         11   -1    0    0    0    0 -0.00000000000E+00 -0.00000000000E+00 -0.45593999997E+02  0.45594000000E+02  0.51100000000E-03 0. -1.
    9900012    2    1    2    0    0  0.11086377730E+02  0.76899778299E+01 -0.12985999599E+02  0.72461555709E+02  0.69999981000E+02 0.  0.
        -12    1    1    2    0    0 -0.11086377730E+02 -0.76899778299E+01  0.12985999599E+02  0.18726444291E+02  0.00000000000E+00 0.  1.
         11    1    3    3    0    0  0.26255892714E+02 -0.86523859174E+01  0.64561769656E+01  0.28388693270E+02  0.51100000000E-03 0. -1.
        -11    1    3    3    0    0  0.13894405358E+01 -0.79577497665E+01  0.11700577044E+01  0.81624360115E+01  0.51100000000E-03 0.  1.
         12    1    3    3    0    0 -0.16558955520E+02  0.24300113514E+02 -0.20612234269E+02  0.35910426428E+02  0.00000000000E+00 0. -1.
</event>
<event>
 7    1  0.1358622E-013  0.7246166E+02  0.7816164E-02  0.1226708E+00
        -11   -1    0    0    0    0  0.00000000000E+00  0.00000000000E+00  0.45593999997E+02  0.45594000000E+02  0.51100000000E-03 0. -1.
         11   -1    0    0    0    0 -0.00000000000E+00 -0.00000000000E+00 -0.45593999997E+02  0.45594000000E+02  0.51100000000E-03 0.  1.
    9900012    2    1    2    0    0 -0.79476993832E+01  0.16255738769E+02  0.48229343287E+01  0.72461663894E+02  0.70000121931E+02 0.  0.
        -12    1    1    2    0    0  0.79476993832E+01 -0.16255738769E+02 -0.48229343287E+01  0.18726336106E+02  0.00000000000E+00 0.  1.
         11    1    3    3    0    0 -0.74062426978E+01  0.93133249424E+00 -0.15630503689E+02  0.17321445002E+02  0.51100000000E-03 0. -1.
        -11    1    3    3    0    0 -0.13111683942E+02 -0.14007141372E+02  0.59531939865E+01  0.20088722810E+02  0.51100000000E-03 0.  1.
         12    1    3    3    0    0  0.12570227257E+02  0.29331547647E+02  0.14500244032E+02  0.35051496082E+02  0.00000000000E+00 0. -1.
</event>
<event>
 7    1  0.1358622E-013  0.7246155E+02  0.7816164E-02  0.1226708E+00
        -11   -1    0    0    0    0  0.00000000000E+00  0.00000000000E+00  0.45593999997E+02  0.45594000000E+02  0.51100000000E-03 0. -1.
         11   -1    0    0    0    0 -0.00000000000E+00 -0.00000000000E+00 -0.45593999997E+02  0.45594000000E+02  0.51100000000E-03 0.  1.
    9900012    2    1    2    0    0  0.28364815926E+01 -0.17978839767E+02  0.44040509817E+01  0.72461548862E+02  0.69999972080E+02 0.  0.
        -12    1    1    2    0    0 -0.28364815926E+01  0.17978839767E+02 -0.44040509817E+01  0.18726451138E+02  0.00000000000E+00 0.  1.
         11    1    3    3    0    0  0.49686498582E+01 -0.13414490069E+02  0.47242608306E+01  0.15065014633E+02  0.51100000000E-03 0. -1.
        -11    1    3    3    0    0  0.25893912945E+02 -0.36497663419E+00  0.92291571956E+01  0.27491912963E+02  0.51100000000E-03 0.  1.
         12    1    3    3    0    0 -0.28026081210E+02 -0.41993730636E+01 -0.95493670446E+01  0.29904621267E+02  0.00000000000E+00 0. -1.
</event>
<event>
 7    1  0.1358622E-013  0.7246152E+02  0.7816164E-02  0.1226708E+00
        -11   -1    0    0    0    0  0.00000000000E+00  0.00000000000E+00  0.45593999997E+02  0.45594000000E+02  0.51100000000E-03 0.  1.
         11   -1    0    0    0    0 -0.00000000000E+00 -0.00000000000E+00 -0.45593999997E+02  0.45594000000E+02  0.51100000000E-03 0. -1.
    9900012    2    1    2    0    0  0.62023116954E+01  0.12841386425E+02 -0.12137174689E+02  0.72461524488E+02  0.69999940329E+02 0.  0.
        -12    1    1    2    0    0 -0.62023116954E+01 -0.12841386425E+02  0.12137174689E+02  0.18726475512E+02  0.00000000000E+00 0.  1.
         11    1    3    3    0    0  0.76617706429E+01  0.36084507017E+02 -0.14243218068E+02  0.39543186989E+02  0.51100000000E-03 0. -1.
        -11    1    3    3    0    0  0.70468969094E+01 -0.11771487947E+02 -0.75683880694E+01  0.15668668826E+02  0.51100000000E-03 0.  1.
        -12    1    3    3    0    0 -0.85063558568E+01 -0.11471632645E+02  0.96744314486E+01  0.17249668674E+02  0.00000000000E+00 0.  1.
</event>
<event>
 7    1  0.1358622E-013  0.7246156E+02  0.7816164E-02  0.1226708E+00
        -11   -1    0    0    0    0  0.00000000000E+00  0.00000000000E+00  0.45593999997E+02  0.45594000000E+02  0.51100000000E-03 0.  1.
         11   -1    0    0    0    0 -0.00000000000E+00 -0.00000000000E+00 -0.45593999997E+02  0.45594000000E+02  0.51100000000E-03 0. -1.
    9900012    2    1    2    0    0 -0.18550128941E+02 -0.74876934956E+00  0.24518480080E+01  0.72461561526E+02  0.69999988578E+02 0.  0.
        -12    1    1    2    0    0  0.18550128941E+02  0.74876934956E+00 -0.24518480080E+01  0.18726438474E+02  0.00000000000E+00 0.  1.
         11    1    3    3    0    0  0.23930575504E+01  0.89870152922E+01  0.59815426659E+00  0.93193860897E+01  0.51100000000E-03 0. -1.
        -11    1    3    3    0    0 -0.84444192266E+01  0.24218532296E+02 -0.54734699788E+01  0.26226025176E+02  0.51100000000E-03 0.  1.
        -12    1    3    3    0    0 -0.12498767265E+02 -0.33954316938E+02  0.73271637202E+01  0.36916150260E+02  0.00000000000E+00 0.  1.
</event>
<event>
 7    1  0.1358622E-013  0.7246157E+02  0.7816164E-02  0.1226708E+00
        -11   -1    0    0    0    0  0.00000000000E+00  0.00000000000E+00  0.45593999997E+02  0.45594000000E+02  0.51100000000E-03 0. -1.
         11   -1    0    0    0    0 -0.00000000000E+00 -0.00000000000E+00 -0.45593999997E+02  0.45594000000E+02  0.51100000000E-03 0.  1.
    9900012    2    1    2    0    0 -0.34649452280E+01  0.77676326261E+01  0.16683440427E+02  0.72461570909E+02  0.70000000800E+02 0.  0.
        -12    1    1    2    0    0  0.34649452280E+01 -0.77676326261E+01 -0.16683440427E+02  0.18726429091E+02  0.00000000000E+00 0.  1.
         11    1    3    3    0    0 -0.20604177882E+02  0.64967422944E+01 -0.80005465322E+01  0.23037980634E+02  0.51100000000E-03 0. -1.
        -11    1    3    3    0    0 -0.64258791005E+01 -0.12538536920E+01 -0.71769412495E+01  0.97145538887E+01  0.51100000000E-03 0.  1.
        -12    1    3    3    0    0  0.23565111754E+02  0.25247440236E+01  0.31860928208E+02  0.39709036386E+02  0.00000000000E+00 0.  1.
</event>
<event>
 7    1  0.1358622E-013  0.7246152E+02  0.7816164E-02  0.1226708E+00
        -11   -1    0    0    0    0  0.00000000000E+00  0.00000000000E+00  0.45593999997E+02  0.45594000000E+02  0.51100000000E-03 0.  1.
         11   -1    0    0    0    0 -0.00000000000E+00 -0.00000000000E+00 -0.45593999997E+02  0.45594000000E+02  0.51100000000E-03 0. -1.
    9900012    2    1    2    0    0  0.12228213924E+02  0.14173288191E+02 -0.51921102637E+00  0.72461524251E+02  0.69999940019E+02 0.  0.
        -12    1    1    2    0    0 -0.12228213924E+02 -0.14173288191E+02  0.51921102637E+00  0.18726475749E+02  0.00000000000E+00 0.  1.
         11    1    3    3    0    0  0.24255538821E+02 -0.13447515131E+02  0.45656843715E+01  0.28107157465E+02  0.51100000000E-03 0. -1.
        -11    1    3    3    0    0  0.10393510704E+02  0.69903004704E+01 -0.59651656805E+01  0.13873448284E+02  0.51100000000E-03 0.  1.
        -12    1    3    3    0    0 -0.22420835602E+02  0.20630502851E+02  0.88027028262E+00  0.30480918502E+02  0.00000000000E+00 0.  1.
</event>
<event>
 7    1  0.1358622E-013  0.7246159E+02  0.7816164E-02  0.1226708E+00
        -11   -1    0    0    0    0  0.00000000000E+00  0.00000000000E+00  0.45593999997E+02  0.45594000000E+02  0.51100000000E-03 0.  1.
         11   -1    0    0    0    0 -0.00000000000E+00 -0.00000000000E+00 -0.45593999997E+02  0.45594000000E+02  0.51100000000E-03 0. -1.
    9900012    2    1    2    0    0  0.31734569433E+01  0.17649824502E+02  0.53936470365E+01  0.72461586508E+02  0.70000021121E+02 0.  0.
        -12    1    1    2    0    0 -0.31734569433E+01 -0.17649824502E+02 -0.53936470365E+01  0.18726413492E+02  0.00000000000E+00 0.  1.
         11    1    3    3    0    0  0.22223577793E+02  0.23418097912E+02  0.57966647503E+01  0.32800854291E+02  0.51100000000E-03 0. -1.
        -11    1    3    3    0    0 -0.77613586619E+01 -0.19979512419E+02 -0.14358301844E+01  0.21482113801E+02  0.51100000000E-03 0.  1.
        -12    1    3    3    0    0 -0.11288762188E+02  0.14211239009E+02  0.10328124706E+01  0.18178618416E+02  0.00000000000E+00 0.  1.
</event>
<event>
 7    1  0.1358622E-013  0.7246156E+02  0.7816164E-02  0.1226708E+00
        -11   -1    0    0    0    0  0.00000000000E+00  0.00000000000E+00  0.45593999997E+02  0.45594000000E+02  0.51100000000E-03 0.  1.
         11   -1    0    0    0    0 -0.00000000000E+00 -0.00000000000E+00 -0.45593999997E+02  0.45594000000E+02  0.51100000000E-03 0. -1.
    9900012    2    1    2    0    0 -0.17608407383E+02  0.42203495495E+01 -0.47761978909E+01  0.72461563415E+02  0.69999991038E+02 0.  0.
        -12    1    1    2    0    0  0.17608407383E+02 -0.42203495495E+01  0.47761978909E+01  0.18726436585E+02  0.00000000000E+00 0.  1.
         11    1    3    3    0    0 -0.88737567106E+00 -0.56220824921E+01  0.16020395656E+02  0.17001421245E+02  0.51100000000E-03 0.  1.
        -11    1    3    3    0    0 -0.24316837140E+02 -0.12386397550E+02 -0.15482504220E+02  0.31375776483E+02  0.51100000000E-03 0. -1.
        -12    1    3    3    0    0  0.75958054273E+01  0.22228829592E+02 -0.53140893271E+01  0.24084365686E+02  0.00000000000E+00 0.  1.
</event>
<event>
 7    1  0.1358622E-013  0.7246160E+02  0.7816164E-02  0.1226708E+00
        -11   -1    0    0    0    0  0.00000000000E+00  0.00000000000E+00  0.45593999997E+02  0.45594000000E+02  0.51100000000E-03 0.  1.
         11   -1    0    0    0    0 -0.00000000000E+00 -0.00000000000E+00 -0.45593999997E+02  0.45594000000E+02  0.51100000000E-03 0. -1.
    9900012    2    1    2    0    0 -0.14530682798E+02  0.10632349857E+02 -0.51468720467E+01  0.72461604246E+02  0.70000044228E+02 0.  0.
        -12    1    1    2    0    0  0.14530682798E+02 -0.10632349857E+02  0.51468720467E+01  0.18726395754E+02  0.00000000000E+00 0.  1.
         11    1    3    3    0    0  0.12765686169E+02  0.34660556369E+01 -0.80186126761E+01  0.15468498135E+02  0.51100000000E-03 0. -1.
        -11    1    3    3    0    0  0.29748335517E+01 -0.15770756142E+02 -0.73649133922E+01  0.17658095409E+02  0.51100000000E-03 0.  1.
        -12    1    3    3    0    0 -0.30271202519E+02  0.22937050362E+02  0.10236654022E+02  0.39335010701E+02  0.00000000000E+00 0.  1.
</event>
<event>
 7    1  0.1358622E-013  0.7246157E+02  0.7816164E-02  0.1226708E+00
        -11   -1    0    0    0    0  0.00000000000E+00  0.00000000000E+00  0.45593999997E+02  0.45594000000E+02  0.51100000000E-03 0.  1.
         11   -1    0    0    0    0 -0.00000000000E+00 -0.00000000000E+00 -0.45593999997E+02  0.45594000000E+02  0.51100000000E-03 0. -1.
    9900012    2    1    2    0    0 -0.85232062459E+01 -0.16107314173E+02 -0.43114560089E+01  0.72461567678E+02  0.69999996592E+02 0.  0.
        -12    1    1    2    0    0  0.85232062459E+01  0.16107314173E+02  0.43114560089E+01  0.18726432322E+02  0.00000000000E+00 0.  1.
         11    1    3    3    0    0 -0.83356270410E+01 -0.13764668248E+02 -0.12356778594E+02  0.20288882365E+02  0.51100000000E-03 0. -1.
        -11    1    3    3    0    0  0.52169465612E+01 -0.16224360034E+02  0.24584446906E+02  0.29913900111E+02  0.51100000000E-03 0.  1.
         12    1    3    3    0    0 -0.54045257661E+01  0.13881714109E+02 -0.16539124321E+02  0.22258785202E+02  0.00000000000E+00 0. -1.
</event>
<event>
 7    1  0.1358622E-013  0.7246157E+02  0.7816164E-02  0.1226708E+00
        -11   -1    0    0    0    0  0.00000000000E+00  0.00000000000E+00  0.45593999997E+02  0.45594000000E+02  0.51100000000E-03 0.  1.
         11   -1    0    0    0    0 -0.00000000000E+00 -0.00000000000E+00 -0.45593999997E+02  0.45594000000E+02  0.51100000000E-03 0. -1.
    9900012    2    1    2    0    0  0.18467679143E+02 -0.10327551184E+01  0.29252932875E+01  0.72461572234E+02  0.70000002527E+02 0.  0.
        -12    1    1    2    0    0 -0.18467679143E+02  0.10327551184E+01 -0.29252932875E+01  0.18726427766E+02  0.00000000000E+00 0.  1.
         11    1    3    3    0    0  0.97231982153E+01 -0.21074102547E+02  0.16041000907E+02  0.28212977370E+02  0.51100000000E-03 0. -1.
        -11    1    3    3    0    0  0.10334967523E+02  0.31185619441E+01  0.10561280124E+02  0.15102238921E+02  0.51100000000E-03 0.  1.
        -12    1    3    3    0    0 -0.15904865954E+01  0.16922785485E+02 -0.23676987744E+02  0.29146355943E+02  0.00000000000E+00 0.  1.
</event>
<event>
 7    1  0.1358622E-013  0.7246153E+02  0.7816164E-02  0.1226708E+00
        -11   -1    0    0    0    0  0.00000000000E+00  0.00000000000E+00  0.45593999997E+02  0.45594000000E+02  0.51100000000E-03 0. -1.
         11   -1    0    0    0    0 -0.00000000000E+00 -0.00000000000E+00 -0.45593999997E+02  0.45594000000E+02  0.51100000000E-03 0.  1.
    9900012    2    1    2    0    0 -0.25959585135E+01  0.80374553918E+01  0.16713500454E+02  0.72461527102E+02  0.69999943733E+02 0.  0.
        -12    1    1    2    0    0  0.25959585135E+01 -0.80374553918E+01 -0.16713500454E+02  0.18726472898E+02  0.00000000000E+00 0.  1.
         11    1    3    3    0    0  0.92721920653E+00 -0.33195370681E+01 -0.45960100568E+01  0.57447689690E+01  0.51100000000E-03 0. -1.
        -11    1    3    3    0    0 -0.24762207754E+02 -0.33031867344E+01 -0.93209198905E+01  0.26663786740E+02  0.51100000000E-03 0.  1.
         12    1    3    3    0    0  0.21239030034E+02  0.14660179194E+02  0.30630430402E+02  0.40052971393E+02  0.00000000000E+00 0. -1.
</event>
<event>
 7    1  0.1358622E-013  0.7246159E+02  0.7816164E-02  0.1226708E+00
        -11   -1    0    0    0    0  0.00000000000E+00  0.00000000000E+00  0.45593999997E+02  0.45594000000E+02  0.51100000000E-03 0. -1.
         11   -1    0    0    0    0 -0.00000000000E+00 -0.00000000000E+00 -0.45593999997E+02  0.45594000000E+02  0.51100000000E-03 0.  1.
    9900012    2    1    2    0    0 -0.62027816710E+01 -0.16227288995E+02  0.69913510813E+01  0.72461590880E+02  0.70000026817E+02 0.  0.
        -12    1    1    2    0    0  0.62027816710E+01  0.16227288995E+02 -0.69913510813E+01  0.18726409120E+02  0.00000000000E+00 0.  1.
         11    1    3    3    0    0  0.13146771336E+02  0.62217274892E+01 -0.16360695257E+02  0.21891090404E+02  0.51100000000E-03 0. -1.
        -11    1    3    3    0    0 -0.29607422202E+01  0.77699344774E+01 -0.10956009317E+01  0.83867882971E+01  0.51100000000E-03 0.  1.
        -12    1    3    3    0    0 -0.16388810787E+02 -0.30218950961E+02  0.24447647270E+02  0.42183712180E+02  0.00000000000E+00 0.  1.
</event>
<event>
 7    1  0.1358622E-013  0.7246152E+02  0.7816164E-02  0.1226708E+00
        -11   -1    0    0    0    0  0.00000000000E+00  0.00000000000E+00  0.45593999997E+02  0.45594000000E+02  0.51100000000E-03 0.  1.
         11   -1    0    0    0    0 -0.00000000000E+00 -0.00000000000E+00 -0.45593999997E+02  0.45594000000E+02  0.51100000000E-03 0. -1.
    9900012    2    1    2    0    0  0.11696642296E+02  0.78652626100E+01 -0.12329121726E+02  0.72461520367E+02  0.69999934960E+02 0.  0.
        -12    1    1    2    0    0 -0.11696642296E+02 -0.78652626100E+01  0.12329121726E+02  0.18726479633E+02  0.00000000000E+00 0.  1.
         11    1    3    3    0    0 -0.10326115256E+02 -0.68007819936E+01 -0.14694902256E+02  0.19204672468E+02  0.51100000000E-03 0. -1.
        -11    1    3    3    0    0  0.80134213520E+01  0.60030503565E+01 -0.21812698969E+02  0.24000945230E+02  0.51100000000E-03 0.  1.
        -12    1    3    3    0    0  0.14009336200E+02  0.86629942471E+01  0.24178479499E+02  0.29255902669E+02  0.00000000000E+00 0.  1.
</event>
<event>
 7    1  0.1358622E-013  0.7246155E+02  0.7816164E-02  0.1226708E+00
        -11   -1    0    0    0    0  0.00000000000E+00  0.00000000000E+00  0.45593999997E+02  0.45594000000E+02  0.51100000000E-03 0.  1.
         11   -1    0    0    0    0 -0.00000000000E+00 -0.00000000000E+00 -0.45593999997E+02  0.45594000000E+02  0.51100000000E-03 0. -1.
    9900012    2    1    2    0    0  0.18603613995E+02  0.14525981236E+01  0.15733115604E+01  0.72461553347E+02  0.69999977923E+02 0.  0.
        -12    1    1    2    0    0 -0.18603613995E+02 -0.14525981236E+01 -0.15733115604E+01  0.18726446653E+02  0.00000000000E+00 0.  1.
         11    1    3    3    0    0  0.23374306116E+02  0.14426948159E+02 -0.79083931261E+01  0.28583871356E+02  0.51100000000E-03 0. -1.
        -11    1    3    3    0    0  0.16857773651E+02 -0.80508357709E+01 -0.21952912628E+01  0.18810098167E+02  0.51100000000E-03 0.  1.
        -12    1    3    3    0    0 -0.21628465772E+02 -0.49235142641E+01  0.11676995949E+02  0.25067583824E+02  0.00000000000E+00 0.  1.
</event>
<event>
 7    1  0.1358622E-013  0.7246154E+02  0.7816164E-02  0.1226708E+00
        -11   -1    0    0    0    0  0.00000000000E+00  0.00000000000E+00  0.45593999997E+02  0.45594000000E+02  0.51100000000E-03 0.  1.
         11   -1    0    0    0    0 -0.00000000000E+00 -0.00000000000E+00 -0.45593999997E+02  0.45594000000E+02  0.51100000000E-03 0. -1.
    9900012    2    1    2    0    0 -0.17309346993E+02  0.49200851478E+01 -0.51826352101E+01  0.72461536401E+02  0.69999955848E+02 0.  0.
        -12    1    1    2    0    0  0.17309346993E+02 -0.49200851478E+01  0.51826352101E+01  0.18726463599E+02  0.00000000000E+00 0.  1.
         11    1    3    3    0    0 -0.11158578033E+02 -0.60637222105E+01 -0.24874511804E+01  0.12941020222E+02  0.51100000000E-03 0. -1.
        -11    1    3    3    0    0  0.69404391573E+01  0.22574021385E+02  0.19946820060E+02  0.30913294357E+02  0.51100000000E-03 0.  1.
         12    1    3    3    0    0 -0.13091208117E+02 -0.11590214027E+02 -0.22642004090E+02  0.28607221822E+02  0.00000000000E+00 0. -1.
</event>
<event>
 7    1  0.1358622E-013  0.7246160E+02  0.7816164E-02  0.1226708E+00
        -11   -1    0    0    0    0  0.00000000000E+00  0.00000000000E+00  0.45593999997E+02  0.45594000000E+02  0.51100000000E-03 0.  1.
         11   -1    0    0    0    0 -0.00000000000E+00 -0.00000000000E+00 -0.45593999997E+02  0.45594000000E+02  0.51100000000E-03 0. -1.
    9900012    2    1    2    0    0 -0.15015612605E+02 -0.10333970897E+02 -0.42916869138E+01  0.72461597436E+02  0.70000035357E+02 0.  0.
        -12    1    1    2    0    0  0.15015612605E+02  0.10333970897E+02  0.42916869138E+01  0.18726402564E+02  0.00000000000E+00 0.  1.
         11    1    3    3    0    0 -0.18562237590E+02 -0.68392771802E+01 -0.20388177954E+02  0.28407924550E+02  0.51100000000E-03 0. -1.
        -11    1    3    3    0    0 -0.12353276044E+02 -0.23333017104E+00 -0.82039714868E+01  0.14831150340E+02  0.51100000000E-03 0.  1.
        -12    1    3    3    0    0  0.15899901029E+02 -0.32613635462E+01  0.24300462527E+02  0.29222522546E+02  0.00000000000E+00 0.  1.
</event>
<event>
 7    1  0.1358622E-013  0.7246152E+02  0.7816164E-02  0.1226708E+00
        -11   -1    0    0    0    0  0.00000000000E+00  0.00000000000E+00  0.45593999997E+02  0.45594000000E+02  0.51100000000E-03 0.  1.
         11   -1    0    0    0    0 -0.00000000000E+00 -0.00000000000E+00 -0.45593999997E+02  0.45594000000E+02  0.51100000000E-03 0. -1.
    9900012    2    1    2    0    0 -0.16238005803E+01  0.18614503385E+02 -0.12428777026E+01  0.72461515824E+02  0.69999929043E+02 0.  0.
        -12    1    1    2    0    0  0.16238005803E+01 -0.18614503385E+02  0.12428777026E+01  0.18726484176E+02  0.00000000000E+00 0.  1.
         11    1    3    3    0    0 -0.14357922169E+02  0.10761057988E+02  0.79668230214E+01  0.19632130993E+02  0.51100000000E-03 0. -1.
        -11    1    3    3    0    0 -0.81351827371E+01  0.23028227531E+02 -0.11362258592E+02  0.26936617864E+02  0.51100000000E-03 0.  1.
        -12    1    3    3    0    0  0.20869304326E+02 -0.15174782133E+02  0.21525578676E+01  0.25892766967E+02  0.00000000000E+00 0.  1.
</event>
<event>
 7    1  0.1358622E-013  0.7246154E+02  0.7816164E-02  0.1226708E+00
        -11   -1    0    0    0    0  0.00000000000E+00  0.00000000000E+00  0.45593999997E+02  0.45594000000E+02  0.51100000000E-03 0. -1.
         11   -1    0    0    0    0 -0.00000000000E+00 -0.00000000000E+00 -0.45593999997E+02  0.45594000000E+02  0.51100000000E-03 0.  1.
    9900012    2    1    2    0    0 -0.12239684182E+02 -0.28586948912E+01  0.13881586014E+02  0.72461536489E+02  0.69999955962E+02 0.  0.
        -12    1    1    2    0    0  0.12239684182E+02  0.28586948912E+01 -0.13881586014E+02  0.18726463511E+02  0.00000000000E+00 0.  1.
         11    1    3    3    0    0  0.15162519921E+02 -0.12438757281E+02 -0.25630012292E+01  0.19778616449E+02  0.51100000000E-03 0. -1.
        -11    1    3    3    0    0 -0.18526627663E+01 -0.35681088887E+01 -0.11754617652E+02  0.12423155669E+02  0.51100000000E-03 0.  1.
         12    1    3    3    0    0 -0.25549541337E+02  0.13148171279E+02  0.28199204895E+02  0.40259764371E+02  0.00000000000E+00 0. -1.
</event>
<event>
 7    1  0.1358622E-013  0.7246174E+02  0.7816164E-02  0.1226708E+00
        -11   -1    0    0    0    0  0.00000000000E+00  0.00000000000E+00  0.45593999997E+02  0.45594000000E+02  0.51100000000E-03 0.  1.
         11   -1    0    0    0    0 -0.00000000000E+00 -0.00000000000E+00 -0.45593999997E+02  0.45594000000E+02  0.51100000000E-03 0. -1.
    9900012    2    1    2    0    0  0.13763279457E+02 -0.65342535128E+01 -0.10888005077E+02  0.72461735425E+02  0.70000215113E+02 0.  0.
        -12    1    1    2    0    0 -0.13763279457E+02  0.65342535128E+01  0.10888005077E+02  0.18726264575E+02  0.00000000000E+00 0.  1.
         11    1    3    3    0    0  0.98765673864E+01  0.32521327146E+01 -0.76161484314E+00  0.10426073468E+02  0.51100000000E-03 0. -1.
        -11    1    3    3    0    0  0.10917028284E+02 -0.27098107849E+02  0.13275649583E+02  0.32089434829E+02  0.51100000000E-03 0.  1.
        -12    1    3    3    0    0 -0.70303162139E+01  0.17311721622E+02 -0.23402039817E+02  0.29946227127E+02  0.00000000000E+00 0.  1.
</event>
<event>
 7    1  0.1358622E-013  0.7246152E+02  0.7816164E-02  0.1226708E+00
        -11   -1    0    0    0    0  0.00000000000E+00  0.00000000000E+00  0.45593999997E+02  0.45594000000E+02  0.51100000000E-03 0. -1.
         11   -1    0    0    0    0 -0.00000000000E+00 -0.00000000000E+00 -0.45593999997E+02  0.45594000000E+02  0.51100000000E-03 0.  1.
    9900012    2    1    2    0    0  0.63434009992E+01  0.17594418859E+02  0.93746959521E+00  0.72461517136E+02  0.69999930752E+02 0.  0.
        -12    1    1    2    0    0 -0.63434009992E+01 -0.17594418859E+02 -0.93746959521E+00  0.18726482864E+02  0.00000000000E+00 0.  1.
         11    1    3    3    0    0  0.81715434802E+01 -0.22149380279E+02 -0.19192274974E+01  0.23686549010E+02  0.51100000000E-03 0. -1.
        -11    1    3    3    0    0  0.97489142085E+01  0.16145069551E+02  0.10255347577E+02  0.21468040275E+02  0.51100000000E-03 0.  1.
        -12    1    3    3    0    0 -0.11577056690E+02  0.23598729586E+02 -0.73986504844E+01  0.27306927851E+02  0.00000000000E+00 0.  1.
</event>
<event>
 7    1  0.1358622E-013  0.7246160E+02  0.7816164E-02  0.1226708E+00
        -11   -1    0    0    0    0  0.00000000000E+00  0.00000000000E+00  0.45593999997E+02  0.45594000000E+02  0.51100000000E-03 0.  1.
         11   -1    0    0    0    0 -0.00000000000E+00 -0.00000000000E+00 -0.45593999997E+02  0.45594000000E+02  0.51100000000E-03 0. -1.
    9900012    2    1    2    0    0 -0.12268997787E+02  0.33473512838E+01 -0.13745729732E+02  0.72461597431E+02  0.70000035351E+02 0.  0.
        -12    1    1    2    0    0  0.12268997787E+02 -0.33473512838E+01  0.13745729732E+02  0.18726402569E+02  0.00000000000E+00 0.  1.
         11    1    3    3    0    0 -0.20002961652E+02 -0.12135975875E+02 -0.32917078632E+02  0.40384829468E+02  0.51100000000E-03 0. -1.
        -11    1    3    3    0    0  0.51739955203E-01 -0.30050611282E+01 -0.14484466936E+01  0.33363254477E+01  0.51100000000E-03 0.  1.
        -12    1    3    3    0    0  0.76822239102E+01  0.18488388287E+02  0.20619795593E+02  0.28740442515E+02  0.00000000000E+00 0.  1.
</event>
<event>
 7    1  0.1358622E-013  0.7246156E+02  0.7816164E-02  0.1226708E+00
        -11   -1    0    0    0    0  0.00000000000E+00  0.00000000000E+00  0.45593999997E+02  0.45594000000E+02  0.51100000000E-03 0.  1.
         11   -1    0    0    0    0 -0.00000000000E+00 -0.00000000000E+00 -0.45593999997E+02  0.45594000000E+02  0.51100000000E-03 0. -1.
    9900012    2    1    2    0    0 -0.70558318960E+01  0.30441852571E+01 -0.17077110600E+02  0.72461560561E+02  0.69999987320E+02 0.  0.
        -12    1    1    2    0    0  0.70558318960E+01 -0.30441852571E+01  0.17077110600E+02  0.18726439439E+02  0.00000000000E+00 0.  1.
         11    1    3    3    0    0  0.34498000302E+01  0.63069632454E+01 -0.10496878377E+01  0.72650361627E+01  0.51100000000E-03 0. -1.
        -11    1    3    3    0    0  0.20670501288E+02  0.98711086281E+01  0.73711351465E+01  0.24063292431E+02  0.51100000000E-03 0.  1.
         12    1    3    3    0    0 -0.31176133214E+02 -0.13133886616E+02 -0.23398557909E+02  0.41133231967E+02  0.00000000000E+00 0. -1.
</event>
<event>
 7    1  0.1358622E-013  0.7246163E+02  0.7816164E-02  0.1226708E+00
        -11   -1    0    0    0    0  0.00000000000E+00  0.00000000000E+00  0.45593999997E+02  0.45594000000E+02  0.51100000000E-03 0.  1.
         11   -1    0    0    0    0 -0.00000000000E+00 -0.00000000000E+00 -0.45593999997E+02  0.45594000000E+02  0.51100000000E-03 0. -1.
    9900012    2    1    2    0    0  0.10940684730E+02 -0.64925688936E+01 -0.13741354334E+02  0.72461632169E+02  0.70000080603E+02 0.  0.
        -12    1    1    2    0    0 -0.10940684730E+02  0.64925688936E+01  0.13741354334E+02  0.18726367831E+02  0.00000000000E+00 0.  1.
         11    1    3    3    0    0 -0.25197325120E+01 -0.15446427216E+02 -0.93609947443E+01  0.18236485093E+02  0.51100000000E-03 0. -1.
        -11    1    3    3    0    0  0.19427737661E+02 -0.14560623228E+01  0.19459479977E+02  0.27535948673E+02  0.51100000000E-03 0.  1.
         12    1    3    3    0    0 -0.59673204183E+01  0.10409920645E+02 -0.23839839567E+02  0.26689198403E+02  0.00000000000E+00 0. -1.
</event>
<event>
 7    1  0.1358622E-013  0.7246159E+02  0.7816164E-02  0.1226708E+00
        -11   -1    0    0    0    0  0.00000000000E+00  0.00000000000E+00  0.45593999997E+02  0.45594000000E+02  0.51100000000E-03 0.  1.
         11   -1    0    0    0    0 -0.00000000000E+00 -0.00000000000E+00 -0.45593999997E+02  0.45594000000E+02  0.51100000000E-03 0. -1.
    9900012    2    1    2    0    0  0.66487626134E+01  0.15681026450E+02 -0.77831819612E+01  0.72461586669E+02  0.70000021330E+02 0.  0.
        -12    1    1    2    0    0 -0.66487626134E+01 -0.15681026450E+02  0.77831819612E+01  0.18726413331E+02  0.00000000000E+00 0.  1.
         11    1    3    3    0    0  0.17926424536E+02 -0.12022389192E+02 -0.18262572598E+01  0.21661711714E+02  0.51100000000E-03 0. -1.
        -11    1    3    3    0    0  0.58439274576E+01  0.21644049754E+01 -0.17018374497E+02  0.18123498774E+02  0.51100000000E-03 0.  1.
        -12    1    3    3    0    0 -0.17121589381E+02  0.25539010666E+02  0.11061449795E+02  0.32676376181E+02  0.00000000000E+00 0.  1.
</event>
<event>
 7    1  0.1358622E-013  0.7246164E+02  0.7816164E-02  0.1226708E+00
        -11   -1    0    0    0    0  0.00000000000E+00  0.00000000000E+00  0.45593999997E+02  0.45594000000E+02  0.51100000000E-03 0.  1.
         11   -1    0    0    0    0 -0.00000000000E+00 -0.00000000000E+00 -0.45593999997E+02  0.45594000000E+02  0.51100000000E-03 0. -1.
    9900012    2    1    2    0    0  0.34147118722E+00 -0.83297982661E+01 -0.16768256641E+02  0.72461639636E+02  0.70000090330E+02 0.  0.
        -12    1    1    2    0    0 -0.34147118722E+00  0.83297982661E+01  0.16768256641E+02  0.18726360364E+02  0.00000000000E+00 0.  1.
         11    1    3    3    0    0  0.13175028068E+02 -0.10142798429E+02 -0.47561121355E+01  0.17293881215E+02  0.51100000000E-03 0. -1.
        -11    1    3    3    0    0  0.13010485485E+02 -0.10477267615E+02  0.96358599089E+01  0.19284596591E+02  0.51100000000E-03 0.  1.
        -12    1    3    3    0    0 -0.25844042366E+02  0.12290267777E+02 -0.21648004414E+02  0.35883161830E+02  0.00000000000E+00 0.  1.
</event>
<event>
 7    1  0.1358622E-013  0.7246160E+02  0.7816164E-02  0.1226708E+00
        -11   -1    0    0    0    0  0.00000000000E+00  0.00000000000E+00  0.45593999997E+02  0.45594000000E+02  0.51100000000E-03 0. -1.
         11   -1    0    0    0    0 -0.00000000000E+00 -0.00000000000E+00 -0.45593999997E+02  0.45594000000E+02  0.51100000000E-03 0.  1.
    9900012    2    1    2    0    0 -0.16638510606E+02 -0.81089659276E+01  0.28429994497E+01  0.72461601268E+02  0.70000040348E+02 0.  0.
        -12    1    1    2    0    0  0.16638510606E+02  0.81089659276E+01 -0.28429994497E+01  0.18726398732E+02  0.00000000000E+00 0.  1.
         11    1    3    3    0    0  0.16829798996E+01 -0.17722116724E+02  0.14652329340E+02  0.23056378681E+02  0.51100000000E-03 0. -1.
        -11    1    3    3    0    0  0.77174918759E+01 -0.70225379234E+01 -0.15074803318E+02  0.18333723437E+02  0.51100000000E-03 0.  1.
        -12    1    3    3    0    0 -0.26038982382E+02  0.16635688720E+02  0.32654734282E+01  0.31071499149E+02  0.00000000000E+00 0.  1.
</event>
<event>
 7    1  0.1358622E-013  0.7246159E+02  0.7816164E-02  0.1226708E+00
        -11   -1    0    0    0    0  0.00000000000E+00  0.00000000000E+00  0.45593999997E+02  0.45594000000E+02  0.51100000000E-03 0.  1.
         11   -1    0    0    0    0 -0.00000000000E+00 -0.00000000000E+00 -0.45593999997E+02  0.45594000000E+02  0.51100000000E-03 0. -1.
    9900012    2    1    2    0    0  0.61921019059E+00  0.11560096574E+02 -0.14719352720E+02  0.72461585539E+02  0.70000019859E+02 0.  0.
        -12    1    1    2    0    0 -0.61921019059E+00 -0.11560096574E+02  0.14719352720E+02  0.18726414461E+02  0.00000000000E+00 0.  1.
         11    1    3    3    0    0  0.21500770561E+01  0.43282925040E+01  0.84117472033E+01  0.97012596409E+01  0.51100000000E-03 0. -1.
        -11    1    3    3    0    0 -0.43238302845E+00  0.19236540269E+02  0.13951757335E+02  0.23767266767E+02  0.51100000000E-03 0.  1.
         12    1    3    3    0    0 -0.10984838371E+01 -0.12004736199E+02 -0.37082857258E+02  0.38993059131E+02  0.00000000000E+00 0. -1.
</event>
<event>
 7    1  0.1358622E-013  0.7246153E+02  0.7816164E-02  0.1226708E+00
        -11   -1    0    0    0    0  0.00000000000E+00  0.00000000000E+00  0.45593999997E+02  0.45594000000E+02  0.51100000000E-03 0.  1.
         11   -1    0    0    0    0 -0.00000000000E+00 -0.00000000000E+00 -0.45593999997E+02  0.45594000000E+02  0.51100000000E-03 0. -1.
    9900012    2    1    2    0    0  0.16571089969E+02  0.78455312348E+01 -0.38114569028E+01  0.72461532452E+02  0.69999950703E+02 0.  0.
        -12    1    1    2    0    0 -0.16571089969E+02 -0.78455312348E+01  0.38114569028E+01  0.18726467548E+02  0.00000000000E+00 0.  1.
         11    1    3    3    0    0  0.24216791485E+02  0.47940832689E+01 -0.28266360557E+02  0.37528966993E+02  0.51100000000E-03 0. -1.
        -11    1    3    3    0    0  0.21281543526E+01  0.10912489668E+01 -0.40674125231E+01  0.47184436152E+01  0.51100000000E-03 0.  1.
        -12    1    3    3    0    0 -0.97738558685E+01  0.19601989992E+01  0.28522316177E+02  0.30214121843E+02  0.00000000000E+00 0.  1.
</event>
<event>
 7    1  0.1358622E-013  0.7246156E+02  0.7816164E-02  0.1226708E+00
        -11   -1    0    0    0    0  0.00000000000E+00  0.00000000000E+00  0.45593999997E+02  0.45594000000E+02  0.51100000000E-03 0.  1.
         11   -1    0    0    0    0 -0.00000000000E+00 -0.00000000000E+00 -0.45593999997E+02  0.45594000000E+02  0.51100000000E-03 0. -1.
    9900012    2    1    2    0    0 -0.30428723678E+01 -0.98610963593E+01 -0.15626232159E+02  0.72461563469E+02  0.69999991109E+02 0.  0.
        -12    1    1    2    0    0  0.30428723678E+01  0.98610963593E+01  0.15626232159E+02  0.18726436531E+02  0.00000000000E+00 0.  1.
         11    1    3    3    0    0 -0.11557785938E+02  0.19289141349E+00 -0.16707224422E+01  0.11679509263E+02  0.51100000000E-03 0. -1.
        -11    1    3    3    0    0 -0.17765836599E+02  0.11619812879E+02  0.49844593411E+01  0.21805729444E+02  0.51100000000E-03 0.  1.
        -12    1    3    3    0    0  0.26280750169E+02 -0.21673800651E+02 -0.18939969058E+02  0.38976324763E+02  0.00000000000E+00 0.  1.
</event>
<event>
 7    1  0.1358622E-013  0.7246157E+02  0.7816164E-02  0.1226708E+00
        -11   -1    0    0    0    0  0.00000000000E+00  0.00000000000E+00  0.45593999997E+02  0.45594000000E+02  0.51100000000E-03 0. -1.
         11   -1    0    0    0    0 -0.00000000000E+00 -0.00000000000E+00 -0.45593999997E+02  0.45594000000E+02  0.51100000000E-03 0.  1.
    9900012    2    1    2    0    0  0.54682207171E+01  0.12167925073E+02  0.13142273987E+02  0.72461569375E+02  0.69999998802E+02 0.  0.
        -12    1    1    2    0    0 -0.54682207171E+01 -0.12167925073E+02 -0.13142273987E+02  0.18726430625E+02  0.00000000000E+00 0.  1.
         11    1    3    3    0    0 -0.65830162370E+00  0.25140648866E+01 -0.84206394754E+01  0.88125508633E+01  0.51100000000E-03 0. -1.
        -11    1    3    3    0    0  0.11779881164E+02 -0.20626852071E+02 -0.34058559803E+01  0.23996509785E+02  0.51100000000E-03 0.  1.
         12    1    3    3    0    0 -0.56533588234E+01  0.30280712258E+02  0.24968769443E+02  0.39652508727E+02  0.00000000000E+00 0. -1.
</event>
<event>
 7    1  0.1358622E-013  0.7246159E+02  0.7816164E-02  0.1226708E+00
        -11   -1    0    0    0    0  0.00000000000E+00  0.00000000000E+00  0.45593999997E+02  0.45594000000E+02  0.51100000000E-03 0. -1.
         11   -1    0    0    0    0 -0.00000000000E+00 -0.00000000000E+00 -0.45593999997E+02  0.45594000000E+02  0.51100000000E-03 0.  1.
    9900012    2    1    2    0    0 -0.10147452429E+02  0.11281806394E+02  0.10973998942E+02  0.72461585525E+02  0.70000019841E+02 0.  0.
        -12    1    1    2    0    0  0.10147452429E+02 -0.11281806394E+02 -0.10973998942E+02  0.18726414475E+02  0.00000000000E+00 0.  1.
         11    1    3    3    0    0  0.25980299723E+01 -0.23321373816E+02  0.10170048152E+02  0.25574716344E+02  0.51100000000E-03 0. -1.
        -11    1    3    3    0    0 -0.12628498076E+02  0.59071403132E+00 -0.18222728055E+01  0.12772963054E+02  0.51100000000E-03 0.  1.
        -12    1    3    3    0    0 -0.11698432552E+00  0.34012466179E+02  0.26262235952E+01  0.34113906127E+02  0.00000000000E+00 0.  1.
</event>
<event>
 7    1  0.1358622E-013  0.7246155E+02  0.7816164E-02  0.1226708E+00
        -11   -1    0    0    0    0  0.00000000000E+00  0.00000000000E+00  0.45593999997E+02  0.45594000000E+02  0.51100000000E-03 0. -1.
         11   -1    0    0    0    0 -0.00000000000E+00 -0.00000000000E+00 -0.45593999997E+02  0.45594000000E+02  0.51100000000E-03 0.  1.
    9900012    2    1    2    0    0 -0.91601953525E+01 -0.10070823066E+02  0.12858820208E+02  0.72461550436E+02  0.69999974131E+02 0.  0.
        -12    1    1    2    0    0  0.91601953525E+01  0.10070823066E+02 -0.12858820208E+02  0.18726449564E+02  0.00000000000E+00 0.  1.
         11    1    3    3    0    0  0.49134305831E+01  0.16675809553E+01  0.81963515965E+01  0.97006600854E+01  0.51100000000E-03 0. -1.
        -11    1    3    3    0    0  0.16691369443E+02  0.48864065865E+01  0.18281665511E+02  0.25232876913E+02  0.51100000000E-03 0.  1.
        -12    1    3    3    0    0 -0.30764995378E+02 -0.16624810608E+02 -0.13619196900E+02  0.37528013438E+02  0.00000000000E+00 0.  1.
</event>
<event>
 7    1  0.1358622E-013  0.7246155E+02  0.7816164E-02  0.1226708E+00
        -11   -1    0    0    0    0  0.00000000000E+00  0.00000000000E+00  0.45593999997E+02  0.45594000000E+02  0.51100000000E-03 0.  1.
         11   -1    0    0    0    0 -0.00000000000E+00 -0.00000000000E+00 -0.45593999997E+02  0.45594000000E+02  0.51100000000E-03 0. -1.
    9900012    2    1    2    0    0 -0.53372635723E+01 -0.14890398113E+02 -0.10023451670E+02  0.72461550209E+02  0.69999973835E+02 0.  0.
        -12    1    1    2    0    0  0.53372635723E+01  0.14890398113E+02  0.10023451670E+02  0.18726449791E+02  0.00000000000E+00 0.  1.
         11    1    3    3    0    0  0.96224856622E+00  0.11674281150E+01 -0.22796131683E+02  0.22846278268E+02  0.51100000000E-03 0. -1.
        -11    1    3    3    0    0 -0.13273717680E+02  0.83859045344E+01 -0.72146691541E+01  0.17279074836E+02  0.51100000000E-03 0.  1.
         12    1    3    3    0    0  0.69742055418E+01 -0.24443730762E+02  0.19987349167E+02  0.32336197106E+02  0.00000000000E+00 0. -1.
</event>
<event>
 7    1  0.1396075E-013  0.7246158E+02  0.7816164E-02  0.1226708E+00
        -11   -1    0    0    0    0  0.00000000000E+00  0.00000000000E+00  0.45593999997E+02  0.45594000000E+02  0.51100000000E-03 0. -1.
         11   -1    0    0    0    0 -0.00000000000E+00 -0.00000000000E+00 -0.45593999997E+02  0.45594000000E+02  0.51100000000E-03 0.  1.
    9900012    2    1    2    0    0  0.18064922732E+02 -0.47550019969E+01 -0.13142928157E+01  0.72461579015E+02  0.70000011361E+02 0.  0.
        -12    1    1    2    0    0 -0.18064922732E+02  0.47550019969E+01  0.13142928157E+01  0.18726420985E+02  0.00000000000E+00 0.  1.
         11    1    3    3    0    0  0.24714098836E+02 -0.28314191093E+01  0.38697913099E+01  0.25174965750E+02  0.51100000000E-03 0. -1.
        -11    1    3    3    0    0  0.14425507115E+02  0.12560318695E+02 -0.94939964099E+01  0.21353988605E+02  0.51100000000E-03 0.  1.
        -12    1    3    3    0    0 -0.21074683220E+02 -0.14483901583E+02  0.43099122843E+01  0.25932624660E+02  0.00000000000E+00 0.  1.
</event>
<event>
 7    1  0.1358622E-013  0.7246163E+02  0.7816164E-02  0.1226708E+00
        -11   -1    0    0    0    0  0.00000000000E+00  0.00000000000E+00  0.45593999997E+02  0.45594000000E+02  0.51100000000E-03 0. -1.
         11   -1    0    0    0    0 -0.00000000000E+00 -0.00000000000E+00 -0.45593999997E+02  0.45594000000E+02  0.51100000000E-03 0.  1.
    9900012    2    1    2    0    0  0.16463312645E+02  0.87914548206E+01  0.15318105720E+01  0.72461633969E+02  0.70000082948E+02 0.  0.
        -12    1    1    2    0    0 -0.16463312645E+02 -0.87914548206E+01 -0.15318105720E+01  0.18726366031E+02  0.00000000000E+00 0.  1.
         11    1    3    3    0    0  0.17652910998E+01 -0.49755566029E+01  0.12119703308E+02  0.13219668101E+02  0.51100000000E-03 0. -1.
        -11    1    3    3    0    0  0.38682324583E+01 -0.13192989007E+02 -0.23674386840E+02  0.27376902195E+02  0.51100000000E-03 0.  1.
         12    1    3    3    0    0  0.10829789087E+02  0.26960000430E+02  0.13086494105E+02  0.31865063672E+02  0.00000000000E+00 0. -1.
</event>
<event>
 7    1  0.1358622E-013  0.7246175E+02  0.7816164E-02  0.1226708E+00
        -11   -1    0    0    0    0  0.00000000000E+00  0.00000000000E+00  0.45593999997E+02  0.45594000000E+02  0.51100000000E-03 0.  1.
         11   -1    0    0    0    0 -0.00000000000E+00 -0.00000000000E+00 -0.45593999997E+02  0.45594000000E+02  0.51100000000E-03 0. -1.
    9900012    2    1    2    0    0 -0.17359508108E+02  0.68783139087E+01  0.14172952154E+01  0.72461749715E+02  0.70000233729E+02 0.  0.
        -12    1    1    2    0    0  0.17359508108E+02 -0.68783139087E+01 -0.14172952154E+01  0.18726250285E+02  0.00000000000E+00 0.  1.
         11    1    3    3    0    0 -0.87663381776E+01  0.21541286299E+02 -0.39128598623E+01  0.23583599662E+02  0.51100000000E-03 0. -1.
        -11    1    3    3    0    0  0.50692382201E+01 -0.49287908631E+01 -0.18460308415E+02  0.19767982763E+02  0.51100000000E-03 0.  1.
        -12    1    3    3    0    0 -0.13662408151E+02 -0.97341815269E+01  0.23790463493E+02  0.29110167290E+02  0.00000000000E+00 0.  1.
</event>
<event>
 7    1  0.1358622E-013  0.7246158E+02  0.7816164E-02  0.1226708E+00
        -11   -1    0    0    0    0  0.00000000000E+00  0.00000000000E+00  0.45593999997E+02  0.45594000000E+02  0.51100000000E-03 0. -1.
         11   -1    0    0    0    0 -0.00000000000E+00 -0.00000000000E+00 -0.45593999997E+02  0.45594000000E+02  0.51100000000E-03 0.  1.
    9900012    2    1    2    0    0  0.23186254593E+01 -0.48861840988E+01  0.17928414201E+02  0.72461578696E+02  0.70000010945E+02 0.  0.
        -12    1    1    2    0    0 -0.23186254593E+01  0.48861840988E+01 -0.17928414201E+02  0.18726421304E+02  0.00000000000E+00 0.  1.
         11    1    3    3    0    0 -0.20072382485E+01 -0.98998194411E+01 -0.16035943381E+02  0.18952227065E+02  0.51100000000E-03 0. -1.
        -11    1    3    3    0    0  0.98741084940E+01 -0.13549096899E+02  0.30721368356E+01  0.17044473308E+02  0.51100000000E-03 0.  1.
         12    1    3    3    0    0 -0.55482447862E+01  0.18562732241E+02  0.30892220747E+02  0.36464878323E+02  0.00000000000E+00 0. -1.
</event>
<event>
 7    1  0.1358622E-013  0.7246158E+02  0.7816164E-02  0.1226708E+00
        -11   -1    0    0    0    0  0.00000000000E+00  0.00000000000E+00  0.45593999997E+02  0.45594000000E+02  0.51100000000E-03 0.  1.
         11   -1    0    0    0    0 -0.00000000000E+00 -0.00000000000E+00 -0.45593999997E+02  0.45594000000E+02  0.51100000000E-03 0. -1.
    9900012    2    1    2    0    0  0.55180186130E+01  0.17880251686E+02  0.72582431077E+00  0.72461581477E+02  0.70000014568E+02 0.  0.
        -12    1    1    2    0    0 -0.55180186130E+01 -0.17880251686E+02 -0.72582431077E+00  0.18726418523E+02  0.00000000000E+00 0.  1.
         11    1    3    3    0    0  0.31959602280E+00  0.29698087669E+00 -0.17389840743E+02  0.17395312604E+02  0.51100000000E-03 0. -1.
        -11    1    3    3    0    0  0.20485582622E+02 -0.81297771905E+01  0.65287525294E+01  0.22986452149E+02  0.51100000000E-03 0.  1.
        -12    1    3    3    0    0 -0.15287160032E+02  0.25713047999E+02  0.11586912524E+02  0.32079816725E+02  0.00000000000E+00 0.  1.
</event>
<event>
 7    1  0.1358622E-013  0.7246156E+02  0.7816164E-02  0.1226708E+00
        -11   -1    0    0    0    0  0.00000000000E+00  0.00000000000E+00  0.45593999997E+02  0.45594000000E+02  0.51100000000E-03 0. -1.
         11   -1    0    0    0    0 -0.00000000000E+00 -0.00000000000E+00 -0.45593999997E+02  0.45594000000E+02  0.51100000000E-03 0.  1.
    9900012    2    1    2    0    0 -0.17099968723E+01 -0.59249187847E+01  0.17681935819E+02  0.72461558634E+02  0.69999984810E+02 0.  0.
        -12    1    1    2    0    0  0.17099968723E+01  0.59249187847E+01 -0.17681935819E+02  0.18726441366E+02  0.00000000000E+00 0.  1.
         11    1    3    3    0    0  0.95493075099E+01 -0.14197062102E+02  0.19651375008E+02  0.26056139127E+02  0.51100000000E-03 0. -1.
        -11    1    3    3    0    0 -0.19813288918E+02 -0.12661282426E+02  0.13370973126E+01  0.23551270028E+02  0.51100000000E-03 0.  1.
         12    1    3    3    0    0  0.85539845360E+01  0.20933425743E+02 -0.33065365014E+01  0.22854149479E+02  0.00000000000E+00 0. -1.
</event>
<event>
 7    1  0.1358622E-013  0.7246157E+02  0.7816164E-02  0.1226708E+00
        -11   -1    0    0    0    0  0.00000000000E+00  0.00000000000E+00  0.45593999997E+02  0.45594000000E+02  0.51100000000E-03 0. -1.
         11   -1    0    0    0    0 -0.00000000000E+00 -0.00000000000E+00 -0.45593999997E+02  0.45594000000E+02  0.51100000000E-03 0.  1.
    9900012    2    1    2    0    0 -0.39313481344E+01 -0.91315252310E+01  0.15869434529E+02  0.72461569388E+02  0.69999998820E+02 0.  0.
        -12    1    1    2    0    0  0.39313481344E+01  0.91315252310E+01 -0.15869434529E+02  0.18726430612E+02  0.00000000000E+00 0.  1.
         11    1    3    3    0    0 -0.85578025735E+01 -0.51337671216E+01  0.43999720310E+01  0.10906479903E+02  0.51100000000E-03 0. -1.
        -11    1    3    3    0    0 -0.66019170717E+01  0.25547714288E+02 -0.34358683045E+01  0.26609701344E+02  0.51100000000E-03 0.  1.
         12    1    3    3    0    0  0.11228371511E+02 -0.29545472397E+02  0.14905330802E+02  0.34945388141E+02  0.00000000000E+00 0. -1.
</event>
<event>
 7    1  0.1358622E-013  0.7246154E+02  0.7816164E-02  0.1226708E+00
        -11   -1    0    0    0    0  0.00000000000E+00  0.00000000000E+00  0.45593999997E+02  0.45594000000E+02  0.51100000000E-03 0.  1.
         11   -1    0    0    0    0 -0.00000000000E+00 -0.00000000000E+00 -0.45593999997E+02  0.45594000000E+02  0.51100000000E-03 0. -1.
    9900012    2    1    2    0    0  0.55390976738E+00 -0.12249437259E+02 -0.14153618609E+02  0.72461536134E+02  0.69999955499E+02 0.  0.
        -12    1    1    2    0    0 -0.55390976738E+00  0.12249437259E+02  0.14153618609E+02  0.18726463866E+02  0.00000000000E+00 0.  1.
         11    1    3    3    0    0 -0.21737839682E+01 -0.24477687479E+02  0.63779995698E+01  0.25388213798E+02  0.51100000000E-03 0. -1.
        -11    1    3    3    0    0  0.20733967093E+02  0.36346730468E+00 -0.88264187945E+01  0.22537417085E+02  0.51100000000E-03 0.  1.
        -12    1    3    3    0    0 -0.18006273357E+02  0.11864782915E+02 -0.11705199385E+02  0.24535905251E+02  0.00000000000E+00 0.  1.
</event>
<event>
 7    1  0.1358622E-013  0.7246171E+02  0.7816164E-02  0.1226708E+00
        -11   -1    0    0    0    0  0.00000000000E+00  0.00000000000E+00  0.45593999997E+02  0.45594000000E+02  0.51100000000E-03 0. -1.
         11   -1    0    0    0    0 -0.00000000000E+00 -0.00000000000E+00 -0.45593999997E+02  0.45594000000E+02  0.51100000000E-03 0.  1.
    9900012    2    1    2    0    0  0.23085290518E+01  0.15289913378E+02  0.10562354895E+02  0.72461705694E+02  0.70000176383E+02 0.  0.
        -12    1    1    2    0    0 -0.23085290518E+01 -0.15289913378E+02 -0.10562354895E+02  0.18726294306E+02  0.00000000000E+00 0.  1.
         11    1    3    3    0    0  0.14314416545E+02  0.87997033669E+01  0.13921478700E+02  0.21820744025E+02  0.51100000000E-03 0. -1.
        -11    1    3    3    0    0 -0.10982521251E+02  0.50616403197E+01 -0.25609625595E+02  0.28321174042E+02  0.51100000000E-03 0.  1.
         12    1    3    3    0    0 -0.10233662416E+01  0.14285696918E+01  0.22250501790E+02  0.22319787627E+02  0.00000000000E+00 0. -1.
</event>
<event>
 7    1  0.1358622E-013  0.7246157E+02  0.7816164E-02  0.1226708E+00
        -11   -1    0    0    0    0  0.00000000000E+00  0.00000000000E+00  0.45593999997E+02  0.45594000000E+02  0.51100000000E-03 0. -1.
         11   -1    0    0    0    0 -0.00000000000E+00 -0.00000000000E+00 -0.45593999997E+02  0.45594000000E+02  0.51100000000E-03 0.  1.
    9900012    2    1    2    0    0  0.52707348404E+01 -0.10764874993E+02  0.14388055625E+02  0.72461566169E+02  0.69999994626E+02 0.  0.
        -12    1    1    2    0    0 -0.52707348404E+01  0.10764874993E+02 -0.14388055625E+02  0.18726433831E+02  0.00000000000E+00 0.  1.
         11    1    3    3    0    0 -0.42035515363E+01  0.62668049710E+01  0.15371831327E+02  0.17124131764E+02  0.51100000000E-03 0. -1.
        -11    1    3    3    0    0 -0.10966155754E+02 -0.19788020134E+02  0.16739634375E+02  0.28143163861E+02  0.51100000000E-03 0.  1.
         12    1    3    3    0    0  0.20440442131E+02  0.27563401698E+01 -0.17723410078E+02  0.27194270544E+02  0.00000000000E+00 0. -1.
</event>
<event>
 7    1  0.1358622E-013  0.7246153E+02  0.7816164E-02  0.1226708E+00
        -11   -1    0    0    0    0  0.00000000000E+00  0.00000000000E+00  0.45593999997E+02  0.45594000000E+02  0.51100000000E-03 0. -1.
         11   -1    0    0    0    0 -0.00000000000E+00 -0.00000000000E+00 -0.45593999997E+02  0.45594000000E+02  0.51100000000E-03 0.  1.
    9900012    2    1    2    0    0 -0.86399654294E+01 -0.15617068391E+02  0.56691096204E+01  0.72461531256E+02  0.69999949145E+02 0.  0.
        -12    1    1    2    0    0  0.86399654294E+01  0.15617068391E+02 -0.56691096204E+01  0.18726468744E+02  0.00000000000E+00 0.  1.
         11    1    3    3    0    0 -0.15000606385E+02 -0.18003135785E+02  0.19276782499E+01  0.23512699413E+02  0.51100000000E-03 0. -1.
        -11    1    3    3    0    0 -0.10635074024E+02 -0.67864124452E+01 -0.16632589809E+02  0.20875900876E+02  0.51100000000E-03 0.  1.
         12    1    3    3    0    0  0.16995714979E+02  0.91724798393E+01  0.20374021179E+02  0.28072930967E+02  0.00000000000E+00 0. -1.
</event>
<event>
 7    1  0.1358622E-013  0.7246156E+02  0.7816164E-02  0.1226708E+00
        -11   -1    0    0    0    0  0.00000000000E+00  0.00000000000E+00  0.45593999997E+02  0.45594000000E+02  0.51100000000E-03 0.  1.
         11   -1    0    0    0    0 -0.00000000000E+00 -0.00000000000E+00 -0.45593999997E+02  0.45594000000E+02  0.51100000000E-03 0. -1.
    9900012    2    1    2    0    0 -0.14953906047E+02  0.11045122632E+02 -0.22506561541E+01  0.72461561654E+02  0.69999988744E+02 0.  0.
        -12    1    1    2    0    0  0.14953906047E+02 -0.11045122632E+02  0.22506561541E+01  0.18726438346E+02  0.00000000000E+00 0.  1.
         11    1    3    3    0    0 -0.11279085040E+02  0.12118739560E+02  0.14901804335E+02  0.22274321102E+02  0.51100000000E-03 0. -1.
        -11    1    3    3    0    0 -0.13801478524E+02 -0.13685761373E+02  0.73901608467E+01  0.20794118193E+02  0.51100000000E-03 0.  1.
         12    1    3    3    0    0  0.10126657518E+02  0.12612144445E+02 -0.24542621336E+02  0.29393122359E+02  0.00000000000E+00 0. -1.
</event>
<event>
 7    1  0.1358622E-013  0.7246154E+02  0.7816164E-02  0.1226708E+00
        -11   -1    0    0    0    0  0.00000000000E+00  0.00000000000E+00  0.45593999997E+02  0.45594000000E+02  0.51100000000E-03 0. -1.
         11   -1    0    0    0    0 -0.00000000000E+00 -0.00000000000E+00 -0.45593999997E+02  0.45594000000E+02  0.51100000000E-03 0.  1.
    9900012    2    1    2    0    0  0.99291686310E+01 -0.33320552692E+01  0.15523835830E+02  0.72461535814E+02  0.69999955083E+02 0.  0.
        -12    1    1    2    0    0 -0.99291686310E+01  0.33320552692E+01 -0.15523835830E+02  0.18726464186E+02  0.00000000000E+00 0.  1.
         11    1    3    3    0    0  0.83576462776E+01  0.16679001186E+02 -0.13249079286E+02  0.22881814483E+02  0.51100000000E-03 0.  1.
        -11    1    3    3    0    0 -0.82538457036E+01 -0.23894258957E+02  0.84146038351E+01  0.26643331961E+02  0.51100000000E-03 0. -1.
         12    1    3    3    0    0  0.98253680570E+01  0.38832025024E+01  0.20358311281E+02  0.22936389370E+02  0.00000000000E+00 0. -1.
</event>
<event>
 7    1  0.1358622E-013  0.7246156E+02  0.7816164E-02  0.1226708E+00
        -11   -1    0    0    0    0  0.00000000000E+00  0.00000000000E+00  0.45593999997E+02  0.45594000000E+02  0.51100000000E-03 0. -1.
         11   -1    0    0    0    0 -0.00000000000E+00 -0.00000000000E+00 -0.45593999997E+02  0.45594000000E+02  0.51100000000E-03 0.  1.
    9900012    2    1    2    0    0 -0.28506588547E+01  0.15218392188E+02 -0.10533454052E+02  0.72461564916E+02  0.69999992994E+02 0.  0.
        -12    1    1    2    0    0  0.28506588547E+01 -0.15218392188E+02  0.10533454052E+02  0.18726435084E+02  0.00000000000E+00 0.  1.
         11    1    3    3    0    0 -0.13426010558E+02  0.57963369373E+01  0.18074033315E+02  0.23249214222E+02  0.51100000000E-03 0. -1.
        -11    1    3    3    0    0 -0.92756228545E+00 -0.93412986842E+01  0.37256471650E+01  0.10099538601E+02  0.51100000000E-03 0.  1.
         12    1    3    3    0    0  0.11502913989E+02  0.18763353935E+02 -0.32333134532E+02  0.39112812093E+02  0.00000000000E+00 0. -1.
</event>
<event>
 7    1  0.1358622E-013  0.7246164E+02  0.7816164E-02  0.1226708E+00
        -11   -1    0    0    0    0  0.00000000000E+00  0.00000000000E+00  0.45593999997E+02  0.45594000000E+02  0.51100000000E-03 0.  1.
         11   -1    0    0    0    0 -0.00000000000E+00 -0.00000000000E+00 -0.45593999997E+02  0.45594000000E+02  0.51100000000E-03 0. -1.
    9900012    2    1    2    0    0  0.46429340613E+01  0.14583129726E+02 -0.10791302555E+02  0.72461635694E+02  0.70000085195E+02 0.  0.
        -12    1    1    2    0    0 -0.46429340613E+01 -0.14583129726E+02  0.10791302555E+02  0.18726364306E+02  0.00000000000E+00 0.  1.
         11    1    3    3    0    0  0.17109912823E+02 -0.14114120501E+02  0.11370301749E+02  0.24924712164E+02  0.51100000000E-03 0. -1.
        -11    1    3    3    0    0  0.56090775304E+00  0.11950318160E+02  0.50884841476E+01  0.13000668937E+02  0.51100000000E-03 0.  1.
         12    1    3    3    0    0 -0.13027886515E+02  0.16746932067E+02 -0.27250088451E+02  0.34536254593E+02  0.00000000000E+00 0. -1.
</event>
<event>
 7    1  0.1358622E-013  0.7246161E+02  0.7816164E-02  0.1226708E+00
        -11   -1    0    0    0    0  0.00000000000E+00  0.00000000000E+00  0.45593999997E+02  0.45594000000E+02  0.51100000000E-03 0.  1.
         11   -1    0    0    0    0 -0.00000000000E+00 -0.00000000000E+00 -0.45593999997E+02  0.45594000000E+02  0.51100000000E-03 0. -1.
    9900012    2    1    2    0    0 -0.37391270156E+00 -0.47618420001E+01 -0.18106976895E+02  0.72461613210E+02  0.70000055905E+02 0.  0.
        -12    1    1    2    0    0  0.37391270156E+00  0.47618420001E+01  0.18106976895E+02  0.18726386790E+02  0.00000000000E+00 0.  1.
         11    1    3    3    0    0 -0.21074111733E+01 -0.30889132718E+01  0.22494171561E+01  0.43637649864E+01  0.51100000000E-03 0. -1.
        -11    1    3    3    0    0  0.24500518080E+02 -0.23131047585E+02 -0.10932872069E+02  0.35423840002E+02  0.51100000000E-03 0.  1.
         12    1    3    3    0    0 -0.22767019608E+02  0.21458118856E+02 -0.94235219820E+01  0.32674008221E+02  0.00000000000E+00 0. -1.
</event>
<event>
 7    1  0.1358622E-013  0.7246152E+02  0.7816164E-02  0.1226708E+00
        -11   -1    0    0    0    0  0.00000000000E+00  0.00000000000E+00  0.45593999997E+02  0.45594000000E+02  0.51100000000E-03 0.  1.
         11   -1    0    0    0    0 -0.00000000000E+00 -0.00000000000E+00 -0.45593999997E+02  0.45594000000E+02  0.51100000000E-03 0. -1.
    9900012    2    1    2    0    0  0.23724637511E+01  0.40183793325E+00 -0.18571245475E+02  0.72461515640E+02  0.69999928803E+02 0.  0.
        -12    1    1    2    0    0 -0.23724637511E+01 -0.40183793325E+00  0.18571245475E+02  0.18726484360E+02  0.00000000000E+00 0.  1.
         11    1    3    3    0    0 -0.16437153481E+02  0.23309360746E+01 -0.36066255694E+02  0.39703753948E+02  0.51100000000E-03 0. -1.
        -11    1    3    3    0    0  0.10926832133E+02 -0.28611153577E+01 -0.22141927708E+01  0.11510182077E+02  0.51100000000E-03 0.  1.
        -12    1    3    3    0    0  0.78827850988E+01  0.93201721636E+00  0.19709202989E+02  0.21247579615E+02  0.00000000000E+00 0.  1.
</event>
<event>
 7    1  0.1358622E-013  0.7246142E+02  0.7816164E-02  0.1226708E+00
        -11   -1    0    0    0    0  0.00000000000E+00  0.00000000000E+00  0.45593999997E+02  0.45594000000E+02  0.51100000000E-03 0.  1.
         11   -1    0    0    0    0 -0.00000000000E+00 -0.00000000000E+00 -0.45593999997E+02  0.45594000000E+02  0.51100000000E-03 0. -1.
    9900012    2    1    2    0    0  0.15378857524E+02  0.50124264390E+01 -0.94366878266E+01  0.72461421170E+02  0.69999805737E+02 0.  0.
        -12    1    1    2    0    0 -0.15378857524E+02 -0.50124264390E+01  0.94366878266E+01  0.18726578830E+02  0.00000000000E+00 0.  1.
         11    1    3    3    0    0 -0.14177308441E+02 -0.34046880044E+01 -0.13604065204E+02  0.19941378221E+02  0.51100000000E-03 0.  1.
        -11    1    3    3    0    0 -0.50115778295E+01  0.15467652513E+02  0.56404859006E+01  0.17209859618E+02  0.51100000000E-03 0. -1.
         12    1    3    3    0    0  0.34567743794E+02 -0.70505380699E+01 -0.14731085230E+01  0.35310183330E+02  0.00000000000E+00 0. -1.
</event>
<event>
 7    1  0.1358622E-013  0.7246144E+02  0.7816164E-02  0.1226708E+00
        -11   -1    0    0    0    0  0.00000000000E+00  0.00000000000E+00  0.45593999997E+02  0.45594000000E+02  0.51100000000E-03 0. -1.
         11   -1    0    0    0    0 -0.00000000000E+00 -0.00000000000E+00 -0.45593999997E+02  0.45594000000E+02  0.51100000000E-03 0.  1.
    9900012    2    1    2    0    0 -0.52361641988E+01 -0.11715875654E+02  0.13638360117E+02  0.72461440664E+02  0.69999831133E+02 0.  0.
        -12    1    1    2    0    0  0.52361641988E+01  0.11715875654E+02 -0.13638360117E+02  0.18726559336E+02  0.00000000000E+00 0.  1.
         11    1    3    3    0    0 -0.55298013382E+01 -0.10249121180E+02  0.43111743183E+01  0.12418108233E+02  0.51100000000E-03 0. -1.
        -11    1    3    3    0    0 -0.15269787726E+02  0.17789859960E+02 -0.12909761438E+02  0.26763921148E+02  0.51100000000E-03 0.  1.
         12    1    3    3    0    0  0.15563424865E+02 -0.19256614434E+02  0.22236947237E+02  0.33279411284E+02  0.00000000000E+00 0. -1.
</event>
<event>
 7    1  0.1358622E-013  0.7246155E+02  0.7816164E-02  0.1226708E+00
        -11   -1    0    0    0    0  0.00000000000E+00  0.00000000000E+00  0.45593999997E+02  0.45594000000E+02  0.51100000000E-03 0. -1.
         11   -1    0    0    0    0 -0.00000000000E+00 -0.00000000000E+00 -0.45593999997E+02  0.45594000000E+02  0.51100000000E-03 0.  1.
    9900012    2    1    2    0    0  0.12435581563E+02 -0.13963133715E+02  0.10330224997E+01  0.72461550058E+02  0.69999973638E+02 0.  0.
        -12    1    1    2    0    0 -0.12435581563E+02  0.13963133715E+02 -0.10330224997E+01  0.18726449942E+02  0.00000000000E+00 0.  1.
         11    1    3    3    0    0 -0.71363935083E+00 -0.31265867988E+02  0.12943522739E+02  0.33846692059E+02  0.51100000000E-03 0. -1.
        -11    1    3    3    0    0  0.12054834889E+02 -0.42046305451E+00  0.59322418428E+01  0.13441998621E+02  0.51100000000E-03 0.  1.
        -12    1    3    3    0    0  0.10943860251E+01  0.17723197327E+02 -0.17842742082E+02  0.25172859378E+02  0.00000000000E+00 0.  1.
</event>
<event>
 7    1  0.1358622E-013  0.7246171E+02  0.7816164E-02  0.1226708E+00
        -11   -1    0    0    0    0  0.00000000000E+00  0.00000000000E+00  0.45593999997E+02  0.45594000000E+02  0.51100000000E-03 0. -1.
         11   -1    0    0    0    0 -0.00000000000E+00 -0.00000000000E+00 -0.45593999997E+02  0.45594000000E+02  0.51100000000E-03 0.  1.
    9900012    2    1    2    0    0 -0.26727677888E+01 -0.13041481131E+02  0.13170049398E+02  0.72461705148E+02  0.70000175672E+02 0.  0.
        -12    1    1    2    0    0  0.26727677888E+01  0.13041481131E+02 -0.13170049398E+02  0.18726294852E+02  0.00000000000E+00 0.  1.
         11    1    3    3    0    0 -0.17500192432E+01  0.40670337577E+01  0.20203094475E+01  0.48667218395E+01  0.51100000000E-03 0. -1.
        -11    1    3    3    0    0  0.27703793086E+02 -0.74351692643E+01 -0.10367105219E+02  0.30500143676E+02  0.51100000000E-03 0.  1.
         12    1    3    3    0    0 -0.28626541632E+02 -0.96733456246E+01  0.21516845169E+02  0.37094839633E+02  0.00000000000E+00 0. -1.
</event>
<event>
 7    1  0.1358622E-013  0.7246146E+02  0.7816164E-02  0.1226708E+00
        -11   -1    0    0    0    0  0.00000000000E+00  0.00000000000E+00  0.45593999997E+02  0.45594000000E+02  0.51100000000E-03 0.  1.
         11   -1    0    0    0    0 -0.00000000000E+00 -0.00000000000E+00 -0.45593999997E+02  0.45594000000E+02  0.51100000000E-03 0. -1.
    9900012    2    1    2    0    0 -0.17153404572E+02  0.29078664467E+01  0.69273656493E+01  0.72461458127E+02  0.69999853882E+02 0.  0.
        -12    1    1    2    0    0  0.17153404572E+02 -0.29078664467E+01 -0.69273656493E+01  0.18726541873E+02  0.00000000000E+00 0.  1.
         11    1    3    3    0    0  0.75035600710E+01  0.17337365769E+01 -0.38945816376E+01  0.86300071061E+01  0.51100000000E-03 0. -1.
        -11    1    3    3    0    0  0.59435504729E+01  0.20040553524E+02  0.17506926635E+02  0.27266133907E+02  0.51100000000E-03 0.  1.
         12    1    3    3    0    0 -0.30600515115E+02 -0.18866423654E+02 -0.66849793479E+01  0.36565317115E+02  0.00000000000E+00 0. -1.
</event>
<event>
 7    1  0.1358622E-013  0.7246159E+02  0.7816164E-02  0.1226708E+00
        -11   -1    0    0    0    0  0.00000000000E+00  0.00000000000E+00  0.45593999997E+02  0.45594000000E+02  0.51100000000E-03 0. -1.
         11   -1    0    0    0    0 -0.00000000000E+00 -0.00000000000E+00 -0.45593999997E+02  0.45594000000E+02  0.51100000000E-03 0.  1.
    9900012    2    1    2    0    0  0.99465574975E+01  0.15076504445E+02 -0.49440454229E+01  0.72461586102E+02  0.70000020593E+02 0.  0.
        -12    1    1    2    0    0 -0.99465574975E+01 -0.15076504445E+02  0.49440454229E+01  0.18726413898E+02  0.00000000000E+00 0.  1.
         11    1    3    3    0    0 -0.13103056228E+02  0.26771088701E+02 -0.91310475920E+01  0.31173022040E+02  0.51100000000E-03 0. -1.
        -11    1    3    3    0    0 -0.40651078220E+01  0.70185146958E+01  0.13377617219E+01  0.82203562469E+01  0.51100000000E-03 0.  1.
        -12    1    3    3    0    0  0.27114721547E+02 -0.18713098952E+02  0.28492404472E+01  0.33068207815E+02  0.00000000000E+00 0.  1.
</event>
<event>
 7    1  0.1358622E-013  0.7246162E+02  0.7816164E-02  0.1226708E+00
        -11   -1    0    0    0    0  0.00000000000E+00  0.00000000000E+00  0.45593999997E+02  0.45594000000E+02  0.51100000000E-03 0. -1.
         11   -1    0    0    0    0 -0.00000000000E+00 -0.00000000000E+00 -0.45593999997E+02  0.45594000000E+02  0.51100000000E-03 0.  1.
    9900012    2    1    2    0    0 -0.23515199724E+01  0.25700673398E+01  0.18399522086E+02  0.72461620069E+02  0.70000064841E+02 0.  0.
        -12    1    1    2    0    0  0.23515199724E+01 -0.25700673398E+01 -0.18399522086E+02  0.18726379931E+02  0.00000000000E+00 0.  1.
         11    1    3    3    0    0  0.14604066081E+02  0.14579577014E+01  0.13387859621E+02  0.19865527233E+02  0.51100000000E-03 0. -1.
        -11    1    3    3    0    0 -0.21760938137E+02  0.14067153422E+02  0.19609752815E+02  0.32495624932E+02  0.51100000000E-03 0.  1.
        -12    1    3    3    0    0  0.48053520834E+01 -0.12955043784E+02 -0.14598090350E+02  0.20100467904E+02  0.00000000000E+00 0.  1.
</event>
<event>
 7    1  0.1358622E-013  0.7246154E+02  0.7816164E-02  0.1226708E+00
        -11   -1    0    0    0    0  0.00000000000E+00  0.00000000000E+00  0.45593999997E+02  0.45594000000E+02  0.51100000000E-03 0.  1.
         11   -1    0    0    0    0 -0.00000000000E+00 -0.00000000000E+00 -0.45593999997E+02  0.45594000000E+02  0.51100000000E-03 0. -1.
    9900012    2    1    2    0    0  0.72591598744E+01  0.15064426615E+02 -0.84289932056E+01  0.72461540704E+02  0.69999961453E+02 0.  0.
        -12    1    1    2    0    0 -0.72591598744E+01 -0.15064426615E+02  0.84289932056E+01  0.18726459296E+02  0.00000000000E+00 0.  1.
         11    1    3    3    0    0  0.26892231043E+02  0.96999342877E+01 -0.27597938473E+02  0.39735714715E+02  0.51100000000E-03 0. -1.
        -11    1    3    3    0    0 -0.70919390675E+01 -0.28427331981E+01 -0.88316091345E+00  0.76913396254E+01  0.51100000000E-03 0.  1.
        -12    1    3    3    0    0 -0.12541132101E+02  0.82072255253E+01  0.20052106181E+02  0.25034486364E+02  0.00000000000E+00 0.  1.
</event>
<event>
 7    1  0.1358622E-013  0.7246159E+02  0.7816164E-02  0.1226708E+00
        -11   -1    0    0    0    0  0.00000000000E+00  0.00000000000E+00  0.45593999997E+02  0.45594000000E+02  0.51100000000E-03 0. -1.
         11   -1    0    0    0    0 -0.00000000000E+00 -0.00000000000E+00 -0.45593999997E+02  0.45594000000E+02  0.51100000000E-03 0.  1.
    9900012    2    1    2    0    0 -0.76244010389E+01  0.15136717171E+02  0.79641003275E+01  0.72461585716E+02  0.70000020089E+02 0.  0.
        -12    1    1    2    0    0  0.76244010389E+01 -0.15136717171E+02 -0.79641003275E+01  0.18726414284E+02  0.00000000000E+00 0.  1.
         11    1    3    3    0    0 -0.88270835995E+01 -0.18901707567E+01  0.92819024573E+00  0.90747830694E+01  0.51100000000E-03 0. -1.
        -11    1    3    3    0    0 -0.21621026969E+02 -0.10715250140E+02 -0.65104403127E+01  0.24993423657E+02  0.51100000000E-03 0.  1.
        -12    1    3    3    0    0  0.22823709529E+02  0.27742138068E+02  0.13546350394E+02  0.38393378990E+02  0.00000000000E+00 0.  1.
</event>
<event>
 7    1  0.1358622E-013  0.7246158E+02  0.7816164E-02  0.1226708E+00
        -11   -1    0    0    0    0  0.00000000000E+00  0.00000000000E+00  0.45593999997E+02  0.45594000000E+02  0.51100000000E-03 0.  1.
         11   -1    0    0    0    0 -0.00000000000E+00 -0.00000000000E+00 -0.45593999997E+02  0.45594000000E+02  0.51100000000E-03 0. -1.
    9900012    2    1    2    0    0 -0.87841828567E+01  0.25662686924E+01 -0.16338033065E+02  0.72461576745E+02  0.70000008404E+02 0.  0.
        -12    1    1    2    0    0  0.87841828567E+01 -0.25662686924E+01  0.16338033065E+02  0.18726423255E+02  0.00000000000E+00 0.  1.
         11    1    3    3    0    0 -0.12285297498E+02 -0.10262182742E+02  0.78082663317E+00  0.16026559822E+02  0.51100000000E-03 0. -1.
        -11    1    3    3    0    0 -0.14429171232E+02 -0.12762535473E+02  0.26714170668E+01  0.19447872983E+02  0.51100000000E-03 0.  1.
        -12    1    3    3    0    0  0.17930285873E+02  0.25590986908E+02 -0.19790276765E+02  0.36987143940E+02  0.00000000000E+00 0.  1.
</event>
<event>
 7    1  0.1358622E-013  0.7246128E+02  0.7816164E-02  0.1226709E+00
        -11   -1    0    0    0    0  0.00000000000E+00  0.00000000000E+00  0.45593999997E+02  0.45594000000E+02  0.51100000000E-03 0. -1.
         11   -1    0    0    0    0 -0.00000000000E+00 -0.00000000000E+00 -0.45593999997E+02  0.45594000000E+02  0.51100000000E-03 0.  1.
    9900012    2    1    2    0    0 -0.28525862903E+01  0.12633122115E+02  0.13526155858E+02  0.72461283384E+02  0.69999626245E+02 0.  0.
        -12    1    1    2    0    0  0.28525862903E+01 -0.12633122115E+02 -0.13526155858E+02  0.18726716616E+02  0.00000000000E+00 0.  1.
         11    1    3    3    0    0 -0.18652814513E+01 -0.35953574578E+01 -0.12320469088E+02  0.12969187675E+02  0.51100000000E-03 0. -1.
        -11    1    3    3    0    0  0.53746143642E+01 -0.65556048492E+00 -0.14401001317E+02  0.15385222725E+02  0.51100000000E-03 0.  1.
         12    1    3    3    0    0 -0.63619192032E+01  0.16884040058E+02  0.40247626263E+02  0.44106872984E+02  0.00000000000E+00 0. -1.
</event>
<event>
 7    1  0.1358622E-013  0.7246157E+02  0.7816164E-02  0.1226708E+00
        -11   -1    0    0    0    0  0.00000000000E+00  0.00000000000E+00  0.45593999997E+02  0.45594000000E+02  0.51100000000E-03 0.  1.
         11   -1    0    0    0    0 -0.00000000000E+00 -0.00000000000E+00 -0.45593999997E+02  0.45594000000E+02  0.51100000000E-03 0. -1.
    9900012    2    1    2    0    0 -0.14684663366E+02  0.14064679670E+01 -0.11535240129E+02  0.72461568008E+02  0.69999997021E+02 0.  0.
        -12    1    1    2    0    0  0.14684663366E+02 -0.14064679670E+01  0.11535240129E+02  0.18726431992E+02  0.00000000000E+00 0.  1.
         11    1    3    3    0    0 -0.68869416367E+01 -0.23369661783E+02  0.38973066864E+01  0.24673063381E+02  0.51100000000E-03 0. -1.
        -11    1    3    3    0    0  0.12181218279E+02  0.12758301856E+02  0.32191715861E+01  0.17930962354E+02  0.51100000000E-03 0.  1.
        -12    1    3    3    0    0 -0.19978940008E+02  0.12017827894E+02 -0.18651718402E+02  0.29857542272E+02  0.00000000000E+00 0.  1.
</event>
<event>
 7    1  0.1358622E-013  0.7246155E+02  0.7816164E-02  0.1226708E+00
        -11   -1    0    0    0    0  0.00000000000E+00  0.00000000000E+00  0.45593999997E+02  0.45594000000E+02  0.51100000000E-03 0.  1.
         11   -1    0    0    0    0 -0.00000000000E+00 -0.00000000000E+00 -0.45593999997E+02  0.45594000000E+02  0.51100000000E-03 0. -1.
    9900012    2    1    2    0    0 -0.16712292008E+02 -0.22354524994E+01 -0.81475034419E+01  0.72461554412E+02  0.69999979310E+02 0.  0.
        -12    1    1    2    0    0  0.16712292008E+02  0.22354524994E+01  0.81475034419E+01  0.18726445588E+02  0.00000000000E+00 0.  1.
         11    1    3    3    0    0 -0.31044381632E+01  0.13945823884E+02 -0.13503315139E+02  0.19658663742E+02  0.51100000000E-03 0. -1.
        -11    1    3    3    0    0 -0.18456549754E+02  0.90289484810E+00 -0.16408705830E+02  0.24712447778E+02  0.51100000000E-03 0.  1.
        -12    1    3    3    0    0  0.48486959089E+01 -0.17084171232E+02  0.21764517526E+02  0.28090442892E+02  0.00000000000E+00 0.  1.
</event>
<event>
 7    1  0.1358622E-013  0.7246155E+02  0.7816164E-02  0.1226708E+00
        -11   -1    0    0    0    0  0.00000000000E+00  0.00000000000E+00  0.45593999997E+02  0.45594000000E+02  0.51100000000E-03 0. -1.
         11   -1    0    0    0    0 -0.00000000000E+00 -0.00000000000E+00 -0.45593999997E+02  0.45594000000E+02  0.51100000000E-03 0.  1.
    9900012    2    1    2    0    0  0.13342982652E+02  0.58182611900E+01  0.11781032060E+02  0.72461546365E+02  0.69999968828E+02 0.  0.
        -12    1    1    2    0    0 -0.13342982652E+02 -0.58182611900E+01 -0.11781032060E+02  0.18726453635E+02  0.00000000000E+00 0.  1.
         11    1    3    3    0    0  0.21090354392E+02  0.88445662809E+01  0.14266243601E+02  0.26954686194E+02  0.51100000000E-03 0. -1.
        -11    1    3    3    0    0  0.17813843093E+02  0.92412097426E-01  0.53333061848E+01  0.18595313949E+02  0.51100000000E-03 0.  1.
        -12    1    3    3    0    0 -0.25561214833E+02 -0.31187171883E+01 -0.78185177253E+01  0.26911546222E+02  0.00000000000E+00 0.  1.
</event>
<event>
 7    1  0.1358622E-013  0.7246157E+02  0.7816164E-02  0.1226708E+00
        -11   -1    0    0    0    0  0.00000000000E+00  0.00000000000E+00  0.45593999997E+02  0.45594000000E+02  0.51100000000E-03 0.  1.
         11   -1    0    0    0    0 -0.00000000000E+00 -0.00000000000E+00 -0.45593999997E+02  0.45594000000E+02  0.51100000000E-03 0. -1.
    9900012    2    1    2    0    0  0.42217722045E+01  0.75066500762E+00 -0.18228884927E+02  0.72461572038E+02  0.70000002272E+02 0.  0.
        -12    1    1    2    0    0 -0.42217722045E+01 -0.75066500762E+00  0.18228884927E+02  0.18726427962E+02  0.00000000000E+00 0.  1.
         11    1    3    3    0    0 -0.23067729860E+02 -0.10668330893E+02 -0.18774600898E+02  0.31597770239E+02  0.51100000000E-03 0. -1.
        -11    1    3    3    0    0  0.39366982642E+01 -0.75744410068E+01  0.57819264640E+01  0.10310209682E+02  0.51100000000E-03 0.  1.
         12    1    3    3    0    0  0.23352803801E+02  0.18993436908E+02 -0.52362104935E+01  0.30553592117E+02  0.00000000000E+00 0. -1.
</event>
<event>
 7    1  0.1358622E-013  0.7246157E+02  0.7816164E-02  0.1226708E+00
        -11   -1    0    0    0    0  0.00000000000E+00  0.00000000000E+00  0.45593999997E+02  0.45594000000E+02  0.51100000000E-03 0. -1.
         11   -1    0    0    0    0 -0.00000000000E+00 -0.00000000000E+00 -0.45593999997E+02  0.45594000000E+02  0.51100000000E-03 0.  1.
    9900012    2    1    2    0    0 -0.16396095493E+02 -0.84677883715E+01 -0.31849040644E+01  0.72461574788E+02  0.70000005854E+02 0.  0.
        -12    1    1    2    0    0  0.16396095493E+02  0.84677883715E+01  0.31849040644E+01  0.18726425212E+02  0.00000000000E+00 0.  1.
         11    1    3    3    0    0 -0.30816115859E+01 -0.62816977267E+01  0.28529298234E+02  0.29374766625E+02  0.51100000000E-03 0. -1.
        -11    1    3    3    0    0 -0.51617966134E+01  0.96766783083E+01 -0.36713784142E+01  0.11565520614E+02  0.51100000000E-03 0.  1.
        -12    1    3    3    0    0 -0.81526872933E+01 -0.11862768953E+02 -0.28042823884E+02  0.31521287549E+02  0.00000000000E+00 0.  1.
</event>
<event>
 7    1  0.1358622E-013  0.7246152E+02  0.7816164E-02  0.1226708E+00
        -11   -1    0    0    0    0  0.00000000000E+00  0.00000000000E+00  0.45593999997E+02  0.45594000000E+02  0.51100000000E-03 0. -1.
         11   -1    0    0    0    0 -0.00000000000E+00 -0.00000000000E+00 -0.45593999997E+02  0.45594000000E+02  0.51100000000E-03 0.  1.
    9900012    2    1    2    0    0 -0.37146887579E+01  0.18002907734E+02 -0.35745771789E+01  0.72461516042E+02  0.69999929326E+02 0.  0.
        -12    1    1    2    0    0  0.37146887579E+01 -0.18002907734E+02  0.35745771789E+01  0.18726483958E+02  0.00000000000E+00 0.  1.
         11    1    3    3    0    0  0.19199109434E+02  0.14857956275E+02 -0.75904284882E+01  0.25435787242E+02  0.51100000000E-03 0. -1.
        -11    1    3    3    0    0 -0.67518047769E+01 -0.22861822769E+01 -0.17895034960E+02  0.19262548472E+02  0.51100000000E-03 0.  1.
         12    1    3    3    0    0 -0.16161993415E+02  0.54311337358E+01  0.21910886269E+02  0.27763180328E+02  0.00000000000E+00 0. -1.
</event>
<event>
 7    1  0.1358622E-013  0.7246157E+02  0.7816164E-02  0.1226708E+00
        -11   -1    0    0    0    0  0.00000000000E+00  0.00000000000E+00  0.45593999997E+02  0.45594000000E+02  0.51100000000E-03 0.  1.
         11   -1    0    0    0    0 -0.00000000000E+00 -0.00000000000E+00 -0.45593999997E+02  0.45594000000E+02  0.51100000000E-03 0. -1.
    9900012    2    1    2    0    0  0.15138002900E+01 -0.17903165259E+02 -0.52786756935E+01  0.72461565885E+02  0.69999994256E+02 0.  0.
        -12    1    1    2    0    0 -0.15138002900E+01  0.17903165259E+02  0.52786756935E+01  0.18726434115E+02  0.00000000000E+00 0.  1.
         11    1    3    3    0    0 -0.21868387533E+02 -0.22410756010E+02 -0.20794265437E+02  0.37588160817E+02  0.51100000000E-03 0. -1.
        -11    1    3    3    0    0  0.11129925020E+02 -0.36841427934E+00 -0.35531549256E+01  0.11689134708E+02  0.51100000000E-03 0.  1.
        -12    1    3    3    0    0  0.12252262803E+02  0.48760050304E+01  0.19068744669E+02  0.23184270360E+02  0.00000000000E+00 0.  1.
</event>
<event>
 7    1  0.1358622E-013  0.7246159E+02  0.7816164E-02  0.1226708E+00
        -11   -1    0    0    0    0  0.00000000000E+00  0.00000000000E+00  0.45593999997E+02  0.45594000000E+02  0.51100000000E-03 0. -1.
         11   -1    0    0    0    0 -0.00000000000E+00 -0.00000000000E+00 -0.45593999997E+02  0.45594000000E+02  0.51100000000E-03 0.  1.
    9900012    2    1    2    0    0 -0.15080605963E+01 -0.16876119306E+02  0.79750194752E+01  0.72461585895E+02  0.70000020323E+02 0.  0.
        -12    1    1    2    0    0  0.15080605963E+01  0.16876119306E+02 -0.79750194752E+01  0.18726414105E+02  0.00000000000E+00 0.  1.
         11    1    3    3    0    0  0.17165990856E+02  0.61158309279E+01 -0.36288925772E+01  0.18580729039E+02  0.51100000000E-03 0. -1.
        -11    1    3    3    0    0  0.11436114040E+02 -0.82870198538E+01  0.14506977856E+02  0.20246278897E+02  0.51100000000E-03 0.  1.
        -12    1    3    3    0    0 -0.30110165493E+02 -0.14704930380E+02 -0.29030658033E+01  0.33634577960E+02  0.00000000000E+00 0.  1.
</event>
<event>
 7    1  0.1358622E-013  0.7246162E+02  0.7816164E-02  0.1226708E+00
        -11   -1    0    0    0    0  0.00000000000E+00  0.00000000000E+00  0.45593999997E+02  0.45594000000E+02  0.51100000000E-03 0.  1.
         11   -1    0    0    0    0 -0.00000000000E+00 -0.00000000000E+00 -0.45593999997E+02  0.45594000000E+02  0.51100000000E-03 0. -1.
    9900012    2    1    2    0    0  0.21953092926E+01 -0.10309254151E+02 -0.15478284185E+02  0.72461617932E+02  0.70000062057E+02 0.  0.
        -12    1    1    2    0    0 -0.21953092926E+01  0.10309254151E+02  0.15478284185E+02  0.18726382068E+02  0.00000000000E+00 0.  1.
         11    1    3    3    0    0 -0.12236606103E+01 -0.37724706026E+01  0.20048436973E+02  0.20436944612E+02  0.51100000000E-03 0. -1.
        -11    1    3    3    0    0 -0.29041491525E+01  0.24976998340E+01  0.70606488102E+01  0.80327671847E+01  0.51100000000E-03 0.  1.
         12    1    3    3    0    0  0.63231190554E+01 -0.90344833827E+01 -0.42587369969E+02  0.43991906135E+02  0.00000000000E+00 0. -1.
</event>
<event>
 7    1  0.1358622E-013  0.7246154E+02  0.7816164E-02  0.1226708E+00
        -11   -1    0    0    0    0  0.00000000000E+00  0.00000000000E+00  0.45593999997E+02  0.45594000000E+02  0.51100000000E-03 0. -1.
         11   -1    0    0    0    0 -0.00000000000E+00 -0.00000000000E+00 -0.45593999997E+02  0.45594000000E+02  0.51100000000E-03 0.  1.
    9900012    2    1    2    0    0  0.15693461836E+02  0.88295328757E+01  0.51415058049E+01  0.72461535380E+02  0.69999954518E+02 0.  0.
        -12    1    1    2    0    0 -0.15693461836E+02 -0.88295328757E+01 -0.51415058049E+01  0.18726464620E+02  0.00000000000E+00 0.  1.
         11    1    3    3    0    0 -0.55541529573E+01  0.41615216588E+01  0.32907419124E+02  0.33631311471E+02  0.51100000000E-03 0. -1.
        -11    1    3    3    0    0  0.60290568411E+01 -0.54491129843E+01 -0.46491752497E+01  0.93625418275E+01  0.51100000000E-03 0.  1.
        -12    1    3    3    0    0  0.15218557953E+02  0.10117124201E+02 -0.23116738070E+02  0.29467682081E+02  0.00000000000E+00 0.  1.
</event>
<event>
 7    1  0.1358622E-013  0.7246159E+02  0.7816164E-02  0.1226708E+00
        -11   -1    0    0    0    0  0.00000000000E+00  0.00000000000E+00  0.45593999997E+02  0.45594000000E+02  0.51100000000E-03 0.  1.
         11   -1    0    0    0    0 -0.00000000000E+00 -0.00000000000E+00 -0.45593999997E+02  0.45594000000E+02  0.51100000000E-03 0. -1.
    9900012    2    1    2    0    0  0.14889518788E+02 -0.67048153922E+01 -0.91665848121E+01  0.72461585600E+02  0.70000019938E+02 0.  0.
        -12    1    1    2    0    0 -0.14889518788E+02  0.67048153922E+01  0.91665848121E+01  0.18726414400E+02  0.00000000000E+00 0.  1.
         11    1    3    3    0    0 -0.17791101712E+01 -0.18099135959E+02  0.14889053860E+01  0.18247213348E+02  0.51100000000E-03 0. -1.
        -11    1    3    3    0    0  0.46508517015E+01 -0.48322950141E+01 -0.27259232118E+02  0.28072178978E+02  0.51100000000E-03 0.  1.
        -12    1    3    3    0    0  0.12017777257E+02  0.16226615581E+02  0.16603741920E+02  0.26142193274E+02  0.00000000000E+00 0.  1.
</event>
<event>
 7    1  0.1358622E-013  0.7246158E+02  0.7816164E-02  0.1226708E+00
        -11   -1    0    0    0    0  0.00000000000E+00  0.00000000000E+00  0.45593999997E+02  0.45594000000E+02  0.51100000000E-03 0.  1.
         11   -1    0    0    0    0 -0.00000000000E+00 -0.00000000000E+00 -0.45593999997E+02  0.45594000000E+02  0.51100000000E-03 0. -1.
    9900012    2    1    2    0    0 -0.33768270825E+01 -0.16982440522E+02 -0.71324962564E+01  0.72461581494E+02  0.70000014590E+02 0.  0.
        -12    1    1    2    0    0  0.33768270825E+01  0.16982440522E+02  0.71324962564E+01  0.18726418506E+02  0.00000000000E+00 0.  1.
         11    1    3    3    0    0  0.30097538933E+01 -0.13453258462E+01  0.10796411783E+02  0.11288535236E+02  0.51100000000E-03 0. -1.
        -11    1    3    3    0    0  0.29461078544E+01  0.78657383114E+01  0.16464722274E+02  0.18483410684E+02  0.51100000000E-03 0.  1.
         12    1    3    3    0    0 -0.93326888302E+01 -0.23502852987E+02 -0.34393630313E+02  0.42689635574E+02  0.00000000000E+00 0. -1.
</event>
<event>
 7    1  0.1358622E-013  0.7246203E+02  0.7816164E-02  0.1226707E+00
        -11   -1    0    0    0    0  0.00000000000E+00  0.00000000000E+00  0.45593999997E+02  0.45594000000E+02  0.51100000000E-03 0. -1.
         11   -1    0    0    0    0 -0.00000000000E+00 -0.00000000000E+00 -0.45593999997E+02  0.45594000000E+02  0.51100000000E-03 0.  1.
    9900012    2    1    2    0    0 -0.55609553936E+01 -0.13925568969E+02 -0.11216777241E+02  0.72462034399E+02  0.70000604581E+02 0.  0.
        -12    1    1    2    0    0  0.55609553936E+01  0.13925568969E+02  0.11216777241E+02  0.18725965601E+02  0.00000000000E+00 0.  1.
         11    1    3    3    0    0 -0.38004914428E+00 -0.75899168712E+01 -0.20337427507E+02  0.21710878225E+02  0.51100000000E-03 0. -1.
        -11    1    3    3    0    0 -0.36021709154E+01  0.20606419463E+02 -0.30598433515E+01  0.21141494744E+02  0.51100000000E-03 0.  1.
         12    1    3    3    0    0 -0.15787353340E+01 -0.26942071561E+02  0.12180493617E+02  0.29609661430E+02  0.00000000000E+00 0. -1.
</event>
<event>
 7    1  0.1358622E-013  0.7246158E+02  0.7816164E-02  0.1226708E+00
        -11   -1    0    0    0    0  0.00000000000E+00  0.00000000000E+00  0.45593999997E+02  0.45594000000E+02  0.51100000000E-03 0. -1.
         11   -1    0    0    0    0 -0.00000000000E+00 -0.00000000000E+00 -0.45593999997E+02  0.45594000000E+02  0.51100000000E-03 0.  1.
    9900012    2    1    2    0    0  0.23793864947E+01  0.17930124904E+02 -0.48505534638E+01  0.72461582081E+02  0.70000015355E+02 0.  0.
        -12    1    1    2    0    0 -0.23793864947E+01 -0.17930124904E+02  0.48505534638E+01  0.18726417919E+02  0.00000000000E+00 0.  1.
         11    1    3    3    0    0  0.93314286420E+01 -0.14265541006E+02 -0.47708214583E+01  0.17701467689E+02  0.51100000000E-03 0. -1.
        -11    1    3    3    0    0 -0.24738450370E+02  0.11464429370E+02  0.21702134258E+01  0.27352036379E+02  0.51100000000E-03 0.  1.
         12    1    3    3    0    0  0.17786408223E+02  0.20731236540E+02 -0.22499454312E+01  0.27408078013E+02  0.00000000000E+00 0. -1.
</event>
<event>
 7    1  0.1358622E-013  0.7246159E+02  0.7816164E-02  0.1226708E+00
        -11   -1    0    0    0    0  0.00000000000E+00  0.00000000000E+00  0.45593999997E+02  0.45594000000E+02  0.51100000000E-03 0. -1.
         11   -1    0    0    0    0 -0.00000000000E+00 -0.00000000000E+00 -0.45593999997E+02  0.45594000000E+02  0.51100000000E-03 0.  1.
    9900012    2    1    2    0    0  0.21127675626E+01  0.16044340248E+02  0.94230517081E+01  0.72461586989E+02  0.70000021748E+02 0.  0.
        -12    1    1    2    0    0 -0.21127675626E+01 -0.16044340248E+02 -0.94230517081E+01  0.18726413011E+02  0.00000000000E+00 0.  1.
         11    1    3    3    0    0  0.18051798391E+02  0.10379398976E+02 -0.64131979754E+01  0.21788264198E+02  0.51100000000E-03 0. -1.
        -11    1    3    3    0    0  0.94337075654E+01  0.12759366936E+02 -0.54760858702E+01  0.16786417121E+02  0.51100000000E-03 0.  1.
        -12    1    3    3    0    0 -0.25372738394E+02 -0.70944256638E+01  0.21312335554E+02  0.33886905670E+02  0.00000000000E+00 0.  1.
</event>
<event>
 7    1  0.1358622E-013  0.7246153E+02  0.7816164E-02  0.1226708E+00
        -11   -1    0    0    0    0  0.00000000000E+00  0.00000000000E+00  0.45593999997E+02  0.45594000000E+02  0.51100000000E-03 0. -1.
         11   -1    0    0    0    0 -0.00000000000E+00 -0.00000000000E+00 -0.45593999997E+02  0.45594000000E+02  0.51100000000E-03 0.  1.
    9900012    2    1    2    0    0 -0.94100535371E+01  0.16445632336E+01  0.16106732190E+02  0.72461534299E+02  0.69999953110E+02 0.  0.
        -12    1    1    2    0    0  0.94100535371E+01 -0.16445632336E+01 -0.16106732190E+02  0.18726465701E+02  0.00000000000E+00 0.  1.
         11    1    3    3    0    0  0.11871498046E+02 -0.43949131478E+01  0.28838965098E+01  0.12983242537E+02  0.51100000000E-03 0. -1.
        -11    1    3    3    0    0 -0.65943564979E+01 -0.10974152462E+02 -0.17331448926E+02  0.21547544687E+02  0.51100000000E-03 0.  1.
         12    1    3    3    0    0 -0.14687195085E+02  0.17013628843E+02  0.30554284606E+02  0.37930747075E+02  0.00000000000E+00 0. -1.
</event>
<event>
 7    1  0.1358622E-013  0.7246164E+02  0.7816164E-02  0.1226708E+00
        -11   -1    0    0    0    0  0.00000000000E+00  0.00000000000E+00  0.45593999997E+02  0.45594000000E+02  0.51100000000E-03 0. -1.
         11   -1    0    0    0    0 -0.00000000000E+00 -0.00000000000E+00 -0.45593999997E+02  0.45594000000E+02  0.51100000000E-03 0.  1.
    9900012    2    1    2    0    0 -0.59797939400E+01  0.12329122195E+02  0.12763679912E+02  0.72461635842E+02  0.70000085388E+02 0.  0.
        -12    1    1    2    0    0  0.59797939400E+01 -0.12329122195E+02 -0.12763679912E+02  0.18726364158E+02  0.00000000000E+00 0.  1.
         11    1    3    3    0    0 -0.89323119337E+01  0.24942357945E+02  0.20121902271E+02  0.33268579284E+02  0.51100000000E-03 0. -1.
        -11    1    3    3    0    0 -0.25501410891E+01  0.66538176322E+01  0.10273383433E+02  0.12502756339E+02  0.51100000000E-03 0.  1.
        -12    1    3    3    0    0  0.55026590829E+01 -0.19267053382E+02 -0.17631605791E+02  0.26690300219E+02  0.00000000000E+00 0.  1.
</event>
<event>
 7    1  0.1358622E-013  0.7246146E+02  0.7816164E-02  0.1226708E+00
        -11   -1    0    0    0    0  0.00000000000E+00  0.00000000000E+00  0.45593999997E+02  0.45594000000E+02  0.51100000000E-03 0.  1.
         11   -1    0    0    0    0 -0.00000000000E+00 -0.00000000000E+00 -0.45593999997E+02  0.45594000000E+02  0.51100000000E-03 0. -1.
    9900012    2    1    2    0    0 -0.57334862341E+01  0.45858813414E+01 -0.17227303025E+02  0.72461464239E+02  0.69999861844E+02 0.  0.
        -12    1    1    2    0    0  0.57334862341E+01 -0.45858813414E+01  0.17227303025E+02  0.18726535761E+02  0.00000000000E+00 0.  1.
         11    1    3    3    0    0 -0.29697412025E+02  0.10455322252E+02  0.77630464782E+01  0.32427071025E+02  0.51100000000E-03 0.  1.
        -11    1    3    3    0    0 -0.24440624669E+01 -0.37929096545E+01 -0.19075682466E+01  0.48988184153E+01  0.51100000000E-03 0. -1.
        -12    1    3    3    0    0  0.26407988258E+02 -0.20765312565E+01 -0.23082781257E+02  0.35135574799E+02  0.00000000000E+00 0.  1.
</event>
<event>
 7    1  0.1358622E-013  0.7246163E+02  0.7816164E-02  0.1226708E+00
        -11   -1    0    0    0    0  0.00000000000E+00  0.00000000000E+00  0.45593999997E+02  0.45594000000E+02  0.51100000000E-03 0.  1.
         11   -1    0    0    0    0 -0.00000000000E+00 -0.00000000000E+00 -0.45593999997E+02  0.45594000000E+02  0.51100000000E-03 0. -1.
    9900012    2    1    2    0    0  0.52591272878E+01 -0.17936344632E+02  0.11427953317E+01  0.72461631966E+02  0.70000080339E+02 0.  0.
        -12    1    1    2    0    0 -0.52591272878E+01  0.17936344632E+02 -0.11427953317E+01  0.18726368034E+02  0.00000000000E+00 0.  1.
         11    1    3    3    0    0  0.81363799613E+01  0.70522649869E+01 -0.15853777317E+01  0.10883406780E+02  0.51100000000E-03 0. -1.
        -11    1    3    3    0    0 -0.50715305807E+01  0.86116188073E+01  0.21008312153E+02  0.23264341398E+02  0.51100000000E-03 0.  1.
        -12    1    3    3    0    0  0.21942779071E+01 -0.33600228426E+02 -0.18280139089E+02  0.38313883788E+02  0.00000000000E+00 0.  1.
</event>
<event>
 7    1  0.1358622E-013  0.7246157E+02  0.7816164E-02  0.1226708E+00
        -11   -1    0    0    0    0  0.00000000000E+00  0.00000000000E+00  0.45593999997E+02  0.45594000000E+02  0.51100000000E-03 0.  1.
         11   -1    0    0    0    0 -0.00000000000E+00 -0.00000000000E+00 -0.45593999997E+02  0.45594000000E+02  0.51100000000E-03 0. -1.
    9900012    2    1    2    0    0  0.15373197685E+02  0.10680574005E+02 -0.51899076919E+00  0.72461568958E+02  0.69999998259E+02 0.  0.
        -12    1    1    2    0    0 -0.15373197685E+02 -0.10680574005E+02  0.51899076919E+00  0.18726431042E+02  0.00000000000E+00 0.  1.
         11    1    3    3    0    0 -0.39496991286E+01  0.19820565090E+02 -0.19988087010E+01  0.20308869002E+02  0.51100000000E-03 0. -1.
        -11    1    3    3    0    0  0.39277947422E+01 -0.38439837239E+01  0.23855800644E+02  0.24480665985E+02  0.51100000000E-03 0.  1.
        -12    1    3    3    0    0  0.15395102071E+02 -0.52960073605E+01 -0.22375982712E+02  0.27672033971E+02  0.00000000000E+00 0.  1.
</event>
<event>
 7    1  0.1358622E-013  0.7246156E+02  0.7816164E-02  0.1226708E+00
        -11   -1    0    0    0    0  0.00000000000E+00  0.00000000000E+00  0.45593999997E+02  0.45594000000E+02  0.51100000000E-03 0. -1.
         11   -1    0    0    0    0 -0.00000000000E+00 -0.00000000000E+00 -0.45593999997E+02  0.45594000000E+02  0.51100000000E-03 0.  1.
    9900012    2    1    2    0    0  0.81628157194E+00  0.17077803816E+01  0.18630528094E+02  0.72461563967E+02  0.69999991758E+02 0.  0.
        -12    1    1    2    0    0 -0.81628157194E+00 -0.17077803816E+01 -0.18630528094E+02  0.18726436033E+02  0.00000000000E+00 0.  1.
         11    1    3    3    0    0  0.12054712877E+02 -0.16435551272E+02  0.17444882226E+02  0.26828480470E+02  0.51100000000E-03 0. -1.
        -11    1    3    3    0    0  0.73800765697E+01  0.10320263933E+01  0.15050452870E+02  0.16794247244E+02  0.51100000000E-03 0.  1.
        -12    1    3    3    0    0 -0.18618507875E+02  0.17111305261E+02 -0.13864807002E+02  0.28838836253E+02  0.00000000000E+00 0.  1.
</event>
<event>
 7    1  0.1358622E-013  0.7246148E+02  0.7816164E-02  0.1226708E+00
        -11   -1    0    0    0    0  0.00000000000E+00  0.00000000000E+00  0.45593999997E+02  0.45594000000E+02  0.51100000000E-03 0. -1.
         11   -1    0    0    0    0 -0.00000000000E+00 -0.00000000000E+00 -0.45593999997E+02  0.45594000000E+02  0.51100000000E-03 0.  1.
    9900012    2    1    2    0    0  0.98062443978E+01 -0.96314928896E+01  0.12718267531E+02  0.72461483680E+02  0.69999887169E+02 0.  0.
        -12    1    1    2    0    0 -0.98062443978E+01  0.96314928896E+01 -0.12718267531E+02  0.18726516320E+02  0.00000000000E+00 0.  1.
         11    1    3    3    0    0  0.17606111998E+02 -0.10459856380E+02 -0.21687193357E+01  0.20593375610E+02  0.51100000000E-03 0. -1.
        -11    1    3    3    0    0  0.50842165198E+01 -0.11154908904E+02 -0.13647404833E+02  0.18344833311E+02  0.51100000000E-03 0.  1.
         12    1    3    3    0    0 -0.12884084120E+02  0.11983272395E+02  0.28534391700E+02  0.33523274759E+02  0.00000000000E+00 0. -1.
</event>
<event>
 7    1  0.1358622E-013  0.7246157E+02  0.7816164E-02  0.1226708E+00
        -11   -1    0    0    0    0  0.00000000000E+00  0.00000000000E+00  0.45593999997E+02  0.45594000000E+02  0.51100000000E-03 0.  1.
         11   -1    0    0    0    0 -0.00000000000E+00 -0.00000000000E+00 -0.45593999997E+02  0.45594000000E+02  0.51100000000E-03 0. -1.
    9900012    2    1    2    0    0  0.21999481052E+01  0.10905084909E+02 -0.15063817713E+02  0.72461568075E+02  0.69999997109E+02 0.  0.
        -12    1    1    2    0    0 -0.21999481052E+01 -0.10905084909E+02  0.15063817713E+02  0.18726431925E+02  0.00000000000E+00 0.  1.
         11    1    3    3    0    0 -0.16051057875E+02  0.12351800638E+01 -0.74092985382E-01  0.16098683758E+02  0.51100000000E-03 0. -1.
        -11    1    3    3    0    0  0.23852771721E+02  0.26446113248E+02 -0.47593793104E+01  0.35930534596E+02  0.51100000000E-03 0.  1.
         12    1    3    3    0    0 -0.56017657412E+01 -0.16776208402E+02 -0.10230345417E+02  0.20432349721E+02  0.00000000000E+00 0. -1.
</event>
<event>
 7    1  0.1358622E-013  0.7246176E+02  0.7816164E-02  0.1226708E+00
        -11   -1    0    0    0    0  0.00000000000E+00  0.00000000000E+00  0.45593999997E+02  0.45594000000E+02  0.51100000000E-03 0. -1.
         11   -1    0    0    0    0 -0.00000000000E+00 -0.00000000000E+00 -0.45593999997E+02  0.45594000000E+02  0.51100000000E-03 0.  1.
    9900012    2    1    2    0    0 -0.12027306261E+02 -0.13468511569E+02  0.49613798005E+01  0.72461756669E+02  0.70000242787E+02 0.  0.
        -12    1    1    2    0    0  0.12027306261E+02  0.13468511569E+02 -0.49613798005E+01  0.18726243331E+02  0.00000000000E+00 0.  1.
         11    1    3    3    0    0 -0.37275583955E+01 -0.45251782560E+01  0.30705279070E+01  0.66181622622E+01  0.51100000000E-03 0. -1.
        -11    1    3    3    0    0 -0.35043339700E+02  0.50802239048E+01  0.36360404336E+01  0.35595858222E+02  0.51100000000E-03 0.  1.
        -12    1    3    3    0    0  0.26743591834E+02 -0.14023557218E+02 -0.17451885401E+01  0.30247736185E+02  0.00000000000E+00 0.  1.
</event>
<event>
 7    1  0.1358622E-013  0.7246155E+02  0.7816164E-02  0.1226708E+00
        -11   -1    0    0    0    0  0.00000000000E+00  0.00000000000E+00  0.45593999997E+02  0.45594000000E+02  0.51100000000E-03 0. -1.
         11   -1    0    0    0    0 -0.00000000000E+00 -0.00000000000E+00 -0.45593999997E+02  0.45594000000E+02  0.51100000000E-03 0.  1.
    9900012    2    1    2    0    0  0.36162125566E+01  0.10404853068E+02  0.15144038704E+02  0.72461551622E+02  0.69999975675E+02 0.  0.
        -12    1    1    2    0    0 -0.36162125566E+01 -0.10404853068E+02 -0.15144038704E+02  0.18726448378E+02  0.00000000000E+00 0.  1.
         11    1    3    3    0    0  0.42310887514E+01 -0.10596711181E+01  0.28483172986E+02  0.28815207071E+02  0.51100000000E-03 0. -1.
        -11    1    3    3    0    0 -0.15929219487E+02 -0.64222162665E+01 -0.99708757144E+01  0.19859588566E+02  0.51100000000E-03 0.  1.
        -12    1    3    3    0    0  0.15314343292E+02  0.17886740452E+02 -0.33682585683E+01  0.23786755984E+02  0.00000000000E+00 0.  1.
</event>
<event>
 7    1  0.1358622E-013  0.7246156E+02  0.7816164E-02  0.1226708E+00
        -11   -1    0    0    0    0  0.00000000000E+00  0.00000000000E+00  0.45593999997E+02  0.45594000000E+02  0.51100000000E-03 0.  1.
         11   -1    0    0    0    0 -0.00000000000E+00 -0.00000000000E+00 -0.45593999997E+02  0.45594000000E+02  0.51100000000E-03 0. -1.
    9900012    2    1    2    0    0  0.60528036570E+01  0.12843220452E+02 -0.12210432408E+02  0.72461564053E+02  0.69999991869E+02 0.  0.
        -12    1    1    2    0    0 -0.60528036570E+01 -0.12843220452E+02  0.12210432408E+02  0.18726435947E+02  0.00000000000E+00 0.  1.
         11    1    3    3    0    0  0.10068552464E+02 -0.65961454915E+01 -0.19868385356E+02  0.23230101614E+02  0.51100000000E-03 0. -1.
        -11    1    3    3    0    0 -0.80048146121E+00 -0.11230730620E+02 -0.87872790494E+01  0.14282379150E+02  0.51100000000E-03 0.  1.
        -12    1    3    3    0    0 -0.32152673458E+01  0.30670096564E+02  0.16445231998E+02  0.34949083290E+02  0.00000000000E+00 0.  1.
</event>
<event>
 7    1  0.1358622E-013  0.7246151E+02  0.7816164E-02  0.1226708E+00
        -11   -1    0    0    0    0  0.00000000000E+00  0.00000000000E+00  0.45593999997E+02  0.45594000000E+02  0.51100000000E-03 0. -1.
         11   -1    0    0    0    0 -0.00000000000E+00 -0.00000000000E+00 -0.45593999997E+02  0.45594000000E+02  0.51100000000E-03 0.  1.
    9900012    2    1    2    0    0 -0.27631042598E+01 -0.15113175013E+02  0.10706948862E+02  0.72461506520E+02  0.69999916922E+02 0.  0.
        -12    1    1    2    0    0  0.27631042598E+01  0.15113175013E+02 -0.10706948862E+02  0.18726493480E+02  0.00000000000E+00 0.  1.
         11    1    3    3    0    0 -0.16788077844E+02  0.42159628959E+00  0.25517468213E+02  0.30547642878E+02  0.51100000000E-03 0. -1.
        -11    1    3    3    0    0  0.77064550830E+01  0.42569303746E+01  0.74000659738E+01  0.11500951388E+02  0.51100000000E-03 0.  1.
        -12    1    3    3    0    0  0.63185185013E+01 -0.19791701677E+02 -0.22210585324E+02  0.30412912254E+02  0.00000000000E+00 0.  1.
</event>
<event>
 7    1  0.1358622E-013  0.7246159E+02  0.7816164E-02  0.1226708E+00
        -11   -1    0    0    0    0  0.00000000000E+00  0.00000000000E+00  0.45593999997E+02  0.45594000000E+02  0.51100000000E-03 0. -1.
         11   -1    0    0    0    0 -0.00000000000E+00 -0.00000000000E+00 -0.45593999997E+02  0.45594000000E+02  0.51100000000E-03 0.  1.
    9900012    2    1    2    0    0  0.78479933079E+01  0.14458582155E+02  0.89463285096E+01  0.72461591089E+02  0.70000027089E+02 0.  0.
        -12    1    1    2    0    0 -0.78479933079E+01 -0.14458582155E+02 -0.89463285096E+01  0.18726408911E+02  0.00000000000E+00 0.  1.
         11    1    3    3    0    0 -0.92823049082E+01 -0.89648491389E+01 -0.43847342267E+01  0.13629218576E+02  0.51100000000E-03 0. -1.
        -11    1    3    3    0    0  0.56882085801E+01  0.58945397351E+01 -0.18786898860E+02  0.20495094159E+02  0.51100000000E-03 0.  1.
         12    1    3    3    0    0  0.11442089636E+02  0.17528891559E+02  0.32117961596E+02  0.38337278354E+02  0.00000000000E+00 0. -1.
</event>
<event>
 7    1  0.1358622E-013  0.7246159E+02  0.7816164E-02  0.1226708E+00
        -11   -1    0    0    0    0  0.00000000000E+00  0.00000000000E+00  0.45593999997E+02  0.45594000000E+02  0.51100000000E-03 0. -1.
         11   -1    0    0    0    0 -0.00000000000E+00 -0.00000000000E+00 -0.45593999997E+02  0.45594000000E+02  0.51100000000E-03 0.  1.
    9900012    2    1    2    0    0 -0.94824326798E+01  0.16116415588E+02  0.10114209093E+01  0.72461592091E+02  0.70000028394E+02 0.  0.
        -12    1    1    2    0    0  0.94824326798E+01 -0.16116415588E+02 -0.10114209093E+01  0.18726407909E+02  0.00000000000E+00 0.  1.
         11    1    3    3    0    0  0.67259768185E+00  0.11647201404E+02  0.76657024746E+00  0.11691762843E+02  0.51100000000E-03 0. -1.
        -11    1    3    3    0    0 -0.66938932009E+01  0.32129270347E+02 -0.13657152950E+01  0.32847578263E+02  0.51100000000E-03 0.  1.
        -12    1    3    3    0    0 -0.34611371607E+01 -0.27660056163E+02  0.16105659569E+01  0.27922250985E+02  0.00000000000E+00 0.  1.
</event>
<event>
 7    1  0.1358622E-013  0.7246161E+02  0.7816164E-02  0.1226708E+00
        -11   -1    0    0    0    0  0.00000000000E+00  0.00000000000E+00  0.45593999997E+02  0.45594000000E+02  0.51100000000E-03 0.  1.
         11   -1    0    0    0    0 -0.00000000000E+00 -0.00000000000E+00 -0.45593999997E+02  0.45594000000E+02  0.51100000000E-03 0. -1.
    9900012    2    1    2    0    0  0.13357247618E+02 -0.10302233607E+02 -0.81317664823E+01  0.72461609335E+02  0.70000050858E+02 0.  0.
        -12    1    1    2    0    0 -0.13357247618E+02  0.10302233607E+02  0.81317664823E+01  0.18726390665E+02  0.00000000000E+00 0.  1.
         11    1    3    3    0    0 -0.63497369754E+01 -0.46164109223E+01 -0.69434074976E+00  0.78811495861E+01  0.51100000000E-03 0. -1.
        -11    1    3    3    0    0 -0.19055770461E+02 -0.14090807750E+02  0.20809287803E+01  0.23790828396E+02  0.51100000000E-03 0.  1.
         12    1    3    3    0    0  0.38762755054E+02  0.84049850653E+01 -0.95183545128E+01  0.40789631353E+02  0.00000000000E+00 0. -1.
</event>
<event>
 7    1  0.1358622E-013  0.7246155E+02  0.7816164E-02  0.1226708E+00
        -11   -1    0    0    0    0  0.00000000000E+00  0.00000000000E+00  0.45593999997E+02  0.45594000000E+02  0.51100000000E-03 0.  1.
         11   -1    0    0    0    0 -0.00000000000E+00 -0.00000000000E+00 -0.45593999997E+02  0.45594000000E+02  0.51100000000E-03 0. -1.
    9900012    2    1    2    0    0 -0.12492309189E+02  0.81739857226E+01 -0.11305226021E+02  0.72461549005E+02  0.69999972267E+02 0.  0.
        -12    1    1    2    0    0  0.12492309189E+02 -0.81739857226E+01  0.11305226021E+02  0.18726450995E+02  0.00000000000E+00 0.  1.
         11    1    3    3    0    0  0.14058585526E+02  0.36409562518E+00  0.14371093323E+02  0.20107329911E+02  0.51100000000E-03 0. -1.
        -11    1    3    3    0    0 -0.32154609616E+01  0.11256799604E+01  0.92293344153E+01  0.98380363173E+01  0.51100000000E-03 0.  1.
        -12    1    3    3    0    0 -0.23335433753E+02  0.66842101371E+01 -0.34905653759E+02  0.42516182777E+02  0.00000000000E+00 0.  1.
</event>
<event>
 7    1  0.1600089E-013  0.7246158E+02  0.7816164E-02  0.1226708E+00
        -11   -1    0    0    0    0  0.00000000000E+00  0.00000000000E+00  0.45593999997E+02  0.45594000000E+02  0.51100000000E-03 0. -1.
         11   -1    0    0    0    0 -0.00000000000E+00 -0.00000000000E+00 -0.45593999997E+02  0.45594000000E+02  0.51100000000E-03 0.  1.
    9900012    2    1    2    0    0 -0.10424724676E+02 -0.94852024108E-01  0.15556180346E+02  0.72461584741E+02  0.70000018820E+02 0.  0.
        -12    1    1    2    0    0  0.10424724676E+02  0.94852024108E-01 -0.15556180346E+02  0.18726415259E+02  0.00000000000E+00 0.  1.
         11    1    3    3    0    0 -0.57940946446E+01 -0.11314619179E+02  0.33520940613E+02  0.35850322171E+02  0.51100000000E-03 0. -1.
        -11    1    3    3    0    0  0.62213210424E+00 -0.66283267912E+01 -0.16682840837E+02  0.17962153074E+02  0.51100000000E-03 0.  1.
        -12    1    3    3    0    0 -0.52527621358E+01  0.17848093946E+02 -0.12819194302E+01  0.18649109496E+02  0.00000000000E+00 0.  1.
</event>
<event>
 7    1  0.1358622E-013  0.7246157E+02  0.7816164E-02  0.1226708E+00
        -11   -1    0    0    0    0  0.00000000000E+00  0.00000000000E+00  0.45593999997E+02  0.45594000000E+02  0.51100000000E-03 0.  1.
         11   -1    0    0    0    0 -0.00000000000E+00 -0.00000000000E+00 -0.45593999997E+02  0.45594000000E+02  0.51100000000E-03 0. -1.
    9900012    2    1    2    0    0 -0.12531418431E+02  0.13081759905E+02  0.47444895232E+01  0.72461572927E+02  0.70000003429E+02 0.  0.
        -12    1    1    2    0    0  0.12531418431E+02 -0.13081759905E+02 -0.47444895232E+01  0.18726427073E+02  0.00000000000E+00 0.  1.
         11    1    3    3    0    0  0.18492718394E+01  0.70889401355E+01  0.59616222299E+00  0.73503937472E+01  0.51100000000E-03 0. -1.
        -11    1    3    3    0    0 -0.31731403640E+02  0.23290254636E+02 -0.33121735714E+01  0.39500486478E+02  0.51100000000E-03 0.  1.
         12    1    3    3    0    0  0.17350713369E+02 -0.17297434867E+02  0.74605008717E+01  0.25610692702E+02  0.00000000000E+00 0. -1.
</event>
<event>
 7    1  0.1358622E-013  0.7246148E+02  0.7816164E-02  0.1226708E+00
        -11   -1    0    0    0    0  0.00000000000E+00  0.00000000000E+00  0.45593999997E+02  0.45594000000E+02  0.51100000000E-03 0. -1.
         11   -1    0    0    0    0 -0.00000000000E+00 -0.00000000000E+00 -0.45593999997E+02  0.45594000000E+02  0.51100000000E-03 0.  1.
    9900012    2    1    2    0    0 -0.84579733383E+01 -0.35918537141E+01  0.16316979453E+02  0.72461480180E+02  0.69999882610E+02 0.  0.
        -12    1    1    2    0    0  0.84579733383E+01  0.35918537141E+01 -0.16316979453E+02  0.18726519820E+02  0.00000000000E+00 0.  1.
         11    1    3    3    0    0  0.10388134804E+02  0.54979672032E+00 -0.97278493636E+01  0.14242425167E+02  0.51100000000E-03 0. -1.
        -11    1    3    3    0    0  0.12774709773E+02 -0.85021472421E+01  0.20835693048E+02  0.25876742889E+02  0.51100000000E-03 0.  1.
         12    1    3    3    0    0 -0.31620817916E+02  0.43604968077E+01  0.52091357690E+01  0.32342312124E+02  0.00000000000E+00 0. -1.
</event>
<event>
 7    1  0.1461693E-013  0.7246161E+02  0.7816164E-02  0.1226708E+00
        -11   -1    0    0    0    0  0.00000000000E+00  0.00000000000E+00  0.45593999997E+02  0.45594000000E+02  0.51100000000E-03 0. -1.
         11   -1    0    0    0    0 -0.00000000000E+00 -0.00000000000E+00 -0.45593999997E+02  0.45594000000E+02  0.51100000000E-03 0.  1.
    9900012    2    1    2    0    0 -0.59289010714E+01  0.49935011630E+01  0.17046717726E+02  0.72461614684E+02  0.70000057825E+02 0.  0.
        -12    1    1    2    0    0  0.59289010714E+01 -0.49935011630E+01 -0.17046717726E+02  0.18726385316E+02  0.00000000000E+00 0.  1.
         11    1    3    3    0    0 -0.11636202824E+02  0.12745508191E+02  0.37459787755E+02  0.41244210431E+02  0.51100000000E-03 0. -1.
        -11    1    3    3    0    0 -0.16195976312E+01 -0.37731119279E+01  0.38088954501E+01  0.56006387956E+01  0.51100000000E-03 0.  1.
        -12    1    3    3    0    0  0.73268993837E+01 -0.39788950997E+01 -0.24221965479E+02  0.25616765456E+02  0.00000000000E+00 0.  1.
</event>
<event>
 7    1  0.1358622E-013  0.7246153E+02  0.7816164E-02  0.1226708E+00
        -11   -1    0    0    0    0  0.00000000000E+00  0.00000000000E+00  0.45593999997E+02  0.45594000000E+02  0.51100000000E-03 0.  1.
         11   -1    0    0    0    0 -0.00000000000E+00 -0.00000000000E+00 -0.45593999997E+02  0.45594000000E+02  0.51100000000E-03 0. -1.
    9900012    2    1    2    0    0  0.16777801279E+02  0.47523998043E+01 -0.68264740756E+01  0.72461530286E+02  0.69999947881E+02 0.  0.
        -12    1    1    2    0    0 -0.16777801279E+02 -0.47523998043E+01  0.68264740756E+01  0.18726469714E+02  0.00000000000E+00 0.  1.
         11    1    3    3    0    0 -0.84739476477E+01  0.23834390808E+02 -0.72479656064E+01  0.26313855278E+02  0.51100000000E-03 0. -1.
        -11    1    3    3    0    0 -0.64567307537E+01 -0.57124066715E+01 -0.68075860506E+01  0.10984725309E+02  0.51100000000E-03 0.  1.
        -12    1    3    3    0    0  0.31708479681E+02 -0.13369584332E+02  0.72290775814E+01  0.35162949699E+02  0.00000000000E+00 0.  1.
</event>
<event>
 7    1  0.1358622E-013  0.7246161E+02  0.7816164E-02  0.1226708E+00
        -11   -1    0    0    0    0  0.00000000000E+00  0.00000000000E+00  0.45593999997E+02  0.45594000000E+02  0.51100000000E-03 0.  1.
         11   -1    0    0    0    0 -0.00000000000E+00 -0.00000000000E+00 -0.45593999997E+02  0.45594000000E+02  0.51100000000E-03 0. -1.
    9900012    2    1    2    0    0 -0.58055799009E+01 -0.89884953594E+00 -0.17781032934E+02  0.72461606309E+02  0.70000046915E+02 0.  0.
        -12    1    1    2    0    0  0.58055799009E+01  0.89884953594E+00  0.17781032934E+02  0.18726393691E+02  0.00000000000E+00 0.  1.
         11    1    3    3    0    0  0.86527780498E+01 -0.28970394809E+02  0.28767970304E+00  0.30236354001E+02  0.51100000000E-03 0. -1.
        -11    1    3    3    0    0  0.54172696933E+01  0.86149102926E+01 -0.66626909313E+01  0.12163673006E+02  0.51100000000E-03 0.  1.
        -12    1    3    3    0    0 -0.19875627644E+02  0.19456634981E+02 -0.11406021706E+02  0.30061579303E+02  0.00000000000E+00 0.  1.
</event>
<event>
 7    1  0.1358622E-013  0.7246152E+02  0.7816164E-02  0.1226708E+00
        -11   -1    0    0    0    0  0.00000000000E+00  0.00000000000E+00  0.45593999997E+02  0.45594000000E+02  0.51100000000E-03 0.  1.
         11   -1    0    0    0    0 -0.00000000000E+00 -0.00000000000E+00 -0.45593999997E+02  0.45594000000E+02  0.51100000000E-03 0. -1.
    9900012    2    1    2    0    0  0.11001941499E+00  0.11696825793E+02 -0.14623724204E+02  0.72461517482E+02  0.69999931202E+02 0.  0.
        -12    1    1    2    0    0 -0.11001941499E+00 -0.11696825793E+02  0.14623724204E+02  0.18726482518E+02  0.00000000000E+00 0.  1.
         11    1    3    3    0    0  0.25414943325E+01  0.24291641020E+02 -0.33642320842E+02  0.41573414206E+02  0.51100000000E-03 0. -1.
        -11    1    3    3    0    0  0.34596250984E+01  0.42730970623E+01  0.11456870808E+01  0.56161342108E+01  0.51100000000E-03 0.  1.
        -12    1    3    3    0    0 -0.58911000159E+01 -0.16867912289E+02  0.17872909557E+02  0.25271969065E+02  0.00000000000E+00 0.  1.
</event>
<event>
 7    1  0.1358622E-013  0.7246157E+02  0.7816164E-02  0.1226708E+00
        -11   -1    0    0    0    0  0.00000000000E+00  0.00000000000E+00  0.45593999997E+02  0.45594000000E+02  0.51100000000E-03 0.  1.
         11   -1    0    0    0    0 -0.00000000000E+00 -0.00000000000E+00 -0.45593999997E+02  0.45594000000E+02  0.51100000000E-03 0. -1.
    9900012    2    1    2    0    0 -0.14337798307E+02 -0.12007170397E+02 -0.96668609479E+00  0.72461572598E+02  0.70000003001E+02 0.  0.
        -12    1    1    2    0    0  0.14337798307E+02  0.12007170397E+02  0.96668609479E+00  0.18726427402E+02  0.00000000000E+00 0.  1.
         11    1    3    3    0    0 -0.14625115122E+01  0.40298903162E+01  0.68316418307E+01  0.80653757661E+01  0.51100000000E-03 0. -1.
        -11    1    3    3    0    0  0.10085327287E+02  0.19285132621E+02 -0.17180646683E+01  0.21830756129E+02  0.51100000000E-03 0.  1.
         12    1    3    3    0    0 -0.22960614081E+02 -0.35322193335E+02 -0.60802632572E+01  0.42565440703E+02  0.00000000000E+00 0. -1.
</event>
<event>
 7    1  0.1358622E-013  0.7246157E+02  0.7816164E-02  0.1226708E+00
        -11   -1    0    0    0    0  0.00000000000E+00  0.00000000000E+00  0.45593999997E+02  0.45594000000E+02  0.51100000000E-03 0.  1.
         11   -1    0    0    0    0 -0.00000000000E+00 -0.00000000000E+00 -0.45593999997E+02  0.45594000000E+02  0.51100000000E-03 0. -1.
    9900012    2    1    2    0    0 -0.23952711503E+01  0.82760585570E+01 -0.16626742797E+02  0.72461573615E+02  0.70000004326E+02 0.  0.
        -12    1    1    2    0    0  0.23952711503E+01 -0.82760585570E+01  0.16626742797E+02  0.18726426385E+02  0.00000000000E+00 0.  1.
         11    1    3    3    0    0 -0.45326649323E+01 -0.26691817849E+02 -0.14258685355E+02  0.30599155213E+02  0.51100000000E-03 0. -1.
        -11    1    3    3    0    0 -0.22889667433E+01 -0.17872422516E+01 -0.38376112757E+01  0.48125735508E+01  0.51100000000E-03 0.  1.
        -12    1    3    3    0    0  0.44263605253E+01  0.36755118657E+02  0.14695538338E+01  0.37049844851E+02  0.00000000000E+00 0.  1.
</event>
<event>
 7    1  0.1358622E-013  0.7246158E+02  0.7816164E-02  0.1226708E+00
        -11   -1    0    0    0    0  0.00000000000E+00  0.00000000000E+00  0.45593999997E+02  0.45594000000E+02  0.51100000000E-03 0. -1.
         11   -1    0    0    0    0 -0.00000000000E+00 -0.00000000000E+00 -0.45593999997E+02  0.45594000000E+02  0.51100000000E-03 0.  1.
    9900012    2    1    2    0    0 -0.15093707765E+02  0.11067335029E+02  0.61067704947E+00  0.72461578953E+02  0.70000011280E+02 0.  0.
        -12    1    1    2    0    0  0.15093707765E+02 -0.11067335029E+02 -0.61067704947E+00  0.18726421047E+02  0.00000000000E+00 0.  1.
         11    1    3    3    0    0 -0.12780622613E+02 -0.60102990021E+01  0.31778476462E+02  0.34775560024E+02  0.51100000000E-03 0. -1.
        -11    1    3    3    0    0  0.11698887085E+01  0.56616072636E+01 -0.19119662203E+01  0.60891749429E+01  0.51100000000E-03 0.  1.
        -12    1    3    3    0    0 -0.34829738606E+01  0.11416026768E+02 -0.29255833193E+02  0.31596843986E+02  0.00000000000E+00 0.  1.
</event>
<event>
 7    1  0.1358622E-013  0.7246158E+02  0.7816164E-02  0.1226708E+00
        -11   -1    0    0    0    0  0.00000000000E+00  0.00000000000E+00  0.45593999997E+02  0.45594000000E+02  0.51100000000E-03 0.  1.
         11   -1    0    0    0    0 -0.00000000000E+00 -0.00000000000E+00 -0.45593999997E+02  0.45594000000E+02  0.51100000000E-03 0. -1.
    9900012    2    1    2    0    0 -0.17367386171E+02  0.49340801222E+01  0.49706759388E+01  0.72461578336E+02  0.70000010475E+02 0.  0.
        -12    1    1    2    0    0  0.17367386171E+02 -0.49340801222E+01 -0.49706759388E+01  0.18726421664E+02  0.00000000000E+00 0.  1.
         11    1    3    3    0    0  0.93633246084E+01  0.10122880392E+02 -0.15605523225E+02  0.20824910817E+02  0.51100000000E-03 0. -1.
        -11    1    3    3    0    0  0.49060926132E+01 -0.13180296769E+02  0.23433065391E+01  0.14257666480E+02  0.51100000000E-03 0.  1.
         12    1    3    3    0    0 -0.31636803392E+02  0.79914964992E+01  0.18232892625E+02  0.37379001039E+02  0.00000000000E+00 0. -1.
</event>
<event>
 7    1  0.1358622E-013  0.7246156E+02  0.7816164E-02  0.1226708E+00
        -11   -1    0    0    0    0  0.00000000000E+00  0.00000000000E+00  0.45593999997E+02  0.45594000000E+02  0.51100000000E-03 0.  1.
         11   -1    0    0    0    0 -0.00000000000E+00 -0.00000000000E+00 -0.45593999997E+02  0.45594000000E+02  0.51100000000E-03 0. -1.
    9900012    2    1    2    0    0  0.52999297323E+01  0.11622285233E+02 -0.13693531329E+02  0.72461559616E+02  0.69999986090E+02 0.  0.
        -12    1    1    2    0    0 -0.52999297323E+01 -0.11622285233E+02  0.13693531329E+02  0.18726440384E+02  0.00000000000E+00 0.  1.
         11    1    3    3    0    0  0.12342498174E+02 -0.84402563434E+01 -0.14353219391E+02  0.20726555321E+02  0.51100000000E-03 0. -1.
        -11    1    3    3    0    0  0.15220160651E+02 -0.69451997222E+01  0.28673032675E+00  0.16732343051E+02  0.51100000000E-03 0.  1.
        -12    1    3    3    0    0 -0.22262729093E+02  0.27007741298E+02  0.37295773592E+00  0.35002661244E+02  0.00000000000E+00 0.  1.
</event>
<event>
 7    1  0.1358622E-013  0.7246161E+02  0.7816164E-02  0.1226708E+00
        -11   -1    0    0    0    0  0.00000000000E+00  0.00000000000E+00  0.45593999997E+02  0.45594000000E+02  0.51100000000E-03 0.  1.
         11   -1    0    0    0    0 -0.00000000000E+00 -0.00000000000E+00 -0.45593999997E+02  0.45594000000E+02  0.51100000000E-03 0. -1.
    9900012    2    1    2    0    0  0.40292647257E+01  0.17382045861E+02 -0.56839413864E+01  0.72461610006E+02  0.70000051732E+02 0.  0.
        -12    1    1    2    0    0 -0.40292647257E+01 -0.17382045861E+02  0.56839413864E+01  0.18726389994E+02  0.00000000000E+00 0.  1.
         11    1    3    3    0    0 -0.45102630482E+01  0.21179496818E+01  0.11412573772E+02  0.12452912269E+02  0.51100000000E-03 0. -1.
        -11    1    3    3    0    0  0.19397327227E+02 -0.28351690574E+01  0.12800215769E+02  0.23412390120E+02  0.51100000000E-03 0.  1.
         12    1    3    3    0    0 -0.10857799453E+02  0.18099265236E+02 -0.29896730927E+02  0.36596307617E+02  0.00000000000E+00 0. -1.
</event>
<event>
 7    1  0.1358622E-013  0.7246153E+02  0.7816164E-02  0.1226708E+00
        -11   -1    0    0    0    0  0.00000000000E+00  0.00000000000E+00  0.45593999997E+02  0.45594000000E+02  0.51100000000E-03 0.  1.
         11   -1    0    0    0    0 -0.00000000000E+00 -0.00000000000E+00 -0.45593999997E+02  0.45594000000E+02  0.51100000000E-03 0. -1.
    9900012    2    1    2    0    0  0.10792670150E+02  0.13739643250E+02 -0.67395195631E+01  0.72461530778E+02  0.69999948522E+02 0.  0.
        -12    1    1    2    0    0 -0.10792670150E+02 -0.13739643250E+02  0.67395195631E+01  0.18726469222E+02  0.00000000000E+00 0.  1.
         11    1    3    3    0    0  0.74009030410E+01 -0.18287750771E+01  0.17467502987E+01  0.78210562568E+01  0.51100000000E-03 0. -1.
        -11    1    3    3    0    0  0.27987760524E+02 -0.85579271667E+01 -0.48904624300E+00  0.29271009943E+02  0.51100000000E-03 0.  1.
         12    1    3    3    0    0 -0.24595993416E+02  0.24126345493E+02 -0.79972236188E+01  0.35369464579E+02  0.00000000000E+00 0. -1.
</event>
<event>
 7    1  0.1358622E-013  0.7246153E+02  0.7816164E-02  0.1226708E+00
        -11   -1    0    0    0    0  0.00000000000E+00  0.00000000000E+00  0.45593999997E+02  0.45594000000E+02  0.51100000000E-03 0.  1.
         11   -1    0    0    0    0 -0.00000000000E+00 -0.00000000000E+00 -0.45593999997E+02  0.45594000000E+02  0.51100000000E-03 0. -1.
    9900012    2    1    2    0    0  0.47533940438E+00  0.20435066555E+01 -0.18608570461E+02  0.72461527786E+02  0.69999944624E+02 0.  0.
        -12    1    1    2    0    0 -0.47533940438E+00 -0.20435066555E+01  0.18608570461E+02  0.18726472214E+02  0.00000000000E+00 0.  1.
         11    1    3    3    0    0 -0.81783949082E+01 -0.36400364516E+01 -0.30820021301E+01  0.94675628350E+01  0.51100000000E-03 0. -1.
        -11    1    3    3    0    0 -0.25680579398E+02  0.55189453439E+01 -0.29658565304E+01  0.26433827214E+02  0.51100000000E-03 0.  1.
        -12    1    3    3    0    0  0.34334313711E+02  0.16459776326E+00 -0.12560711800E+02  0.36560137737E+02  0.00000000000E+00 0.  1.
</event>
<event>
 7    1  0.1358622E-013  0.7246152E+02  0.7816164E-02  0.1226708E+00
        -11   -1    0    0    0    0  0.00000000000E+00  0.00000000000E+00  0.45593999997E+02  0.45594000000E+02  0.51100000000E-03 0.  1.
         11   -1    0    0    0    0 -0.00000000000E+00 -0.00000000000E+00 -0.45593999997E+02  0.45594000000E+02  0.51100000000E-03 0. -1.
    9900012    2    1    2    0    0 -0.25271076509E+01  0.13347225522E+02 -0.12889780919E+02  0.72461517299E+02  0.69999930964E+02 0.  0.
        -12    1    1    2    0    0  0.25271076509E+01 -0.13347225522E+02  0.12889780919E+02  0.18726482701E+02  0.00000000000E+00 0.  1.
         11    1    3    3    0    0  0.40261225289E+01 -0.63020064784E+01 -0.13720882306E+02  0.15626501841E+02  0.51100000000E-03 0. -1.
        -11    1    3    3    0    0  0.20996259272E+02  0.18224103065E+02  0.67746570996E+01  0.28615674289E+02  0.51100000000E-03 0.  1.
         12    1    3    3    0    0 -0.27549489452E+02  0.14251289362E+01 -0.59435557125E+01  0.28219341169E+02  0.00000000000E+00 0. -1.
</event>
<event>
 7    1  0.1358622E-013  0.7246181E+02  0.7816164E-02  0.1226707E+00
        -11   -1    0    0    0    0  0.00000000000E+00  0.00000000000E+00  0.45593999997E+02  0.45594000000E+02  0.51100000000E-03 0.  1.
         11   -1    0    0    0    0 -0.00000000000E+00 -0.00000000000E+00 -0.45593999997E+02  0.45594000000E+02  0.51100000000E-03 0. -1.
    9900012    2    1    2    0    0  0.60859793872E+01 -0.15869078647E+02  0.78615040029E+01  0.72461813858E+02  0.70000317287E+02 0.  0.
        -12    1    1    2    0    0 -0.60859793872E+01  0.15869078647E+02 -0.78615040029E+01  0.18726186142E+02  0.00000000000E+00 0.  1.
         11    1    3    3    0    0 -0.19843043860E+02 -0.98122350381E+01 -0.15675208922E+02  0.27124500384E+02  0.51100000000E-03 0. -1.
        -11    1    3    3    0    0 -0.22613179761E+00 -0.96036984839E+01 -0.52573892703E+00  0.96207360342E+01  0.51100000000E-03 0.  1.
        -12    1    3    3    0    0  0.26155155045E+02  0.35468548746E+01  0.24062451852E+02  0.35716577440E+02  0.00000000000E+00 0.  1.
</event>
<event>
 7    1  0.1358622E-013  0.7246158E+02  0.7816164E-02  0.1226708E+00
        -11   -1    0    0    0    0  0.00000000000E+00  0.00000000000E+00  0.45593999997E+02  0.45594000000E+02  0.51100000000E-03 0.  1.
         11   -1    0    0    0    0 -0.00000000000E+00 -0.00000000000E+00 -0.45593999997E+02  0.45594000000E+02  0.51100000000E-03 0. -1.
    9900012    2    1    2    0    0  0.16193044945E+02  0.93877487202E+01 -0.57820486268E+00  0.72461578786E+02  0.70000011062E+02 0.  0.
        -12    1    1    2    0    0 -0.16193044945E+02 -0.93877487202E+01  0.57820486268E+00  0.18726421214E+02  0.00000000000E+00 0.  1.
         11    1    3    3    0    0  0.82686809987E+01 -0.50130571867E+01  0.26419662015E+01  0.10024061726E+02  0.51100000000E-03 0. -1.
        -11    1    3    3    0    0  0.87862647674E+01 -0.48737368268E+01  0.25744211100E+02  0.27635415044E+02  0.51100000000E-03 0.  1.
         12    1    3    3    0    0 -0.86190082131E+00  0.19274542734E+02 -0.28964382164E+02  0.34802102016E+02  0.00000000000E+00 0. -1.
</event>
<event>
 7    1  0.1358622E-013  0.7246162E+02  0.7816164E-02  0.1226708E+00
        -11   -1    0    0    0    0  0.00000000000E+00  0.00000000000E+00  0.45593999997E+02  0.45594000000E+02  0.51100000000E-03 0.  1.
         11   -1    0    0    0    0 -0.00000000000E+00 -0.00000000000E+00 -0.45593999997E+02  0.45594000000E+02  0.51100000000E-03 0. -1.
    9900012    2    1    2    0    0  0.82758328981E+01 -0.16719346443E+02 -0.16282775853E+01  0.72461621718E+02  0.70000066989E+02 0.  0.
        -12    1    1    2    0    0 -0.82758328981E+01  0.16719346443E+02  0.16282775853E+01  0.18726378282E+02  0.00000000000E+00 0.  1.
         11    1    3    3    0    0 -0.23757914026E+02  0.65372084363E+01  0.52650684606E+01  0.25197113310E+02  0.51100000000E-03 0.  1.
        -11    1    3    3    0    0  0.17066287614E+02  0.18444123548E+01  0.29708409596E+00  0.17168234886E+02  0.51100000000E-03 0. -1.
        -12    1    3    3    0    0  0.14967459310E+02 -0.25100967235E+02 -0.71904301419E+01  0.30096273522E+02  0.00000000000E+00 0.  1.
</event>
<event>
 7    1  0.1358622E-013  0.7246157E+02  0.7816164E-02  0.1226708E+00
        -11   -1    0    0    0    0  0.00000000000E+00  0.00000000000E+00  0.45593999997E+02  0.45594000000E+02  0.51100000000E-03 0.  1.
         11   -1    0    0    0    0 -0.00000000000E+00 -0.00000000000E+00 -0.45593999997E+02  0.45594000000E+02  0.51100000000E-03 0. -1.
    9900012    2    1    2    0    0  0.60244329982E+01  0.89723551959E+01 -0.15293205207E+02  0.72461572786E+02  0.70000003246E+02 0.  0.
        -12    1    1    2    0    0 -0.60244329982E+01 -0.89723551959E+01  0.15293205207E+02  0.18726427214E+02  0.00000000000E+00 0.  1.
         11    1    3    3    0    0  0.51662316595E+01 -0.69370544714E+01  0.36024738553E+01  0.93696580748E+01  0.51100000000E-03 0. -1.
        -11    1    3    3    0    0  0.21308740796E+02  0.28302204665E+02 -0.60251694265E+01  0.35935774517E+02  0.51100000000E-03 0.  1.
         12    1    3    3    0    0 -0.20450539458E+02 -0.12392794998E+02 -0.12870509636E+02  0.27156140194E+02  0.00000000000E+00 0. -1.
</event>
<event>
 7    1  0.1358622E-013  0.7246156E+02  0.7816164E-02  0.1226708E+00
        -11   -1    0    0    0    0  0.00000000000E+00  0.00000000000E+00  0.45593999997E+02  0.45594000000E+02  0.51100000000E-03 0.  1.
         11   -1    0    0    0    0 -0.00000000000E+00 -0.00000000000E+00 -0.45593999997E+02  0.45594000000E+02  0.51100000000E-03 0. -1.
    9900012    2    1    2    0    0  0.10164385339E+02  0.82305991393E+01  0.13402311709E+02  0.72461562788E+02  0.69999990221E+02 0.  0.
        -12    1    1    2    0    0 -0.10164385339E+02 -0.82305991393E+01 -0.13402311709E+02  0.18726437212E+02  0.00000000000E+00 0.  1.
         11    1    3    3    0    0  0.60228043973E+00  0.23648066258E+02  0.90354922032E+01  0.25322596610E+02  0.51100000000E-03 0.  1.
        -11    1    3    3    0    0  0.52689145584E+01  0.15139564417E+02  0.25149136423E+01  0.16226295395E+02  0.51100000000E-03 0. -1.
        -12    1    3    3    0    0  0.42931903412E+01 -0.30557031536E+02  0.18519058639E+01  0.30912670782E+02  0.00000000000E+00 0.  1.
</event>
<event>
 7    1  0.1358622E-013  0.7246159E+02  0.7816164E-02  0.1226708E+00
        -11   -1    0    0    0    0  0.00000000000E+00  0.00000000000E+00  0.45593999997E+02  0.45594000000E+02  0.51100000000E-03 0.  1.
         11   -1    0    0    0    0 -0.00000000000E+00 -0.00000000000E+00 -0.45593999997E+02  0.45594000000E+02  0.51100000000E-03 0. -1.
    9900012    2    1    2    0    0  0.12489803196E+02 -0.86644201703E+01 -0.10936689657E+02  0.72461587065E+02  0.70000021847E+02 0.  0.
        -12    1    1    2    0    0 -0.12489803196E+02  0.86644201703E+01  0.10936689657E+02  0.18726412935E+02  0.00000000000E+00 0.  1.
         11    1    3    3    0    0  0.87454391283E+01 -0.74206516565E+01 -0.29994931365E+02  0.32112998683E+02  0.51100000000E-03 0. -1.
        -11    1    3    3    0    0  0.17006272650E+02 -0.89902620910E+01  0.58905895915E+01  0.20118080622E+02  0.51100000000E-03 0.  1.
        -12    1    3    3    0    0 -0.13261908582E+02  0.77464935772E+01  0.13167652117E+02  0.20230507760E+02  0.00000000000E+00 0.  1.
</event>
<event>
 7    1  0.1358622E-013  0.7246147E+02  0.7816164E-02  0.1226708E+00
        -11   -1    0    0    0    0  0.00000000000E+00  0.00000000000E+00  0.45593999997E+02  0.45594000000E+02  0.51100000000E-03 0.  1.
         11   -1    0    0    0    0 -0.00000000000E+00 -0.00000000000E+00 -0.45593999997E+02  0.45594000000E+02  0.51100000000E-03 0. -1.
    9900012    2    1    2    0    0  0.18366179504E+02  0.36419844606E+01 -0.32009274120E+00  0.72461466425E+02  0.69999864690E+02 0.  0.
        -12    1    1    2    0    0 -0.18366179504E+02 -0.36419844606E+01  0.32009274120E+00  0.18726533575E+02  0.00000000000E+00 0.  1.
         11    1    3    3    0    0  0.85190415846E+01  0.12439574106E+02  0.41041315164E+01  0.15625651002E+02  0.51100000000E-03 0. -1.
        -11    1    3    3    0    0  0.17854725901E+02  0.16671269002E+01  0.21354112908E+02  0.27884918638E+02  0.51100000000E-03 0.  1.
         12    1    3    3    0    0 -0.80075879814E+01 -0.10464716546E+02 -0.25778337165E+02  0.28950896785E+02  0.00000000000E+00 0. -1.
</event>
<event>
 7    1  0.1358622E-013  0.7246158E+02  0.7816164E-02  0.1226708E+00
        -11   -1    0    0    0    0  0.00000000000E+00  0.00000000000E+00  0.45593999997E+02  0.45594000000E+02  0.51100000000E-03 0.  1.
         11   -1    0    0    0    0 -0.00000000000E+00 -0.00000000000E+00 -0.45593999997E+02  0.45594000000E+02  0.51100000000E-03 0. -1.
    9900012    2    1    2    0    0  0.16282285507E+01  0.18566421051E+02  0.18209002555E+01  0.72461580251E+02  0.70000012971E+02 0.  0.
        -12    1    1    2    0    0 -0.16282285507E+01 -0.18566421051E+02 -0.18209002555E+01  0.18726419749E+02  0.00000000000E+00 0.  1.
         11    1    3    3    0    0 -0.51313533735E+01  0.15813778274E+02 -0.16391858051E+02  0.23347363477E+02  0.51100000000E-03 0. -1.
        -11    1    3    3    0    0 -0.12691269862E+02  0.15864778994E+02  0.16194380304E+01  0.20380925470E+02  0.51100000000E-03 0.  1.
         12    1    3    3    0    0  0.19450851786E+02 -0.13112136216E+02  0.16593320276E+02  0.28733291303E+02  0.00000000000E+00 0. -1.
</event>
<event>
 7    1  0.1358622E-013  0.7246159E+02  0.7816164E-02  0.1226708E+00
        -11   -1    0    0    0    0  0.00000000000E+00  0.00000000000E+00  0.45593999997E+02  0.45594000000E+02  0.51100000000E-03 0. -1.
         11   -1    0    0    0    0 -0.00000000000E+00 -0.00000000000E+00 -0.45593999997E+02  0.45594000000E+02  0.51100000000E-03 0.  1.
    9900012    2    1    2    0    0  0.49385607611E+01 -0.17513155442E+02  0.44247510997E+01  0.72461590355E+02  0.70000026132E+02 0.  0.
        -12    1    1    2    0    0 -0.49385607611E+01  0.17513155442E+02 -0.44247510997E+01  0.18726409645E+02  0.00000000000E+00 0.  1.
         11    1    3    3    0    0  0.95844457182E+01 -0.33378974205E+02  0.69331293132E+01  0.35413073872E+02  0.51100000000E-03 0. -1.
        -11    1    3    3    0    0  0.45407145745E+01  0.25492406775E+01  0.13389606513E+02  0.14366568126E+02  0.51100000000E-03 0.  1.
        -12    1    3    3    0    0 -0.91865995316E+01  0.13316578086E+02 -0.15897984727E+02  0.22681948357E+02  0.00000000000E+00 0.  1.
</event>
<event>
 7    1  0.1358622E-013  0.7246156E+02  0.7816164E-02  0.1226708E+00
        -11   -1    0    0    0    0  0.00000000000E+00  0.00000000000E+00  0.45593999997E+02  0.45594000000E+02  0.51100000000E-03 0.  1.
         11   -1    0    0    0    0 -0.00000000000E+00 -0.00000000000E+00 -0.45593999997E+02  0.45594000000E+02  0.51100000000E-03 0. -1.
    9900012    2    1    2    0    0 -0.14463432021E+02 -0.11559925015E+02  0.28029886345E+01  0.72461562072E+02  0.69999989289E+02 0.  0.
        -12    1    1    2    0    0  0.14463432021E+02  0.11559925015E+02 -0.28029886345E+01  0.18726437928E+02  0.00000000000E+00 0.  1.
         11    1    3    3    0    0 -0.51122244609E+01 -0.25661491535E+02 -0.37150903310E+01  0.26428183501E+02  0.51100000000E-03 0. -1.
        -11    1    3    3    0    0 -0.16576596191E+01 -0.93584602280E+01  0.16789316075E+02  0.19292738213E+02  0.51100000000E-03 0.  1.
        -12    1    3    3    0    0 -0.76935479414E+01  0.23460026748E+02 -0.10271237109E+02  0.26740640357E+02  0.00000000000E+00 0.  1.
</event>
<event>
 7    1  0.1358622E-013  0.7246156E+02  0.7816164E-02  0.1226708E+00
        -11   -1    0    0    0    0  0.00000000000E+00  0.00000000000E+00  0.45593999997E+02  0.45594000000E+02  0.51100000000E-03 0.  1.
         11   -1    0    0    0    0 -0.00000000000E+00 -0.00000000000E+00 -0.45593999997E+02  0.45594000000E+02  0.51100000000E-03 0. -1.
    9900012    2    1    2    0    0 -0.11719936677E+02  0.24660050991E+00 -0.14603489012E+02  0.72461558297E+02  0.69999984371E+02 0.  0.
        -12    1    1    2    0    0  0.11719936677E+02 -0.24660050991E+00  0.14603489012E+02  0.18726441703E+02  0.00000000000E+00 0.  1.
         11    1    3    3    0    0 -0.19360486537E+01  0.31305671185E+02 -0.16222023536E+01  0.31407401572E+02  0.51100000000E-03 0. -1.
        -11    1    3    3    0    0 -0.62162435952E+01 -0.31654403184E+01  0.41588070222E+01  0.81214144675E+01  0.51100000000E-03 0.  1.
        -12    1    3    3    0    0 -0.35676444283E+01 -0.27893630357E+02 -0.17140093681E+02  0.32932742258E+02  0.00000000000E+00 0.  1.
</event>
<event>
 7    1  0.1358622E-013  0.7246156E+02  0.7816164E-02  0.1226708E+00
        -11   -1    0    0    0    0  0.00000000000E+00  0.00000000000E+00  0.45593999997E+02  0.45594000000E+02  0.51100000000E-03 0.  1.
         11   -1    0    0    0    0 -0.00000000000E+00 -0.00000000000E+00 -0.45593999997E+02  0.45594000000E+02  0.51100000000E-03 0. -1.
    9900012    2    1    2    0    0 -0.36052992825E+01 -0.66206118484E+01 -0.17142023154E+02  0.72461557680E+02  0.69999983567E+02 0.  0.
        -12    1    1    2    0    0  0.36052992825E+01  0.66206118484E+01  0.17142023154E+02  0.18726442320E+02  0.00000000000E+00 0.  1.
         11    1    3    3    0    0 -0.68622300840E+01  0.13884035664E+02 -0.20572488168E+02  0.25750415875E+02  0.51100000000E-03 0. -1.
        -11    1    3    3    0    0  0.21114780516E+02 -0.25613162008E+01  0.15152187996E+01  0.21323465600E+02  0.51100000000E-03 0.  1.
         12    1    3    3    0    0 -0.17857849715E+02 -0.17943331312E+02  0.19152462148E+01  0.25387676204E+02  0.00000000000E+00 0. -1.
</event>
<event>
 7    1  0.1358622E-013  0.7246173E+02  0.7816164E-02  0.1226708E+00
        -11   -1    0    0    0    0  0.00000000000E+00  0.00000000000E+00  0.45593999997E+02  0.45594000000E+02  0.51100000000E-03 0. -1.
         11   -1    0    0    0    0 -0.00000000000E+00 -0.00000000000E+00 -0.45593999997E+02  0.45594000000E+02  0.51100000000E-03 0.  1.
    9900012    2    1    2    0    0  0.67485354450E+01 -0.78310080760E+01  0.15614280862E+02  0.72461730084E+02  0.70000208155E+02 0.  0.
        -12    1    1    2    0    0 -0.67485354450E+01  0.78310080760E+01 -0.15614280862E+02  0.18726269916E+02  0.00000000000E+00 0.  1.
         11    1    3    3    0    0 -0.29450594431E+01 -0.10222906972E+02 -0.72756624754E+01  0.12888617723E+02  0.51100000000E-03 0. -1.
        -11    1    3    3    0    0 -0.18829730948E+02  0.14153824467E+02  0.56274575698E+01  0.24218955254E+02  0.51100000000E-03 0.  1.
         12    1    3    3    0    0  0.28523325836E+02 -0.11761925571E+02  0.17262485768E+02  0.35354157107E+02  0.00000000000E+00 0. -1.
</event>
<event>
 7    1  0.1358622E-013  0.7246146E+02  0.7816164E-02  0.1226708E+00
        -11   -1    0    0    0    0  0.00000000000E+00  0.00000000000E+00  0.45593999997E+02  0.45594000000E+02  0.51100000000E-03 0.  1.
         11   -1    0    0    0    0 -0.00000000000E+00 -0.00000000000E+00 -0.45593999997E+02  0.45594000000E+02  0.51100000000E-03 0. -1.
    9900012    2    1    2    0    0 -0.44176428335E+01 -0.25313032655E+01 -0.18021109269E+02  0.72461456173E+02  0.69999851336E+02 0.  0.
        -12    1    1    2    0    0  0.44176428335E+01  0.25313032655E+01  0.18021109269E+02  0.18726543827E+02  0.00000000000E+00 0.  1.
         11    1    3    3    0    0 -0.17498821979E+02  0.11585465575E+02 -0.14817479275E+02  0.25690260325E+02  0.51100000000E-03 0. -1.
        -11    1    3    3    0    0 -0.12973938571E+02  0.38932636094E+01  0.43169752873E+01  0.14216780911E+02  0.51100000000E-03 0.  1.
         12    1    3    3    0    0  0.26055117717E+02 -0.18010032450E+02 -0.75206052810E+01  0.32554414937E+02  0.00000000000E+00 0. -1.
</event>
<event>
 7    1  0.2437260E-013  0.7246139E+02  0.7816164E-02  0.1226708E+00
        -11   -1    0    0    0    0  0.00000000000E+00  0.00000000000E+00  0.45593999997E+02  0.45594000000E+02  0.51100000000E-03 0. -1.
         11   -1    0    0    0    0 -0.00000000000E+00 -0.00000000000E+00 -0.45593999997E+02  0.45594000000E+02  0.51100000000E-03 0.  1.
    9900012    2    1    2    0    0  0.45460663112E+01 -0.17251796581E+01  0.18084325460E+02  0.72461393497E+02  0.69999769689E+02 0.  0.
        -12    1    1    2    0    0 -0.45460663112E+01  0.17251796581E+01 -0.18084325460E+02  0.18726606503E+02  0.00000000000E+00 0.  1.
         11    1    3    3    0    0 -0.12225615896E+02  0.10200947422E+02  0.26865975089E+02  0.31229883607E+02  0.51100000000E-03 0. -1.
        -11    1    3    3    0    0 -0.65151033406E+01 -0.41822767346E+01 -0.14132663984E+02  0.16114285643E+02  0.51100000000E-03 0.  1.
        -12    1    3    3    0    0  0.23286785548E+02 -0.77438503450E+01  0.53510143550E+01  0.25117224248E+02  0.00000000000E+00 0.  1.
</event>
<event>
 7    1  0.1358622E-013  0.7246158E+02  0.7816164E-02  0.1226708E+00
        -11   -1    0    0    0    0  0.00000000000E+00  0.00000000000E+00  0.45593999997E+02  0.45594000000E+02  0.51100000000E-03 0. -1.
         11   -1    0    0    0    0 -0.00000000000E+00 -0.00000000000E+00 -0.45593999997E+02  0.45594000000E+02  0.51100000000E-03 0.  1.
    9900012    2    1    2    0    0 -0.11545781923E+02 -0.13069329790E+02  0.68239561573E+01  0.72461579119E+02  0.70000011495E+02 0.  0.
        -12    1    1    2    0    0  0.11545781923E+02  0.13069329790E+02 -0.68239561573E+01  0.18726420881E+02  0.00000000000E+00 0.  1.
         11    1    3    3    0    0 -0.15053052625E+02  0.10329145249E+02  0.10718709901E+02  0.21170176596E+02  0.51100000000E-03 0. -1.
        -11    1    3    3    0    0  0.17445430457E+02 -0.14366104668E+01  0.11614479244E+02  0.21007213566E+02  0.51100000000E-03 0.  1.
         12    1    3    3    0    0 -0.13938159756E+02 -0.21961864572E+02 -0.15509232988E+02  0.30284188956E+02  0.00000000000E+00 0. -1.
</event>
<event>
 7    1  0.1358622E-013  0.7246157E+02  0.7816164E-02  0.1226708E+00
        -11   -1    0    0    0    0  0.00000000000E+00  0.00000000000E+00  0.45593999997E+02  0.45594000000E+02  0.51100000000E-03 0. -1.
         11   -1    0    0    0    0 -0.00000000000E+00 -0.00000000000E+00 -0.45593999997E+02  0.45594000000E+02  0.51100000000E-03 0.  1.
    9900012    2    1    2    0    0  0.14185672619E+02  0.80535085383E+01  0.91971144137E+01  0.72461568920E+02  0.69999998210E+02 0.  0.
        -12    1    1    2    0    0 -0.14185672619E+02 -0.80535085383E+01 -0.91971144137E+01  0.18726431080E+02  0.00000000000E+00 0.  1.
         11    1    3    3    0    0 -0.21883891915E+01 -0.19253777185E+01 -0.70888607888E+00  0.29997743825E+01  0.51100000000E-03 0. -1.
        -11    1    3    3    0    0  0.13192677918E+02 -0.25725767003E+02  0.16088742311E+02  0.33086394000E+02  0.51100000000E-03 0.  1.
         12    1    3    3    0    0  0.31813838932E+01  0.35704653260E+02 -0.61827418184E+01  0.36375400538E+02  0.00000000000E+00 0. -1.
</event>
<event>
 7    1  0.1358622E-013  0.7246155E+02  0.7816164E-02  0.1226708E+00
        -11   -1    0    0    0    0  0.00000000000E+00  0.00000000000E+00  0.45593999997E+02  0.45594000000E+02  0.51100000000E-03 0.  1.
         11   -1    0    0    0    0 -0.00000000000E+00 -0.00000000000E+00 -0.45593999997E+02  0.45594000000E+02  0.51100000000E-03 0. -1.
    9900012    2    1    2    0    0 -0.96499064543E+01  0.15314151123E+02  0.47995933575E+01  0.72461547704E+02  0.69999970572E+02 0.  0.
        -12    1    1    2    0    0  0.96499064543E+01 -0.15314151123E+02 -0.47995933575E+01  0.18726452296E+02  0.00000000000E+00 0.  1.
         11    1    3    3    0    0  0.69779096039E+01  0.12266733936E+02 -0.47007299502E+01  0.14874839368E+02  0.51100000000E-03 0. -1.
        -11    1    3    3    0    0  0.40482141569E+01 -0.22986824993E+02  0.14813606708E+01  0.23387530670E+02  0.51100000000E-03 0.  1.
         12    1    3    3    0    0 -0.20676030215E+02  0.26034242180E+02  0.80189626369E+01  0.34199177667E+02  0.00000000000E+00 0. -1.
</event>
<event>
 7    1  0.1358622E-013  0.7246154E+02  0.7816164E-02  0.1226708E+00
        -11   -1    0    0    0    0  0.00000000000E+00  0.00000000000E+00  0.45593999997E+02  0.45594000000E+02  0.51100000000E-03 0. -1.
         11   -1    0    0    0    0 -0.00000000000E+00 -0.00000000000E+00 -0.45593999997E+02  0.45594000000E+02  0.51100000000E-03 0.  1.
    9900012    2    1    2    0    0 -0.14769086584E+02 -0.98428646675E+01  0.59726479677E+01  0.72461536716E+02  0.69999956258E+02 0.  0.
        -12    1    1    2    0    0  0.14769086584E+02  0.98428646675E+01 -0.59726479677E+01  0.18726463284E+02  0.00000000000E+00 0.  1.
         11    1    3    3    0    0  0.21584632810E+02 -0.35408458916E+01  0.63695469741E+01  0.22781683258E+02  0.51100000000E-03 0. -1.
        -11    1    3    3    0    0 -0.10621860671E+02  0.13504693253E+02 -0.88420713454E+00  0.17204141550E+02  0.51100000000E-03 0.  1.
        -12    1    3    3    0    0 -0.25731858723E+02 -0.19806712029E+02  0.48730812817E+00  0.32475711908E+02  0.00000000000E+00 0.  1.
</event>
<event>
 7    1  0.1358622E-013  0.7246158E+02  0.7816164E-02  0.1226708E+00
        -11   -1    0    0    0    0  0.00000000000E+00  0.00000000000E+00  0.45593999997E+02  0.45594000000E+02  0.51100000000E-03 0.  1.
         11   -1    0    0    0    0 -0.00000000000E+00 -0.00000000000E+00 -0.45593999997E+02  0.45594000000E+02  0.51100000000E-03 0. -1.
    9900012    2    1    2    0    0 -0.22381486977E+01  0.11819311746E+02 -0.14351769251E+02  0.72461582287E+02  0.70000015622E+02 0.  0.
        -12    1    1    2    0    0  0.22381486977E+01 -0.11819311746E+02  0.14351769251E+02  0.18726417713E+02  0.00000000000E+00 0.  1.
         11    1    3    3    0    0  0.72842052644E+01 -0.13623974245E+02  0.17060420002E+02  0.23015869557E+02  0.51100000000E-03 0. -1.
        -11    1    3    3    0    0 -0.35294256190E+01  0.35027787753E+01  0.46514755749E+01  0.68090035713E+01  0.51100000000E-03 0.  1.
         12    1    3    3    0    0 -0.59929283431E+01  0.21940507216E+02 -0.36063664828E+02  0.42636709158E+02  0.00000000000E+00 0. -1.
</event>
<event>
 7    1  0.1358622E-013  0.7246159E+02  0.7816164E-02  0.1226708E+00
        -11   -1    0    0    0    0  0.00000000000E+00  0.00000000000E+00  0.45593999997E+02  0.45594000000E+02  0.51100000000E-03 0. -1.
         11   -1    0    0    0    0 -0.00000000000E+00 -0.00000000000E+00 -0.45593999997E+02  0.45594000000E+02  0.51100000000E-03 0.  1.
    9900012    2    1    2    0    0  0.16747624946E+02 -0.82629713693E+01  0.13852054682E+01  0.72461590004E+02  0.70000025675E+02 0.  0.
        -12    1    1    2    0    0 -0.16747624946E+02  0.82629713693E+01 -0.13852054682E+01  0.18726409996E+02  0.00000000000E+00 0.  1.
         11    1    3    3    0    0 -0.19215116682E+02 -0.62142363258E+01  0.62440217023E+01  0.21138241400E+02  0.51100000000E-03 0. -1.
        -11    1    3    3    0    0  0.12195516652E+02  0.16789965403E+02 -0.25490708999E+01  0.20907685844E+02  0.51100000000E-03 0.  1.
        -12    1    3    3    0    0  0.23767224976E+02 -0.18838700447E+02 -0.23097453342E+01  0.30415662759E+02  0.00000000000E+00 0.  1.
</event>
<event>
 7    1  0.1358622E-013  0.7246170E+02  0.7816164E-02  0.1226708E+00
        -11   -1    0    0    0    0  0.00000000000E+00  0.00000000000E+00  0.45593999997E+02  0.45594000000E+02  0.51100000000E-03 0. -1.
         11   -1    0    0    0    0 -0.00000000000E+00 -0.00000000000E+00 -0.45593999997E+02  0.45594000000E+02  0.51100000000E-03 0.  1.
    9900012    2    1    2    0    0  0.31714805171E+01  0.18327855753E+02  0.21692919591E+01  0.72461697301E+02  0.70000165449E+02 0.  0.
        -12    1    1    2    0    0 -0.31714805171E+01 -0.18327855753E+02 -0.21692919591E+01  0.18726302699E+02  0.00000000000E+00 0.  1.
         11    1    3    3    0    0 -0.32373731617E+01  0.15828459179E+02  0.11196068894E+02  0.19656364463E+02  0.51100000000E-03 0. -1.
        -11    1    3    3    0    0 -0.81902839307E+01  0.33896005447E+01 -0.27701217889E+02  0.29084834803E+02  0.51100000000E-03 0.  1.
         12    1    3    3    0    0  0.14599137609E+02 -0.89020397072E+00  0.18674440954E+02  0.23720498035E+02  0.00000000000E+00 0. -1.
</event>
<event>
 7    1  0.1358622E-013  0.7246158E+02  0.7816164E-02  0.1226708E+00
        -11   -1    0    0    0    0  0.00000000000E+00  0.00000000000E+00  0.45593999997E+02  0.45594000000E+02  0.51100000000E-03 0.  1.
         11   -1    0    0    0    0 -0.00000000000E+00 -0.00000000000E+00 -0.45593999997E+02  0.45594000000E+02  0.51100000000E-03 0. -1.
    9900012    2    1    2    0    0 -0.13545560098E+02  0.11789356304E+02 -0.53111002564E+01  0.72461577321E+02  0.70000009154E+02 0.  0.
        -12    1    1    2    0    0  0.13545560098E+02 -0.11789356304E+02  0.53111002564E+01  0.18726422679E+02  0.00000000000E+00 0.  1.
         11    1    3    3    0    0  0.14591402147E+01 -0.49356764641E+01  0.11871549174E+02  0.12939229976E+02  0.51100000000E-03 0. -1.
        -11    1    3    3    0    0 -0.20309884115E+02  0.24066770622E+02  0.82255887517E+01  0.32547828676E+02  0.51100000000E-03 0.  1.
         12    1    3    3    0    0  0.53051838028E+01 -0.73417378547E+01 -0.25408238182E+02  0.26974518669E+02  0.00000000000E+00 0. -1.
</event>
<event>
 7    1  0.1358622E-013  0.7246156E+02  0.7816164E-02  0.1226708E+00
        -11   -1    0    0    0    0  0.00000000000E+00  0.00000000000E+00  0.45593999997E+02  0.45594000000E+02  0.51100000000E-03 0.  1.
         11   -1    0    0    0    0 -0.00000000000E+00 -0.00000000000E+00 -0.45593999997E+02  0.45594000000E+02  0.51100000000E-03 0. -1.
    9900012    2    1    2    0    0 -0.47360544049E+00 -0.11376867873E+02 -0.14866814132E+02  0.72461559144E+02  0.69999985474E+02 0.  0.
        -12    1    1    2    0    0  0.47360544049E+00  0.11376867873E+02  0.14866814132E+02  0.18726440856E+02  0.00000000000E+00 0.  1.
         11    1    3    3    0    0  0.18162158029E+02 -0.91019698802E+01 -0.21618800127E+02  0.29666182080E+02  0.51100000000E-03 0. -1.
        -11    1    3    3    0    0 -0.21528371994E+02 -0.14589331213E+02  0.12555078190E+02  0.28878181635E+02  0.51100000000E-03 0.  1.
         12    1    3    3    0    0  0.28926085236E+01  0.12314433220E+02 -0.58030921941E+01  0.13917195429E+02  0.00000000000E+00 0. -1.
</event>
<event>
 7    1  0.1358622E-013  0.7246167E+02  0.7816164E-02  0.1226708E+00
        -11   -1    0    0    0    0  0.00000000000E+00  0.00000000000E+00  0.45593999997E+02  0.45594000000E+02  0.51100000000E-03 0.  1.
         11   -1    0    0    0    0 -0.00000000000E+00 -0.00000000000E+00 -0.45593999997E+02  0.45594000000E+02  0.51100000000E-03 0. -1.
    9900012    2    1    2    0    0  0.99516463907E+01 -0.14792350070E+02 -0.57294484544E+01  0.72461669178E+02  0.70000128814E+02 0.  0.
        -12    1    1    2    0    0 -0.99516463907E+01  0.14792350070E+02  0.57294484544E+01  0.18726330822E+02  0.00000000000E+00 0.  1.
         11    1    3    3    0    0 -0.48846200462E+01 -0.26519226605E+02  0.80764927882E+01  0.28148865496E+02  0.51100000000E-03 0. -1.
        -11    1    3    3    0    0 -0.25317470195E+00 -0.90994795519E+01  0.67962118773E+01  0.11360155003E+02  0.51100000000E-03 0.  1.
        -12    1    3    3    0    0  0.15089441139E+02  0.20826356087E+02 -0.20602153120E+02  0.32952648678E+02  0.00000000000E+00 0.  1.
</event>
<event>
 7    1  0.1358622E-013  0.7246166E+02  0.7816164E-02  0.1226708E+00
        -11   -1    0    0    0    0  0.00000000000E+00  0.00000000000E+00  0.45593999997E+02  0.45594000000E+02  0.51100000000E-03 0. -1.
         11   -1    0    0    0    0 -0.00000000000E+00 -0.00000000000E+00 -0.45593999997E+02  0.45594000000E+02  0.51100000000E-03 0.  1.
    9900012    2    1    2    0    0  0.85527860819E+01 -0.12296900061E+02  0.11238849056E+02  0.72461664828E+02  0.70000123148E+02 0.  0.
        -12    1    1    2    0    0 -0.85527860819E+01  0.12296900061E+02 -0.11238849056E+02  0.18726335172E+02  0.00000000000E+00 0.  1.
         11    1    3    3    0    0 -0.63602453407E+01  0.44636444246E+01  0.14141779755E+02  0.16135884768E+02  0.51100000000E-03 0. -1.
        -11    1    3    3    0    0  0.42251733854E+00  0.11896620118E+02  0.15321412479E+02  0.19402416647E+02  0.51100000000E-03 0.  1.
         12    1    3    3    0    0  0.14490514084E+02 -0.28657164604E+02 -0.18224343177E+02  0.36923363414E+02  0.00000000000E+00 0. -1.
</event>
<event>
 7    1  0.1358622E-013  0.7246143E+02  0.7816164E-02  0.1226708E+00
        -11   -1    0    0    0    0  0.00000000000E+00  0.00000000000E+00  0.45593999997E+02  0.45594000000E+02  0.51100000000E-03 0.  1.
         11   -1    0    0    0    0 -0.00000000000E+00 -0.00000000000E+00 -0.45593999997E+02  0.45594000000E+02  0.51100000000E-03 0. -1.
    9900012    2    1    2    0    0  0.16743274366E+02 -0.35814160840E+01 -0.75842423024E+01  0.72461427731E+02  0.69999814284E+02 0.  0.
        -12    1    1    2    0    0 -0.16743274366E+02  0.35814160840E+01  0.75842423024E+01  0.18726572269E+02  0.00000000000E+00 0.  1.
         11    1    3    3    0    0 -0.20491546086E+02  0.28595551375E+01 -0.70773356756E+00  0.20702207700E+02  0.51100000000E-03 0.  1.
        -11    1    3    3    0    0  0.18472188267E+02  0.81324485530E+01  0.10090591595E+02  0.22564983887E+02  0.51100000000E-03 0. -1.
        -12    1    3    3    0    0  0.18762632185E+02 -0.14573419775E+02 -0.16967100329E+02  0.29194236144E+02  0.00000000000E+00 0.  1.
</event>
<event>
 7    1  0.1358622E-013  0.7246158E+02  0.7816164E-02  0.1226708E+00
        -11   -1    0    0    0    0  0.00000000000E+00  0.00000000000E+00  0.45593999997E+02  0.45594000000E+02  0.51100000000E-03 0.  1.
         11   -1    0    0    0    0 -0.00000000000E+00 -0.00000000000E+00 -0.45593999997E+02  0.45594000000E+02  0.51100000000E-03 0. -1.
    9900012    2    1    2    0    0 -0.41847540465E+00 -0.13501536521E+02 -0.12969667483E+02  0.72461577898E+02  0.70000009906E+02 0.  0.
        -12    1    1    2    0    0  0.41847540465E+00  0.13501536521E+02  0.12969667483E+02  0.18726422102E+02  0.00000000000E+00 0.  1.
         11    1    3    3    0    0 -0.58217305017E+00 -0.25873303662E+01 -0.70204652929E-02  0.26520281733E+01  0.51100000000E-03 0. -1.
        -11    1    3    3    0    0  0.14230779237E+02 -0.35539981463E+02  0.78820827721E+00  0.38291338872E+02  0.51100000000E-03 0.  1.
         12    1    3    3    0    0 -0.14067081591E+02  0.24625775308E+02 -0.13750855295E+02  0.31518210853E+02  0.00000000000E+00 0. -1.
</event>
<event>
 7    1  0.1358622E-013  0.7246150E+02  0.7816164E-02  0.1226708E+00
        -11   -1    0    0    0    0  0.00000000000E+00  0.00000000000E+00  0.45593999997E+02  0.45594000000E+02  0.51100000000E-03 0.  1.
         11   -1    0    0    0    0 -0.00000000000E+00 -0.00000000000E+00 -0.45593999997E+02  0.45594000000E+02  0.51100000000E-03 0. -1.
    9900012    2    1    2    0    0 -0.18188710117E+02 -0.39350452371E+01  0.20899865196E+01  0.72461500049E+02  0.69999908493E+02 0.  0.
        -12    1    1    2    0    0  0.18188710117E+02  0.39350452371E+01 -0.20899865196E+01  0.18726499951E+02  0.00000000000E+00 0.  1.
         11    1    3    3    0    0  0.55050982711E+01 -0.26169196020E+02  0.15925595259E+02  0.31124869669E+02  0.51100000000E-03 0. -1.
        -11    1    3    3    0    0  0.98118240441E+00  0.87747273452E+01 -0.93741215546E+01  0.12877605137E+02  0.51100000000E-03 0.  1.
        -12    1    3    3    0    0 -0.24674990793E+02  0.13459423437E+02 -0.44614871851E+01  0.28459025243E+02  0.00000000000E+00 0.  1.
</event>
<event>
 7    1  0.1358622E-013  0.7246157E+02  0.7816164E-02  0.1226708E+00
        -11   -1    0    0    0    0  0.00000000000E+00  0.00000000000E+00  0.45593999997E+02  0.45594000000E+02  0.51100000000E-03 0.  1.
         11   -1    0    0    0    0 -0.00000000000E+00 -0.00000000000E+00 -0.45593999997E+02  0.45594000000E+02  0.51100000000E-03 0. -1.
    9900012    2    1    2    0    0  0.20249966973E+01  0.14054556640E+01 -0.18563490226E+02  0.72461572508E+02  0.70000002884E+02 0.  0.
        -12    1    1    2    0    0 -0.20249966973E+01 -0.14054556640E+01  0.18563490226E+02  0.18726427492E+02  0.00000000000E+00 0.  1.
         11    1    3    3    0    0 -0.15633196067E+02  0.18196565208E+02 -0.68507687528E+01  0.24948844410E+02  0.51100000000E-03 0. -1.
        -11    1    3    3    0    0  0.13992119004E+02  0.10897110143E+02 -0.15939418198E+01  0.17806376793E+02  0.51100000000E-03 0.  1.
        -12    1    3    3    0    0  0.36660737600E+01 -0.27688219687E+02 -0.10118779653E+02  0.29706351306E+02  0.00000000000E+00 0.  1.
</event>
<event>
 7    1  0.1358622E-013  0.7246157E+02  0.7816164E-02  0.1226708E+00
        -11   -1    0    0    0    0  0.00000000000E+00  0.00000000000E+00  0.45593999997E+02  0.45594000000E+02  0.51100000000E-03 0.  1.
         11   -1    0    0    0    0 -0.00000000000E+00 -0.00000000000E+00 -0.45593999997E+02  0.45594000000E+02  0.51100000000E-03 0. -1.
    9900012    2    1    2    0    0  0.16864937807E+02  0.67252824672E+01 -0.45851464400E+01  0.72461571633E+02  0.70000001744E+02 0.  0.
        -12    1    1    2    0    0 -0.16864937807E+02 -0.67252824672E+01  0.45851464400E+01  0.18726428367E+02  0.00000000000E+00 0.  1.
         11    1    3    3    0    0  0.46748062302E+01  0.11608017278E+02 -0.13499256808E+02  0.18407330416E+02  0.51100000000E-03 0. -1.
        -11    1    3    3    0    0 -0.20070561181E+02  0.23175798702E+01  0.21842970488E+01  0.20321657325E+02  0.51100000000E-03 0.  1.
        -12    1    3    3    0    0  0.32260692758E+02 -0.72003146815E+01  0.67298133188E+01  0.33732583892E+02  0.00000000000E+00 0.  1.
</event>
<event>
 7    1  0.1358622E-013  0.7246164E+02  0.7816164E-02  0.1226708E+00
        -11   -1    0    0    0    0  0.00000000000E+00  0.00000000000E+00  0.45593999997E+02  0.45594000000E+02  0.51100000000E-03 0. -1.
         11   -1    0    0    0    0 -0.00000000000E+00 -0.00000000000E+00 -0.45593999997E+02  0.45594000000E+02  0.51100000000E-03 0.  1.
    9900012    2    1    2    0    0  0.89365399423E+01  0.16393736140E+02  0.14353285551E+01  0.72461641602E+02  0.70000092892E+02 0.  0.
        -12    1    1    2    0    0 -0.89365399423E+01 -0.16393736140E+02 -0.14353285551E+01  0.18726358398E+02  0.00000000000E+00 0.  1.
         11    1    3    3    0    0  0.22306625878E+02  0.24054796449E+02  0.82934389397E+01  0.33837847449E+02  0.51100000000E-03 0. -1.
        -11    1    3    3    0    0 -0.84117227488E+01  0.98422387629E+01  0.79272264304E+01  0.15181161438E+02  0.51100000000E-03 0.  1.
        -12    1    3    3    0    0 -0.49583631870E+01 -0.17503299072E+02 -0.14785336815E+02  0.23442632715E+02  0.00000000000E+00 0.  1.
</event>
<event>
 7    1  0.1358622E-013  0.7246159E+02  0.7816164E-02  0.1226708E+00
        -11   -1    0    0    0    0  0.00000000000E+00  0.00000000000E+00  0.45593999997E+02  0.45594000000E+02  0.51100000000E-03 0. -1.
         11   -1    0    0    0    0 -0.00000000000E+00 -0.00000000000E+00 -0.45593999997E+02  0.45594000000E+02  0.51100000000E-03 0.  1.
    9900012    2    1    2    0    0 -0.16968096650E+02 -0.57610726684E+01 -0.54380383992E+01  0.72461587534E+02  0.70000022458E+02 0.  0.
        -12    1    1    2    0    0  0.16968096650E+02  0.57610726684E+01  0.54380383992E+01  0.18726412466E+02  0.00000000000E+00 0.  1.
         11    1    3    3    0    0 -0.14755156697E+02 -0.21766957270E+02  0.12352949330E+02  0.29053578702E+02  0.51100000000E-03 0. -1.
        -11    1    3    3    0    0  0.11839621613E+02 -0.56497153068E+01 -0.98301913929E+01  0.16392943179E+02  0.51100000000E-03 0.  1.
        -12    1    3    3    0    0 -0.14052561565E+02  0.21655599909E+02 -0.79607963364E+01  0.27015065654E+02  0.00000000000E+00 0.  1.
</event>
<event>
 7    1  0.1358622E-013  0.7246156E+02  0.7816164E-02  0.1226708E+00
        -11   -1    0    0    0    0  0.00000000000E+00  0.00000000000E+00  0.45593999997E+02  0.45594000000E+02  0.51100000000E-03 0. -1.
         11   -1    0    0    0    0 -0.00000000000E+00 -0.00000000000E+00 -0.45593999997E+02  0.45594000000E+02  0.51100000000E-03 0.  1.
    9900012    2    1    2    0    0 -0.23220668438E+01 -0.10265801723E+02  0.15488729601E+02  0.72461563497E+02  0.69999991146E+02 0.  0.
        -12    1    1    2    0    0  0.23220668438E+01  0.10265801723E+02 -0.15488729601E+02  0.18726436503E+02  0.00000000000E+00 0.  1.
         11    1    3    3    0    0  0.55819352771E+01  0.17757444833E+02  0.19258913525E+02  0.26784148276E+02  0.51100000000E-03 0. -1.
        -11    1    3    3    0    0 -0.55165701100E+00  0.72561287232E+01  0.46936840191E+01  0.86594687734E+01  0.51100000000E-03 0.  1.
        -12    1    3    3    0    0 -0.73523451099E+01 -0.35279375279E+02 -0.84638679433E+01  0.37017946448E+02  0.00000000000E+00 0.  1.
</event>
<event>
 7    1  0.1358622E-013  0.7246168E+02  0.7816164E-02  0.1226708E+00
        -11   -1    0    0    0    0  0.00000000000E+00  0.00000000000E+00  0.45593999997E+02  0.45594000000E+02  0.51100000000E-03 0. -1.
         11   -1    0    0    0    0 -0.00000000000E+00 -0.00000000000E+00 -0.45593999997E+02  0.45594000000E+02  0.51100000000E-03 0.  1.
    9900012    2    1    2    0    0 -0.47175277755E+01 -0.12731474392E+02 -0.12896882104E+02  0.72461679579E+02  0.70000142363E+02 0.  0.
        -12    1    1    2    0    0  0.47175277755E+01  0.12731474392E+02  0.12896882104E+02  0.18726320421E+02  0.00000000000E+00 0.  1.
         11    1    3    3    0    0  0.10932548600E+02 -0.75444586034E+01  0.61910034555E+01  0.14654964980E+02  0.51100000000E-03 0. -1.
        -11    1    3    3    0    0  0.96154204514E+01  0.10615295952E+02  0.89506621479E+01  0.16889498860E+02  0.51100000000E-03 0.  1.
        -12    1    3    3    0    0 -0.25265496827E+02 -0.15802311741E+02 -0.28038547708E+02  0.40917215739E+02  0.00000000000E+00 0.  1.
</event>
<event>
 7    1  0.1358622E-013  0.7246134E+02  0.7816164E-02  0.1226709E+00
        -11   -1    0    0    0    0  0.00000000000E+00  0.00000000000E+00  0.45593999997E+02  0.45594000000E+02  0.51100000000E-03 0.  1.
         11   -1    0    0    0    0 -0.00000000000E+00 -0.00000000000E+00 -0.45593999997E+02  0.45594000000E+02  0.51100000000E-03 0. -1.
    9900012    2    1    2    0    0 -0.79255399631E+01 -0.17590931893E+01 -0.16875400932E+02  0.72461341217E+02  0.69999701584E+02 0.  0.
        -12    1    1    2    0    0  0.79255399631E+01  0.17590931893E+01  0.16875400932E+02  0.18726658783E+02  0.00000000000E+00 0.  1.
         11    1    3    3    0    0  0.96791769707E+01 -0.10883120890E+02  0.83913761870E+01  0.16809044640E+02  0.51100000000E-03 0. -1.
        -11    1    3    3    0    0  0.85840677702E+01 -0.62961823504E+01 -0.22797756633E+02  0.25160799658E+02  0.51100000000E-03 0.  1.
        -12    1    3    3    0    0 -0.26188784704E+02  0.15420210051E+02 -0.24690204860E+01  0.30491496920E+02  0.00000000000E+00 0.  1.
</event>
<event>
 7    1  0.1358622E-013  0.7246143E+02  0.7816164E-02  0.1226708E+00
        -11   -1    0    0    0    0  0.00000000000E+00  0.00000000000E+00  0.45593999997E+02  0.45594000000E+02  0.51100000000E-03 0.  1.
         11   -1    0    0    0    0 -0.00000000000E+00 -0.00000000000E+00 -0.45593999997E+02  0.45594000000E+02  0.51100000000E-03 0. -1.
    9900012    2    1    2    0    0  0.90686730723E+00 -0.13441984797E+02 -0.13006730773E+02  0.72461430399E+02  0.69999817761E+02 0.  0.
        -12    1    1    2    0    0 -0.90686730723E+00  0.13441984797E+02  0.13006730773E+02  0.18726569601E+02  0.00000000000E+00 0.  1.
         11    1    3    3    0    0  0.65053547462E+01  0.44928485571E+01  0.54105823224E+01  0.95801737907E+01  0.51100000000E-03 0. -1.
        -11    1    3    3    0    0  0.14261799117E+02  0.14572039939E+02  0.39930924494E+00  0.20393692902E+02  0.51100000000E-03 0.  1.
         12    1    3    3    0    0 -0.19860286556E+02 -0.32506873294E+02 -0.18816622341E+02  0.42487563707E+02  0.00000000000E+00 0. -1.
</event>
<event>
 7    1  0.1358622E-013  0.7246157E+02  0.7816164E-02  0.1226708E+00
        -11   -1    0    0    0    0  0.00000000000E+00  0.00000000000E+00  0.45593999997E+02  0.45594000000E+02  0.51100000000E-03 0. -1.
         11   -1    0    0    0    0 -0.00000000000E+00 -0.00000000000E+00 -0.45593999997E+02  0.45594000000E+02  0.51100000000E-03 0.  1.
    9900012    2    1    2    0    0 -0.12440379221E+02 -0.12663789126E+02  0.59619140338E+01  0.72461574577E+02  0.70000005579E+02 0.  0.
        -12    1    1    2    0    0  0.12440379221E+02  0.12663789126E+02 -0.59619140338E+01  0.18726425423E+02  0.00000000000E+00 0.  1.
         11    1    3    3    0    0  0.15263132386E+02  0.30698424752E+01  0.54868555954E+00  0.15578453042E+02  0.51100000000E-03 0. -1.
        -11    1    3    3    0    0  0.78557419068E+01  0.98804683111E+01 -0.66112692083E+00  0.12640151266E+02  0.51100000000E-03 0.  1.
         12    1    3    3    0    0 -0.35559253514E+02 -0.25614099913E+02  0.60743553951E+01  0.44242970269E+02  0.00000000000E+00 0. -1.
</event>
<event>
 7    1  0.1358622E-013  0.7246157E+02  0.7816164E-02  0.1226708E+00
        -11   -1    0    0    0    0  0.00000000000E+00  0.00000000000E+00  0.45593999997E+02  0.45594000000E+02  0.51100000000E-03 0. -1.
         11   -1    0    0    0    0 -0.00000000000E+00 -0.00000000000E+00 -0.45593999997E+02  0.45594000000E+02  0.51100000000E-03 0.  1.
    9900012    2    1    2    0    0  0.81740878155E+01 -0.16729066208E+02  0.20004387173E+01  0.72461571540E+02  0.70000001623E+02 0.  0.
        -12    1    1    2    0    0 -0.81740878155E+01  0.16729066208E+02 -0.20004387173E+01  0.18726428460E+02  0.00000000000E+00 0.  1.
         11    1    3    3    0    0 -0.23703022904E+01  0.39566556295E+01 -0.84855145687E+01  0.96580233213E+01  0.51100000000E-03 0. -1.
        -11    1    3    3    0    0 -0.14458834905E+02  0.11657395588E+02  0.11617592125E+02  0.21907104459E+02  0.51100000000E-03 0.  1.
         12    1    3    3    0    0  0.25003225011E+02 -0.32343117426E+02 -0.11316388389E+01  0.40896443760E+02  0.00000000000E+00 0. -1.
</event>
<event>
 7    1  0.1358622E-013  0.7246157E+02  0.7816164E-02  0.1226708E+00
        -11   -1    0    0    0    0  0.00000000000E+00  0.00000000000E+00  0.45593999997E+02  0.45594000000E+02  0.51100000000E-03 0.  1.
         11   -1    0    0    0    0 -0.00000000000E+00 -0.00000000000E+00 -0.45593999997E+02  0.45594000000E+02  0.51100000000E-03 0. -1.
    9900012    2    1    2    0    0  0.65951608517E+01 -0.10941553149E+02 -0.13691796326E+02  0.72461574324E+02  0.70000005249E+02 0.  0.
        -12    1    1    2    0    0 -0.65951608517E+01  0.10941553149E+02  0.13691796326E+02  0.18726425676E+02  0.00000000000E+00 0.  1.
         11    1    3    3    0    0 -0.50496589360E+01  0.22288847366E+02 -0.70664081665E+01  0.23921243632E+02  0.51100000000E-03 0. -1.
        -11    1    3    3    0    0 -0.87120608057E+01 -0.11974140950E+02 -0.11446380637E+02  0.18716294636E+02  0.51100000000E-03 0.  1.
        -12    1    3    3    0    0  0.20356880593E+02 -0.21256259565E+02  0.48209924771E+01  0.29824036056E+02  0.00000000000E+00 0.  1.
</event>
<event>
 7    1  0.1358622E-013  0.7246162E+02  0.7816164E-02  0.1226708E+00
        -11   -1    0    0    0    0  0.00000000000E+00  0.00000000000E+00  0.45593999997E+02  0.45594000000E+02  0.51100000000E-03 0. -1.
         11   -1    0    0    0    0 -0.00000000000E+00 -0.00000000000E+00 -0.45593999997E+02  0.45594000000E+02  0.51100000000E-03 0.  1.
    9900012    2    1    2    0    0  0.54927522676E+01  0.13756344970E+02  0.11457311373E+02  0.72461619188E+02  0.70000063693E+02 0.  0.
        -12    1    1    2    0    0 -0.54927522676E+01 -0.13756344970E+02 -0.11457311373E+02  0.18726380812E+02  0.00000000000E+00 0.  1.
         11    1    3    3    0    0  0.31757132321E+01  0.11845033411E+02  0.59666662804E+01  0.13637854589E+02  0.51100000000E-03 0. -1.
        -11    1    3    3    0    0  0.66004633920E+01  0.97173031871E+01  0.30282688853E+02  0.32481276802E+02  0.51100000000E-03 0.  1.
        -12    1    3    3    0    0 -0.42834243564E+01 -0.78059916277E+01 -0.24792043761E+02  0.26342487797E+02  0.00000000000E+00 0.  1.
</event>
<event>
 7    1  0.1358622E-013  0.7246157E+02  0.7816164E-02  0.1226708E+00
        -11   -1    0    0    0    0  0.00000000000E+00  0.00000000000E+00  0.45593999997E+02  0.45594000000E+02  0.51100000000E-03 0.  1.
         11   -1    0    0    0    0 -0.00000000000E+00 -0.00000000000E+00 -0.45593999997E+02  0.45594000000E+02  0.51100000000E-03 0. -1.
    9900012    2    1    2    0    0  0.36853222427E+01 -0.51397513442E+01 -0.17626133213E+02  0.72461569055E+02  0.69999998385E+02 0.  0.
        -12    1    1    2    0    0 -0.36853222427E+01  0.51397513442E+01  0.17626133213E+02  0.18726430945E+02  0.00000000000E+00 0.  1.
         11    1    3    3    0    0 -0.90128626654E+01 -0.82152188787E+01 -0.87353169271E+01  0.15000909197E+02  0.51100000000E-03 0. -1.
        -11    1    3    3    0    0 -0.16467600777E+02 -0.15131223217E+02 -0.27076037268E+01  0.22527026204E+02  0.51100000000E-03 0.  1.
         12    1    3    3    0    0  0.29165785685E+02  0.18206690752E+02 -0.61832125590E+01  0.34933633654E+02  0.00000000000E+00 0. -1.
</event>
<event>
 7    1  0.1358622E-013  0.7246155E+02  0.7816164E-02  0.1226708E+00
        -11   -1    0    0    0    0  0.00000000000E+00  0.00000000000E+00  0.45593999997E+02  0.45594000000E+02  0.51100000000E-03 0. -1.
         11   -1    0    0    0    0 -0.00000000000E+00 -0.00000000000E+00 -0.45593999997E+02  0.45594000000E+02  0.51100000000E-03 0.  1.
    9900012    2    1    2    0    0  0.73619696984E+01  0.15967333953E+02  0.64440299311E+01  0.72461551507E+02  0.69999975526E+02 0.  0.
        -12    1    1    2    0    0 -0.73619696984E+01 -0.15967333953E+02 -0.64440299311E+01  0.18726448493E+02  0.00000000000E+00 0.  1.
         11    1    3    3    0    0 -0.15097221026E+02 -0.33813448226E+01  0.19588582052E+02  0.24961412672E+02  0.51100000000E-03 0. -1.
        -11    1    3    3    0    0  0.14248770568E+02 -0.28463501804E+01  0.72691513462E+01  0.16247145399E+02  0.51100000000E-03 0.  1.
        -12    1    3    3    0    0  0.82104201566E+01  0.22195028956E+02 -0.20413703467E+02  0.31252993436E+02  0.00000000000E+00 0.  1.
</event>
<event>
 7    1  0.1358622E-013  0.7246160E+02  0.7816164E-02  0.1226708E+00
        -11   -1    0    0    0    0  0.00000000000E+00  0.00000000000E+00  0.45593999997E+02  0.45594000000E+02  0.51100000000E-03 0.  1.
         11   -1    0    0    0    0 -0.00000000000E+00 -0.00000000000E+00 -0.45593999997E+02  0.45594000000E+02  0.51100000000E-03 0. -1.
    9900012    2    1    2    0    0  0.18013155097E+02 -0.79406560375E+00  0.50570454616E+01  0.72461601373E+02  0.70000040486E+02 0.  0.
        -12    1    1    2    0    0 -0.18013155097E+02  0.79406560375E+00 -0.50570454616E+01  0.18726398627E+02  0.00000000000E+00 0.  1.
         11    1    3    3    0    0  0.10101369089E+01 -0.44341928087E+01  0.40812182248E+01  0.61105470212E+01  0.51100000000E-03 0. -1.
        -11    1    3    3    0    0  0.76654046864E+01 -0.26599246372E+02 -0.14357960658E+02  0.31183799818E+02  0.51100000000E-03 0.  1.
         12    1    3    3    0    0  0.93376135015E+01  0.30239373577E+02  0.15333787895E+02  0.35167254534E+02  0.00000000000E+00 0. -1.
</event>
<event>
 7    1  0.1358622E-013  0.7246158E+02  0.7816164E-02  0.1226708E+00
        -11   -1    0    0    0    0  0.00000000000E+00  0.00000000000E+00  0.45593999997E+02  0.45594000000E+02  0.51100000000E-03 0.  1.
         11   -1    0    0    0    0 -0.00000000000E+00 -0.00000000000E+00 -0.45593999997E+02  0.45594000000E+02  0.51100000000E-03 0. -1.
    9900012    2    1    2    0    0 -0.14282116742E+02  0.11876891078E+02 -0.23747824222E+01  0.72461575037E+02  0.70000006179E+02 0.  0.
        -12    1    1    2    0    0  0.14282116742E+02 -0.11876891078E+02  0.23747824222E+01  0.18726424963E+02  0.00000000000E+00 0.  1.
         11    1    3    3    0    0  0.72879004117E+01  0.57787441502E+00 -0.47612799539E+01  0.87245182280E+01  0.51100000000E-03 0. -1.
        -11    1    3    3    0    0 -0.39723662798E+02  0.18144997092E+02  0.57417950091E+01  0.44047457540E+02  0.51100000000E-03 0.  1.
         12    1    3    3    0    0  0.18153645644E+02 -0.68459804288E+01 -0.33552974773E+01  0.19689599269E+02  0.00000000000E+00 0. -1.
</event>
<event>
 7    1  0.1358622E-013  0.7246160E+02  0.7816164E-02  0.1226708E+00
        -11   -1    0    0    0    0  0.00000000000E+00  0.00000000000E+00  0.45593999997E+02  0.45594000000E+02  0.51100000000E-03 0.  1.
         11   -1    0    0    0    0 -0.00000000000E+00 -0.00000000000E+00 -0.45593999997E+02  0.45594000000E+02  0.51100000000E-03 0. -1.
    9900012    2    1    2    0    0  0.35509488574E+01 -0.17170344183E+02 -0.65763313985E+01  0.72461599070E+02  0.70000037485E+02 0.  0.
        -12    1    1    2    0    0 -0.35509488574E+01  0.17170344183E+02  0.65763313985E+01  0.18726400930E+02  0.00000000000E+00 0.  1.
         11    1    3    3    0    0  0.16894278877E+02  0.70658092225E+01 -0.18685317605E+02  0.26162633908E+02  0.51100000000E-03 0. -1.
        -11    1    3    3    0    0  0.40011685633E+01 -0.20053945892E+00 -0.90394624203E+01  0.98874388522E+01  0.51100000000E-03 0.  1.
        -12    1    3    3    0    0 -0.17344498583E+02 -0.24035613946E+02  0.21148448626E+02  0.36411526309E+02  0.00000000000E+00 0.  1.
</event>
<event>
 7    1  0.1358622E-013  0.7246161E+02  0.7816164E-02  0.1226708E+00
        -11   -1    0    0    0    0  0.00000000000E+00  0.00000000000E+00  0.45593999997E+02  0.45594000000E+02  0.51100000000E-03 0.  1.
         11   -1    0    0    0    0 -0.00000000000E+00 -0.00000000000E+00 -0.45593999997E+02  0.45594000000E+02  0.51100000000E-03 0. -1.
    9900012    2    1    2    0    0 -0.97125281081E+01 -0.35226524429E+01 -0.15618426727E+02  0.72461613912E+02  0.70000056821E+02 0.  0.
        -12    1    1    2    0    0  0.97125281081E+01  0.35226524429E+01  0.15618426727E+02  0.18726386088E+02  0.00000000000E+00 0.  1.
         11    1    3    3    0    0 -0.12163595021E+02  0.15955305356E+00 -0.15554264049E+02  0.19746230815E+02  0.51100000000E-03 0. -1.
        -11    1    3    3    0    0  0.22577098895E+02 -0.99822443577E+01 -0.13076453778E+02  0.27935000279E+02  0.51100000000E-03 0.  1.
         12    1    3    3    0    0 -0.20126031981E+02  0.63000388612E+01  0.13012291100E+02  0.24780382819E+02  0.00000000000E+00 0. -1.
</event>
<event>
 7    1  0.1358622E-013  0.7246156E+02  0.7816164E-02  0.1226708E+00
        -11   -1    0    0    0    0  0.00000000000E+00  0.00000000000E+00  0.45593999997E+02  0.45594000000E+02  0.51100000000E-03 0. -1.
         11   -1    0    0    0    0 -0.00000000000E+00 -0.00000000000E+00 -0.45593999997E+02  0.45594000000E+02  0.51100000000E-03 0.  1.
    9900012    2    1    2    0    0 -0.14849839948E+02 -0.80642385219E+01  0.80703066692E+01  0.72461560425E+02  0.69999987144E+02 0.  0.
        -12    1    1    2    0    0  0.14849839948E+02  0.80642385219E+01 -0.80703066692E+01  0.18726439575E+02  0.00000000000E+00 0.  1.
         11    1    3    3    0    0 -0.18130358446E+01 -0.85453513350E+01  0.15535164835E+02  0.17822779669E+02  0.51100000000E-03 0. -1.
        -11    1    3    3    0    0  0.59871015174E+01  0.23505318613E+02 -0.30210301176E+01  0.24443240597E+02  0.51100000000E-03 0.  1.
         12    1    3    3    0    0 -0.19023905621E+02 -0.23024205800E+02 -0.44438280481E+01  0.30195540159E+02  0.00000000000E+00 0. -1.
</event>
<event>
 7    1  0.1358622E-013  0.7246164E+02  0.7816164E-02  0.1226708E+00
        -11   -1    0    0    0    0  0.00000000000E+00  0.00000000000E+00  0.45593999997E+02  0.45594000000E+02  0.51100000000E-03 0.  1.
         11   -1    0    0    0    0 -0.00000000000E+00 -0.00000000000E+00 -0.45593999997E+02  0.45594000000E+02  0.51100000000E-03 0. -1.
    9900012    2    1    2    0    0 -0.17045301825E+02 -0.12982375457E+01 -0.76451869149E+01  0.72461638420E+02  0.70000088747E+02 0.  0.
        -12    1    1    2    0    0  0.17045301825E+02  0.12982375457E+01  0.76451869149E+01  0.18726361580E+02  0.00000000000E+00 0.  1.
         11    1    3    3    0    0 -0.35094654434E+02 -0.98502471942E+01 -0.15991732977E+02  0.39804493006E+02  0.51100000000E-03 0. -1.
        -11    1    3    3    0    0  0.76595890169E+01 -0.80743295797E+01 -0.51605455272E+00  0.11141382977E+02  0.51100000000E-03 0.  1.
        -12    1    3    3    0    0  0.10389763591E+02  0.16626339228E+02  0.88626006148E+01  0.21515762438E+02  0.00000000000E+00 0.  1.
</event>
<event>
 7    1  0.1358622E-013  0.7246155E+02  0.7816164E-02  0.1226708E+00
        -11   -1    0    0    0    0  0.00000000000E+00  0.00000000000E+00  0.45593999997E+02  0.45594000000E+02  0.51100000000E-03 0. -1.
         11   -1    0    0    0    0 -0.00000000000E+00 -0.00000000000E+00 -0.45593999997E+02  0.45594000000E+02  0.51100000000E-03 0.  1.
    9900012    2    1    2    0    0 -0.17256479472E+00 -0.18527767974E+02  0.27151507381E+01  0.72461547900E+02  0.69999970828E+02 0.  0.
        -12    1    1    2    0    0  0.17256479472E+00  0.18527767974E+02 -0.27151507381E+01  0.18726452100E+02  0.00000000000E+00 0.  1.
         11    1    3    3    0    0 -0.24773682121E+02 -0.44084995940E+01  0.18533381192E+02  0.31251502574E+02  0.51100000000E-03 0. -1.
        -11    1    3    3    0    0  0.24733691004E+01 -0.78731060630E+00  0.65453443354E+01  0.70412318118E+01  0.51100000000E-03 0.  1.
        -12    1    3    3    0    0  0.22127748226E+02 -0.13331957774E+02 -0.22363574789E+02  0.34168813514E+02  0.00000000000E+00 0.  1.
</event>
<event>
 7    1  0.1358622E-013  0.7246152E+02  0.7816164E-02  0.1226708E+00
        -11   -1    0    0    0    0  0.00000000000E+00  0.00000000000E+00  0.45593999997E+02  0.45594000000E+02  0.51100000000E-03 0.  1.
         11   -1    0    0    0    0 -0.00000000000E+00 -0.00000000000E+00 -0.45593999997E+02  0.45594000000E+02  0.51100000000E-03 0. -1.
    9900012    2    1    2    0    0  0.16142496774E+02 -0.73040696263E+01  0.60622825374E+01  0.72461523963E+02  0.69999939644E+02 0.  0.
        -12    1    1    2    0    0 -0.16142496774E+02  0.73040696263E+01 -0.60622825374E+01  0.18726476037E+02  0.00000000000E+00 0.  1.
         11    1    3    3    0    0  0.22567706435E+02 -0.43371225953E+01 -0.10800999310E+02  0.25392392414E+02  0.51100000000E-03 0. -1.
        -11    1    3    3    0    0  0.71144125685E+01  0.95671226931E+00  0.28124804443E+02  0.29026449831E+02  0.51100000000E-03 0.  1.
         12    1    3    3    0    0 -0.13539622229E+02 -0.39236593004E+01 -0.11261522595E+02  0.18042681718E+02  0.00000000000E+00 0. -1.
</event>
<event>
 7    1  0.1358622E-013  0.7246149E+02  0.7816164E-02  0.1226708E+00
        -11   -1    0    0    0    0  0.00000000000E+00  0.00000000000E+00  0.45593999997E+02  0.45594000000E+02  0.51100000000E-03 0.  1.
         11   -1    0    0    0    0 -0.00000000000E+00 -0.00000000000E+00 -0.45593999997E+02  0.45594000000E+02  0.51100000000E-03 0. -1.
    9900012    2    1    2    0    0  0.39739815664E+01 -0.18224809359E+02 -0.16571505812E+01  0.72461485276E+02  0.69999889247E+02 0.  0.
        -12    1    1    2    0    0 -0.39739815664E+01  0.18224809359E+02  0.16571505812E+01  0.18726514724E+02  0.00000000000E+00 0.  1.
         11    1    3    3    0    0  0.84045661257E+01 -0.16076073644E+02 -0.29770232626E+02  0.34861778877E+02  0.51100000000E-03 0. -1.
        -11    1    3    3    0    0  0.52105365526E+01  0.63510495008E+01  0.19398185198E+01  0.84408777433E+01  0.51100000000E-03 0.  1.
        -12    1    3    3    0    0 -0.96411211120E+01 -0.84997852159E+01  0.26173263525E+02  0.29158828656E+02  0.00000000000E+00 0.  1.
</event>
<event>
 7    1  0.1358622E-013  0.7246091E+02  0.7816164E-02  0.1226710E+00
        -11   -1    0    0    0    0  0.00000000000E+00  0.00000000000E+00  0.45593999997E+02  0.45594000000E+02  0.51100000000E-03 0. -1.
         11   -1    0    0    0    0 -0.00000000000E+00 -0.00000000000E+00 -0.45593999997E+02  0.45594000000E+02  0.51100000000E-03 0.  1.
    9900012    2    1    2    0    0 -0.11318777545E+02 -0.36832458852E+00  0.14914870739E+02  0.72460913807E+02  0.69999144798E+02 0.  0.
        -12    1    1    2    0    0  0.11318777545E+02  0.36832458852E+00 -0.14914870739E+02  0.18727086193E+02  0.00000000000E+00 0.  1.
         11    1    3    3    0    0 -0.13774442576E+02  0.31629031330E+02  0.40019907858E+01  0.34729624554E+02  0.51100000000E-03 0.  1.
        -11    1    3    3    0    0  0.19240831002E+01 -0.92113302595E+01  0.11589853522E+02  0.14929012219E+02  0.51100000000E-03 0. -1.
        -12    1    3    3    0    0  0.53158193070E+00 -0.22786025659E+02 -0.67697356909E+00  0.22802277034E+02  0.00000000000E+00 0.  1.
</event>
<event>
 7    1  0.1358622E-013  0.7246157E+02  0.7816164E-02  0.1226708E+00
        -11   -1    0    0    0    0  0.00000000000E+00  0.00000000000E+00  0.45593999997E+02  0.45594000000E+02  0.51100000000E-03 0.  1.
         11   -1    0    0    0    0 -0.00000000000E+00 -0.00000000000E+00 -0.45593999997E+02  0.45594000000E+02  0.51100000000E-03 0. -1.
    9900012    2    1    2    0    0  0.12700034585E+02 -0.13534371835E+02  0.24917754955E+01  0.72461573631E+02  0.70000004347E+02 0.  0.
        -12    1    1    2    0    0 -0.12700034585E+02  0.13534371835E+02 -0.24917754955E+01  0.18726426369E+02  0.00000000000E+00 0.  1.
         11    1    3    3    0    0  0.46937652444E+01 -0.18075603494E+02  0.20730778313E+02  0.27902043717E+02  0.51100000000E-03 0. -1.
        -11    1    3    3    0    0  0.45909222594E+01 -0.12720793332E+02  0.58442325374E+01  0.14732623812E+02  0.51100000000E-03 0.  1.
         12    1    3    3    0    0  0.34153470815E+01  0.17262024990E+02 -0.24083235355E+02  0.29826906102E+02  0.00000000000E+00 0. -1.
</event>
<event>
 7    1  0.1358622E-013  0.7246158E+02  0.7816164E-02  0.1226708E+00
        -11   -1    0    0    0    0  0.00000000000E+00  0.00000000000E+00  0.45593999997E+02  0.45594000000E+02  0.51100000000E-03 0.  1.
         11   -1    0    0    0    0 -0.00000000000E+00 -0.00000000000E+00 -0.45593999997E+02  0.45594000000E+02  0.51100000000E-03 0. -1.
    9900012    2    1    2    0    0  0.10605201614E+02 -0.34070195744E+01 -0.15053265734E+02  0.72461577680E+02  0.70000009622E+02 0.  0.
        -12    1    1    2    0    0 -0.10605201614E+02  0.34070195744E+01  0.15053265734E+02  0.18726422320E+02  0.00000000000E+00 0.  1.
         11    1    3    3    0    0 -0.16181107298E+02 -0.40071930833E+01 -0.19388054223E+01  0.16782276262E+02  0.51100000000E-03 0. -1.
        -11    1    3    3    0    0  0.27022586795E+02 -0.71118047364E+00  0.12674597427E+02  0.29855843565E+02  0.51100000000E-03 0.  1.
         12    1    3    3    0    0 -0.23627788309E+00  0.13113539826E+01 -0.25789057738E+02  0.25823457854E+02  0.00000000000E+00 0. -1.
</event>
<event>
 7    1  0.1358622E-013  0.7246153E+02  0.7816164E-02  0.1226708E+00
        -11   -1    0    0    0    0  0.00000000000E+00  0.00000000000E+00  0.45593999997E+02  0.45594000000E+02  0.51100000000E-03 0. -1.
         11   -1    0    0    0    0 -0.00000000000E+00 -0.00000000000E+00 -0.45593999997E+02  0.45594000000E+02  0.51100000000E-03 0.  1.
    9900012    2    1    2    0    0 -0.14690134096E+02  0.10032181469E+02 -0.58511492960E+01  0.72461530689E+02  0.69999948407E+02 0.  0.
        -12    1    1    2    0    0  0.14690134096E+02 -0.10032181469E+02  0.58511492960E+01  0.18726469311E+02  0.00000000000E+00 0.  1.
         11    1    3    3    0    0  0.38395877058E+01 -0.11750240053E+02  0.18367949323E+02  0.22140283143E+02  0.51100000000E-03 0. -1.
        -11    1    3    3    0    0  0.23937618915E+01  0.77768967592E-01 -0.19690130728E+02  0.19835256296E+02  0.51100000000E-03 0.  1.
        -12    1    3    3    0    0 -0.20923483693E+02  0.21704652554E+02 -0.45289678915E+01  0.30485991250E+02  0.00000000000E+00 0.  1.
</event>
<event>
 7    1  0.1358622E-013  0.7246158E+02  0.7816164E-02  0.1226708E+00
        -11   -1    0    0    0    0  0.00000000000E+00  0.00000000000E+00  0.45593999997E+02  0.45594000000E+02  0.51100000000E-03 0. -1.
         11   -1    0    0    0    0 -0.00000000000E+00 -0.00000000000E+00 -0.45593999997E+02  0.45594000000E+02  0.51100000000E-03 0.  1.
    9900012    2    1    2    0    0  0.24174441611E+01 -0.14594719041E+02  0.11481686623E+02  0.72461575144E+02  0.70000006318E+02 0.  0.
        -12    1    1    2    0    0 -0.24174441611E+01  0.14594719041E+02 -0.11481686623E+02  0.18726424856E+02  0.00000000000E+00 0.  1.
         11    1    3    3    0    0 -0.61926880629E+01 -0.14791935411E+02  0.11652857264E+02  0.19822709737E+02  0.51100000000E-03 0. -1.
        -11    1    3    3    0    0  0.11476071242E+02  0.10279348575E+02  0.22726334839E+02  0.27456356528E+02  0.51100000000E-03 0.  1.
         12    1    3    3    0    0 -0.28659390183E+01 -0.10082132206E+02 -0.22897505480E+02  0.25182508879E+02  0.00000000000E+00 0. -1.
</event>
<event>
 7    1  0.1358622E-013  0.7246156E+02  0.7816164E-02  0.1226708E+00
        -11   -1    0    0    0    0  0.00000000000E+00  0.00000000000E+00  0.45593999997E+02  0.45594000000E+02  0.51100000000E-03 0. -1.
         11   -1    0    0    0    0 -0.00000000000E+00 -0.00000000000E+00 -0.45593999997E+02  0.45594000000E+02  0.51100000000E-03 0.  1.
    9900012    2    1    2    0    0  0.76658572778E+01 -0.15343184549E+02  0.75167021447E+01  0.72461561710E+02  0.69999988817E+02 0.  0.
        -12    1    1    2    0    0 -0.76658572778E+01  0.15343184549E+02 -0.75167021447E+01  0.18726438290E+02  0.00000000000E+00 0.  1.
         11    1    3    3    0    0 -0.76931855674E+00  0.12591471750E+01 -0.13773118636E+01  0.20184872754E+01  0.51100000000E-03 0. -1.
        -11    1    3    3    0    0  0.30457101817E+02 -0.11708690894E+02 -0.16425836545E+02  0.36531309859E+02  0.51100000000E-03 0.  1.
         12    1    3    3    0    0 -0.22021925983E+02 -0.48936408304E+01  0.25319850553E+02  0.33911764575E+02  0.00000000000E+00 0. -1.
</event>
<event>
 7    1  0.1358622E-013  0.7246099E+02  0.7816164E-02  0.1226710E+00
        -11   -1    0    0    0    0  0.00000000000E+00  0.00000000000E+00  0.45593999997E+02  0.45594000000E+02  0.51100000000E-03 0.  1.
         11   -1    0    0    0    0 -0.00000000000E+00 -0.00000000000E+00 -0.45593999997E+02  0.45594000000E+02  0.51100000000E-03 0. -1.
    9900012    2    1    2    0    0  0.13381839582E+02 -0.13020952863E+02 -0.14429346195E+01  0.72460989978E+02  0.69999244026E+02 0.  0.
        -12    1    1    2    0    0 -0.13381839582E+02  0.13020952863E+02  0.14429346195E+01  0.18727010022E+02  0.00000000000E+00 0.  1.
         11    1    3    3    0    0  0.10865851549E+02 -0.42934328325E+01  0.94829786573E+01  0.15047497461E+02  0.51100000000E-03 0. -1.
        -11    1    3    3    0    0  0.18252026791E+02  0.48254880538E+01  0.15058729710E+02  0.24149268264E+02  0.51100000000E-03 0.  1.
         12    1    3    3    0    0 -0.15736038758E+02 -0.13553008084E+02 -0.25984642987E+02  0.33264224252E+02  0.00000000000E+00 0. -1.
</event>
<event>
 7    1  0.1358622E-013  0.7246166E+02  0.7816164E-02  0.1226708E+00
        -11   -1    0    0    0    0  0.00000000000E+00  0.00000000000E+00  0.45593999997E+02  0.45594000000E+02  0.51100000000E-03 0.  1.
         11   -1    0    0    0    0 -0.00000000000E+00 -0.00000000000E+00 -0.45593999997E+02  0.45594000000E+02  0.51100000000E-03 0. -1.
    9900012    2    1    2    0    0 -0.13777266441E+02  0.85944426103E+01 -0.93272854066E+01  0.72461661131E+02  0.70000118332E+02 0.  0.
        -12    1    1    2    0    0  0.13777266441E+02 -0.85944426103E+01  0.93272854066E+01  0.18726338869E+02  0.00000000000E+00 0.  1.
         11    1    3    3    0    0  0.27672030888E+00  0.40366163050E-01  0.80408731119E+01  0.80457345357E+01  0.51100000000E-03 0. -1.
        -11    1    3    3    0    0  0.15583869527E+02  0.13621660600E+01  0.13762565443E+02  0.20835563195E+02  0.51100000000E-03 0.  1.
         12    1    3    3    0    0 -0.29637856277E+02  0.71919103873E+01 -0.31130723962E+02  0.43580363400E+02  0.00000000000E+00 0. -1.
</event>
<event>
 7    1  0.1358622E-013  0.7246159E+02  0.7816164E-02  0.1226708E+00
        -11   -1    0    0    0    0  0.00000000000E+00  0.00000000000E+00  0.45593999997E+02  0.45594000000E+02  0.51100000000E-03 0. -1.
         11   -1    0    0    0    0 -0.00000000000E+00 -0.00000000000E+00 -0.45593999997E+02  0.45594000000E+02  0.51100000000E-03 0.  1.
    9900012    2    1    2    0    0  0.20152640183E+01 -0.14964359394E+02  0.11076322253E+02  0.72461594691E+02  0.70000031781E+02 0.  0.
        -12    1    1    2    0    0 -0.20152640183E+01  0.14964359394E+02 -0.11076322253E+02  0.18726405309E+02  0.00000000000E+00 0.  1.
         11    1    3    3    0    0  0.15686273553E+02 -0.67794293118E+01 -0.71946158156E+01  0.18541368255E+02  0.51100000000E-03 0. -1.
        -11    1    3    3    0    0  0.15850862201E+02 -0.43095922492E+01 -0.37961984229E+01  0.16859227165E+02  0.51100000000E-03 0.  1.
         12    1    3    3    0    0 -0.29521871735E+02 -0.38753378331E+01  0.22067136491E+02  0.37060999272E+02  0.00000000000E+00 0. -1.
</event>
<event>
 7    1  0.1358622E-013  0.7246155E+02  0.7816164E-02  0.1226708E+00
        -11   -1    0    0    0    0  0.00000000000E+00  0.00000000000E+00  0.45593999997E+02  0.45594000000E+02  0.51100000000E-03 0.  1.
         11   -1    0    0    0    0 -0.00000000000E+00 -0.00000000000E+00 -0.45593999997E+02  0.45594000000E+02  0.51100000000E-03 0. -1.
    9900012    2    1    2    0    0  0.14723091766E+02 -0.11561472645E+02 -0.49296576858E+00  0.72461545554E+02  0.69999967771E+02 0.  0.
        -12    1    1    2    0    0 -0.14723091766E+02  0.11561472645E+02  0.49296576858E+00  0.18726454446E+02  0.00000000000E+00 0.  1.
         11    1    3    3    0    0 -0.67217555955E+01 -0.77753378406E+01  0.50253040181E+01  0.11440784831E+02  0.51100000000E-03 0. -1.
        -11    1    3    3    0    0 -0.89523423540E+01  0.16999634827E+02  0.92769834909E+01  0.21335286284E+02  0.51100000000E-03 0.  1.
         12    1    3    3    0    0  0.30397189716E+02 -0.20785769632E+02 -0.14795253278E+02  0.39685474438E+02  0.00000000000E+00 0. -1.
</event>
<event>
 7    1  0.1358622E-013  0.7246157E+02  0.7816164E-02  0.1226708E+00
        -11   -1    0    0    0    0  0.00000000000E+00  0.00000000000E+00  0.45593999997E+02  0.45594000000E+02  0.51100000000E-03 0.  1.
         11   -1    0    0    0    0 -0.00000000000E+00 -0.00000000000E+00 -0.45593999997E+02  0.45594000000E+02  0.51100000000E-03 0. -1.
    9900012    2    1    2    0    0  0.13249973857E+02 -0.12971569884E+02  0.26183831735E+01  0.72461565131E+02  0.69999993273E+02 0.  0.
        -12    1    1    2    0    0 -0.13249973857E+02  0.12971569884E+02 -0.26183831735E+01  0.18726434869E+02  0.00000000000E+00 0.  1.
         11    1    3    3    0    0 -0.31139852535E+01  0.66111851111E+01  0.17214015330E+02  0.18700989192E+02  0.51100000000E-03 0. -1.
        -11    1    3    3    0    0 -0.86398734831E+01 -0.11250652622E+02  0.10280701639E+02  0.17519058898E+02  0.51100000000E-03 0.  1.
         12    1    3    3    0    0  0.25003832594E+02 -0.83321023733E+01 -0.24876333795E+02  0.36241517041E+02  0.00000000000E+00 0. -1.
</event>
<event>
 7    1  0.1358622E-013  0.7246161E+02  0.7816164E-02  0.1226708E+00
        -11   -1    0    0    0    0  0.00000000000E+00  0.00000000000E+00  0.45593999997E+02  0.45594000000E+02  0.51100000000E-03 0.  1.
         11   -1    0    0    0    0 -0.00000000000E+00 -0.00000000000E+00 -0.45593999997E+02  0.45594000000E+02  0.51100000000E-03 0. -1.
    9900012    2    1    2    0    0 -0.68740306619E+01 -0.56072435389E+01 -0.16491942319E+02  0.72461611157E+02  0.70000053231E+02 0.  0.
        -12    1    1    2    0    0  0.68740306619E+01  0.56072435389E+01  0.16491942319E+02  0.18726388843E+02  0.00000000000E+00 0.  1.
         11    1    3    3    0    0 -0.24856024521E+01 -0.14999115064E+02 -0.29329412134E+02  0.33035830376E+02  0.51100000000E-03 0. -1.
        -11    1    3    3    0    0  0.17974581264E+01 -0.74217159638E+00 -0.11862290132E+02  0.12020632339E+02  0.51100000000E-03 0.  1.
        -12    1    3    3    0    0 -0.61858863361E+01  0.10134043121E+02  0.24699759946E+02  0.27405148442E+02  0.00000000000E+00 0.  1.
</event>
<event>
 7    1  0.1358622E-013  0.7246160E+02  0.7816164E-02  0.1226708E+00
        -11   -1    0    0    0    0  0.00000000000E+00  0.00000000000E+00  0.45593999997E+02  0.45594000000E+02  0.51100000000E-03 0.  1.
         11   -1    0    0    0    0 -0.00000000000E+00 -0.00000000000E+00 -0.45593999997E+02  0.45594000000E+02  0.51100000000E-03 0. -1.
    9900012    2    1    2    0    0  0.17086570523E+01 -0.18511158015E+02 -0.22573675539E+01  0.72461596495E+02  0.70000034131E+02 0.  0.
        -12    1    1    2    0    0 -0.17086570523E+01  0.18511158015E+02  0.22573675539E+01  0.18726403505E+02  0.00000000000E+00 0.  1.
         11    1    3    3    0    0 -0.51823428284E+01  0.36021791730E+01  0.91915001885E+01  0.11149710667E+02  0.51100000000E-03 0. -1.
        -11    1    3    3    0    0  0.35259664339E+01 -0.15280203333E+02  0.21994287733E+02  0.27012325822E+02  0.51100000000E-03 0.  1.
        -12    1    3    3    0    0  0.33650334467E+01 -0.68331338550E+01 -0.33443155476E+02  0.34299560005E+02  0.00000000000E+00 0.  1.
</event>
<event>
 7    1  0.1358622E-013  0.7246159E+02  0.7816164E-02  0.1226708E+00
        -11   -1    0    0    0    0  0.00000000000E+00  0.00000000000E+00  0.45593999997E+02  0.45594000000E+02  0.51100000000E-03 0. -1.
         11   -1    0    0    0    0 -0.00000000000E+00 -0.00000000000E+00 -0.45593999997E+02  0.45594000000E+02  0.51100000000E-03 0.  1.
    9900012    2    1    2    0    0  0.44584911661E+01 -0.60291431605E+01  0.17159537598E+02  0.72461589738E+02  0.70000025329E+02 0.  0.
        -12    1    1    2    0    0 -0.44584911661E+01  0.60291431605E+01 -0.17159537598E+02  0.18726410262E+02  0.00000000000E+00 0.  1.
         11    1    3    3    0    0 -0.92250333179E+01  0.68172504255E+01  0.26346466353E+02  0.28735212417E+02  0.51100000000E-03 0. -1.
        -11    1    3    3    0    0 -0.27645510214E+01  0.53566049211E+01  0.10609257410E+02  0.12202143323E+02  0.51100000000E-03 0.  1.
        -12    1    3    3    0    0  0.16448075505E+02 -0.18202998507E+02 -0.19796186165E+02  0.31524233998E+02  0.00000000000E+00 0.  1.
</event>
<event>
 7    1  0.1358622E-013  0.7246158E+02  0.7816164E-02  0.1226708E+00
        -11   -1    0    0    0    0  0.00000000000E+00  0.00000000000E+00  0.45593999997E+02  0.45594000000E+02  0.51100000000E-03 0.  1.
         11   -1    0    0    0    0 -0.00000000000E+00 -0.00000000000E+00 -0.45593999997E+02  0.45594000000E+02  0.51100000000E-03 0. -1.
    9900012    2    1    2    0    0 -0.19891591069E+01 -0.13959924721E+02 -0.12322435295E+02  0.72461583799E+02  0.70000017592E+02 0.  0.
        -12    1    1    2    0    0  0.19891591069E+01  0.13959924721E+02  0.12322435295E+02  0.18726416201E+02  0.00000000000E+00 0.  1.
         11    1    3    3    0    0 -0.55921000546E+01 -0.28463436776E+01  0.82005557485E+00  0.63281708857E+01  0.51100000000E-03 0. -1.
        -11    1    3    3    0    0  0.57899476303E+01 -0.63894700410E+01  0.25615275031E+02  0.27027599526E+02  0.51100000000E-03 0.  1.
         12    1    3    3    0    0 -0.21870066826E+01 -0.47241110020E+01 -0.38757765901E+02  0.39105813387E+02  0.00000000000E+00 0. -1.
</event>
<event>
 7    1  0.2057483E-013  0.7246154E+02  0.7816164E-02  0.1226708E+00
        -11   -1    0    0    0    0  0.00000000000E+00  0.00000000000E+00  0.45593999997E+02  0.45594000000E+02  0.51100000000E-03 0. -1.
         11   -1    0    0    0    0 -0.00000000000E+00 -0.00000000000E+00 -0.45593999997E+02  0.45594000000E+02  0.51100000000E-03 0.  1.
    9900012    2    1    2    0    0 -0.75442292108E+01 -0.42474541367E+01  0.16604934847E+02  0.72461544855E+02  0.69999966861E+02 0.  0.
        -12    1    1    2    0    0  0.75442292108E+01  0.42474541367E+01 -0.16604934847E+02  0.18726455145E+02  0.00000000000E+00 0.  1.
         11    1    3    3    0    0 -0.24966390584E+02 -0.16352676033E+02  0.21816162162E+02  0.36968575898E+02  0.51100000000E-03 0. -1.
        -11    1    3    3    0    0  0.96300131285E+01 -0.73761490568E+01 -0.76940542843E+01  0.14364651035E+02  0.51100000000E-03 0.  1.
        -12    1    3    3    0    0  0.77921482445E+01  0.19481370953E+02  0.24828269691E+01  0.21128317922E+02  0.00000000000E+00 0.  1.
</event>
<event>
 7    1  0.1358622E-013  0.7246155E+02  0.7816164E-02  0.1226708E+00
        -11   -1    0    0    0    0  0.00000000000E+00  0.00000000000E+00  0.45593999997E+02  0.45594000000E+02  0.51100000000E-03 0.  1.
         11   -1    0    0    0    0 -0.00000000000E+00 -0.00000000000E+00 -0.45593999997E+02  0.45594000000E+02  0.51100000000E-03 0. -1.
    9900012    2    1    2    0    0  0.17289146161E+02  0.45147020341E+01 -0.56020269342E+01  0.72461553054E+02  0.69999977541E+02 0.  0.
        -12    1    1    2    0    0 -0.17289146161E+02 -0.45147020341E+01  0.56020269342E+01  0.18726446946E+02  0.00000000000E+00 0.  1.
         11    1    3    3    0    0  0.44051525725E+01  0.16126622201E+02 -0.12806155225E+02  0.21058749362E+02  0.51100000000E-03 0. -1.
        -11    1    3    3    0    0 -0.18182094549E+02 -0.16214603012E+01  0.21409253356E+01  0.18379370426E+02  0.51100000000E-03 0.  1.
        -12    1    3    3    0    0  0.31066088138E+02 -0.99904598657E+01  0.50632029549E+01  0.33023433266E+02  0.00000000000E+00 0.  1.
</event>
<event>
 7    1  0.1358622E-013  0.7246156E+02  0.7816164E-02  0.1226708E+00
        -11   -1    0    0    0    0  0.00000000000E+00  0.00000000000E+00  0.45593999997E+02  0.45594000000E+02  0.51100000000E-03 0.  1.
         11   -1    0    0    0    0 -0.00000000000E+00 -0.00000000000E+00 -0.45593999997E+02  0.45594000000E+02  0.51100000000E-03 0. -1.
    9900012    2    1    2    0    0 -0.12175996223E+02 -0.69479938972E+01 -0.12415712636E+02  0.72461563514E+02  0.69999991167E+02 0.  0.
        -12    1    1    2    0    0  0.12175996223E+02  0.69479938972E+01  0.12415712636E+02  0.18726436486E+02  0.00000000000E+00 0.  1.
         11    1    3    3    0    0 -0.65635957198E+01  0.13005769699E+02 -0.74161489363E+01  0.16347174054E+02  0.51100000000E-03 0. -1.
        -11    1    3    3    0    0  0.17883159171E+02  0.53925539630E+01  0.63641025314E+01  0.19732937477E+02  0.51100000000E-03 0.  1.
        -12    1    3    3    0    0 -0.23495559674E+02 -0.25346317559E+02 -0.11363666231E+02  0.36381451983E+02  0.00000000000E+00 0.  1.
</event>
<event>
 7    1  0.1358622E-013  0.7246159E+02  0.7816164E-02  0.1226708E+00
        -11   -1    0    0    0    0  0.00000000000E+00  0.00000000000E+00  0.45593999997E+02  0.45594000000E+02  0.51100000000E-03 0. -1.
         11   -1    0    0    0    0 -0.00000000000E+00 -0.00000000000E+00 -0.45593999997E+02  0.45594000000E+02  0.51100000000E-03 0.  1.
    9900012    2    1    2    0    0  0.50106907111E+01 -0.17892011638E+02  0.23339388622E+01  0.72461591576E+02  0.70000027723E+02 0.  0.
        -12    1    1    2    0    0 -0.50106907111E+01  0.17892011638E+02 -0.23339388622E+01  0.18726408424E+02  0.00000000000E+00 0.  1.
         11    1    3    3    0    0 -0.15618488286E+01 -0.11940651548E+02  0.52788047246E+01  0.13148547856E+02  0.51100000000E-03 0. -1.
        -11    1    3    3    0    0 -0.84683990496E+01 -0.29789025079E+02  0.38468465037E-01  0.30969360305E+02  0.51100000000E-03 0.  1.
         12    1    3    3    0    0  0.15040938589E+02  0.23837664989E+02 -0.29833343274E+01  0.28343683414E+02  0.00000000000E+00 0. -1.
</event>
<event>
 7    1  0.1358622E-013  0.7246155E+02  0.7816164E-02  0.1226708E+00
        -11   -1    0    0    0    0  0.00000000000E+00  0.00000000000E+00  0.45593999997E+02  0.45594000000E+02  0.51100000000E-03 0.  1.
         11   -1    0    0    0    0 -0.00000000000E+00 -0.00000000000E+00 -0.45593999997E+02  0.45594000000E+02  0.51100000000E-03 0. -1.
    9900012    2    1    2    0    0 -0.20944777165E+01 -0.14234022894E+02 -0.11986899520E+02  0.72461547993E+02  0.69999970949E+02 0.  0.
        -12    1    1    2    0    0  0.20944777165E+01  0.14234022894E+02  0.11986899520E+02  0.18726452007E+02  0.00000000000E+00 0.  1.
         11    1    3    3    0    0 -0.15031333856E+02 -0.20339518484E+02 -0.32373954024E+02  0.41081746665E+02  0.51100000000E-03 0. -1.
        -11    1    3    3    0    0 -0.37154393828E+01 -0.19039590359E+01  0.45421545136E+00  0.41995073228E+01  0.51100000000E-03 0.  1.
        -12    1    3    3    0    0  0.16652295522E+02  0.80094546251E+01  0.19932839052E+02  0.27180294006E+02  0.00000000000E+00 0.  1.
</event>
<event>
 7    1  0.1358622E-013  0.7246113E+02  0.7816164E-02  0.1226709E+00
        -11   -1    0    0    0    0  0.00000000000E+00  0.00000000000E+00  0.45593999997E+02  0.45594000000E+02  0.51100000000E-03 0. -1.
         11   -1    0    0    0    0 -0.00000000000E+00 -0.00000000000E+00 -0.45593999997E+02  0.45594000000E+02  0.51100000000E-03 0.  1.
    9900012    2    1    2    0    0  0.93336113557E+01  0.80946140614E+01  0.14073259755E+02  0.72461128454E+02  0.69999424419E+02 0.  0.
        -12    1    1    2    0    0 -0.93336113557E+01 -0.80946140614E+01 -0.14073259755E+02  0.18726871546E+02  0.00000000000E+00 0.  1.
         11    1    3    3    0    0  0.52485067478E+01  0.21450063071E+02  0.78452856823E+01  0.23435027982E+02  0.51100000000E-03 0. -1.
        -11    1    3    3    0    0  0.23196138607E+02  0.22521624954E+01 -0.96312008249E+00  0.23325108418E+02  0.51100000000E-03 0.  1.
         12    1    3    3    0    0 -0.19111033999E+02 -0.15607611505E+02  0.71910941556E+01  0.25700992054E+02  0.00000000000E+00 0. -1.
</event>
<event>
 7    1  0.1358622E-013  0.7246141E+02  0.7816164E-02  0.1226708E+00
        -11   -1    0    0    0    0  0.00000000000E+00  0.00000000000E+00  0.45593999997E+02  0.45594000000E+02  0.51100000000E-03 0.  1.
         11   -1    0    0    0    0 -0.00000000000E+00 -0.00000000000E+00 -0.45593999997E+02  0.45594000000E+02  0.51100000000E-03 0. -1.
    9900012    2    1    2    0    0 -0.84394204139E+01  0.12763693142E+02 -0.10795811173E+02  0.72461408787E+02  0.69999789607E+02 0.  0.
        -12    1    1    2    0    0  0.84394204139E+01 -0.12763693142E+02  0.10795811173E+02  0.18726591213E+02  0.00000000000E+00 0.  1.
         11    1    3    3    0    0  0.21086060813E+02  0.57051588900E+00 -0.10153326393E+02  0.23410200471E+02  0.51100000000E-03 0. -1.
        -11    1    3    3    0    0  0.25973235289E+01  0.15535095849E+02 -0.48537342103E+01  0.16481627001E+02  0.51100000000E-03 0.  1.
        -12    1    3    3    0    0 -0.32122804756E+02 -0.33419185959E+01  0.42112494303E+01  0.32569581315E+02  0.00000000000E+00 0.  1.
</event>
<event>
 7    1  0.1358622E-013  0.7246157E+02  0.7816164E-02  0.1226708E+00
        -11   -1    0    0    0    0  0.00000000000E+00  0.00000000000E+00  0.45593999997E+02  0.45594000000E+02  0.51100000000E-03 0.  1.
         11   -1    0    0    0    0 -0.00000000000E+00 -0.00000000000E+00 -0.45593999997E+02  0.45594000000E+02  0.51100000000E-03 0. -1.
    9900012    2    1    2    0    0 -0.78472351224E+01  0.95642358557E+01 -0.14057938566E+02  0.72461565654E+02  0.69999993955E+02 0.  0.
        -12    1    1    2    0    0  0.78472351224E+01 -0.95642358557E+01  0.14057938566E+02  0.18726434346E+02  0.00000000000E+00 0.  1.
         11    1    3    3    0    0 -0.13433239455E+02  0.18221400565E+02  0.18505366367E+01  0.22713340726E+02  0.51100000000E-03 0. -1.
        -11    1    3    3    0    0 -0.63598363687E+01  0.32547945064E+01 -0.28061417683E+02  0.28956594561E+02  0.51100000000E-03 0.  1.
        -12    1    3    3    0    0  0.11945840701E+02 -0.11911959216E+02  0.12152942480E+02  0.20791630368E+02  0.00000000000E+00 0.  1.
</event>
<event>
 7    1  0.1358622E-013  0.7246162E+02  0.7816164E-02  0.1226708E+00
        -11   -1    0    0    0    0  0.00000000000E+00  0.00000000000E+00  0.45593999997E+02  0.45594000000E+02  0.51100000000E-03 0. -1.
         11   -1    0    0    0    0 -0.00000000000E+00 -0.00000000000E+00 -0.45593999997E+02  0.45594000000E+02  0.51100000000E-03 0.  1.
    9900012    2    1    2    0    0  0.37694553371E+01  0.50105411451E+01  0.17645478237E+02  0.72461622392E+02  0.70000067866E+02 0.  0.
        -12    1    1    2    0    0 -0.37694553371E+01 -0.50105411451E+01 -0.17645478237E+02  0.18726377608E+02  0.00000000000E+00 0.  1.
         11    1    3    3    0    0  0.18361283932E+02 -0.32137141636E+01  0.11365659839E+02  0.21832153586E+02  0.51100000000E-03 0.  1.
        -11    1    3    3    0    0  0.63851882294E+00 -0.93230338239E+01  0.21095543371E+02  0.23072681170E+02  0.51100000000E-03 0. -1.
        -12    1    3    3    0    0 -0.15230347418E+02  0.17547289133E+02 -0.14815724972E+02  0.27556787636E+02  0.00000000000E+00 0.  1.
</event>
<event>
 7    1  0.1358622E-013  0.7246166E+02  0.7816164E-02  0.1226708E+00
        -11   -1    0    0    0    0  0.00000000000E+00  0.00000000000E+00  0.45593999997E+02  0.45594000000E+02  0.51100000000E-03 0. -1.
         11   -1    0    0    0    0 -0.00000000000E+00 -0.00000000000E+00 -0.45593999997E+02  0.45594000000E+02  0.51100000000E-03 0.  1.
    9900012    2    1    2    0    0  0.17117169462E+02  0.41939880352E+01  0.63315576313E+01  0.72461664318E+02  0.70000122484E+02 0.  0.
        -12    1    1    2    0    0 -0.17117169462E+02 -0.41939880352E+01 -0.63315576313E+01  0.18726335682E+02  0.00000000000E+00 0.  1.
         11    1    3    3    0    0 -0.77327909423E+01 -0.14005236139E+02  0.65043153091E+00  0.16011425811E+02  0.51100000000E-03 0. -1.
        -11    1    3    3    0    0 -0.64376867257E+01 -0.45177802945E+01 -0.11668176111E+02  0.14071264449E+02  0.51100000000E-03 0.  1.
         12    1    3    3    0    0  0.31287647130E+02  0.22717004469E+02  0.17349302212E+02  0.42378974058E+02  0.00000000000E+00 0. -1.
</event>
<event>
 7    1  0.1358622E-013  0.7246162E+02  0.7816164E-02  0.1226708E+00
        -11   -1    0    0    0    0  0.00000000000E+00  0.00000000000E+00  0.45593999997E+02  0.45594000000E+02  0.51100000000E-03 0.  1.
         11   -1    0    0    0    0 -0.00000000000E+00 -0.00000000000E+00 -0.45593999997E+02  0.45594000000E+02  0.51100000000E-03 0. -1.
    9900012    2    1    2    0    0  0.84827360564E+01  0.14428477254E+02  0.83987831855E+01  0.72461619521E+02  0.70000064126E+02 0.  0.
        -12    1    1    2    0    0 -0.84827360564E+01 -0.14428477254E+02 -0.83987831855E+01  0.18726380479E+02  0.00000000000E+00 0.  1.
         11    1    3    3    0    0 -0.15238079047E+02  0.17618006489E+02 -0.13989369730E+02  0.27171596777E+02  0.51100000000E-03 0. -1.
        -11    1    3    3    0    0  0.34235106657E+01  0.75809660134E+01 -0.48701281007E+01  0.96389635829E+01  0.51100000000E-03 0.  1.
        -12    1    3    3    0    0  0.20297304438E+02 -0.10770495248E+02  0.27258281017E+02  0.35651059161E+02  0.00000000000E+00 0.  1.
</event>
<event>
 7    1  0.1358622E-013  0.7246138E+02  0.7816164E-02  0.1226709E+00
        -11   -1    0    0    0    0  0.00000000000E+00  0.00000000000E+00  0.45593999997E+02  0.45594000000E+02  0.51100000000E-03 0. -1.
         11   -1    0    0    0    0 -0.00000000000E+00 -0.00000000000E+00 -0.45593999997E+02  0.45594000000E+02  0.51100000000E-03 0.  1.
    9900012    2    1    2    0    0  0.14298727028E+02  0.96997195611E+01  0.72213651367E+01  0.72461380748E+02  0.69999753080E+02 0.  0.
        -12    1    1    2    0    0 -0.14298727028E+02 -0.96997195611E+01 -0.72213651367E+01  0.18726619252E+02  0.00000000000E+00 0.  1.
         11    1    3    3    0    0  0.14180275135E+02 -0.18041316694E+02  0.17966941411E+02  0.29144129681E+02  0.51100000000E-03 0. -1.
        -11    1    3    3    0    0 -0.57073899973E+01 -0.55325019357E+01 -0.28086948709E+00  0.79537265593E+01  0.51100000000E-03 0.  1.
         12    1    3    3    0    0  0.58258418899E+01  0.33273538190E+02 -0.10464706787E+02  0.35363524507E+02  0.00000000000E+00 0. -1.
</event>
<event>
 7    1  0.1358622E-013  0.7246152E+02  0.7816164E-02  0.1226708E+00
        -11   -1    0    0    0    0  0.00000000000E+00  0.00000000000E+00  0.45593999997E+02  0.45594000000E+02  0.51100000000E-03 0. -1.
         11   -1    0    0    0    0 -0.00000000000E+00 -0.00000000000E+00 -0.45593999997E+02  0.45594000000E+02  0.51100000000E-03 0.  1.
    9900012    2    1    2    0    0  0.89466764820E+01  0.98312532510E+01  0.13190316732E+02  0.72461520992E+02  0.69999935774E+02 0.  0.
        -12    1    1    2    0    0 -0.89466764820E+01 -0.98312532510E+01 -0.13190316732E+02  0.18726479008E+02  0.00000000000E+00 0.  1.
         11    1    3    3    0    0  0.91491056682E+01  0.64292313107E+01  0.23861252448E+02  0.26351480384E+02  0.51100000000E-03 0. -1.
        -11    1    3    3    0    0  0.16326169094E+02 -0.23712120126E+01 -0.20276666303E+02  0.26140192048E+02  0.51100000000E-03 0.  1.
         12    1    3    3    0    0 -0.16528598280E+02  0.57732339528E+01  0.96057305869E+01  0.19969848560E+02  0.00000000000E+00 0. -1.
</event>
<event>
 7    1  0.1358622E-013  0.7246091E+02  0.7816164E-02  0.1226710E+00
        -11   -1    0    0    0    0  0.00000000000E+00  0.00000000000E+00  0.45593999997E+02  0.45594000000E+02  0.51100000000E-03 0. -1.
         11   -1    0    0    0    0 -0.00000000000E+00 -0.00000000000E+00 -0.45593999997E+02  0.45594000000E+02  0.51100000000E-03 0.  1.
    9900012    2    1    2    0    0 -0.14949463548E+02 -0.29549143429E+01  0.10885121517E+02  0.72460911343E+02  0.69999141588E+02 0.  0.
        -12    1    1    2    0    0  0.14949463548E+02  0.29549143429E+01 -0.10885121517E+02  0.18727088657E+02  0.00000000000E+00 0.  1.
         11    1    3    3    0    0 -0.79228311519E+01  0.11848897770E+02 -0.10179375487E+02  0.17515345198E+02  0.51100000000E-03 0. -1.
        -11    1    3    3    0    0  0.18347753649E+02  0.42609082776E+01  0.10056095195E+02  0.21352293885E+02  0.51100000000E-03 0.  1.
         12    1    3    3    0    0 -0.25374386045E+02 -0.19064720391E+02  0.11008401809E+02  0.33593272260E+02  0.00000000000E+00 0. -1.
</event>
<event>
 7    1  0.1475310E-013  0.7246211E+02  0.7816164E-02  0.1226707E+00
        -11   -1    0    0    0    0  0.00000000000E+00  0.00000000000E+00  0.45593999997E+02  0.45594000000E+02  0.51100000000E-03 0.  1.
         11   -1    0    0    0    0 -0.00000000000E+00 -0.00000000000E+00 -0.45593999997E+02  0.45594000000E+02  0.51100000000E-03 0. -1.
    9900012    2    1    2    0    0  0.16633832337E+02 -0.52334074037E+01 -0.68253953942E+01  0.72462110073E+02  0.70000703158E+02 0.  0.
        -12    1    1    2    0    0 -0.16633832337E+02  0.52334074037E+01  0.68253953942E+01  0.18725889927E+02  0.00000000000E+00 0.  1.
         11    1    3    3    0    0  0.37319009777E+02 -0.17632758400E+00 -0.81963452440E+01  0.38208895009E+02  0.51100000000E-03 0. -1.
        -11    1    3    3    0    0 -0.65373181717E+00 -0.42193361520E+01  0.11155055112E+02  0.11944262960E+02  0.51100000000E-03 0.  1.
        -12    1    3    3    0    0 -0.20031445622E+02 -0.83774366772E+00 -0.97841052623E+01  0.22308952104E+02  0.00000000000E+00 0.  1.
</event>
<event>
 7    1  0.1358622E-013  0.7246155E+02  0.7816164E-02  0.1226708E+00
        -11   -1    0    0    0    0  0.00000000000E+00  0.00000000000E+00  0.45593999997E+02  0.45594000000E+02  0.51100000000E-03 0.  1.
         11   -1    0    0    0    0 -0.00000000000E+00 -0.00000000000E+00 -0.45593999997E+02  0.45594000000E+02  0.51100000000E-03 0. -1.
    9900012    2    1    2    0    0 -0.18562259054E+02  0.13651980992E+01 -0.20636990499E+01  0.72461545962E+02  0.69999968303E+02 0.  0.
        -12    1    1    2    0    0  0.18562259054E+02 -0.13651980992E+01  0.20636990499E+01  0.18726454038E+02  0.00000000000E+00 0.  1.
         11    1    3    3    0    0 -0.26024381181E+02 -0.15638690228E+02 -0.77042519195E+00  0.30371542653E+02  0.51100000000E-03 0. -1.
        -11    1    3    3    0    0 -0.73781159962E+01  0.11226446086E+02  0.14426771779E+02  0.19712976224E+02  0.51100000000E-03 0.  1.
         12    1    3    3    0    0  0.14840238123E+02  0.57774422408E+01 -0.15720045637E+02  0.22377027086E+02  0.00000000000E+00 0. -1.
</event>
<event>
 7    1  0.1358622E-013  0.7246154E+02  0.7816164E-02  0.1226708E+00
        -11   -1    0    0    0    0  0.00000000000E+00  0.00000000000E+00  0.45593999997E+02  0.45594000000E+02  0.51100000000E-03 0.  1.
         11   -1    0    0    0    0 -0.00000000000E+00 -0.00000000000E+00 -0.45593999997E+02  0.45594000000E+02  0.51100000000E-03 0. -1.
    9900012    2    1    2    0    0  0.14394370898E+02 -0.39784656501E+01 -0.11298419505E+02  0.72461537820E+02  0.69999957696E+02 0.  0.
        -12    1    1    2    0    0 -0.14394370898E+02  0.39784656501E+01  0.11298419505E+02  0.18726462180E+02  0.00000000000E+00 0.  1.
         11    1    3    3    0    0  0.96610920012E+01  0.63539424445E+01  0.11420763044E+02  0.16252480180E+02  0.51100000000E-03 0. -1.
        -11    1    3    3    0    0  0.14154013920E+02 -0.55479904325E+01  0.12347495036E+02  0.19585120418E+02  0.51100000000E-03 0.  1.
         12    1    3    3    0    0 -0.94207350233E+01 -0.47844176621E+01 -0.35066677585E+02  0.36623937221E+02  0.00000000000E+00 0. -1.
</event>
<event>
 7    1  0.1358622E-013  0.7246157E+02  0.7816164E-02  0.1226708E+00
        -11   -1    0    0    0    0  0.00000000000E+00  0.00000000000E+00  0.45593999997E+02  0.45594000000E+02  0.51100000000E-03 0. -1.
         11   -1    0    0    0    0 -0.00000000000E+00 -0.00000000000E+00 -0.45593999997E+02  0.45594000000E+02  0.51100000000E-03 0.  1.
    9900012    2    1    2    0    0  0.16804148285E+01  0.66669414714E+01  0.17418589768E+02  0.72461570226E+02  0.69999999911E+02 0.  0.
        -12    1    1    2    0    0 -0.16804148285E+01 -0.66669414714E+01 -0.17418589768E+02  0.18726429774E+02  0.00000000000E+00 0.  1.
         11    1    3    3    0    0 -0.13602478561E+02  0.10577961186E+02 -0.33780303030E+01  0.17559378544E+02  0.51100000000E-03 0. -1.
        -11    1    3    3    0    0 -0.77911246608E+01  0.61355928828E+01  0.27185257684E+02  0.28937611496E+02  0.51100000000E-03 0.  1.
        -12    1    3    3    0    0  0.23074018050E+02 -0.10046612598E+02 -0.63886376125E+01  0.25964580186E+02  0.00000000000E+00 0.  1.
</event>
<event>
 7    1  0.1358622E-013  0.7246157E+02  0.7816164E-02  0.1226708E+00
        -11   -1    0    0    0    0  0.00000000000E+00  0.00000000000E+00  0.45593999997E+02  0.45594000000E+02  0.51100000000E-03 0.  1.
         11   -1    0    0    0    0 -0.00000000000E+00 -0.00000000000E+00 -0.45593999997E+02  0.45594000000E+02  0.51100000000E-03 0. -1.
    9900012    2    1    2    0    0 -0.11706269610E+01 -0.89027249132E+01 -0.16433207087E+02  0.72461570188E+02  0.69999999861E+02 0.  0.
        -12    1    1    2    0    0  0.11706269610E+01  0.89027249132E+01  0.16433207087E+02  0.18726429812E+02  0.00000000000E+00 0.  1.
         11    1    3    3    0    0  0.27434651317E+02 -0.10205458657E+02 -0.48197122506E+01  0.29665486777E+02  0.51100000000E-03 0. -1.
        -11    1    3    3    0    0  0.53152256963E+01 -0.38690481576E+01 -0.87241860936E-02  0.65742858336E+01  0.51100000000E-03 0.  1.
        -12    1    3    3    0    0 -0.33920503974E+02  0.51717819015E+01 -0.11604770650E+02  0.36221797577E+02  0.00000000000E+00 0.  1.
</event>
<event>
 7    1  0.1358622E-013  0.7246152E+02  0.7816164E-02  0.1226708E+00
        -11   -1    0    0    0    0  0.00000000000E+00  0.00000000000E+00  0.45593999997E+02  0.45594000000E+02  0.51100000000E-03 0. -1.
         11   -1    0    0    0    0 -0.00000000000E+00 -0.00000000000E+00 -0.45593999997E+02  0.45594000000E+02  0.51100000000E-03 0.  1.
    9900012    2    1    2    0    0 -0.75326346122E+00 -0.18502161422E+02 -0.27899300514E+01  0.72461518942E+02  0.69999933103E+02 0.  0.
        -12    1    1    2    0    0  0.75326346122E+00  0.18502161422E+02  0.27899300514E+01  0.18726481058E+02  0.00000000000E+00 0.  1.
         11    1    3    3    0    0  0.10062865305E+02  0.61177291407E+01  0.41662328653E+01  0.12491811900E+02  0.51100000000E-03 0. -1.
        -11    1    3    3    0    0 -0.88083511946E+01  0.98584343003E+01 -0.19213461318E+02  0.23322368527E+02  0.51100000000E-03 0.  1.
         12    1    3    3    0    0 -0.20077775716E+01 -0.34478324863E+02  0.12257298401E+02  0.36647338515E+02  0.00000000000E+00 0. -1.
</event>
<event>
 7    1  0.1358622E-013  0.7246157E+02  0.7816164E-02  0.1226708E+00
        -11   -1    0    0    0    0  0.00000000000E+00  0.00000000000E+00  0.45593999997E+02  0.45594000000E+02  0.51100000000E-03 0. -1.
         11   -1    0    0    0    0 -0.00000000000E+00 -0.00000000000E+00 -0.45593999997E+02  0.45594000000E+02  0.51100000000E-03 0.  1.
    9900012    2    1    2    0    0 -0.42398578030E+01 -0.16667921971E+02  0.74083241666E+01  0.72461567238E+02  0.69999996019E+02 0.  0.
        -12    1    1    2    0    0  0.42398578030E+01  0.16667921971E+02 -0.74083241666E+01  0.18726432762E+02  0.00000000000E+00 0.  1.
         11    1    3    3    0    0  0.37752880533E+01 -0.23126568766E+01 -0.32663228672E+01  0.55018221570E+01  0.51100000000E-03 0. -1.
        -11    1    3    3    0    0  0.50422536323E+01 -0.19461438522E+02 -0.22961312832E+02  0.30518745032E+02  0.51100000000E-03 0.  1.
         12    1    3    3    0    0 -0.13057399489E+02  0.51061734276E+01  0.33635959866E+02  0.36441000049E+02  0.00000000000E+00 0. -1.
</event>
<event>
 7    1  0.1358622E-013  0.7246155E+02  0.7816164E-02  0.1226708E+00
        -11   -1    0    0    0    0  0.00000000000E+00  0.00000000000E+00  0.45593999997E+02  0.45594000000E+02  0.51100000000E-03 0. -1.
         11   -1    0    0    0    0 -0.00000000000E+00 -0.00000000000E+00 -0.45593999997E+02  0.45594000000E+02  0.51100000000E-03 0.  1.
    9900012    2    1    2    0    0  0.54493522447E+01  0.11423248426E+01  0.17879589979E+02  0.72461545884E+02  0.69999968201E+02 0.  0.
        -12    1    1    2    0    0 -0.54493522447E+01 -0.11423248426E+01 -0.17879589979E+02  0.18726454116E+02  0.00000000000E+00 0.  1.
         11    1    3    3    0    0  0.54332016036E+01  0.16623855024E+02  0.52024707165E+01  0.18246587005E+02  0.51100000000E-03 0. -1.
        -11    1    3    3    0    0  0.68806172151E+01 -0.96369859945E+01 -0.18386470914E+02  0.21869538295E+02  0.51100000000E-03 0.  1.
         12    1    3    3    0    0 -0.68644665740E+01 -0.58445441864E+01  0.31063590177E+02  0.32345420584E+02  0.00000000000E+00 0. -1.
</event>
<event>
 7    1  0.1358622E-013  0.7246164E+02  0.7816164E-02  0.1226708E+00
        -11   -1    0    0    0    0  0.00000000000E+00  0.00000000000E+00  0.45593999997E+02  0.45594000000E+02  0.51100000000E-03 0.  1.
         11   -1    0    0    0    0 -0.00000000000E+00 -0.00000000000E+00 -0.45593999997E+02  0.45594000000E+02  0.51100000000E-03 0. -1.
    9900012    2    1    2    0    0 -0.12416424361E+02 -0.28053091624E+01  0.13734600711E+02  0.72461638631E+02  0.70000089021E+02 0.  0.
        -12    1    1    2    0    0  0.12416424361E+02  0.28053091624E+01 -0.13734600711E+02  0.18726361369E+02  0.00000000000E+00 0.  1.
         11    1    3    3    0    0 -0.20181283524E+01 -0.12717537485E+02 -0.59664405456E+01  0.14191793924E+02  0.51100000000E-03 0. -1.
        -11    1    3    3    0    0 -0.12110058120E+02 -0.20805328962E+02  0.86605376410E+01  0.25583591096E+02  0.51100000000E-03 0.  1.
         12    1    3    3    0    0  0.17117621111E+01  0.30717557284E+02  0.11040503616E+02  0.32686253611E+02  0.00000000000E+00 0. -1.
</event>
<event>
 7    1  0.1358622E-013  0.7246154E+02  0.7816164E-02  0.1226708E+00
        -11   -1    0    0    0    0  0.00000000000E+00  0.00000000000E+00  0.45593999997E+02  0.45594000000E+02  0.51100000000E-03 0.  1.
         11   -1    0    0    0    0 -0.00000000000E+00 -0.00000000000E+00 -0.45593999997E+02  0.45594000000E+02  0.51100000000E-03 0. -1.
    9900012    2    1    2    0    0 -0.12920866420E+02 -0.54568432301E+01 -0.12407828202E+02  0.72461544709E+02  0.69999966671E+02 0.  0.
        -12    1    1    2    0    0  0.12920866420E+02  0.54568432301E+01  0.12407828202E+02  0.18726455291E+02  0.00000000000E+00 0.  1.
         11    1    3    3    0    0  0.21398430953E+02  0.13119516230E+02  0.51784430233E+01  0.25628710965E+02  0.51100000000E-03 0. -1.
        -11    1    3    3    0    0 -0.23405899077E+01  0.41785396632E-01  0.35242349958E+01  0.42308793061E+01  0.51100000000E-03 0.  1.
        -12    1    3    3    0    0 -0.31978707465E+02 -0.18618144856E+02 -0.21110506221E+02  0.42601954438E+02  0.00000000000E+00 0.  1.
</event>
<event>
 7    1  0.1358622E-013  0.7246131E+02  0.7816164E-02  0.1226709E+00
        -11   -1    0    0    0    0  0.00000000000E+00  0.00000000000E+00  0.45593999997E+02  0.45594000000E+02  0.51100000000E-03 0. -1.
         11   -1    0    0    0    0 -0.00000000000E+00 -0.00000000000E+00 -0.45593999997E+02  0.45594000000E+02  0.51100000000E-03 0.  1.
    9900012    2    1    2    0    0 -0.74555387320E+01  0.12331979870E+02  0.11959357611E+02  0.72461307293E+02  0.69999657391E+02 0.  0.
        -12    1    1    2    0    0  0.74555387320E+01 -0.12331979870E+02 -0.11959357611E+02  0.18726692707E+02  0.00000000000E+00 0.  1.
         11    1    3    3    0    0 -0.34851979004E+02  0.40702824404E+01  0.52479026703E+01  0.35479122344E+02  0.51100000000E-03 0. -1.
        -11    1    3    3    0    0 -0.13485530731E+01 -0.27152739023E+01  0.53901113073E+01  0.61842224994E+01  0.51100000000E-03 0.  1.
        -12    1    3    3    0    0  0.28744993345E+02  0.10976971331E+02  0.13213436331E+01  0.30797962449E+02  0.00000000000E+00 0.  1.
</event>
<event>
 7    1  0.1358622E-013  0.7246169E+02  0.7816164E-02  0.1226708E+00
        -11   -1    0    0    0    0  0.00000000000E+00  0.00000000000E+00  0.45593999997E+02  0.45594000000E+02  0.51100000000E-03 0.  1.
         11   -1    0    0    0    0 -0.00000000000E+00 -0.00000000000E+00 -0.45593999997E+02  0.45594000000E+02  0.51100000000E-03 0. -1.
    9900012    2    1    2    0    0  0.17465988096E+02  0.52167168167E+01  0.42895165969E+01  0.72461686237E+02  0.70000151037E+02 0.  0.
        -12    1    1    2    0    0 -0.17465988096E+02 -0.52167168167E+01 -0.42895165969E+01  0.18726313763E+02  0.00000000000E+00 0.  1.
         11    1    3    3    0    0  0.96753809871E+01  0.71435690448E+01 -0.29215593668E+02  0.31594216078E+02  0.51100000000E-03 0. -1.
        -11    1    3    3    0    0 -0.91478415314E-01  0.94177788729E+00 -0.31375042138E+01  0.32770790107E+01  0.51100000000E-03 0.  1.
        -12    1    3    3    0    0  0.78820855238E+01 -0.28686301155E+01  0.36642614478E+02  0.37590391149E+02  0.00000000000E+00 0.  1.
</event>
<event>
 7    1  0.1358622E-013  0.7246152E+02  0.7816164E-02  0.1226708E+00
        -11   -1    0    0    0    0  0.00000000000E+00  0.00000000000E+00  0.45593999997E+02  0.45594000000E+02  0.51100000000E-03 0.  1.
         11   -1    0    0    0    0 -0.00000000000E+00 -0.00000000000E+00 -0.45593999997E+02  0.45594000000E+02  0.51100000000E-03 0. -1.
    9900012    2    1    2    0    0 -0.15756264400E+02 -0.98972067078E+01  0.21133709984E+01  0.72461523945E+02  0.69999939621E+02 0.  0.
        -12    1    1    2    0    0  0.15756264400E+02  0.98972067078E+01 -0.21133709984E+01  0.18726476055E+02  0.00000000000E+00 0.  1.
         11    1    3    3    0    0 -0.32907514613E+02  0.73436801649E+01  0.62456529523E+01  0.34290557555E+02  0.51100000000E-03 0. -1.
        -11    1    3    3    0    0  0.59555293395E+01 -0.23028137343E+02  0.25219662006E+01  0.23919108533E+02  0.51100000000E-03 0.  1.
        -12    1    3    3    0    0  0.11195720873E+02  0.57872504705E+01 -0.66542481544E+01  0.14251857857E+02  0.00000000000E+00 0.  1.
</event>
<event>
 7    1  0.1358622E-013  0.7246156E+02  0.7816164E-02  0.1226708E+00
        -11   -1    0    0    0    0  0.00000000000E+00  0.00000000000E+00  0.45593999997E+02  0.45594000000E+02  0.51100000000E-03 0.  1.
         11   -1    0    0    0    0 -0.00000000000E+00 -0.00000000000E+00 -0.45593999997E+02  0.45594000000E+02  0.51100000000E-03 0. -1.
    9900012    2    1    2    0    0 -0.10353037165E+02 -0.36752134155E+01 -0.15165323768E+02  0.72461558342E+02  0.69999984429E+02 0.  0.
        -12    1    1    2    0    0  0.10353037165E+02  0.36752134155E+01  0.15165323768E+02  0.18726441658E+02  0.00000000000E+00 0.  1.
         11    1    3    3    0    0  0.23662625402E+01  0.30994655251E+01 -0.14176995490E+02  0.14703505920E+02  0.51100000000E-03 0. -1.
        -11    1    3    3    0    0 -0.17877098265E+02  0.19897129329E+02 -0.10839063967E+02  0.28861249208E+02  0.51100000000E-03 0.  1.
        -12    1    3    3    0    0  0.51577985601E+01 -0.26671808270E+02  0.98507356882E+01  0.28896803214E+02  0.00000000000E+00 0.  1.
</event>
<event>
 7    1  0.1358622E-013  0.7246136E+02  0.7816164E-02  0.1226709E+00
        -11   -1    0    0    0    0  0.00000000000E+00  0.00000000000E+00  0.45593999997E+02  0.45594000000E+02  0.51100000000E-03 0.  1.
         11   -1    0    0    0    0 -0.00000000000E+00 -0.00000000000E+00 -0.45593999997E+02  0.45594000000E+02  0.51100000000E-03 0. -1.
    9900012    2    1    2    0    0  0.72192550086E+01  0.16752661470E+02 -0.42329336613E+01  0.72461360243E+02  0.69999726369E+02 0.  0.
        -12    1    1    2    0    0 -0.72192550086E+01 -0.16752661470E+02  0.42329336613E+01  0.18726639757E+02  0.00000000000E+00 0.  1.
         11    1    3    3    0    0 -0.17169332151E+01  0.25456264383E+02 -0.14767811933E+02  0.29479781641E+02  0.51100000000E-03 0. -1.
        -11    1    3    3    0    0  0.29493842939E+01  0.28573091930E+01 -0.14334202532E+02  0.14910816410E+02  0.51100000000E-03 0.  1.
        -12    1    3    3    0    0  0.59868039298E+01 -0.11560912107E+02  0.24869080804E+02  0.28070762192E+02  0.00000000000E+00 0.  1.
</event>
<event>
 7    1  0.1358622E-013  0.7246156E+02  0.7816164E-02  0.1226708E+00
        -11   -1    0    0    0    0  0.00000000000E+00  0.00000000000E+00  0.45593999997E+02  0.45594000000E+02  0.51100000000E-03 0.  1.
         11   -1    0    0    0    0 -0.00000000000E+00 -0.00000000000E+00 -0.45593999997E+02  0.45594000000E+02  0.51100000000E-03 0. -1.
    9900012    2    1    2    0    0 -0.17564137353E+02 -0.42764270986E+01 -0.48880324485E+01  0.72461558509E+02  0.69999984648E+02 0.  0.
        -12    1    1    2    0    0  0.17564137353E+02  0.42764270986E+01  0.48880324485E+01  0.18726441491E+02  0.00000000000E+00 0.  1.
         11    1    3    3    0    0  0.12623612018E+01  0.39658152226E+01 -0.62884655974E+01  0.75409578976E+01  0.51100000000E-03 0. -1.
        -11    1    3    3    0    0 -0.14568939047E+02  0.22479314768E+02  0.15392837820E+02  0.30895194348E+02  0.51100000000E-03 0.  1.
         12    1    3    3    0    0 -0.42575595072E+01 -0.30721557089E+02 -0.13992404671E+02  0.34025406264E+02  0.00000000000E+00 0. -1.
</event>
<event>
 7    1  0.1358622E-013  0.7246160E+02  0.7816164E-02  0.1226708E+00
        -11   -1    0    0    0    0  0.00000000000E+00  0.00000000000E+00  0.45593999997E+02  0.45594000000E+02  0.51100000000E-03 0.  1.
         11   -1    0    0    0    0 -0.00000000000E+00 -0.00000000000E+00 -0.45593999997E+02  0.45594000000E+02  0.51100000000E-03 0. -1.
    9900012    2    1    2    0    0 -0.11860348839E+02 -0.86607337880E+01 -0.11619024515E+02  0.72461603790E+02  0.70000043635E+02 0.  0.
        -12    1    1    2    0    0  0.11860348839E+02  0.86607337880E+01  0.11619024515E+02  0.18726396210E+02  0.00000000000E+00 0.  1.
         11    1    3    3    0    0  0.73453469699E+01  0.71597170681E+01 -0.13570318392E+02  0.17010855714E+02  0.51100000000E-03 0. -1.
        -11    1    3    3    0    0 -0.21610766000E+02  0.12746334749E+02 -0.58042753919E+01  0.25752356586E+02  0.51100000000E-03 0.  1.
        -12    1    3    3    0    0  0.24050701921E+01 -0.28566785605E+02  0.77555692683E+01  0.29698391490E+02  0.00000000000E+00 0.  1.
</event>
<event>
 7    1  0.1358622E-013  0.7246155E+02  0.7816164E-02  0.1226708E+00
        -11   -1    0    0    0    0  0.00000000000E+00  0.00000000000E+00  0.45593999997E+02  0.45594000000E+02  0.51100000000E-03 0.  1.
         11   -1    0    0    0    0 -0.00000000000E+00 -0.00000000000E+00 -0.45593999997E+02  0.45594000000E+02  0.51100000000E-03 0. -1.
    9900012    2    1    2    0    0  0.38950072675E+01 -0.11091474427E+02 -0.14576970159E+02  0.72461549573E+02  0.69999973007E+02 0.  0.
        -12    1    1    2    0    0 -0.38950072675E+01  0.11091474427E+02  0.14576970159E+02  0.18726450427E+02  0.00000000000E+00 0.  1.
         11    1    3    3    0    0 -0.45521675510E+01  0.18640845961E+01 -0.22711900090E+01  0.54180573190E+01  0.51100000000E-03 0. -1.
        -11    1    3    3    0    0  0.20847455464E+01 -0.36007594144E+02  0.64647449872E+01  0.36642679051E+02  0.51100000000E-03 0.  1.
         12    1    3    3    0    0  0.63624292721E+01  0.23052035121E+02 -0.18770525137E+02  0.30400813203E+02  0.00000000000E+00 0. -1.
</event>
<event>
 7    1  0.1358622E-013  0.7246141E+02  0.7816164E-02  0.1226708E+00
        -11   -1    0    0    0    0  0.00000000000E+00  0.00000000000E+00  0.45593999997E+02  0.45594000000E+02  0.51100000000E-03 0.  1.
         11   -1    0    0    0    0 -0.00000000000E+00 -0.00000000000E+00 -0.45593999997E+02  0.45594000000E+02  0.51100000000E-03 0. -1.
    9900012    2    1    2    0    0 -0.20444992602E+00  0.14130493047E+02 -0.12287083712E+02  0.72461413027E+02  0.69999795130E+02 0.  0.
        -12    1    1    2    0    0  0.20444992602E+00 -0.14130493047E+02  0.12287083712E+02  0.18726586973E+02  0.00000000000E+00 0.  1.
         11    1    3    3    0    0  0.16073098132E+02  0.22797360704E+02  0.14512403962E+02  0.31443186984E+02  0.51100000000E-03 0. -1.
        -11    1    3    3    0    0 -0.89350687108E+01  0.57180504290E+01 -0.10995856510E+01  0.10664925806E+02  0.51100000000E-03 0.  1.
        -12    1    3    3    0    0 -0.73424793474E+01 -0.14384918087E+02 -0.25699902023E+02  0.30353300238E+02  0.00000000000E+00 0.  1.
</event>
<event>
 7    1  0.1358622E-013  0.7246187E+02  0.7816164E-02  0.1226707E+00
        -11   -1    0    0    0    0  0.00000000000E+00  0.00000000000E+00  0.45593999997E+02  0.45594000000E+02  0.51100000000E-03 0.  1.
         11   -1    0    0    0    0 -0.00000000000E+00 -0.00000000000E+00 -0.45593999997E+02  0.45594000000E+02  0.51100000000E-03 0. -1.
    9900012    2    1    2    0    0  0.85373752796E+01 -0.92626587890E+00 -0.16641006565E+02  0.72461872674E+02  0.70000393905E+02 0.  0.
        -12    1    1    2    0    0 -0.85373752796E+01  0.92626587890E+00  0.16641006565E+02  0.18726127326E+02  0.00000000000E+00 0.  1.
         11    1    3    3    0    0  0.10860186668E+02 -0.91567664171E+01  0.61552845991E+01  0.15481523001E+02  0.51100000000E-03 0. -1.
        -11    1    3    3    0    0 -0.12545593866E+02  0.14194135480E+02  0.10488884926E+02  0.21653685939E+02  0.51100000000E-03 0.  1.
         12    1    3    3    0    0  0.10222782478E+02 -0.59636349421E+01 -0.33285176089E+02  0.35326663734E+02  0.00000000000E+00 0. -1.
</event>
<event>
 7    1  0.1358622E-013  0.7246159E+02  0.7816164E-02  0.1226708E+00
        -11   -1    0    0    0    0  0.00000000000E+00  0.00000000000E+00  0.45593999997E+02  0.45594000000E+02  0.51100000000E-03 0.  1.
         11   -1    0    0    0    0 -0.00000000000E+00 -0.00000000000E+00 -0.45593999997E+02  0.45594000000E+02  0.51100000000E-03 0. -1.
    9900012    2    1    2    0    0 -0.74254998471E+01  0.10359754841E+02 -0.13719183295E+02  0.72461586605E+02  0.70000021248E+02 0.  0.
        -12    1    1    2    0    0  0.74254998471E+01 -0.10359754841E+02  0.13719183295E+02  0.18726413395E+02  0.00000000000E+00 0.  1.
         11    1    3    3    0    0 -0.10475881223E+02  0.21713557748E+02 -0.14653641927E+02  0.28212619507E+02  0.51100000000E-03 0. -1.
        -11    1    3    3    0    0 -0.12201411951E+02 -0.22329416100E+02  0.27996627223E+00  0.25447114932E+02  0.51100000000E-03 0.  1.
         12    1    3    3    0    0  0.15251793327E+02  0.10975613193E+02  0.65449235909E+00  0.18801852167E+02  0.00000000000E+00 0. -1.
</event>
<event>
 7    1  0.1358622E-013  0.7246154E+02  0.7816164E-02  0.1226708E+00
        -11   -1    0    0    0    0  0.00000000000E+00  0.00000000000E+00  0.45593999997E+02  0.45594000000E+02  0.51100000000E-03 0.  1.
         11   -1    0    0    0    0 -0.00000000000E+00 -0.00000000000E+00 -0.45593999997E+02  0.45594000000E+02  0.51100000000E-03 0. -1.
    9900012    2    1    2    0    0 -0.17854121805E+02  0.55483475502E+01 -0.10614249993E+01  0.72461536132E+02  0.69999955497E+02 0.  0.
        -12    1    1    2    0    0  0.17854121805E+02 -0.55483475502E+01  0.10614249993E+01  0.18726463868E+02  0.00000000000E+00 0.  1.
         11    1    3    3    0    0 -0.84909159388E+01  0.21627770056E+01 -0.66256801876E+01  0.10985121577E+02  0.51100000000E-03 0. -1.
        -11    1    3    3    0    0 -0.18710549494E+02 -0.19939556533E+02  0.18695525631E+02  0.33123907619E+02  0.51100000000E-03 0.  1.
         12    1    3    3    0    0  0.93473436277E+01  0.23325127077E+02 -0.13131270443E+02  0.28352506935E+02  0.00000000000E+00 0. -1.
</event>
<event>
 7    1  0.1358622E-013  0.7246157E+02  0.7816164E-02  0.1226708E+00
        -11   -1    0    0    0    0  0.00000000000E+00  0.00000000000E+00  0.45593999997E+02  0.45594000000E+02  0.51100000000E-03 0.  1.
         11   -1    0    0    0    0 -0.00000000000E+00 -0.00000000000E+00 -0.45593999997E+02  0.45594000000E+02  0.51100000000E-03 0. -1.
    9900012    2    1    2    0    0  0.15050597645E+02  0.59393373717E+01 -0.94277694650E+01  0.72461573353E+02  0.70000003984E+02 0.  0.
        -12    1    1    2    0    0 -0.15050597645E+02 -0.59393373717E+01  0.94277694650E+01  0.18726426647E+02  0.00000000000E+00 0.  1.
         11    1    3    3    0    0  0.13437506987E+02  0.23835081244E+02  0.35049044536E+01  0.27585540550E+02  0.51100000000E-03 0. -1.
        -11    1    3    3    0    0 -0.78191994331E+01 -0.89610993611E+01  0.11916245559E+02  0.16835619680E+02  0.51100000000E-03 0.  1.
         12    1    3    3    0    0  0.94322900910E+01 -0.89346445107E+01 -0.24848919478E+02  0.28040413123E+02  0.00000000000E+00 0. -1.
</event>
<event>
 7    1  0.1358622E-013  0.7246159E+02  0.7816164E-02  0.1226708E+00
        -11   -1    0    0    0    0  0.00000000000E+00  0.00000000000E+00  0.45593999997E+02  0.45594000000E+02  0.51100000000E-03 0.  1.
         11   -1    0    0    0    0 -0.00000000000E+00 -0.00000000000E+00 -0.45593999997E+02  0.45594000000E+02  0.51100000000E-03 0. -1.
    9900012    2    1    2    0    0  0.15348384562E+02 -0.69809687844E+00 -0.10705992758E+02  0.72461587400E+02  0.70000022284E+02 0.  0.
        -12    1    1    2    0    0 -0.15348384562E+02  0.69809687844E+00  0.10705992758E+02  0.18726412600E+02  0.00000000000E+00 0.  1.
         11    1    3    3    0    0  0.96090166220E+01  0.10436830978E+02 -0.16167695945E+02  0.21509417327E+02  0.51100000000E-03 0. -1.
        -11    1    3    3    0    0  0.15522224568E+02  0.11229831112E+02 -0.10440439345E+02  0.21818600696E+02  0.51100000000E-03 0.  1.
        -12    1    3    3    0    0 -0.97828566275E+01 -0.22364758969E+02  0.15902142533E+02  0.29133569377E+02  0.00000000000E+00 0.  1.
</event>
<event>
 7    1  0.1358622E-013  0.7246099E+02  0.7816164E-02  0.1226710E+00
        -11   -1    0    0    0    0  0.00000000000E+00  0.00000000000E+00  0.45593999997E+02  0.45594000000E+02  0.51100000000E-03 0.  1.
         11   -1    0    0    0    0 -0.00000000000E+00 -0.00000000000E+00 -0.45593999997E+02  0.45594000000E+02  0.51100000000E-03 0. -1.
    9900012    2    1    2    0    0  0.15752013542E+02 -0.10260837313E+01 -0.10075822950E+02  0.72460987783E+02  0.69999241167E+02 0.  0.
        -12    1    1    2    0    0 -0.15752013542E+02  0.10260837313E+01  0.10075822950E+02  0.18727012217E+02  0.00000000000E+00 0.  1.
         11    1    3    3    0    0  0.96597180376E+01  0.11678598061E+02 -0.21366041590E+02  0.26195563341E+02  0.51100000000E-03 0. -1.
        -11    1    3    3    0    0  0.11633061321E+02  0.11527071480E+02 -0.42895528090E+01  0.16929316471E+02  0.51100000000E-03 0.  1.
        -12    1    3    3    0    0 -0.55407658172E+01 -0.24231753272E+02  0.15579771450E+02  0.29336107972E+02  0.00000000000E+00 0.  1.
</event>
<event>
 7    1  0.1358622E-013  0.7246219E+02  0.7816164E-02  0.1226706E+00
        -11   -1    0    0    0    0  0.00000000000E+00  0.00000000000E+00  0.45593999997E+02  0.45594000000E+02  0.51100000000E-03 0.  1.
         11   -1    0    0    0    0 -0.00000000000E+00 -0.00000000000E+00 -0.45593999997E+02  0.45594000000E+02  0.51100000000E-03 0. -1.
    9900012    2    1    2    0    0  0.76954969674E+01 -0.55413545785E+01 -0.16147093190E+02  0.72462191536E+02  0.70000809278E+02 0.  0.
        -12    1    1    2    0    0 -0.76954969674E+01  0.55413545785E+01  0.16147093190E+02  0.18725808464E+02  0.00000000000E+00 0.  1.
         11    1    3    3    0    0 -0.81024830478E+01  0.10186219479E+01  0.65410403052E+01  0.10462936048E+02  0.51100000000E-03 0. -1.
        -11    1    3    3    0    0 -0.30529782773E+01 -0.14955769674E+02  0.13475957499E+02  0.20361658913E+02  0.51100000000E-03 0.  1.
         12    1    3    3    0    0  0.18850958292E+02  0.83957931473E+01 -0.36164090994E+02  0.41637596575E+02  0.00000000000E+00 0. -1.
</event>
<event>
 7    1  0.1358622E-013  0.7246157E+02  0.7816164E-02  0.1226708E+00
        -11   -1    0    0    0    0  0.00000000000E+00  0.00000000000E+00  0.45593999997E+02  0.45594000000E+02  0.51100000000E-03 0. -1.
         11   -1    0    0    0    0 -0.00000000000E+00 -0.00000000000E+00 -0.45593999997E+02  0.45594000000E+02  0.51100000000E-03 0.  1.
    9900012    2    1    2    0    0  0.51098377893E+01 -0.17142894427E+02 -0.55398335831E+01  0.72461574082E+02  0.70000004933E+02 0.  0.
        -12    1    1    2    0    0 -0.51098377893E+01  0.17142894427E+02  0.55398335831E+01  0.18726425918E+02  0.00000000000E+00 0.  1.
         11    1    3    3    0    0  0.76576236348E+01 -0.42196726735E+01  0.40852407903E+01  0.96505973794E+01  0.51100000000E-03 0. -1.
        -11    1    3    3    0    0  0.11917550770E+02 -0.33726107364E+02 -0.11036922473E+02  0.37433834858E+02  0.51100000000E-03 0.  1.
         12    1    3    3    0    0 -0.14465336615E+02  0.20802885610E+02  0.14118480996E+01  0.25377141844E+02  0.00000000000E+00 0. -1.
</event>
<event>
 7    1  0.1358622E-013  0.7246154E+02  0.7816164E-02  0.1226708E+00
        -11   -1    0    0    0    0  0.00000000000E+00  0.00000000000E+00  0.45593999997E+02  0.45594000000E+02  0.51100000000E-03 0.  1.
         11   -1    0    0    0    0 -0.00000000000E+00 -0.00000000000E+00 -0.45593999997E+02  0.45594000000E+02  0.51100000000E-03 0. -1.
    9900012    2    1    2    0    0  0.15970561849E+02  0.71693318071E+01 -0.66499771569E+01  0.72461538494E+02  0.69999958575E+02 0.  0.
        -12    1    1    2    0    0 -0.15970561849E+02 -0.71693318071E+01  0.66499771569E+01  0.18726461506E+02  0.00000000000E+00 0.  1.
         11    1    3    3    0    0  0.10837034598E+02 -0.24863751437E+02 -0.17774557905E+01  0.27181000786E+02  0.51100000000E-03 0. -1.
        -11    1    3    3    0    0 -0.12124764902E+02  0.54159520914E+01 -0.89374703872E+00  0.13309441950E+02  0.51100000000E-03 0.  1.
         12    1    3    3    0    0  0.17258292153E+02  0.26617131153E+02 -0.39787743277E+01  0.31971095758E+02  0.00000000000E+00 0. -1.
</event>
<event>
 7    1  0.1358622E-013  0.7246166E+02  0.7816164E-02  0.1226708E+00
        -11   -1    0    0    0    0  0.00000000000E+00  0.00000000000E+00  0.45593999997E+02  0.45594000000E+02  0.51100000000E-03 0.  1.
         11   -1    0    0    0    0 -0.00000000000E+00 -0.00000000000E+00 -0.45593999997E+02  0.45594000000E+02  0.51100000000E-03 0. -1.
    9900012    2    1    2    0    0 -0.46661993042E+01  0.15733262434E+02 -0.90203674003E+01  0.72461655167E+02  0.70000110562E+02 0.  0.
        -12    1    1    2    0    0  0.46661993042E+01 -0.15733262434E+02  0.90203674003E+01  0.18726344833E+02  0.00000000000E+00 0.  1.
         11    1    3    3    0    0  0.14360442182E+02  0.12343117238E+02 -0.20067963347E+01  0.19042113186E+02  0.51100000000E-03 0. -1.
        -11    1    3    3    0    0  0.25505591865E+01 -0.89783338795E+01 -0.22336000402E+02  0.24207700131E+02  0.51100000000E-03 0.  1.
        -12    1    3    3    0    0 -0.21577200672E+02  0.12368479075E+02  0.15322429336E+02  0.29211841850E+02  0.00000000000E+00 0.  1.
</event>
<event>
 7    1  0.1358622E-013  0.7246157E+02  0.7816164E-02  0.1226708E+00
        -11   -1    0    0    0    0  0.00000000000E+00  0.00000000000E+00  0.45593999997E+02  0.45594000000E+02  0.51100000000E-03 0.  1.
         11   -1    0    0    0    0 -0.00000000000E+00 -0.00000000000E+00 -0.45593999997E+02  0.45594000000E+02  0.51100000000E-03 0. -1.
    9900012    2    1    2    0    0  0.51617033622E+01 -0.41306196212E+01 -0.17520673063E+02  0.72461569891E+02  0.69999999475E+02 0.  0.
        -12    1    1    2    0    0 -0.51617033622E+01  0.41306196212E+01  0.17520673063E+02  0.18726430109E+02  0.00000000000E+00 0.  1.
         11    1    3    3    0    0  0.19499130540E+02 -0.17033004399E+02 -0.83854265994E+01  0.27214972170E+02  0.51100000000E-03 0. -1.
        -11    1    3    3    0    0 -0.67907434924E+01 -0.14424383396E+02 -0.26022858425E+01  0.16153913625E+02  0.51100000000E-03 0.  1.
        -12    1    3    3    0    0 -0.75466836858E+01  0.27326768174E+02 -0.65329606206E+01  0.29092684097E+02  0.00000000000E+00 0.  1.
</event>
<event>
 7    1  0.1358622E-013  0.7246158E+02  0.7816164E-02  0.1226708E+00
        -11   -1    0    0    0    0  0.00000000000E+00  0.00000000000E+00  0.45593999997E+02  0.45594000000E+02  0.51100000000E-03 0.  1.
         11   -1    0    0    0    0 -0.00000000000E+00 -0.00000000000E+00 -0.45593999997E+02  0.45594000000E+02  0.51100000000E-03 0. -1.
    9900012    2    1    2    0    0 -0.48993371529E+01  0.94330271535E+01 -0.15417300698E+02  0.72461583722E+02  0.70000017492E+02 0.  0.
        -12    1    1    2    0    0  0.48993371529E+01 -0.94330271535E+01  0.15417300698E+02  0.18726416278E+02  0.00000000000E+00 0.  1.
         11    1    3    3    0    0 -0.10943865957E+02  0.59458291015E+01 -0.22482500944E+02  0.25701827459E+02  0.51100000000E-03 0. -1.
        -11    1    3    3    0    0 -0.69996276282E+01  0.22253073961E+02  0.25857059027E+01  0.23470832173E+02  0.51100000000E-03 0.  1.
        -12    1    3    3    0    0  0.13044156432E+02 -0.18765875909E+02  0.44794943438E+01  0.23288924089E+02  0.00000000000E+00 0.  1.
</event>
<event>
 7    1  0.1358622E-013  0.7246158E+02  0.7816164E-02  0.1226708E+00
        -11   -1    0    0    0    0  0.00000000000E+00  0.00000000000E+00  0.45593999997E+02  0.45594000000E+02  0.51100000000E-03 0. -1.
         11   -1    0    0    0    0 -0.00000000000E+00 -0.00000000000E+00 -0.45593999997E+02  0.45594000000E+02  0.51100000000E-03 0.  1.
    9900012    2    1    2    0    0  0.18668833310E+02 -0.79488522021E-01  0.14653517149E+01  0.72461577190E+02  0.70000008983E+02 0.  0.
        -12    1    1    2    0    0 -0.18668833310E+02  0.79488522021E-01 -0.14653517149E+01  0.18726422810E+02  0.00000000000E+00 0.  1.
         11    1    3    3    0    0 -0.57243958845E+01  0.22931256202E+01  0.15023049082E+01  0.63469720064E+01  0.51100000000E-03 0. -1.
        -11    1    3    3    0    0 -0.29906683676E+01 -0.44788899572E+01 -0.27056373599E+02  0.27587169212E+02  0.51100000000E-03 0.  1.
         12    1    3    3    0    0  0.27383897563E+02  0.21062758149E+01  0.27019420406E+02  0.38527435972E+02  0.00000000000E+00 0. -1.
</event>
<event>
 7    1  0.1358622E-013  0.7246160E+02  0.7816164E-02  0.1226708E+00
        -11   -1    0    0    0    0  0.00000000000E+00  0.00000000000E+00  0.45593999997E+02  0.45594000000E+02  0.51100000000E-03 0.  1.
         11   -1    0    0    0    0 -0.00000000000E+00 -0.00000000000E+00 -0.45593999997E+02  0.45594000000E+02  0.51100000000E-03 0. -1.
    9900012    2    1    2    0    0 -0.78172683032E+00  0.11092778814E+00 -0.18709750028E+02  0.72461597572E+02  0.70000035534E+02 0.  0.
        -12    1    1    2    0    0  0.78172683032E+00 -0.11092778814E+00  0.18709750028E+02  0.18726402428E+02  0.00000000000E+00 0.  1.
         11    1    3    3    0    0  0.11396718804E+02 -0.37414691272E+01 -0.37379621119E+01  0.12564081810E+02  0.51100000000E-03 0. -1.
        -11    1    3    3    0    0 -0.19050247407E+02 -0.92813144047E+01 -0.31329296523E+02  0.37823002845E+02  0.51100000000E-03 0.  1.
         12    1    3    3    0    0  0.68718017729E+01  0.13133711320E+02  0.16357508607E+02  0.22074512916E+02  0.00000000000E+00 0. -1.
</event>
<event>
 7    1  0.1358622E-013  0.7246156E+02  0.7816164E-02  0.1226708E+00
        -11   -1    0    0    0    0  0.00000000000E+00  0.00000000000E+00  0.45593999997E+02  0.45594000000E+02  0.51100000000E-03 0.  1.
         11   -1    0    0    0    0 -0.00000000000E+00 -0.00000000000E+00 -0.45593999997E+02  0.45594000000E+02  0.51100000000E-03 0. -1.
    9900012    2    1    2    0    0  0.82565270297E+01  0.52617850928E+01  0.15963172169E+02  0.72461561827E+02  0.69999988970E+02 0.  0.
        -12    1    1    2    0    0 -0.82565270297E+01 -0.52617850928E+01 -0.15963172169E+02  0.18726438173E+02  0.00000000000E+00 0.  1.
         11    1    3    3    0    0 -0.17188412258E+02 -0.88269333887E+01 -0.10059125778E+01  0.19348595023E+02  0.51100000000E-03 0. -1.
        -11    1    3    3    0    0 -0.44918143342E+00 -0.12880452931E+02  0.54259714497E+01  0.13983883513E+02  0.51100000000E-03 0.  1.
         12    1    3    3    0    0  0.25894120721E+02  0.26969171412E+02  0.11543113297E+02  0.39129083291E+02  0.00000000000E+00 0. -1.
</event>
<event>
 7    1  0.1358622E-013  0.7246228E+02  0.7816164E-02  0.1226706E+00
        -11   -1    0    0    0    0  0.00000000000E+00  0.00000000000E+00  0.45593999997E+02  0.45594000000E+02  0.51100000000E-03 0.  1.
         11   -1    0    0    0    0 -0.00000000000E+00 -0.00000000000E+00 -0.45593999997E+02  0.45594000000E+02  0.51100000000E-03 0. -1.
    9900012    2    1    2    0    0  0.16052433113E+02 -0.96413580371E+01 -0.12718904415E+00  0.72462280503E+02  0.70000925172E+02 0.  0.
        -12    1    1    2    0    0 -0.16052433113E+02  0.96413580371E+01  0.12718904415E+00  0.18725719497E+02  0.00000000000E+00 0.  1.
         11    1    3    3    0    0  0.56417611691E+01  0.50335049185E+01 -0.67903395627E+01  0.10162398954E+02  0.51100000000E-03 0. -1.
        -11    1    3    3    0    0 -0.23583714794E+02 -0.33963881066E+01  0.10959406239E+02  0.26226620846E+02  0.51100000000E-03 0.  1.
         12    1    3    3    0    0  0.33994386737E+02 -0.11278474849E+02 -0.42962557201E+01  0.36073260703E+02  0.00000000000E+00 0. -1.
</event>
<event>
 7    1  0.1358622E-013  0.7246157E+02  0.7816164E-02  0.1226708E+00
        -11   -1    0    0    0    0  0.00000000000E+00  0.00000000000E+00  0.45593999997E+02  0.45594000000E+02  0.51100000000E-03 0. -1.
         11   -1    0    0    0    0 -0.00000000000E+00 -0.00000000000E+00 -0.45593999997E+02  0.45594000000E+02  0.51100000000E-03 0.  1.
    9900012    2    1    2    0    0  0.56124057097E+01  0.16740408569E+02  0.62401093421E+01  0.72461565703E+02  0.69999994018E+02 0.  0.
        -12    1    1    2    0    0 -0.56124057097E+01 -0.16740408569E+02 -0.62401093421E+01  0.18726434297E+02  0.00000000000E+00 0.  1.
         11    1    3    3    0    0  0.18980588614E+02  0.66401234252E+01 -0.75109485428E+01  0.21465514937E+02  0.51100000000E-03 0. -1.
        -11    1    3    3    0    0  0.95273826005E+01 -0.47093840771E+01 -0.10179606402E+02  0.14716443333E+02  0.51100000000E-03 0.  1.
         12    1    3    3    0    0 -0.22895565505E+02  0.14809669220E+02  0.23930664287E+02  0.36279607432E+02  0.00000000000E+00 0. -1.
</event>
<event>
 7    1  0.1358622E-013  0.7246146E+02  0.7816164E-02  0.1226708E+00
        -11   -1    0    0    0    0  0.00000000000E+00  0.00000000000E+00  0.45593999997E+02  0.45594000000E+02  0.51100000000E-03 0. -1.
         11   -1    0    0    0    0 -0.00000000000E+00 -0.00000000000E+00 -0.45593999997E+02  0.45594000000E+02  0.51100000000E-03 0.  1.
    9900012    2    1    2    0    0  0.77883957415E+01  0.29646114752E+01  0.16770076228E+02  0.72461455041E+02  0.69999849861E+02 0.  0.
        -12    1    1    2    0    0 -0.77883957415E+01 -0.29646114752E+01 -0.16770076228E+02  0.18726544959E+02  0.00000000000E+00 0.  1.
         11    1    3    3    0    0 -0.25636595326E+02  0.17437886395E+01  0.19917673003E+02  0.32511375192E+02  0.51100000000E-03 0. -1.
        -11    1    3    3    0    0 -0.29846369683E+01 -0.14232264132E+01  0.27884155581E-01  0.33067217970E+01  0.51100000000E-03 0.  1.
        -12    1    3    3    0    0  0.36409628036E+02  0.26440492489E+01 -0.31754809313E+01  0.36643358052E+02  0.00000000000E+00 0.  1.
</event>
<event>
 7    1  0.1358622E-013  0.7246101E+02  0.7816164E-02  0.1226710E+00
        -11   -1    0    0    0    0  0.00000000000E+00  0.00000000000E+00  0.45593999997E+02  0.45594000000E+02  0.51100000000E-03 0.  1.
         11   -1    0    0    0    0 -0.00000000000E+00 -0.00000000000E+00 -0.45593999997E+02  0.45594000000E+02  0.51100000000E-03 0. -1.
    9900012    2    1    2    0    0  0.90149892807E+01  0.11365805789E+02 -0.11842665689E+02  0.72461006018E+02  0.69999264921E+02 0.  0.
        -12    1    1    2    0    0 -0.90149892807E+01 -0.11365805789E+02  0.11842665689E+02  0.18726993982E+02  0.00000000000E+00 0.  1.
         11    1    3    3    0    0 -0.10732563902E+01  0.60746547871E+01  0.85143274529E+01  0.10514137259E+02  0.51100000000E-03 0. -1.
        -11    1    3    3    0    0  0.86714553016E+01 -0.19280272271E+02  0.95643938786E+01  0.23203462380E+02  0.51100000000E-03 0.  1.
         12    1    3    3    0    0  0.14167903693E+01  0.24571423273E+02 -0.29921387021E+02  0.38743406379E+02  0.00000000000E+00 0. -1.
</event>
<event>
 7    1  0.1358622E-013  0.7246160E+02  0.7816164E-02  0.1226708E+00
        -11   -1    0    0    0    0  0.00000000000E+00  0.00000000000E+00  0.45593999997E+02  0.45594000000E+02  0.51100000000E-03 0.  1.
         11   -1    0    0    0    0 -0.00000000000E+00 -0.00000000000E+00 -0.45593999997E+02  0.45594000000E+02  0.51100000000E-03 0. -1.
    9900012    2    1    2    0    0 -0.35213427783E+01 -0.18364575329E+02 -0.10101522825E+01  0.72461604468E+02  0.70000044518E+02 0.  0.
        -12    1    1    2    0    0  0.35213427783E+01  0.18364575329E+02  0.10101522825E+01  0.18726395532E+02  0.00000000000E+00 0.  1.
         11    1    3    3    0    0  0.89650883587E+00  0.21844409089E+01 -0.81604661851E+01  0.84952174073E+01  0.51100000000E-03 0. -1.
        -11    1    3    3    0    0 -0.10097206835E+02  0.18953658543E+02 -0.53755462700E+01  0.22138004788E+02  0.51100000000E-03 0.  1.
         12    1    3    3    0    0  0.56793552211E+01 -0.39502674780E+02  0.12525860173E+02  0.41828382273E+02  0.00000000000E+00 0. -1.
</event>
<event>
 7    1  0.1358622E-013  0.7246158E+02  0.7816164E-02  0.1226708E+00
        -11   -1    0    0    0    0  0.00000000000E+00  0.00000000000E+00  0.45593999997E+02  0.45594000000E+02  0.51100000000E-03 0. -1.
         11   -1    0    0    0    0 -0.00000000000E+00 -0.00000000000E+00 -0.45593999997E+02  0.45594000000E+02  0.51100000000E-03 0.  1.
    9900012    2    1    2    0    0 -0.46159181574E+01  0.14666143567E+02 -0.10690017646E+02  0.72461576293E+02  0.70000007814E+02 0.  0.
        -12    1    1    2    0    0  0.46159181574E+01 -0.14666143567E+02  0.10690017646E+02  0.18726423707E+02  0.00000000000E+00 0.  1.
         11    1    3    3    0    0  0.41468234450E+00  0.20394225848E+02  0.12606201717E+01  0.20437357287E+02  0.51100000000E-03 0. -1.
        -11    1    3    3    0    0 -0.20560118119E+02 -0.17181516512E+02  0.38691597274E+01  0.27072003324E+02  0.51100000000E-03 0.  1.
         12    1    3    3    0    0  0.15529517617E+02  0.11453434231E+02 -0.15819797545E+02  0.24952215683E+02  0.00000000000E+00 0. -1.
</event>
<event>
 7    1  0.1358622E-013  0.7246156E+02  0.7816164E-02  0.1226708E+00
        -11   -1    0    0    0    0  0.00000000000E+00  0.00000000000E+00  0.45593999997E+02  0.45594000000E+02  0.51100000000E-03 0. -1.
         11   -1    0    0    0    0 -0.00000000000E+00 -0.00000000000E+00 -0.45593999997E+02  0.45594000000E+02  0.51100000000E-03 0.  1.
    9900012    2    1    2    0    0 -0.17543291344E+02  0.55760733352E+01 -0.34379874840E+01  0.72461563528E+02  0.69999991185E+02 0.  0.
        -12    1    1    2    0    0  0.17543291344E+02 -0.55760733352E+01  0.34379874840E+01  0.18726436472E+02  0.00000000000E+00 0.  1.
         11    1    3    3    0    0 -0.18794534785E+02 -0.20797721673E+02  0.83769851505E+01  0.29256685476E+02  0.51100000000E-03 0. -1.
        -11    1    3    3    0    0 -0.79788952852E+01 -0.10357083261E+01 -0.11801181685E+02  0.14282974170E+02  0.51100000000E-03 0.  1.
        -12    1    3    3    0    0  0.92301387261E+01  0.27409503335E+02 -0.13790949343E-01  0.28921903882E+02  0.00000000000E+00 0.  1.
</event>
<event>
 7    1  0.1358622E-013  0.7246154E+02  0.7816164E-02  0.1226708E+00
        -11   -1    0    0    0    0  0.00000000000E+00  0.00000000000E+00  0.45593999997E+02  0.45594000000E+02  0.51100000000E-03 0.  1.
         11   -1    0    0    0    0 -0.00000000000E+00 -0.00000000000E+00 -0.45593999997E+02  0.45594000000E+02  0.51100000000E-03 0. -1.
    9900012    2    1    2    0    0  0.18532404838E+02  0.85095942181E+00 -0.25507182978E+01  0.72461539446E+02  0.69999959815E+02 0.  0.
        -12    1    1    2    0    0 -0.18532404838E+02 -0.85095942181E+00  0.25507182978E+01  0.18726460554E+02  0.00000000000E+00 0.  1.
         11    1    3    3    0    0 -0.65771680037E-01 -0.83919919957E+00 -0.10682680871E+02  0.10715794514E+02  0.51100000000E-03 0. -1.
        -11    1    3    3    0    0 -0.14471857735E+02  0.88120403131E+01 -0.13438154824E+02  0.21625695968E+02  0.51100000000E-03 0.  1.
         12    1    3    3    0    0  0.33070034254E+02 -0.71218816917E+01  0.21570117397E+02  0.40120048964E+02  0.00000000000E+00 0. -1.
</event>
<event>
 7    1  0.1730544E-013  0.7246222E+02  0.7816164E-02  0.1226706E+00
        -11   -1    0    0    0    0  0.00000000000E+00  0.00000000000E+00  0.45593999997E+02  0.45594000000E+02  0.51100000000E-03 0.  1.
         11   -1    0    0    0    0 -0.00000000000E+00 -0.00000000000E+00 -0.45593999997E+02  0.45594000000E+02  0.51100000000E-03 0. -1.
    9900012    2    1    2    0    0  0.17957139372E+02  0.50551454232E+01 -0.16252805852E+01  0.72462218664E+02  0.70000844617E+02 0.  0.
        -12    1    1    2    0    0 -0.17957139372E+02 -0.50551454232E+01  0.16252805852E+01  0.18725781336E+02  0.00000000000E+00 0.  1.
         11    1    3    3    0    0  0.45243596945E+01  0.31120441377E+02 -0.79563220167E+01  0.32438476574E+02  0.51100000000E-03 0. -1.
        -11    1    3    3    0    0  0.16216714491E+02 -0.34051363592E+01  0.11336744522E+01  0.16609093910E+02  0.51100000000E-03 0.  1.
        -12    1    3    3    0    0 -0.27839348137E+01 -0.22660159594E+02  0.51973669793E+01  0.23414648180E+02  0.00000000000E+00 0.  1.
</event>
<event>
 7    1  0.1358622E-013  0.7246159E+02  0.7816164E-02  0.1226708E+00
        -11   -1    0    0    0    0  0.00000000000E+00  0.00000000000E+00  0.45593999997E+02  0.45594000000E+02  0.51100000000E-03 0.  1.
         11   -1    0    0    0    0 -0.00000000000E+00 -0.00000000000E+00 -0.45593999997E+02  0.45594000000E+02  0.51100000000E-03 0. -1.
    9900012    2    1    2    0    0 -0.43805264211E+01  0.44168437912E+01 -0.17662986110E+02  0.72461585524E+02  0.70000019840E+02 0.  0.
        -12    1    1    2    0    0  0.43805264211E+01 -0.44168437912E+01  0.17662986110E+02  0.18726414476E+02  0.00000000000E+00 0.  1.
         11    1    3    3    0    0  0.34132765386E+01 -0.67618453062E+01 -0.32848466198E+01  0.82561023644E+01  0.51100000000E-03 0. -1.
        -11    1    3    3    0    0  0.20710333168E+02  0.41394630274E+01 -0.25230681099E+02  0.32903500165E+02  0.51100000000E-03 0.  1.
         12    1    3    3    0    0 -0.28504136128E+02  0.70392260700E+01  0.10852541609E+02  0.31301982995E+02  0.00000000000E+00 0. -1.
</event>
<event>
 7    1  0.1358622E-013  0.7246156E+02  0.7816164E-02  0.1226708E+00
        -11   -1    0    0    0    0  0.00000000000E+00  0.00000000000E+00  0.45593999997E+02  0.45594000000E+02  0.51100000000E-03 0. -1.
         11   -1    0    0    0    0 -0.00000000000E+00 -0.00000000000E+00 -0.45593999997E+02  0.45594000000E+02  0.51100000000E-03 0.  1.
    9900012    2    1    2    0    0 -0.79475509718E+01  0.15262613562E+02  0.73870587298E+01  0.72461559445E+02  0.69999985867E+02 0.  0.
        -12    1    1    2    0    0  0.79475509718E+01 -0.15262613562E+02 -0.73870587298E+01  0.18726440555E+02  0.00000000000E+00 0.  1.
         11    1    3    3    0    0  0.26518805828E+00 -0.14592497502E+02  0.22887829029E+02  0.27145239472E+02  0.51100000000E-03 0. -1.
        -11    1    3    3    0    0  0.16246434784E+01 -0.17153218741E+00  0.65727019455E+01  0.67726878600E+01  0.51100000000E-03 0.  1.
        -12    1    3    3    0    0 -0.98373825085E+01  0.30026643251E+02 -0.22073472245E+02  0.38543632113E+02  0.00000000000E+00 0.  1.
</event>
<event>
 7    1  0.1358622E-013  0.7246156E+02  0.7816164E-02  0.1226708E+00
        -11   -1    0    0    0    0  0.00000000000E+00  0.00000000000E+00  0.45593999997E+02  0.45594000000E+02  0.51100000000E-03 0. -1.
         11   -1    0    0    0    0 -0.00000000000E+00 -0.00000000000E+00 -0.45593999997E+02  0.45594000000E+02  0.51100000000E-03 0.  1.
    9900012    2    1    2    0    0 -0.16793769991E+02  0.35233795698E+01 -0.74989698598E+01  0.72461562457E+02  0.69999989790E+02 0.  0.
        -12    1    1    2    0    0  0.16793769991E+02 -0.35233795698E+01  0.74989698598E+01  0.18726437543E+02  0.00000000000E+00 0.  1.
         11    1    3    3    0    0  0.12045656581E+01  0.10505444404E+02  0.13402022344E+02  0.17071307616E+02  0.51100000000E-03 0. -1.
        -11    1    3    3    0    0  0.16300707538E+01  0.15091619369E+02  0.51255977400E+01  0.16021418735E+02  0.51100000000E-03 0.  1.
        -12    1    3    3    0    0 -0.19628406403E+02 -0.22073684203E+02 -0.26026589943E+02  0.39368836106E+02  0.00000000000E+00 0.  1.
</event>
<event>
 7    1  0.1358622E-013  0.7246157E+02  0.7816164E-02  0.1226708E+00
        -11   -1    0    0    0    0  0.00000000000E+00  0.00000000000E+00  0.45593999997E+02  0.45594000000E+02  0.51100000000E-03 0.  1.
         11   -1    0    0    0    0 -0.00000000000E+00 -0.00000000000E+00 -0.45593999997E+02  0.45594000000E+02  0.51100000000E-03 0. -1.
    9900012    2    1    2    0    0 -0.32988987333E+01 -0.23404733033E+01 -0.18284384799E+02  0.72461567461E+02  0.69999996310E+02 0.  0.
        -12    1    1    2    0    0  0.32988987333E+01  0.23404733033E+01  0.18284384799E+02  0.18726432539E+02  0.00000000000E+00 0.  1.
         11    1    3    3    0    0 -0.20284122558E+02 -0.15685370644E+02  0.47836124778E+01  0.26083700443E+02  0.51100000000E-03 0. -1.
        -11    1    3    3    0    0  0.30677669578E+01 -0.11015838744E+02 -0.10896663021E+02  0.15795479182E+02  0.51100000000E-03 0.  1.
         12    1    3    3    0    0  0.13917456867E+02  0.24360736084E+02 -0.12171334256E+02  0.30582387836E+02  0.00000000000E+00 0. -1.
</event>
<event>
 7    1  0.1358622E-013  0.7246161E+02  0.7816164E-02  0.1226708E+00
        -11   -1    0    0    0    0  0.00000000000E+00  0.00000000000E+00  0.45593999997E+02  0.45594000000E+02  0.51100000000E-03 0.  1.
         11   -1    0    0    0    0 -0.00000000000E+00 -0.00000000000E+00 -0.45593999997E+02  0.45594000000E+02  0.51100000000E-03 0. -1.
    9900012    2    1    2    0    0  0.18492330679E+02 -0.15406828395E+01  0.25174719558E+01  0.72461610529E+02  0.70000052414E+02 0.  0.
        -12    1    1    2    0    0 -0.18492330679E+02  0.15406828395E+01 -0.25174719558E+01  0.18726389471E+02  0.00000000000E+00 0.  1.
         11    1    3    3    0    0  0.20692115548E+02  0.99307417950E-01  0.13509794132E+02  0.24712103221E+02  0.51100000000E-03 0.  1.
        -11    1    3    3    0    0  0.73801131476E+00  0.19813300271E+02 -0.16054760895E+02  0.25512092740E+02  0.51100000000E-03 0. -1.
         12    1    3    3    0    0 -0.29377961841E+01 -0.21453290528E+02  0.50624387190E+01  0.22237414568E+02  0.00000000000E+00 0. -1.
</event>
<event>
 7    1  0.1358622E-013  0.7246157E+02  0.7816164E-02  0.1226708E+00
        -11   -1    0    0    0    0  0.00000000000E+00  0.00000000000E+00  0.45593999997E+02  0.45594000000E+02  0.51100000000E-03 0.  1.
         11   -1    0    0    0    0 -0.00000000000E+00 -0.00000000000E+00 -0.45593999997E+02  0.45594000000E+02  0.51100000000E-03 0. -1.
    9900012    2    1    2    0    0  0.80679705081E+01 -0.25516993948E+01 -0.16705567049E+02  0.72461567122E+02  0.69999995867E+02 0.  0.
        -12    1    1    2    0    0 -0.80679705081E+01  0.25516993948E+01  0.16705567049E+02  0.18726432878E+02  0.00000000000E+00 0.  1.
         11    1    3    3    0    0 -0.66818923217E+01 -0.20862967819E+02  0.79005743815E+01  0.23287983747E+02  0.51100000000E-03 0. -1.
        -11    1    3    3    0    0  0.74570430936E+01 -0.17664774615E+01 -0.26635667919E+02  0.27716181917E+02  0.51100000000E-03 0.  1.
        -12    1    3    3    0    0  0.72928197362E+01  0.20077745885E+02  0.20295264886E+01  0.21457401458E+02  0.00000000000E+00 0.  1.
</event>
<event>
 7    1  0.1358622E-013  0.7246158E+02  0.7816164E-02  0.1226708E+00
        -11   -1    0    0    0    0  0.00000000000E+00  0.00000000000E+00  0.45593999997E+02  0.45594000000E+02  0.51100000000E-03 0.  1.
         11   -1    0    0    0    0 -0.00000000000E+00 -0.00000000000E+00 -0.45593999997E+02  0.45594000000E+02  0.51100000000E-03 0. -1.
    9900012    2    1    2    0    0 -0.14639835248E+02  0.17237984208E+01 -0.11549138897E+02  0.72461578389E+02  0.70000010545E+02 0.  0.
        -12    1    1    2    0    0  0.14639835248E+02 -0.17237984208E+01  0.11549138897E+02  0.18726421611E+02  0.00000000000E+00 0.  1.
         11    1    3    3    0    0  0.68088824408E+01  0.39463711667E+01 -0.92467256478E+01  0.12142349894E+02  0.51100000000E-03 0. -1.
        -11    1    3    3    0    0 -0.13003702724E+02 -0.10709114803E+02  0.25206742617E+02  0.30317673031E+02  0.51100000000E-03 0.  1.
         12    1    3    3    0    0 -0.84450149643E+01  0.84865420568E+01 -0.27509155866E+02  0.30001555465E+02  0.00000000000E+00 0. -1.
</event>
<event>
 7    1  0.1358622E-013  0.7246158E+02  0.7816164E-02  0.1226708E+00
        -11   -1    0    0    0    0  0.00000000000E+00  0.00000000000E+00  0.45593999997E+02  0.45594000000E+02  0.51100000000E-03 0.  1.
         11   -1    0    0    0    0 -0.00000000000E+00 -0.00000000000E+00 -0.45593999997E+02  0.45594000000E+02  0.51100000000E-03 0. -1.
    9900012    2    1    2    0    0  0.10943001239E+02  0.73163707998E+01 -0.13319165622E+02  0.72461582012E+02  0.70000015264E+02 0.  0.
        -12    1    1    2    0    0 -0.10943001239E+02 -0.73163707998E+01  0.13319165622E+02  0.18726417988E+02  0.00000000000E+00 0.  1.
         11    1    3    3    0    0  0.42833482503E+01  0.17825929944E+02 -0.18183888778E+02  0.25821786575E+02  0.51100000000E-03 0. -1.
        -11    1    3    3    0    0 -0.12704312213E+02 -0.16340174687E+02 -0.85264122283E+01  0.22385275593E+02  0.51100000000E-03 0.  1.
         12    1    3    3    0    0  0.19363965202E+02  0.58306155435E+01  0.13391135384E+02  0.24254519844E+02  0.00000000000E+00 0. -1.
</event>
<event>
 7    1  0.1358622E-013  0.7246156E+02  0.7816164E-02  0.1226708E+00
        -11   -1    0    0    0    0  0.00000000000E+00  0.00000000000E+00  0.45593999997E+02  0.45594000000E+02  0.51100000000E-03 0. -1.
         11   -1    0    0    0    0 -0.00000000000E+00 -0.00000000000E+00 -0.45593999997E+02  0.45594000000E+02  0.51100000000E-03 0.  1.
    9900012    2    1    2    0    0  0.12904095034E+02 -0.92718396834E+01  0.99094363408E+01  0.72461558578E+02  0.69999984737E+02 0.  0.
        -12    1    1    2    0    0 -0.12904095034E+02  0.92718396834E+01 -0.99094363408E+01  0.18726441422E+02  0.00000000000E+00 0.  1.
         11    1    3    3    0    0  0.20112934290E+02  0.20122723590E+02 -0.53308383162E+01  0.28946018169E+02  0.51100000000E-03 0. -1.
        -11    1    3    3    0    0 -0.32115720738E+01  0.40463210411E+01 -0.21693343744E+01  0.56029386077E+01  0.51100000000E-03 0.  1.
        -12    1    3    3    0    0 -0.39972671826E+01 -0.33440884315E+02  0.17409609031E+02  0.37912601801E+02  0.00000000000E+00 0.  1.
</event>
<event>
 7    1  0.1358622E-013  0.7246155E+02  0.7816164E-02  0.1226708E+00
        -11   -1    0    0    0    0  0.00000000000E+00  0.00000000000E+00  0.45593999997E+02  0.45594000000E+02  0.51100000000E-03 0.  1.
         11   -1    0    0    0    0 -0.00000000000E+00 -0.00000000000E+00 -0.45593999997E+02  0.45594000000E+02  0.51100000000E-03 0. -1.
    9900012    2    1    2    0    0  0.37017943895E+01 -0.18356116341E+02  0.17187210638E+00  0.72461552690E+02  0.69999977067E+02 0.  0.
        -12    1    1    2    0    0 -0.37017943895E+01  0.18356116341E+02 -0.17187210638E+00  0.18726447310E+02  0.00000000000E+00 0.  1.
         11    1    3    3    0    0 -0.39998464947E+01 -0.32895277957E+02  0.69001016643E+01  0.33848330639E+02  0.51100000000E-03 0. -1.
        -11    1    3    3    0    0 -0.59500677324E+01  0.10656318935E+02  0.10634161243E+02  0.16187829529E+02  0.51100000000E-03 0.  1.
        -12    1    3    3    0    0  0.13651708617E+02  0.38828426805E+01 -0.17362390801E+02  0.22425392522E+02  0.00000000000E+00 0.  1.
</event>
<event>
 7    1  0.1358622E-013  0.7246156E+02  0.7816164E-02  0.1226708E+00
        -11   -1    0    0    0    0  0.00000000000E+00  0.00000000000E+00  0.45593999997E+02  0.45594000000E+02  0.51100000000E-03 0.  1.
         11   -1    0    0    0    0 -0.00000000000E+00 -0.00000000000E+00 -0.45593999997E+02  0.45594000000E+02  0.51100000000E-03 0. -1.
    9900012    2    1    2    0    0  0.57670099843E+01 -0.15865469605E+02 -0.81060564893E+01  0.72461556618E+02  0.69999982184E+02 0.  0.
        -12    1    1    2    0    0 -0.57670099843E+01  0.15865469605E+02  0.81060564893E+01  0.18726443382E+02  0.00000000000E+00 0.  1.
         11    1    3    3    0    0  0.92382675085E+01 -0.14751732066E+02 -0.21812266700E+02  0.27905808792E+02  0.51100000000E-03 0. -1.
        -11    1    3    3    0    0  0.82706121980E+01 -0.12648593326E+02 -0.81694297396E+01  0.17179334148E+02  0.51100000000E-03 0.  1.
        -12    1    3    3    0    0 -0.11741869722E+02  0.11534855787E+02  0.21875639950E+02  0.27376413677E+02  0.00000000000E+00 0.  1.
</event>
<event>
 7    1  0.1358622E-013  0.7246161E+02  0.7816164E-02  0.1226708E+00
        -11   -1    0    0    0    0  0.00000000000E+00  0.00000000000E+00  0.45593999997E+02  0.45594000000E+02  0.51100000000E-03 0. -1.
         11   -1    0    0    0    0 -0.00000000000E+00 -0.00000000000E+00 -0.45593999997E+02  0.45594000000E+02  0.51100000000E-03 0.  1.
    9900012    2    1    2    0    0  0.22042318344E+01  0.79873564938E+01 -0.16793490055E+02  0.72461606595E+02  0.70000047288E+02 0.  0.
        -12    1    1    2    0    0 -0.22042318344E+01 -0.79873564938E+01  0.16793490055E+02  0.18726393405E+02  0.00000000000E+00 0.  1.
         11    1    3    3    0    0 -0.26864662827E+02 -0.35047608497E+01 -0.98157869610E+01  0.28815675098E+02  0.51100000000E-03 0. -1.
        -11    1    3    3    0    0  0.35284739845E+01 -0.66000877867E+01 -0.96737532709E+01  0.12230813140E+02  0.51100000000E-03 0.  1.
         12    1    3    3    0    0  0.25540420677E+02  0.18092205130E+02  0.26960501771E+01  0.31415118357E+02  0.00000000000E+00 0. -1.
</event>
<event>
 7    1  0.1358622E-013  0.7246147E+02  0.7816164E-02  0.1226708E+00
        -11   -1    0    0    0    0  0.00000000000E+00  0.00000000000E+00  0.45593999997E+02  0.45594000000E+02  0.51100000000E-03 0.  1.
         11   -1    0    0    0    0 -0.00000000000E+00 -0.00000000000E+00 -0.45593999997E+02  0.45594000000E+02  0.51100000000E-03 0. -1.
    9900012    2    1    2    0    0  0.15015125199E+02 -0.97661760787E+01 -0.54635752324E+01  0.72461472445E+02  0.69999872533E+02 0.  0.
        -12    1    1    2    0    0 -0.15015125199E+02  0.97661760787E+01  0.54635752324E+01  0.18726527555E+02  0.00000000000E+00 0.  1.
         11    1    3    3    0    0  0.13386284012E+01  0.16644409553E+02 -0.20794788792E+02  0.26669299513E+02  0.51100000000E-03 0. -1.
        -11    1    3    3    0    0  0.70503729931E+01 -0.20987491640E+00 -0.75856051729E+01  0.10358243718E+02  0.51100000000E-03 0.  1.
        -12    1    3    3    0    0  0.66261238049E+01 -0.26200710716E+02  0.22916818732E+02  0.35433929213E+02  0.00000000000E+00 0.  1.
</event>
<event>
 7    1  0.1358622E-013  0.7246158E+02  0.7816164E-02  0.1226708E+00
        -11   -1    0    0    0    0  0.00000000000E+00  0.00000000000E+00  0.45593999997E+02  0.45594000000E+02  0.51100000000E-03 0. -1.
         11   -1    0    0    0    0 -0.00000000000E+00 -0.00000000000E+00 -0.45593999997E+02  0.45594000000E+02  0.51100000000E-03 0.  1.
    9900012    2    1    2    0    0 -0.33326492160E+01  0.18035631376E+02  0.37799882558E+01  0.72461578528E+02  0.70000010726E+02 0.  0.
        -12    1    1    2    0    0  0.33326492160E+01 -0.18035631376E+02 -0.37799882558E+01  0.18726421472E+02  0.00000000000E+00 0.  1.
         11    1    3    3    0    0 -0.26142633764E+01 -0.34235477839E+01  0.68324613024E+00  0.43614077963E+01  0.51100000000E-03 0. -1.
        -11    1    3    3    0    0 -0.16642964317E+02 -0.16556094483E+02  0.11335494600E+02  0.26068869632E+02  0.51100000000E-03 0.  1.
         12    1    3    3    0    0  0.15924578477E+02  0.38015273643E+02 -0.82387524745E+01  0.42031301100E+02  0.00000000000E+00 0. -1.
</event>
<event>
 7    1  0.1358622E-013  0.7246155E+02  0.7816164E-02  0.1226708E+00
        -11   -1    0    0    0    0  0.00000000000E+00  0.00000000000E+00  0.45593999997E+02  0.45594000000E+02  0.51100000000E-03 0. -1.
         11   -1    0    0    0    0 -0.00000000000E+00 -0.00000000000E+00 -0.45593999997E+02  0.45594000000E+02  0.51100000000E-03 0.  1.
    9900012    2    1    2    0    0 -0.13634963371E+02  0.10099832147E+02  0.79222006307E+01  0.72461545494E+02  0.69999967693E+02 0.  0.
        -12    1    1    2    0    0  0.13634963371E+02 -0.10099832147E+02 -0.79222006307E+01  0.18726454506E+02  0.00000000000E+00 0.  1.
         11    1    3    3    0    0 -0.27987125480E+02 -0.54358792952E+01  0.37297497557E+00  0.28512577698E+02  0.51100000000E-03 0. -1.
        -11    1    3    3    0    0 -0.88226843683E+01  0.17021527570E+02  0.78692990419E+01  0.20724334198E+02  0.51100000000E-03 0.  1.
        -12    1    3    3    0    0  0.23174846478E+02 -0.14858161272E+01 -0.32007338677E+00  0.23224633599E+02  0.00000000000E+00 0.  1.
</event>
<event>
 7    1  0.1358622E-013  0.7246154E+02  0.7816164E-02  0.1226708E+00
        -11   -1    0    0    0    0  0.00000000000E+00  0.00000000000E+00  0.45593999997E+02  0.45594000000E+02  0.51100000000E-03 0. -1.
         11   -1    0    0    0    0 -0.00000000000E+00 -0.00000000000E+00 -0.45593999997E+02  0.45594000000E+02  0.51100000000E-03 0.  1.
    9900012    2    1    2    0    0  0.17097399633E+02 -0.74483028052E+01 -0.16976698306E+01  0.72461538195E+02  0.69999958185E+02 0.  0.
        -12    1    1    2    0    0 -0.17097399633E+02  0.74483028052E+01  0.16976698306E+01  0.18726461805E+02  0.00000000000E+00 0.  1.
         11    1    3    3    0    0 -0.67478658073E+00 -0.99483177745E+01  0.16156920165E+02  0.18986058911E+02  0.51100000000E-03 0. -1.
        -11    1    3    3    0    0 -0.14708495692E+02  0.67478790675E+01 -0.12124729753E+02  0.20220850360E+02  0.51100000000E-03 0.  1.
        -12    1    3    3    0    0  0.32480681906E+02 -0.42478640982E+01 -0.57298602423E+01  0.33254628924E+02  0.00000000000E+00 0.  1.
</event>
<event>
 7    1  0.1358622E-013  0.7246160E+02  0.7816164E-02  0.1226708E+00
        -11   -1    0    0    0    0  0.00000000000E+00  0.00000000000E+00  0.45593999997E+02  0.45594000000E+02  0.51100000000E-03 0.  1.
         11   -1    0    0    0    0 -0.00000000000E+00 -0.00000000000E+00 -0.45593999997E+02  0.45594000000E+02  0.51100000000E-03 0. -1.
    9900012    2    1    2    0    0 -0.44948257675E+00  0.99231955417E+01 -0.15874703307E+02  0.72461600201E+02  0.70000038959E+02 0.  0.
        -12    1    1    2    0    0  0.44948257675E+00 -0.99231955417E+01  0.15874703307E+02  0.18726399799E+02  0.00000000000E+00 0.  1.
         11    1    3    3    0    0  0.17425756663E+02 -0.78116728234E+01  0.10556810607E+02  0.21820299678E+02  0.51100000000E-03 0. -1.
        -11    1    3    3    0    0  0.79751800962E+00 -0.66383674421E+01 -0.17394334076E+02  0.18635096337E+02  0.51100000000E-03 0.  1.
         12    1    3    3    0    0 -0.18672757250E+02  0.24373235807E+02 -0.90371798371E+01  0.32006204186E+02  0.00000000000E+00 0. -1.
</event>
<event>
 7    1  0.1358622E-013  0.7246165E+02  0.7816164E-02  0.1226708E+00
        -11   -1    0    0    0    0  0.00000000000E+00  0.00000000000E+00  0.45593999997E+02  0.45594000000E+02  0.51100000000E-03 0. -1.
         11   -1    0    0    0    0 -0.00000000000E+00 -0.00000000000E+00 -0.45593999997E+02  0.45594000000E+02  0.51100000000E-03 0.  1.
    9900012    2    1    2    0    0  0.14277193688E+02 -0.11299020531E+02 -0.43783605582E+01  0.72461650496E+02  0.70000104478E+02 0.  0.
        -12    1    1    2    0    0 -0.14277193688E+02  0.11299020531E+02  0.43783605582E+01  0.18726349504E+02  0.00000000000E+00 0.  1.
         11    1    3    3    0    0 -0.76234550236E+01 -0.67966584875E+00  0.20286634825E+02  0.21682402195E+02  0.51100000000E-03 0. -1.
        -11    1    3    3    0    0  0.97823291390E+01  0.12411234853E+02 -0.13877464166E+01  0.15863749693E+02  0.51100000000E-03 0.  1.
         12    1    3    3    0    0  0.12118319573E+02 -0.23030589535E+02 -0.23277248967E+02  0.34915498608E+02  0.00000000000E+00 0. -1.
</event>
<event>
 7    1  0.1358622E-013  0.7246156E+02  0.7816164E-02  0.1226708E+00
        -11   -1    0    0    0    0  0.00000000000E+00  0.00000000000E+00  0.45593999997E+02  0.45594000000E+02  0.51100000000E-03 0. -1.
         11   -1    0    0    0    0 -0.00000000000E+00 -0.00000000000E+00 -0.45593999997E+02  0.45594000000E+02  0.51100000000E-03 0.  1.
    9900012    2    1    2    0    0  0.61725698146E+01  0.82428250556E+01 -0.15640803988E+02  0.72461560605E+02  0.69999987378E+02 0.  0.
        -12    1    1    2    0    0 -0.61725698146E+01 -0.82428250556E+01  0.15640803988E+02  0.18726439395E+02  0.00000000000E+00 0.  1.
         11    1    3    3    0    0  0.14314942460E+02  0.11163976612E+02  0.15973815416E+01  0.18223709268E+02  0.51100000000E-03 0. -1.
        -11    1    3    3    0    0  0.64958596794E+01 -0.95346887322E+01  0.14581454880E+02  0.18593690028E+02  0.51100000000E-03 0.  1.
        -12    1    3    3    0    0 -0.14638232325E+02  0.66135371755E+01 -0.31819640410E+02  0.35644161308E+02  0.00000000000E+00 0.  1.
</event>
<event>
 7    1  0.1358622E-013  0.7246155E+02  0.7816164E-02  0.1226708E+00
        -11   -1    0    0    0    0  0.00000000000E+00  0.00000000000E+00  0.45593999997E+02  0.45594000000E+02  0.51100000000E-03 0. -1.
         11   -1    0    0    0    0 -0.00000000000E+00 -0.00000000000E+00 -0.45593999997E+02  0.45594000000E+02  0.51100000000E-03 0.  1.
    9900012    2    1    2    0    0 -0.10436707689E+02 -0.94693600390E+01  0.12332323891E+02  0.72461551872E+02  0.69999976002E+02 0.  0.
        -12    1    1    2    0    0  0.10436707689E+02  0.94693600390E+01 -0.12332323891E+02  0.18726448128E+02  0.00000000000E+00 0.  1.
         11    1    3    3    0    0  0.18536712112E+02 -0.97847776632E+01  0.14043190281E+02  0.25230195468E+02  0.51100000000E-03 0. -1.
        -11    1    3    3    0    0 -0.95986918621E+00  0.14811089395E+02 -0.46485016798E+01  0.15553079632E+02  0.51100000000E-03 0.  1.
         12    1    3    3    0    0 -0.28013550615E+02 -0.14495671770E+02  0.29376352904E+01  0.31678276772E+02  0.00000000000E+00 0. -1.
</event>
<event>
 7    1  0.1358622E-013  0.7246175E+02  0.7816164E-02  0.1226708E+00
        -11   -1    0    0    0    0  0.00000000000E+00  0.00000000000E+00  0.45593999997E+02  0.45594000000E+02  0.51100000000E-03 0.  1.
         11   -1    0    0    0    0 -0.00000000000E+00 -0.00000000000E+00 -0.45593999997E+02  0.45594000000E+02  0.51100000000E-03 0. -1.
    9900012    2    1    2    0    0  0.18295389469E+02 -0.23476612286E+01 -0.32310609134E+01  0.72461747206E+02  0.70000230460E+02 0.  0.
        -12    1    1    2    0    0 -0.18295389469E+02  0.23476612286E+01  0.32310609134E+01  0.18726252794E+02  0.00000000000E+00 0.  1.
         11    1    3    3    0    0  0.45772934139E+01 -0.30079028960E+01  0.75728598758E+00  0.55292474313E+01  0.51100000000E-03 0. -1.
        -11    1    3    3    0    0  0.11607271973E+02 -0.81973139587E+01  0.29223416986E+02  0.32495119932E+02  0.51100000000E-03 0.  1.
         12    1    3    3    0    0  0.21108240826E+01  0.88575556261E+01 -0.33211763887E+02  0.34437379843E+02  0.00000000000E+00 0. -1.
</event>
<event>
 7    1  0.1358622E-013  0.7246157E+02  0.7816164E-02  0.1226708E+00
        -11   -1    0    0    0    0  0.00000000000E+00  0.00000000000E+00  0.45593999997E+02  0.45594000000E+02  0.51100000000E-03 0. -1.
         11   -1    0    0    0    0 -0.00000000000E+00 -0.00000000000E+00 -0.45593999997E+02  0.45594000000E+02  0.51100000000E-03 0.  1.
    9900012    2    1    2    0    0 -0.75960873538E+00 -0.74594191237E+01  0.17159809935E+02  0.72461574391E+02  0.70000005336E+02 0.  0.
        -12    1    1    2    0    0  0.75960873538E+00  0.74594191237E+01 -0.17159809935E+02  0.18726425609E+02  0.00000000000E+00 0.  1.
         11    1    3    3    0    0  0.54521121902E+01  0.29654679775E+02  0.77458307924E+01  0.31130747739E+02  0.51100000000E-03 0. -1.
        -11    1    3    3    0    0 -0.52054947675E+01 -0.42117973863E+01 -0.10764577833E+01  0.67819742419E+01  0.51100000000E-03 0.  1.
        -12    1    3    3    0    0 -0.10062261580E+01 -0.32902301512E+02  0.10490436926E+02  0.34548852409E+02  0.00000000000E+00 0.  1.
</event>
<event>
 7    1  0.1358622E-013  0.7246161E+02  0.7816164E-02  0.1226708E+00
        -11   -1    0    0    0    0  0.00000000000E+00  0.00000000000E+00  0.45593999997E+02  0.45594000000E+02  0.51100000000E-03 0. -1.
         11   -1    0    0    0    0 -0.00000000000E+00 -0.00000000000E+00 -0.45593999997E+02  0.45594000000E+02  0.51100000000E-03 0.  1.
    9900012    2    1    2    0    0 -0.86977559421E+01  0.92200850521E+01  0.13784650604E+02  0.72461614362E+02  0.70000057406E+02 0.  0.
        -12    1    1    2    0    0  0.86977559421E+01 -0.92200850521E+01 -0.13784650604E+02  0.18726385638E+02  0.00000000000E+00 0.  1.
         11    1    3    3    0    0 -0.17737015657E+02 -0.13974435829E+02 -0.35250890129E+01  0.22854164478E+02  0.51100000000E-03 0. -1.
        -11    1    3    3    0    0  0.58735695593E+01 -0.10599996822E+02  0.75960255300E+01  0.14302389874E+02  0.51100000000E-03 0.  1.
        -12    1    3    3    0    0  0.31656901560E+01  0.33794517703E+02  0.97137140867E+01  0.35305060010E+02  0.00000000000E+00 0.  1.
</event>
<event>
 7    1  0.1358622E-013  0.7246159E+02  0.7816164E-02  0.1226708E+00
        -11   -1    0    0    0    0  0.00000000000E+00  0.00000000000E+00  0.45593999997E+02  0.45594000000E+02  0.51100000000E-03 0.  1.
         11   -1    0    0    0    0 -0.00000000000E+00 -0.00000000000E+00 -0.45593999997E+02  0.45594000000E+02  0.51100000000E-03 0. -1.
    9900012    2    1    2    0    0 -0.75394705407E+00 -0.18545982633E+02 -0.24812708786E+01  0.72461585149E+02  0.70000019351E+02 0.  0.
        -12    1    1    2    0    0  0.75394705407E+00  0.18545982633E+02  0.24812708786E+01  0.18726414851E+02  0.00000000000E+00 0.  1.
         11    1    3    3    0    0 -0.57651474398E+00 -0.18118537246E+02 -0.12580604812E+02  0.22065479349E+02  0.51100000000E-03 0. -1.
        -11    1    3    3    0    0 -0.82771731752E+01  0.15888972179E+02 -0.12145384704E+02  0.21644431214E+02  0.51100000000E-03 0.  1.
        -12    1    3    3    0    0  0.80997408651E+01 -0.16316417567E+02  0.22244718637E+02  0.28751674587E+02  0.00000000000E+00 0.  1.
</event>
<event>
 7    1  0.1358622E-013  0.7246157E+02  0.7816164E-02  0.1226708E+00
        -11   -1    0    0    0    0  0.00000000000E+00  0.00000000000E+00  0.45593999997E+02  0.45594000000E+02  0.51100000000E-03 0.  1.
         11   -1    0    0    0    0 -0.00000000000E+00 -0.00000000000E+00 -0.45593999997E+02  0.45594000000E+02  0.51100000000E-03 0. -1.
    9900012    2    1    2    0    0  0.13391307730E+02  0.45602294115E+01 -0.12270143339E+02  0.72461568611E+02  0.69999997808E+02 0.  0.
        -12    1    1    2    0    0 -0.13391307730E+02 -0.45602294115E+01  0.12270143339E+02  0.18726431389E+02  0.00000000000E+00 0.  1.
         11    1    3    3    0    0 -0.60565920174E+01 -0.65894616144E+01  0.66004367395E+01  0.11120659902E+02  0.51100000000E-03 0. -1.
        -11    1    3    3    0    0 -0.44466752534E+01  0.28208961517E+02 -0.55076407657E+01  0.29083544105E+02  0.51100000000E-03 0.  1.
         12    1    3    3    0    0  0.23894575000E+02 -0.17059270491E+02 -0.13362939313E+02  0.32257364604E+02  0.00000000000E+00 0. -1.
</event>
<event>
 7    1  0.1358622E-013  0.7246168E+02  0.7816164E-02  0.1226708E+00
        -11   -1    0    0    0    0  0.00000000000E+00  0.00000000000E+00  0.45593999997E+02  0.45594000000E+02  0.51100000000E-03 0. -1.
         11   -1    0    0    0    0 -0.00000000000E+00 -0.00000000000E+00 -0.45593999997E+02  0.45594000000E+02  0.51100000000E-03 0.  1.
    9900012    2    1    2    0    0 -0.17141049551E+02 -0.74587697027E+01 -0.11073202604E+01  0.72461682066E+02  0.70000145604E+02 0.  0.
        -12    1    1    2    0    0  0.17141049551E+02  0.74587697027E+01  0.11073202604E+01  0.18726317934E+02  0.00000000000E+00 0.  1.
         11    1    3    3    0    0 -0.18409350484E+02  0.16738734821E+01  0.18137192148E+02  0.25897177007E+02  0.51100000000E-03 0. -1.
        -11    1    3    3    0    0 -0.19506003856E+02 -0.69052415890E+01 -0.14123371140E+02  0.25052667731E+02  0.51100000000E-03 0.  1.
        -12    1    3    3    0    0  0.20774304789E+02 -0.22274015958E+01 -0.51211412682E+01  0.21511837328E+02  0.00000000000E+00 0.  1.
</event>
<event>
 7    1  0.1358622E-013  0.7246161E+02  0.7816164E-02  0.1226708E+00
        -11   -1    0    0    0    0  0.00000000000E+00  0.00000000000E+00  0.45593999997E+02  0.45594000000E+02  0.51100000000E-03 0.  1.
         11   -1    0    0    0    0 -0.00000000000E+00 -0.00000000000E+00 -0.45593999997E+02  0.45594000000E+02  0.51100000000E-03 0. -1.
    9900012    2    1    2    0    0 -0.13280970247E+01 -0.70749913325E+00 -0.18665832584E+02  0.72461609456E+02  0.70000051016E+02 0.  0.
        -12    1    1    2    0    0  0.13280970247E+01  0.70749913325E+00  0.18665832584E+02  0.18726390544E+02  0.00000000000E+00 0.  1.
         11    1    3    3    0    0  0.10396452620E+02 -0.23961047761E+02 -0.11605530941E+02  0.28581574232E+02  0.51100000000E-03 0. -1.
        -11    1    3    3    0    0 -0.75563821388E+01 -0.78348776004E+01  0.23428038535E+01  0.11134313998E+02  0.51100000000E-03 0.  1.
        -12    1    3    3    0    0 -0.41681675055E+01  0.31088426228E+02 -0.94031054969E+01  0.32745721227E+02  0.00000000000E+00 0.  1.
</event>
<event>
 7    1  0.1358622E-013  0.7246156E+02  0.7816164E-02  0.1226708E+00
        -11   -1    0    0    0    0  0.00000000000E+00  0.00000000000E+00  0.45593999997E+02  0.45594000000E+02  0.51100000000E-03 0.  1.
         11   -1    0    0    0    0 -0.00000000000E+00 -0.00000000000E+00 -0.45593999997E+02  0.45594000000E+02  0.51100000000E-03 0. -1.
    9900012    2    1    2    0    0  0.12453506228E+02  0.52586992127E+01 -0.12959000033E+02  0.72461563697E+02  0.69999991405E+02 0.  0.
        -12    1    1    2    0    0 -0.12453506228E+02 -0.52586992127E+01  0.12959000033E+02  0.18726436303E+02  0.00000000000E+00 0.  1.
         11    1    3    3    0    0  0.59365123814E+01 -0.51637254055E+01 -0.25968710642E+02  0.27134483079E+02  0.51100000000E-03 0. -1.
        -11    1    3    3    0    0  0.22436671944E+02  0.64247948309E+01  0.16454218406E+02  0.28555621867E+02  0.51100000000E-03 0.  1.
         12    1    3    3    0    0 -0.15919678098E+02  0.39976297873E+01 -0.34445077969E+01  0.16771458751E+02  0.00000000000E+00 0. -1.
</event>
<event>
 7    1  0.1358622E-013  0.7246158E+02  0.7816164E-02  0.1226708E+00
        -11   -1    0    0    0    0  0.00000000000E+00  0.00000000000E+00  0.45593999997E+02  0.45594000000E+02  0.51100000000E-03 0. -1.
         11   -1    0    0    0    0 -0.00000000000E+00 -0.00000000000E+00 -0.45593999997E+02  0.45594000000E+02  0.51100000000E-03 0.  1.
    9900012    2    1    2    0    0  0.14316778599E+02 -0.12057370476E+02 -0.57327018333E+00  0.72461575596E+02  0.70000006907E+02 0.  0.
        -12    1    1    2    0    0 -0.14316778599E+02  0.12057370476E+02  0.57327018333E+00  0.18726424404E+02  0.00000000000E+00 0.  1.
         11    1    3    3    0    0  0.40114040734E+01 -0.12415024861E+02 -0.11531534561E+02  0.17412653288E+02  0.51100000000E-03 0. -1.
        -11    1    3    3    0    0  0.97829112664E+01  0.28061130975E+01 -0.20818843454E+02  0.23173343880E+02  0.51100000000E-03 0.  1.
         12    1    3    3    0    0  0.52246325946E+00 -0.24484587123E+01  0.31777107832E+02  0.31875578428E+02  0.00000000000E+00 0. -1.
</event>
<event>
 7    1  0.1358622E-013  0.7246153E+02  0.7816164E-02  0.1226708E+00
        -11   -1    0    0    0    0  0.00000000000E+00  0.00000000000E+00  0.45593999997E+02  0.45594000000E+02  0.51100000000E-03 0.  1.
         11   -1    0    0    0    0 -0.00000000000E+00 -0.00000000000E+00 -0.45593999997E+02  0.45594000000E+02  0.51100000000E-03 0. -1.
    9900012    2    1    2    0    0  0.24353847438E+01 -0.16135114283E+02 -0.91873621938E+01  0.72461531143E+02  0.69999948998E+02 0.  0.
        -12    1    1    2    0    0 -0.24353847438E+01  0.16135114283E+02  0.91873621938E+01  0.18726468857E+02  0.00000000000E+00 0.  1.
         11    1    3    3    0    0 -0.92508529088E+00 -0.20924052889E+02  0.54017945399E+01  0.21629867235E+02  0.51100000000E-03 0. -1.
        -11    1    3    3    0    0  0.35383348506E+00 -0.19847621526E+02  0.34511798299E+01  0.20148546370E+02  0.51100000000E-03 0.  1.
         12    1    3    3    0    0  0.30066365496E+01  0.24636560132E+02 -0.18040336564E+02  0.30683117537E+02  0.00000000000E+00 0. -1.
</event>
<event>
 7    1  0.1358622E-013  0.7246158E+02  0.7816164E-02  0.1226708E+00
        -11   -1    0    0    0    0  0.00000000000E+00  0.00000000000E+00  0.45593999997E+02  0.45594000000E+02  0.51100000000E-03 0. -1.
         11   -1    0    0    0    0 -0.00000000000E+00 -0.00000000000E+00 -0.45593999997E+02  0.45594000000E+02  0.51100000000E-03 0.  1.
    9900012    2    1    2    0    0 -0.70415011235E+01 -0.41142121137E+01  0.16857318777E+02  0.72461583479E+02  0.70000017175E+02 0.  0.
        -12    1    1    2    0    0  0.70415011235E+01  0.41142121137E+01 -0.16857318777E+02  0.18726416521E+02  0.00000000000E+00 0.  1.
         11    1    3    3    0    0 -0.25964428114E+02  0.11261725346E+02 -0.14487830882E+01  0.28338612488E+02  0.51100000000E-03 0. -1.
        -11    1    3    3    0    0  0.24831369348E+01  0.45853792748E+01 -0.64700760303E+01  0.83098469439E+01  0.51100000000E-03 0.  1.
        -12    1    3    3    0    0  0.16439790056E+02 -0.19961316734E+02  0.24776177895E+02  0.35813124046E+02  0.00000000000E+00 0.  1.
</event>
<event>
 7    1  0.1358622E-013  0.7246158E+02  0.7816164E-02  0.1226708E+00
        -11   -1    0    0    0    0  0.00000000000E+00  0.00000000000E+00  0.45593999997E+02  0.45594000000E+02  0.51100000000E-03 0.  1.
         11   -1    0    0    0    0 -0.00000000000E+00 -0.00000000000E+00 -0.45593999997E+02  0.45594000000E+02  0.51100000000E-03 0. -1.
    9900012    2    1    2    0    0  0.62343903514E+01  0.17357640812E+02 -0.32439842142E+01  0.72461581463E+02  0.70000014550E+02 0.  0.
        -12    1    1    2    0    0 -0.62343903514E+01 -0.17357640812E+02  0.32439842142E+01  0.18726418537E+02  0.00000000000E+00 0.  1.
         11    1    3    3    0    0 -0.60077736592E+00  0.20903249699E+02 -0.30219633622E+01  0.21129104199E+02  0.51100000000E-03 0. -1.
        -11    1    3    3    0    0 -0.93834697875E+01  0.13251520836E+02  0.16082585613E+02  0.22853924608E+02  0.51100000000E-03 0.  1.
         12    1    3    3    0    0  0.16218637505E+02 -0.16797129722E+02 -0.16304606465E+02  0.28478552657E+02  0.00000000000E+00 0. -1.
</event>
<event>
 7    1  0.1475162E-013  0.7246146E+02  0.7816164E-02  0.1226708E+00
        -11   -1    0    0    0    0  0.00000000000E+00  0.00000000000E+00  0.45593999997E+02  0.45594000000E+02  0.51100000000E-03 0. -1.
         11   -1    0    0    0    0 -0.00000000000E+00 -0.00000000000E+00 -0.45593999997E+02  0.45594000000E+02  0.51100000000E-03 0.  1.
    9900012    2    1    2    0    0 -0.41375935284E+01  0.36085313282E+01  0.17903686451E+02  0.72461463559E+02  0.69999860957E+02 0.  0.
        -12    1    1    2    0    0  0.41375935284E+01 -0.36085313282E+01 -0.17903686451E+02  0.18726536441E+02  0.00000000000E+00 0.  1.
         11    1    3    3    0    0 -0.17553788335E+02 -0.14633965977E+02  0.30245707534E+02  0.37908986661E+02  0.51100000000E-03 0. -1.
        -11    1    3    3    0    0 -0.20892531628E+01  0.14194297889E+02 -0.35792001293E-01  0.14347276838E+02  0.51100000000E-03 0.  1.
        -12    1    3    3    0    0  0.15505447970E+02  0.40481994165E+01 -0.12306229082E+02  0.20205200060E+02  0.00000000000E+00 0.  1.
</event>
<event>
 7    1  0.1358622E-013  0.7246159E+02  0.7816164E-02  0.1226708E+00
        -11   -1    0    0    0    0  0.00000000000E+00  0.00000000000E+00  0.45593999997E+02  0.45594000000E+02  0.51100000000E-03 0.  1.
         11   -1    0    0    0    0 -0.00000000000E+00 -0.00000000000E+00 -0.45593999997E+02  0.45594000000E+02  0.51100000000E-03 0. -1.
    9900012    2    1    2    0    0 -0.91981714675E+01  0.63831206791E+01 -0.15010919203E+02  0.72461593958E+02  0.70000030826E+02 0.  0.
        -12    1    1    2    0    0  0.91981714675E+01 -0.63831206791E+01  0.15010919203E+02  0.18726406042E+02  0.00000000000E+00 0.  1.
         11    1    3    3    0    0 -0.96217421357E+01  0.52079750997E+01 -0.34209921700E+02  0.35916843811E+02  0.51100000000E-03 0. -1.
        -11    1    3    3    0    0  0.37972820974E+01 -0.13350680596E+02  0.24077128571E+01  0.14087480441E+02  0.51100000000E-03 0.  1.
        -12    1    3    3    0    0 -0.33737114292E+01  0.14525826176E+02  0.16791289640E+02  0.22457269706E+02  0.00000000000E+00 0.  1.
</event>
<event>
 7    1  0.1358622E-013  0.7246161E+02  0.7816164E-02  0.1226708E+00
        -11   -1    0    0    0    0  0.00000000000E+00  0.00000000000E+00  0.45593999997E+02  0.45594000000E+02  0.51100000000E-03 0.  1.
         11   -1    0    0    0    0 -0.00000000000E+00 -0.00000000000E+00 -0.45593999997E+02  0.45594000000E+02  0.51100000000E-03 0. -1.
    9900012    2    1    2    0    0 -0.76660316727E+01 -0.14037774396E+02 -0.97391306357E+01  0.72461606403E+02  0.70000047039E+02 0.  0.
        -12    1    1    2    0    0  0.76660316727E+01  0.14037774396E+02  0.97391306357E+01  0.18726393597E+02  0.00000000000E+00 0.  1.
         11    1    3    3    0    0 -0.21085944503E+01 -0.62246542553E+01 -0.47131939061E+01  0.80874401519E+01  0.51100000000E-03 0. -1.
        -11    1    3    3    0    0  0.18963617292E+02 -0.23840736809E+02  0.91809439556E+01  0.31816493279E+02  0.51100000000E-03 0.  1.
         12    1    3    3    0    0 -0.24521054515E+02  0.16027616669E+02 -0.14206880685E+02  0.32557672972E+02  0.00000000000E+00 0. -1.
</event>
<event>
 7    1  0.1358622E-013  0.7246156E+02  0.7816164E-02  0.1226708E+00
        -11   -1    0    0    0    0  0.00000000000E+00  0.00000000000E+00  0.45593999997E+02  0.45594000000E+02  0.51100000000E-03 0.  1.
         11   -1    0    0    0    0 -0.00000000000E+00 -0.00000000000E+00 -0.45593999997E+02  0.45594000000E+02  0.51100000000E-03 0. -1.
    9900012    2    1    2    0    0  0.15536989411E+02 -0.40229742840E+01 -0.96486855420E+01  0.72461561611E+02  0.69999988688E+02 0.  0.
        -12    1    1    2    0    0 -0.15536989411E+02  0.40229742840E+01  0.96486855420E+01  0.18726438389E+02  0.00000000000E+00 0.  1.
         11    1    3    3    0    0  0.24390855263E+01 -0.10924592601E+02 -0.44810560207E+01  0.12057185618E+02  0.51100000000E-03 0. -1.
        -11    1    3    3    0    0  0.30689172041E+02 -0.11403746828E+02  0.48790411539E+01  0.33100993416E+02  0.51100000000E-03 0.  1.
         12    1    3    3    0    0 -0.17591268157E+02  0.18305365146E+02 -0.10046670675E+02  0.27303382577E+02  0.00000000000E+00 0. -1.
</event>
<event>
 7    1  0.1358622E-013  0.7246149E+02  0.7816164E-02  0.1226708E+00
        -11   -1    0    0    0    0  0.00000000000E+00  0.00000000000E+00  0.45593999997E+02  0.45594000000E+02  0.51100000000E-03 0.  1.
         11   -1    0    0    0    0 -0.00000000000E+00 -0.00000000000E+00 -0.45593999997E+02  0.45594000000E+02  0.51100000000E-03 0. -1.
    9900012    2    1    2    0    0  0.10979014167E+02 -0.60842899072E+01 -0.13896933760E+02  0.72461491952E+02  0.69999897944E+02 0.  0.
        -12    1    1    2    0    0 -0.10979014167E+02  0.60842899072E+01  0.13896933760E+02  0.18726508048E+02  0.00000000000E+00 0.  1.
         11    1    3    3    0    0  0.25895682463E+01  0.17062663482E+02 -0.99907052342E+01  0.19941277294E+02  0.51100000000E-03 0. -1.
        -11    1    3    3    0    0 -0.74450590109E+01 -0.13849102949E+02 -0.21801508090E+02  0.26879961150E+02  0.51100000000E-03 0.  1.
        -12    1    3    3    0    0  0.15834504932E+02 -0.92978504396E+01  0.17895279564E+02  0.25640253507E+02  0.00000000000E+00 0.  1.
</event>
<event>
 7    1  0.1358622E-013  0.7246160E+02  0.7816164E-02  0.1226708E+00
        -11   -1    0    0    0    0  0.00000000000E+00  0.00000000000E+00  0.45593999997E+02  0.45594000000E+02  0.51100000000E-03 0. -1.
         11   -1    0    0    0    0 -0.00000000000E+00 -0.00000000000E+00 -0.45593999997E+02  0.45594000000E+02  0.51100000000E-03 0.  1.
    9900012    2    1    2    0    0 -0.67333489409E+01 -0.23166528552E+01  0.17319738750E+02  0.72461595680E+02  0.70000033069E+02 0.  0.
        -12    1    1    2    0    0  0.67333489409E+01  0.23166528552E+01 -0.17319738750E+02  0.18726404320E+02  0.00000000000E+00 0.  1.
         11    1    3    3    0    0  0.16603769108E+02 -0.64433691580E+00  0.17019988306E+02  0.23786137157E+02  0.51100000000E-03 0. -1.
        -11    1    3    3    0    0  0.11376222217E+02 -0.33711209361E+01  0.62566912849E+01  0.13413764363E+02  0.51100000000E-03 0.  1.
        -12    1    3    3    0    0 -0.34713340266E+02  0.16988049966E+01 -0.59569408416E+01  0.35261694160E+02  0.00000000000E+00 0.  1.
</event>
<event>
 7    1  0.1358622E-013  0.7246155E+02  0.7816164E-02  0.1226708E+00
        -11   -1    0    0    0    0  0.00000000000E+00  0.00000000000E+00  0.45593999997E+02  0.45594000000E+02  0.51100000000E-03 0.  1.
         11   -1    0    0    0    0 -0.00000000000E+00 -0.00000000000E+00 -0.45593999997E+02  0.45594000000E+02  0.51100000000E-03 0. -1.
    9900012    2    1    2    0    0 -0.11325190911E+01 -0.18484949528E+02  0.27756040131E+01  0.72461549825E+02  0.69999973334E+02 0.  0.
        -12    1    1    2    0    0  0.11325190911E+01  0.18484949528E+02 -0.27756040131E+01  0.18726450175E+02  0.00000000000E+00 0.  1.
         11    1    3    3    0    0  0.84453157308E+01 -0.13153736168E+02 -0.16010138432E+02  0.22375626602E+02  0.51100000000E-03 0. -1.
        -11    1    3    3    0    0  0.15713144258E+02  0.71057177545E+01  0.12253784075E+02  0.21155362245E+02  0.51100000000E-03 0.  1.
        -12    1    3    3    0    0 -0.25290979080E+02 -0.12436931114E+02  0.65319583696E+01  0.28930560978E+02  0.00000000000E+00 0.  1.
</event>
<event>
 7    1  0.1358622E-013  0.7246156E+02  0.7816164E-02  0.1226708E+00
        -11   -1    0    0    0    0  0.00000000000E+00  0.00000000000E+00  0.45593999997E+02  0.45594000000E+02  0.51100000000E-03 0. -1.
         11   -1    0    0    0    0 -0.00000000000E+00 -0.00000000000E+00 -0.45593999997E+02  0.45594000000E+02  0.51100000000E-03 0.  1.
    9900012    2    1    2    0    0 -0.38844570800E+01  0.16523893682E+02  0.79089571678E+01  0.72461556860E+02  0.69999982499E+02 0.  0.
        -12    1    1    2    0    0  0.38844570800E+01 -0.16523893682E+02 -0.79089571678E+01  0.18726443140E+02  0.00000000000E+00 0.  1.
         11    1    3    3    0    0 -0.15913078443E+02  0.63021129938E+01  0.95114630681E+01  0.19580873925E+02  0.51100000000E-03 0. -1.
        -11    1    3    3    0    0  0.20569549224E+01 -0.18241774405E+02 -0.10863739362E+02  0.21331062566E+02  0.51100000000E-03 0.  1.
        -12    1    3    3    0    0  0.99716664405E+01  0.28463555093E+02  0.92612334621E+01  0.31549620368E+02  0.00000000000E+00 0.  1.
</event>
<event>
 7    1  0.1358622E-013  0.7246156E+02  0.7816164E-02  0.1226708E+00
        -11   -1    0    0    0    0  0.00000000000E+00  0.00000000000E+00  0.45593999997E+02  0.45594000000E+02  0.51100000000E-03 0. -1.
         11   -1    0    0    0    0 -0.00000000000E+00 -0.00000000000E+00 -0.45593999997E+02  0.45594000000E+02  0.51100000000E-03 0.  1.
    9900012    2    1    2    0    0 -0.11156489480E+02  0.13868793444E+02  0.58196827641E+01  0.72461564232E+02  0.69999992102E+02 0.  0.
        -12    1    1    2    0    0  0.11156489480E+02 -0.13868793444E+02 -0.58196827641E+01  0.18726435768E+02  0.00000000000E+00 0.  1.
         11    1    3    3    0    0 -0.14372411973E+02  0.16845837181E+02  0.33471989175E+02  0.40133807642E+02  0.51100000000E-03 0. -1.
        -11    1    3    3    0    0  0.25276349036E+01 -0.83740284497E+01 -0.77214707852E+01  0.11667664806E+02  0.51100000000E-03 0.  1.
        -12    1    3    3    0    0  0.68828758893E+00  0.53969847122E+01 -0.19930835625E+02  0.20660091784E+02  0.00000000000E+00 0.  1.
</event>
<event>
 7    1  0.1358622E-013  0.7246157E+02  0.7816164E-02  0.1226708E+00
        -11   -1    0    0    0    0  0.00000000000E+00  0.00000000000E+00  0.45593999997E+02  0.45594000000E+02  0.51100000000E-03 0.  1.
         11   -1    0    0    0    0 -0.00000000000E+00 -0.00000000000E+00 -0.45593999997E+02  0.45594000000E+02  0.51100000000E-03 0. -1.
    9900012    2    1    2    0    0  0.14816251374E+02 -0.88172453673E+01 -0.73084833767E+01  0.72461573488E+02  0.70000004161E+02 0.  0.
        -12    1    1    2    0    0 -0.14816251374E+02  0.88172453673E+01  0.73084833767E+01  0.18726426512E+02  0.00000000000E+00 0.  1.
         11    1    3    3    0    0 -0.10337800570E+02  0.11548476292E+02  0.76458748452E+01  0.17282847789E+02  0.51100000000E-03 0. -1.
        -11    1    3    3    0    0 -0.50284894643E+01  0.83278774224E+01  0.24676196907E+01  0.10036353713E+02  0.51100000000E-03 0.  1.
         12    1    3    3    0    0  0.30182541408E+02 -0.28693599082E+02 -0.17421977913E+02  0.45142371986E+02  0.00000000000E+00 0. -1.
</event>
<event>
 7    1  0.1358622E-013  0.7246154E+02  0.7816164E-02  0.1226708E+00
        -11   -1    0    0    0    0  0.00000000000E+00  0.00000000000E+00  0.45593999997E+02  0.45594000000E+02  0.51100000000E-03 0.  1.
         11   -1    0    0    0    0 -0.00000000000E+00 -0.00000000000E+00 -0.45593999997E+02  0.45594000000E+02  0.51100000000E-03 0. -1.
    9900012    2    1    2    0    0 -0.12566647457E+02  0.11766889704E+02 -0.73688538361E+01  0.72461539350E+02  0.69999959689E+02 0.  0.
        -12    1    1    2    0    0  0.12566647457E+02 -0.11766889704E+02  0.73688538361E+01  0.18726460650E+02  0.00000000000E+00 0.  1.
         11    1    3    3    0    0 -0.99352046421E+01 -0.57984338865E+01 -0.33454572961E+02  0.35377091162E+02  0.51100000000E-03 0. -1.
        -11    1    3    3    0    0 -0.18078111574E+01 -0.18015487835E+01 -0.18000596436E+01  0.31231353128E+01  0.51100000000E-03 0.  1.
         12    1    3    3    0    0 -0.82363165776E+00  0.19366872374E+02  0.27885778768E+02  0.33961312875E+02  0.00000000000E+00 0. -1.
</event>
<event>
 7    1  0.1358622E-013  0.7246157E+02  0.7816164E-02  0.1226708E+00
        -11   -1    0    0    0    0  0.00000000000E+00  0.00000000000E+00  0.45593999997E+02  0.45594000000E+02  0.51100000000E-03 0. -1.
         11   -1    0    0    0    0 -0.00000000000E+00 -0.00000000000E+00 -0.45593999997E+02  0.45594000000E+02  0.51100000000E-03 0.  1.
    9900012    2    1    2    0    0 -0.10015495945E+02 -0.15419266502E+02  0.35517919577E+01  0.72461570426E+02  0.70000000171E+02 0.  0.
        -12    1    1    2    0    0  0.10015495945E+02  0.15419266502E+02 -0.35517919577E+01  0.18726429574E+02  0.00000000000E+00 0.  1.
         11    1    3    3    0    0  0.15422608619E+02  0.55023882634E-01  0.10517670033E+02  0.18667652970E+02  0.51100000000E-03 0. -1.
        -11    1    3    3    0    0 -0.29414539333E+02  0.41947637206E+01 -0.13575292581E+02  0.32666492554E+02  0.51100000000E-03 0.  1.
         12    1    3    3    0    0  0.39764347682E+01 -0.19669054105E+02  0.66094145063E+01  0.21127424902E+02  0.00000000000E+00 0. -1.
</event>
<event>
 7    1  0.1358622E-013  0.7246217E+02  0.7816164E-02  0.1226706E+00
        -11   -1    0    0    0    0  0.00000000000E+00  0.00000000000E+00  0.45593999997E+02  0.45594000000E+02  0.51100000000E-03 0.  1.
         11   -1    0    0    0    0 -0.00000000000E+00 -0.00000000000E+00 -0.45593999997E+02  0.45594000000E+02  0.51100000000E-03 0. -1.
    9900012    2    1    2    0    0 -0.10054516339E+02  0.44538037607E+01 -0.15156751882E+02  0.72462167726E+02  0.70000778262E+02 0.  0.
        -12    1    1    2    0    0  0.10054516339E+02 -0.44538037607E+01  0.15156751882E+02  0.18725832274E+02  0.00000000000E+00 0.  1.
         11    1    3    3    0    0  0.88279894738E+01  0.70658919852E+01 -0.17879562976E+01  0.11448013613E+02  0.51100000000E-03 0. -1.
        -11    1    3    3    0    0 -0.35356536692E+01  0.15487088960E+02  0.16474874207E+02  0.22886071129E+02  0.51100000000E-03 0.  1.
         12    1    3    3    0    0 -0.15346852143E+02 -0.18099177185E+02 -0.29843669791E+02  0.38128082984E+02  0.00000000000E+00 0. -1.
</event>
<event>
 7    1  0.1358622E-013  0.7246156E+02  0.7816164E-02  0.1226708E+00
        -11   -1    0    0    0    0  0.00000000000E+00  0.00000000000E+00  0.45593999997E+02  0.45594000000E+02  0.51100000000E-03 0. -1.
         11   -1    0    0    0    0 -0.00000000000E+00 -0.00000000000E+00 -0.45593999997E+02  0.45594000000E+02  0.51100000000E-03 0.  1.
    9900012    2    1    2    0    0 -0.11893841986E+02 -0.77474218859E+01  0.12214473518E+02  0.72461564504E+02  0.69999992457E+02 0.  0.
        -12    1    1    2    0    0  0.11893841986E+02  0.77474218859E+01 -0.12214473518E+02  0.18726435496E+02  0.00000000000E+00 0.  1.
         11    1    3    3    0    0 -0.38380266476E+01  0.11296022126E+02 -0.91781474901E+01  0.15052207679E+02  0.51100000000E-03 0. -1.
        -11    1    3    3    0    0  0.10543498257E+02  0.10151723051E+02 -0.31550857085E+01  0.14972554976E+02  0.51100000000E-03 0.  1.
        -12    1    3    3    0    0 -0.18599313596E+02 -0.29195167063E+02  0.24547706717E+02  0.42436801849E+02  0.00000000000E+00 0.  1.
</event>
<event>
 7    1  0.1358622E-013  0.7246156E+02  0.7816164E-02  0.1226708E+00
        -11   -1    0    0    0    0  0.00000000000E+00  0.00000000000E+00  0.45593999997E+02  0.45594000000E+02  0.51100000000E-03 0.  1.
         11   -1    0    0    0    0 -0.00000000000E+00 -0.00000000000E+00 -0.45593999997E+02  0.45594000000E+02  0.51100000000E-03 0. -1.
    9900012    2    1    2    0    0  0.94265396386E+01  0.47690157862E-01 -0.16180779521E+02  0.72461560140E+02  0.69999986772E+02 0.  0.
        -12    1    1    2    0    0 -0.94265396386E+01 -0.47690157862E-01  0.16180779521E+02  0.18726439860E+02  0.00000000000E+00 0.  1.
         11    1    3    3    0    0 -0.31253881124E+01  0.20133491264E+02 -0.15498688054E+01  0.20433492479E+02  0.51100000000E-03 0. -1.
        -11    1    3    3    0    0  0.27795061842E+02 -0.45987448138E+01 -0.74366594406E+01  0.29137910367E+02  0.51100000000E-03 0.  1.
         12    1    3    3    0    0 -0.15243134091E+02 -0.15487056292E+02 -0.71942512753E+01  0.22890157294E+02  0.00000000000E+00 0. -1.
</event>
<event>
 7    1  0.1358622E-013  0.7246159E+02  0.7816164E-02  0.1226708E+00
        -11   -1    0    0    0    0  0.00000000000E+00  0.00000000000E+00  0.45593999997E+02  0.45594000000E+02  0.51100000000E-03 0. -1.
         11   -1    0    0    0    0 -0.00000000000E+00 -0.00000000000E+00 -0.45593999997E+02  0.45594000000E+02  0.51100000000E-03 0.  1.
    9900012    2    1    2    0    0  0.33056204652E+01  0.10324229962E+02  0.15269633254E+02  0.72461586818E+02  0.70000021525E+02 0.  0.
        -12    1    1    2    0    0 -0.33056204652E+01 -0.10324229962E+02 -0.15269633254E+02  0.18726413182E+02  0.00000000000E+00 0.  1.
         11    1    3    3    0    0  0.77561079621E+01 -0.71428682002E+00  0.94953375872E+01  0.12281239862E+02  0.51100000000E-03 0. -1.
        -11    1    3    3    0    0 -0.15519765469E+02 -0.20927586196E+02  0.32830453426E+01  0.26260338368E+02  0.51100000000E-03 0.  1.
         12    1    3    3    0    0  0.11069277972E+02  0.31966102978E+02  0.24912503242E+01  0.33920008588E+02  0.00000000000E+00 0. -1.
</event>
<event>
 7    1  0.1358622E-013  0.7246157E+02  0.7816164E-02  0.1226708E+00
        -11   -1    0    0    0    0  0.00000000000E+00  0.00000000000E+00  0.45593999997E+02  0.45594000000E+02  0.51100000000E-03 0. -1.
         11   -1    0    0    0    0 -0.00000000000E+00 -0.00000000000E+00 -0.45593999997E+02  0.45594000000E+02  0.51100000000E-03 0.  1.
    9900012    2    1    2    0    0 -0.12591270290E+02  0.57388694806E+01  0.12617620043E+02  0.72461573593E+02  0.70000004297E+02 0.  0.
        -12    1    1    2    0    0  0.12591270290E+02 -0.57388694806E+01 -0.12617620043E+02  0.18726426407E+02  0.00000000000E+00 0.  1.
         11    1    3    3    0    0 -0.76215864816E-01 -0.13783264745E+02  0.22158039688E+02  0.26095266217E+02  0.51100000000E-03 0. -1.
        -11    1    3    3    0    0 -0.18675651611E+02  0.10059231410E+02  0.10266972630E+02  0.23566476760E+02  0.51100000000E-03 0.  1.
        -12    1    3    3    0    0  0.61605971859E+01  0.94629028153E+01 -0.19807392275E+02  0.22799830616E+02  0.00000000000E+00 0.  1.
</event>
<event>
 7    1  0.1358622E-013  0.7246158E+02  0.7816164E-02  0.1226708E+00
        -11   -1    0    0    0    0  0.00000000000E+00  0.00000000000E+00  0.45593999997E+02  0.45594000000E+02  0.51100000000E-03 0. -1.
         11   -1    0    0    0    0 -0.00000000000E+00 -0.00000000000E+00 -0.45593999997E+02  0.45594000000E+02  0.51100000000E-03 0.  1.
    9900012    2    1    2    0    0  0.19105785343E+01  0.17504001889E+01  0.18546281881E+02  0.72461580621E+02  0.70000013452E+02 0.  0.
        -12    1    1    2    0    0 -0.19105785343E+01 -0.17504001889E+01 -0.18546281881E+02  0.18726419379E+02  0.00000000000E+00 0.  1.
         11    1    3    3    0    0  0.33024197395E+01  0.17303649126E+02  0.28923266325E+02  0.33865581116E+02  0.51100000000E-03 0. -1.
        -11    1    3    3    0    0 -0.60960261676E+01 -0.70587707107E+01  0.11413712898E+02  0.14739763273E+02  0.51100000000E-03 0.  1.
        -12    1    3    3    0    0  0.47041849624E+01 -0.84944782262E+01 -0.21790697341E+02  0.23856236231E+02  0.00000000000E+00 0.  1.
</event>
<event>
 7    1  0.1358622E-013  0.7246161E+02  0.7816164E-02  0.1226708E+00
        -11   -1    0    0    0    0  0.00000000000E+00  0.00000000000E+00  0.45593999997E+02  0.45594000000E+02  0.51100000000E-03 0.  1.
         11   -1    0    0    0    0 -0.00000000000E+00 -0.00000000000E+00 -0.45593999997E+02  0.45594000000E+02  0.51100000000E-03 0. -1.
    9900012    2    1    2    0    0 -0.10402497603E+02  0.26035513647E+01 -0.15352111429E+02  0.72461607891E+02  0.70000048976E+02 0.  0.
        -12    1    1    2    0    0  0.10402497603E+02 -0.26035513647E+01  0.15352111429E+02  0.18726392109E+02  0.00000000000E+00 0.  1.
         11    1    3    3    0    0  0.10003154397E+02  0.33206552774E+01 -0.57976710166E+01  0.12029249305E+02  0.51100000000E-03 0. -1.
        -11    1    3    3    0    0  0.24483583860E+01  0.24841430029E+02 -0.48335174620E+00  0.24966472194E+02  0.51100000000E-03 0.  1.
         12    1    3    3    0    0 -0.22854010386E+02 -0.25558533942E+02 -0.90710886667E+01  0.35465886392E+02  0.00000000000E+00 0. -1.
</event>
<event>
 7    1  0.1358622E-013  0.7246157E+02  0.7816164E-02  0.1226708E+00
        -11   -1    0    0    0    0  0.00000000000E+00  0.00000000000E+00  0.45593999997E+02  0.45594000000E+02  0.51100000000E-03 0.  1.
         11   -1    0    0    0    0 -0.00000000000E+00 -0.00000000000E+00 -0.45593999997E+02  0.45594000000E+02  0.51100000000E-03 0. -1.
    9900012    2    1    2    0    0 -0.15840655390E+02 -0.95019744578E+01 -0.30765973746E+01  0.72461565924E+02  0.69999994307E+02 0.  0.
        -12    1    1    2    0    0  0.15840655390E+02  0.95019744578E+01  0.30765973746E+01  0.18726434076E+02  0.00000000000E+00 0.  1.
         11    1    3    3    0    0  0.50027502923E+01  0.80038296231E+01  0.24344783628E+02  0.26110482364E+02  0.51100000000E-03 0. -1.
        -11    1    3    3    0    0 -0.46243167826E+01  0.41090822957E+01  0.19046847200E+01  0.64727650323E+01  0.51100000000E-03 0.  1.
         12    1    3    3    0    0 -0.16219088900E+02 -0.21614886377E+02 -0.29326065723E+02  0.39878318528E+02  0.00000000000E+00 0. -1.
</event>
<event>
 7    1  0.1394766E-013  0.7246136E+02  0.7816164E-02  0.1226709E+00
        -11   -1    0    0    0    0  0.00000000000E+00  0.00000000000E+00  0.45593999997E+02  0.45594000000E+02  0.51100000000E-03 0. -1.
         11   -1    0    0    0    0 -0.00000000000E+00 -0.00000000000E+00 -0.45593999997E+02  0.45594000000E+02  0.51100000000E-03 0.  1.
    9900012    2    1    2    0    0 -0.83162388105E+01  0.90358804175E+00  0.16754425952E+02  0.72461358862E+02  0.69999724570E+02 0.  0.
        -12    1    1    2    0    0  0.83162388105E+01 -0.90358804175E+00 -0.16754425952E+02  0.18726641138E+02  0.00000000000E+00 0.  1.
         11    1    3    3    0    0 -0.10107464549E+02 -0.21713572427E+02  0.12630424161E+02  0.27077069300E+02  0.51100000000E-03 0. -1.
        -11    1    3    3    0    0  0.74406264030E+01 -0.79207033269E+01 -0.63778230475E+01  0.12600678138E+02  0.51100000000E-03 0.  1.
        -12    1    3    3    0    0 -0.56494006640E+01  0.30537863795E+02  0.10501824839E+02  0.32783611424E+02  0.00000000000E+00 0.  1.
</event>
<event>
 7    1  0.1358622E-013  0.7246188E+02  0.7816164E-02  0.1226707E+00
        -11   -1    0    0    0    0  0.00000000000E+00  0.00000000000E+00  0.45593999997E+02  0.45594000000E+02  0.51100000000E-03 0.  1.
         11   -1    0    0    0    0 -0.00000000000E+00 -0.00000000000E+00 -0.45593999997E+02  0.45594000000E+02  0.51100000000E-03 0. -1.
    9900012    2    1    2    0    0  0.86314932456E+01 -0.13156554953E+02 -0.10152328605E+02  0.72461884814E+02  0.70000409719E+02 0.  0.
        -12    1    1    2    0    0 -0.86314932456E+01  0.13156554953E+02  0.10152328605E+02  0.18726115186E+02  0.00000000000E+00 0.  1.
         11    1    3    3    0    0  0.10798220795E+02 -0.12454122046E+02 -0.19255610914E+01  0.16595617315E+02  0.51100000000E-03 0. -1.
        -11    1    3    3    0    0  0.47541061930E+01  0.25147182178E+02  0.49040351702E+01  0.26058239741E+02  0.51100000000E-03 0.  1.
         12    1    3    3    0    0 -0.69208337426E+01 -0.25849615085E+02 -0.13130802684E+02  0.29808027758E+02  0.00000000000E+00 0. -1.
</event>
<event>
 7    1  0.1358622E-013  0.7246152E+02  0.7816164E-02  0.1226708E+00
        -11   -1    0    0    0    0  0.00000000000E+00  0.00000000000E+00  0.45593999997E+02  0.45594000000E+02  0.51100000000E-03 0.  1.
         11   -1    0    0    0    0 -0.00000000000E+00 -0.00000000000E+00 -0.45593999997E+02  0.45594000000E+02  0.51100000000E-03 0. -1.
    9900012    2    1    2    0    0 -0.52405290713E+01 -0.93247755394E+01 -0.15370965048E+02  0.72461517407E+02  0.69999931104E+02 0.  0.
        -12    1    1    2    0    0  0.52405290713E+01  0.93247755394E+01  0.15370965048E+02  0.18726482593E+02  0.00000000000E+00 0.  1.
         11    1    3    3    0    0 -0.15307760910E+02 -0.15700922723E+02 -0.15189539244E+02  0.26675243600E+02  0.51100000000E-03 0. -1.
        -11    1    3    3    0    0 -0.49108609905E+01  0.20416559418E+02  0.95479326578E+01  0.23067628236E+02  0.51100000000E-03 0.  1.
         12    1    3    3    0    0  0.14978092829E+02 -0.14040412234E+02 -0.97293584621E+01  0.22718645571E+02  0.00000000000E+00 0. -1.
</event>
<event>
 7    1  0.1358622E-013  0.7246157E+02  0.7816164E-02  0.1226708E+00
        -11   -1    0    0    0    0  0.00000000000E+00  0.00000000000E+00  0.45593999997E+02  0.45594000000E+02  0.51100000000E-03 0. -1.
         11   -1    0    0    0    0 -0.00000000000E+00 -0.00000000000E+00 -0.45593999997E+02  0.45594000000E+02  0.51100000000E-03 0.  1.
    9900012    2    1    2    0    0 -0.11259171921E+02  0.13756775091E+02  0.58873880890E+01  0.72461570768E+02  0.70000000617E+02 0.  0.
        -12    1    1    2    0    0  0.11259171921E+02 -0.13756775091E+02 -0.58873880890E+01  0.18726429232E+02  0.00000000000E+00 0.  1.
         11    1    3    3    0    0 -0.17309505450E+01  0.74413746176E+01 -0.30698003723E+02  0.31634438178E+02  0.51100000000E-03 0.  1.
        -11    1    3    3    0    0  0.25066229433E+00  0.71657929443E+01  0.87548502223E+01  0.11316307825E+02  0.51100000000E-03 0. -1.
        -12    1    3    3    0    0 -0.97788836703E+01 -0.85039247052E+00  0.27830541590E+02  0.29510824766E+02  0.00000000000E+00 0.  1.
</event>
<event>
 7    1  0.1358622E-013  0.7246139E+02  0.7816164E-02  0.1226708E+00
        -11   -1    0    0    0    0  0.00000000000E+00  0.00000000000E+00  0.45593999997E+02  0.45594000000E+02  0.51100000000E-03 0.  1.
         11   -1    0    0    0    0 -0.00000000000E+00 -0.00000000000E+00 -0.45593999997E+02  0.45594000000E+02  0.51100000000E-03 0. -1.
    9900012    2    1    2    0    0  0.11405159555E+02 -0.10864561981E+02 -0.10127662898E+02  0.72461389861E+02  0.69999764952E+02 0.  0.
        -12    1    1    2    0    0 -0.11405159555E+02  0.10864561981E+02  0.10127662898E+02  0.18726610139E+02  0.00000000000E+00 0.  1.
         11    1    3    3    0    0  0.99016608653E+01  0.19680023927E+02 -0.17294242153E+02  0.28007803226E+02  0.51100000000E-03 0. -1.
        -11    1    3    3    0    0  0.10647678166E+02 -0.96876895114E+01  0.14594597312E+02  0.20499430464E+02  0.51100000000E-03 0.  1.
        -12    1    3    3    0    0 -0.91441794762E+01 -0.20856896397E+02 -0.74280180566E+01  0.23954156171E+02  0.00000000000E+00 0.  1.
</event>
<event>
 7    1  0.1358622E-013  0.7246152E+02  0.7816164E-02  0.1226708E+00
        -11   -1    0    0    0    0  0.00000000000E+00  0.00000000000E+00  0.45593999997E+02  0.45594000000E+02  0.51100000000E-03 0.  1.
         11   -1    0    0    0    0 -0.00000000000E+00 -0.00000000000E+00 -0.45593999997E+02  0.45594000000E+02  0.51100000000E-03 0. -1.
    9900012    2    1    2    0    0  0.49250199529E+01 -0.18017315530E+02  0.13421787755E+01  0.72461523441E+02  0.69999938965E+02 0.  0.
        -12    1    1    2    0    0 -0.49250199529E+01  0.18017315530E+02 -0.13421787755E+01  0.18726476559E+02  0.00000000000E+00 0.  1.
         11    1    3    3    0    0  0.10434602368E+02 -0.10487430712E+02 -0.19035517020E+01  0.14916120101E+02  0.51100000000E-03 0. -1.
        -11    1    3    3    0    0  0.62618998826E+01 -0.37604327484E+01  0.28504006556E+02  0.29425000163E+02  0.51100000000E-03 0.  1.
        -12    1    3    3    0    0 -0.11771482298E+02 -0.37694520701E+01 -0.25258276078E+02  0.28120403177E+02  0.00000000000E+00 0.  1.
</event>
<event>
 7    1  0.1358622E-013  0.7246159E+02  0.7816164E-02  0.1226708E+00
        -11   -1    0    0    0    0  0.00000000000E+00  0.00000000000E+00  0.45593999997E+02  0.45594000000E+02  0.51100000000E-03 0. -1.
         11   -1    0    0    0    0 -0.00000000000E+00 -0.00000000000E+00 -0.45593999997E+02  0.45594000000E+02  0.51100000000E-03 0.  1.
    9900012    2    1    2    0    0  0.18421745192E+01  0.18630181443E+02  0.44870277551E+00  0.72461585455E+02  0.70000019749E+02 0.  0.
        -12    1    1    2    0    0 -0.18421745192E+01 -0.18630181443E+02 -0.44870277551E+00  0.18726414545E+02  0.00000000000E+00 0.  1.
         11    1    3    3    0    0 -0.14615953677E+02  0.13727687075E+02 -0.86560571848E+01  0.21840394240E+02  0.51100000000E-03 0. -1.
        -11    1    3    3    0    0  0.21906973043E+02  0.85035410655E+01 -0.13493542619E+02  0.27097995705E+02  0.51100000000E-03 0.  1.
        -12    1    3    3    0    0 -0.54488448470E+01 -0.36010466980E+01  0.22598302580E+02  0.23523195509E+02  0.00000000000E+00 0.  1.
</event>
<event>
 7    1  0.1358622E-013  0.7246164E+02  0.7816164E-02  0.1226708E+00
        -11   -1    0    0    0    0  0.00000000000E+00  0.00000000000E+00  0.45593999997E+02  0.45594000000E+02  0.51100000000E-03 0. -1.
         11   -1    0    0    0    0 -0.00000000000E+00 -0.00000000000E+00 -0.45593999997E+02  0.45594000000E+02  0.51100000000E-03 0.  1.
    9900012    2    1    2    0    0  0.17160014888E+02  0.33786226399E+01 -0.66929375461E+01  0.72461638504E+02  0.70000088855E+02 0.  0.
        -12    1    1    2    0    0 -0.17160014888E+02 -0.33786226399E+01  0.66929375461E+01  0.18726361496E+02  0.00000000000E+00 0.  1.
         11    1    3    3    0    0  0.21838634464E+02 -0.11091951402E+02  0.15070020538E+02  0.28758700604E+02  0.51100000000E-03 0. -1.
        -11    1    3    3    0    0  0.11471894997E+02 -0.50426856636E+01 -0.62946153584E+01  0.14023381771E+02  0.51100000000E-03 0.  1.
        -12    1    3    3    0    0 -0.16150514573E+02  0.19513259706E+02 -0.15468342725E+02  0.29679556129E+02  0.00000000000E+00 0.  1.
</event>
<event>
 7    1  0.1358622E-013  0.7246130E+02  0.7816164E-02  0.1226709E+00
        -11   -1    0    0    0    0  0.00000000000E+00  0.00000000000E+00  0.45593999997E+02  0.45594000000E+02  0.51100000000E-03 0. -1.
         11   -1    0    0    0    0 -0.00000000000E+00 -0.00000000000E+00 -0.45593999997E+02  0.45594000000E+02  0.51100000000E-03 0.  1.
    9900012    2    1    2    0    0  0.63245677735E+01 -0.17149245785E+02  0.40733740265E+01  0.72461303428E+02  0.69999652357E+02 0.  0.
        -12    1    1    2    0    0 -0.63245677735E+01  0.17149245785E+02 -0.40733740265E+01  0.18726696572E+02  0.00000000000E+00 0.  1.
         11    1    3    3    0    0 -0.17511063747E+00  0.53739191448E+01  0.19728476257E+02  0.20448042605E+02  0.51100000000E-03 0.  1.
        -11    1    3    3    0    0 -0.14741787026E+02  0.14409031157E+01 -0.13294567039E+02  0.19903316295E+02  0.51100000000E-03 0. -1.
         12    1    3    3    0    0  0.21241465437E+02 -0.23964068046E+02 -0.23605351912E+01  0.32109944528E+02  0.00000000000E+00 0. -1.
</event>
<event>
 7    1  0.1358622E-013  0.7246163E+02  0.7816164E-02  0.1226708E+00
        -11   -1    0    0    0    0  0.00000000000E+00  0.00000000000E+00  0.45593999997E+02  0.45594000000E+02  0.51100000000E-03 0. -1.
         11   -1    0    0    0    0 -0.00000000000E+00 -0.00000000000E+00 -0.45593999997E+02  0.45594000000E+02  0.51100000000E-03 0.  1.
    9900012    2    1    2    0    0  0.13485301230E+00 -0.85736093278E+01  0.16647883798E+02  0.72461628296E+02  0.70000075558E+02 0.  0.
        -12    1    1    2    0    0 -0.13485301230E+00  0.85736093278E+01 -0.16647883798E+02  0.18726371704E+02  0.00000000000E+00 0.  1.
         11    1    3    3    0    0  0.67591703712E+01  0.84535676155E+01  0.93070606422E+01  0.14274822857E+02  0.51100000000E-03 0. -1.
        -11    1    3    3    0    0  0.19247251491E+02  0.79228252662E+01 -0.23894102180E+01  0.20950826514E+02  0.51100000000E-03 0.  1.
         12    1    3    3    0    0 -0.25871568850E+02 -0.24950002209E+02  0.97302333742E+01  0.37235978925E+02  0.00000000000E+00 0. -1.
</event>
<event>
 7    1  0.1358622E-013  0.7246156E+02  0.7816164E-02  0.1226708E+00
        -11   -1    0    0    0    0  0.00000000000E+00  0.00000000000E+00  0.45593999997E+02  0.45594000000E+02  0.51100000000E-03 0.  1.
         11   -1    0    0    0    0 -0.00000000000E+00 -0.00000000000E+00 -0.45593999997E+02  0.45594000000E+02  0.51100000000E-03 0. -1.
    9900012    2    1    2    0    0  0.17536063737E+02  0.48636132669E+01 -0.44171525445E+01  0.72461561417E+02  0.69999988436E+02 0.  0.
        -12    1    1    2    0    0 -0.17536063737E+02 -0.48636132669E+01  0.44171525445E+01  0.18726438583E+02  0.00000000000E+00 0.  1.
         11    1    3    3    0    0 -0.10532497524E+02 -0.41381970184E+01 -0.26545269136E+02  0.28856706195E+02  0.51100000000E-03 0. -1.
        -11    1    3    3    0    0 -0.22323013401E+00 -0.54361580119E+01  0.55654146141E+01  0.77830254857E+01  0.51100000000E-03 0.  1.
        -12    1    3    3    0    0  0.28291791395E+02  0.14437968297E+02  0.16562701977E+02  0.35821829737E+02  0.00000000000E+00 0.  1.
</event>
<event>
 7    1  0.1358622E-013  0.7246156E+02  0.7816164E-02  0.1226708E+00
        -11   -1    0    0    0    0  0.00000000000E+00  0.00000000000E+00  0.45593999997E+02  0.45594000000E+02  0.51100000000E-03 0.  1.
         11   -1    0    0    0    0 -0.00000000000E+00 -0.00000000000E+00 -0.45593999997E+02  0.45594000000E+02  0.51100000000E-03 0. -1.
    9900012    2    1    2    0    0 -0.87955162661E+01 -0.93639072660E+01 -0.13624824822E+02  0.72461555674E+02  0.69999980954E+02 0.  0.
        -12    1    1    2    0    0  0.87955162661E+01  0.93639072660E+01  0.13624824822E+02  0.18726444326E+02  0.00000000000E+00 0.  1.
         11    1    3    3    0    0 -0.34409884776E+01 -0.33205601029E+01 -0.10185449043E+02  0.11252106183E+02  0.51100000000E-03 0. -1.
        -11    1    3    3    0    0  0.23253632001E+02  0.91045576871E+01 -0.12028329914E+02  0.27718316917E+02  0.51100000000E-03 0.  1.
         12    1    3    3    0    0 -0.28608159790E+02 -0.15147904850E+02  0.85889541353E+01  0.33491132574E+02  0.00000000000E+00 0. -1.
</event>
<event>
 7    1  0.1358622E-013  0.7246163E+02  0.7816164E-02  0.1226708E+00
        -11   -1    0    0    0    0  0.00000000000E+00  0.00000000000E+00  0.45593999997E+02  0.45594000000E+02  0.51100000000E-03 0.  1.
         11   -1    0    0    0    0 -0.00000000000E+00 -0.00000000000E+00 -0.45593999997E+02  0.45594000000E+02  0.51100000000E-03 0. -1.
    9900012    2    1    2    0    0  0.11466893881E+02  0.39935270809E+01 -0.14256192000E+02  0.72461630246E+02  0.70000078098E+02 0.  0.
        -12    1    1    2    0    0 -0.11466893881E+02 -0.39935270809E+01  0.14256192000E+02  0.18726369754E+02  0.00000000000E+00 0.  1.
         11    1    3    3    0    0  0.92147244706E+01  0.27156383207E+02 -0.12125232087E+02  0.31135213977E+02  0.51100000000E-03 0. -1.
        -11    1    3    3    0    0  0.50238706219E+01  0.81187798212E+01  0.16721684831E+01  0.96927813092E+01  0.51100000000E-03 0.  1.
        -12    1    3    3    0    0 -0.27717012114E+01 -0.31281635948E+02 -0.38031283962E+01  0.31633634960E+02  0.00000000000E+00 0.  1.
</event>
<event>
 7    1  0.1358622E-013  0.7246159E+02  0.7816164E-02  0.1226708E+00
        -11   -1    0    0    0    0  0.00000000000E+00  0.00000000000E+00  0.45593999997E+02  0.45594000000E+02  0.51100000000E-03 0.  1.
         11   -1    0    0    0    0 -0.00000000000E+00 -0.00000000000E+00 -0.45593999997E+02  0.45594000000E+02  0.51100000000E-03 0. -1.
    9900012    2    1    2    0    0 -0.10737397002E+02  0.14060024626E+02  0.61402307871E+01  0.72461590281E+02  0.70000026036E+02 0.  0.
        -12    1    1    2    0    0  0.10737397002E+02 -0.14060024626E+02 -0.61402307871E+01  0.18726409719E+02  0.00000000000E+00 0.  1.
         11    1    3    3    0    0 -0.31937887708E+02  0.23435661039E+02 -0.51709128744E+01  0.39949933915E+02  0.51100000000E-03 0. -1.
        -11    1    3    3    0    0  0.14626980937E+02  0.20329581405E-01 -0.21986719594E+01  0.14791319863E+02  0.51100000000E-03 0.  1.
        -12    1    3    3    0    0  0.65735097694E+01 -0.93959659945E+01  0.13509815621E+02  0.17720336503E+02  0.00000000000E+00 0.  1.
</event>
<event>
 7    1  0.1358622E-013  0.7246155E+02  0.7816164E-02  0.1226708E+00
        -11   -1    0    0    0    0  0.00000000000E+00  0.00000000000E+00  0.45593999997E+02  0.45594000000E+02  0.51100000000E-03 0. -1.
         11   -1    0    0    0    0 -0.00000000000E+00 -0.00000000000E+00 -0.45593999997E+02  0.45594000000E+02  0.51100000000E-03 0.  1.
    9900012    2    1    2    0    0  0.74344684053E+01 -0.17177412313E+02  0.58741079514E+00  0.72461551707E+02  0.69999975786E+02 0.  0.
        -12    1    1    2    0    0 -0.74344684053E+01  0.17177412313E+02 -0.58741079514E+00  0.18726448293E+02  0.00000000000E+00 0.  1.
         11    1    3    3    0    0 -0.31425858201E+01  0.19543129672E+02  0.11503605884E+02  0.22894163265E+02  0.51100000000E-03 0. -1.
        -11    1    3    3    0    0 -0.11903636538E+01 -0.76853927591E+00  0.74022488863E+01  0.75366376510E+01  0.51100000000E-03 0.  1.
        -12    1    3    3    0    0  0.11767417879E+02 -0.35952002709E+02 -0.18318443975E+02  0.42030750791E+02  0.00000000000E+00 0.  1.
</event>
<event>
 7    1  0.1841785E-013  0.7246154E+02  0.7816164E-02  0.1226708E+00
        -11   -1    0    0    0    0  0.00000000000E+00  0.00000000000E+00  0.45593999997E+02  0.45594000000E+02  0.51100000000E-03 0. -1.
         11   -1    0    0    0    0 -0.00000000000E+00 -0.00000000000E+00 -0.45593999997E+02  0.45594000000E+02  0.51100000000E-03 0.  1.
    9900012    2    1    2    0    0  0.71975111467E+01  0.11924766305E+02  0.12517030476E+02  0.72461540909E+02  0.69999961720E+02 0.  0.
        -12    1    1    2    0    0 -0.71975111467E+01 -0.11924766305E+02 -0.12517030476E+02  0.18726459091E+02  0.00000000000E+00 0.  1.
         11    1    3    3    0    0  0.19337965283E+02  0.13365550850E+02  0.26728800517E+02  0.35595275362E+02  0.51100000000E-03 0. -1.
        -11    1    3    3    0    0  0.10308319084E+02  0.33959478184E+01 -0.64544718461E+01  0.12627514047E+02  0.51100000000E-03 0.  1.
        -12    1    3    3    0    0 -0.22448773220E+02 -0.48367323627E+01 -0.77572981942E+01  0.24238751501E+02  0.00000000000E+00 0.  1.
</event>
<event>
 7    1  0.1358622E-013  0.7246151E+02  0.7816164E-02  0.1226708E+00
        -11   -1    0    0    0    0  0.00000000000E+00  0.00000000000E+00  0.45593999997E+02  0.45594000000E+02  0.51100000000E-03 0. -1.
         11   -1    0    0    0    0 -0.00000000000E+00 -0.00000000000E+00 -0.45593999997E+02  0.45594000000E+02  0.51100000000E-03 0.  1.
    9900012    2    1    2    0    0  0.84597611733E+01 -0.63825812673E+00  0.16694500846E+02  0.72461513650E+02  0.69999926210E+02 0.  0.
        -12    1    1    2    0    0 -0.84597611733E+01  0.63825812673E+00 -0.16694500846E+02  0.18726486350E+02  0.00000000000E+00 0.  1.
         11    1    3    3    0    0  0.40643673252E+01  0.36966204758E+01  0.59719716196E+01  0.81147107147E+01  0.51100000000E-03 0. -1.
        -11    1    3    3    0    0  0.28085735473E+02 -0.97145336854E+01 -0.11067984295E+02  0.31712473546E+02  0.51100000000E-03 0.  1.
         12    1    3    3    0    0 -0.23690341625E+02  0.53796550829E+01  0.21790513521E+02  0.32634329389E+02  0.00000000000E+00 0. -1.
</event>
<event>
 7    1  0.1358622E-013  0.7246156E+02  0.7816164E-02  0.1226708E+00
        -11   -1    0    0    0    0  0.00000000000E+00  0.00000000000E+00  0.45593999997E+02  0.45594000000E+02  0.51100000000E-03 0.  1.
         11   -1    0    0    0    0 -0.00000000000E+00 -0.00000000000E+00 -0.45593999997E+02  0.45594000000E+02  0.51100000000E-03 0. -1.
    9900012    2    1    2    0    0 -0.11011351029E+02  0.75832077838E+01 -0.13112007433E+02  0.72461557981E+02  0.69999983959E+02 0.  0.
        -12    1    1    2    0    0  0.11011351029E+02 -0.75832077838E+01  0.13112007433E+02  0.18726442019E+02  0.00000000000E+00 0.  1.
         11    1    3    3    0    0 -0.48427287674E+01 -0.59874075243E+01 -0.71007684449E+01  0.10474826182E+02  0.51100000000E-03 0. -1.
        -11    1    3    3    0    0  0.20372953126E+02 -0.12528213198E+02  0.16837088172E+01  0.23975992590E+02  0.51100000000E-03 0.  1.
        -12    1    3    3    0    0 -0.26541575388E+02  0.26098828506E+02 -0.76949478056E+01  0.38010739209E+02  0.00000000000E+00 0.  1.
</event>
<event>
 7    1  0.1358622E-013  0.7246222E+02  0.7816164E-02  0.1226706E+00
        -11   -1    0    0    0    0  0.00000000000E+00  0.00000000000E+00  0.45593999997E+02  0.45594000000E+02  0.51100000000E-03 0.  1.
         11   -1    0    0    0    0 -0.00000000000E+00 -0.00000000000E+00 -0.45593999997E+02  0.45594000000E+02  0.51100000000E-03 0. -1.
    9900012    2    1    2    0    0  0.29534782680E+01 -0.18268928235E+02 -0.28597095022E+01  0.72462223349E+02  0.70000850720E+02 0.  0.
        -12    1    1    2    0    0 -0.29534782680E+01  0.18268928235E+02  0.28597095022E+01  0.18725776651E+02  0.00000000000E+00 0.  1.
         11    1    3    3    0    0  0.44225954641E+01 -0.20944907149E+02  0.20287424112E+02  0.29492847667E+02  0.51100000000E-03 0. -1.
        -11    1    3    3    0    0 -0.16032470369E+02 -0.33749264610E+01 -0.18775305511E+01  0.16491068977E+02  0.51100000000E-03 0.  1.
         12    1    3    3    0    0  0.14563353173E+02  0.60509053750E+01 -0.21269603063E+02  0.26478306705E+02  0.00000000000E+00 0. -1.
</event>
<event>
 7    1  0.1358622E-013  0.7246137E+02  0.7816164E-02  0.1226709E+00
        -11   -1    0    0    0    0  0.00000000000E+00  0.00000000000E+00  0.45593999997E+02  0.45594000000E+02  0.51100000000E-03 0. -1.
         11   -1    0    0    0    0 -0.00000000000E+00 -0.00000000000E+00 -0.45593999997E+02  0.45594000000E+02  0.51100000000E-03 0.  1.
    9900012    2    1    2    0    0 -0.18022481159E+02  0.11924262740E+01  0.49452092634E+01  0.72461366501E+02  0.69999734521E+02 0.  0.
        -12    1    1    2    0    0  0.18022481159E+02 -0.11924262740E+01 -0.49452092634E+01  0.18726633499E+02  0.00000000000E+00 0.  1.
         11    1    3    3    0    0 -0.20407109248E+01  0.43181742013E+00  0.63163368648E+01  0.66518477894E+01  0.51100000000E-03 0. -1.
        -11    1    3    3    0    0 -0.78701042665E+01  0.31498972836E+02 -0.77634513080E+01  0.33382555434E+02  0.51100000000E-03 0.  1.
        -12    1    3    3    0    0 -0.81116659673E+01 -0.30738363982E+02  0.63923237067E+01  0.32426963278E+02  0.00000000000E+00 0.  1.
</event>
<event>
 7    1  0.1358622E-013  0.7246201E+02  0.7816164E-02  0.1226707E+00
        -11   -1    0    0    0    0  0.00000000000E+00  0.00000000000E+00  0.45593999997E+02  0.45594000000E+02  0.51100000000E-03 0. -1.
         11   -1    0    0    0    0 -0.00000000000E+00 -0.00000000000E+00 -0.45593999997E+02  0.45594000000E+02  0.51100000000E-03 0.  1.
    9900012    2    1    2    0    0  0.42084987737E+01 -0.14227691208E+01  0.18191398541E+02  0.72462009645E+02  0.70000572334E+02 0.  0.
        -12    1    1    2    0    0 -0.42084987737E+01  0.14227691208E+01 -0.18191398541E+02  0.18725990355E+02  0.00000000000E+00 0.  1.
         11    1    3    3    0    0  0.82080252446E+01  0.35929557989E+01 -0.80719288427E+01  0.12059728243E+02  0.51100000000E-03 0. -1.
        -11    1    3    3    0    0  0.17169807237E+02  0.15179726712E+02  0.20142579722E+02  0.30511471641E+02  0.51100000000E-03 0.  1.
         12    1    3    3    0    0 -0.21169333708E+02 -0.20195451631E+02  0.61207476614E+01  0.29890809761E+02  0.00000000000E+00 0. -1.
</event>
<event>
 7    1  0.1358622E-013  0.7246158E+02  0.7816164E-02  0.1226708E+00
        -11   -1    0    0    0    0  0.00000000000E+00  0.00000000000E+00  0.45593999997E+02  0.45594000000E+02  0.51100000000E-03 0. -1.
         11   -1    0    0    0    0 -0.00000000000E+00 -0.00000000000E+00 -0.45593999997E+02  0.45594000000E+02  0.51100000000E-03 0.  1.
    9900012    2    1    2    0    0 -0.97038907606E+00  0.15031972353E+02  0.11125513087E+02  0.72461577778E+02  0.70000009749E+02 0.  0.
        -12    1    1    2    0    0  0.97038907606E+00 -0.15031972353E+02 -0.11125513087E+02  0.18726422222E+02  0.00000000000E+00 0.  1.
         11    1    3    3    0    0 -0.52611235957E+01 -0.27042639839E+01  0.20753585722E+02  0.21580171125E+02  0.51100000000E-03 0. -1.
        -11    1    3    3    0    0 -0.19957731062E+02  0.59391549171E+00 -0.11531707715E+01  0.19999839195E+02  0.51100000000E-03 0.  1.
        -12    1    3    3    0    0  0.24248465582E+02  0.17142320846E+02 -0.84749018644E+01  0.30881567458E+02  0.00000000000E+00 0.  1.
</event>
<event>
 7    1  0.1358622E-013  0.7246158E+02  0.7816164E-02  0.1226708E+00
        -11   -1    0    0    0    0  0.00000000000E+00  0.00000000000E+00  0.45593999997E+02  0.45594000000E+02  0.51100000000E-03 0. -1.
         11   -1    0    0    0    0 -0.00000000000E+00 -0.00000000000E+00 -0.45593999997E+02  0.45594000000E+02  0.51100000000E-03 0.  1.
    9900012    2    1    2    0    0  0.31229893133E+01 -0.92347550453E+01  0.15988900399E+02  0.72461582859E+02  0.70000016367E+02 0.  0.
        -12    1    1    2    0    0 -0.31229893133E+01  0.92347550453E+01 -0.15988900399E+02  0.18726417141E+02  0.00000000000E+00 0.  1.
         11    1    3    3    0    0  0.66885113516E+01 -0.34923355098E+01  0.42703011171E+01  0.86699517476E+01  0.51100000000E-03 0. -1.
        -11    1    3    3    0    0  0.29319541180E+02 -0.34281609811E+01  0.82059381270E+01  0.30638622742E+02  0.51100000000E-03 0.  1.
         12    1    3    3    0    0 -0.32885063218E+02 -0.23142585544E+01  0.35126611545E+01  0.33153008369E+02  0.00000000000E+00 0. -1.
</event>
<event>
 7    1  0.1358622E-013  0.7246157E+02  0.7816164E-02  0.1226708E+00
        -11   -1    0    0    0    0  0.00000000000E+00  0.00000000000E+00  0.45593999997E+02  0.45594000000E+02  0.51100000000E-03 0.  1.
         11   -1    0    0    0    0 -0.00000000000E+00 -0.00000000000E+00 -0.45593999997E+02  0.45594000000E+02  0.51100000000E-03 0. -1.
    9900012    2    1    2    0    0 -0.12987819253E+02 -0.63509130867E+01 -0.11902176791E+02  0.72461565253E+02  0.69999993433E+02 0.  0.
        -12    1    1    2    0    0  0.12987819253E+02  0.63509130867E+01  0.11902176791E+02  0.18726434747E+02  0.00000000000E+00 0.  1.
         11    1    3    3    0    0  0.13119018708E+02  0.13392339582E+02 -0.26360305766E+02  0.32347011171E+02  0.51100000000E-03 0. -1.
        -11    1    3    3    0    0 -0.13434380046E+02 -0.13047071281E+01  0.39782433627E-01  0.13497644640E+02  0.51100000000E-03 0.  1.
        -12    1    3    3    0    0 -0.12672457915E+02 -0.18438545541E+02  0.14418346542E+02  0.26616909442E+02  0.00000000000E+00 0.  1.
</event>
<event>
 7    1  0.1358622E-013  0.7246158E+02  0.7816164E-02  0.1226708E+00
        -11   -1    0    0    0    0  0.00000000000E+00  0.00000000000E+00  0.45593999997E+02  0.45594000000E+02  0.51100000000E-03 0.  1.
         11   -1    0    0    0    0 -0.00000000000E+00 -0.00000000000E+00 -0.45593999997E+02  0.45594000000E+02  0.51100000000E-03 0. -1.
    9900012    2    1    2    0    0  0.73256238784E+01 -0.15323732617E+02 -0.78865162243E+01  0.72461583240E+02  0.70000016864E+02 0.  0.
        -12    1    1    2    0    0 -0.73256238784E+01  0.15323732617E+02  0.78865162243E+01  0.18726416760E+02  0.00000000000E+00 0.  1.
         11    1    3    3    0    0 -0.39282721765E+01  0.57580583663E+01 -0.71681243720E+01  0.99984281623E+01  0.51100000000E-03 0. -1.
        -11    1    3    3    0    0  0.10624910151E+02  0.16938618178E+02  0.10807657072E+02  0.22729077261E+02  0.51100000000E-03 0.  1.
         12    1    3    3    0    0  0.62898590336E+00 -0.38020409161E+02 -0.11526048924E+02  0.39734077816E+02  0.00000000000E+00 0. -1.
</event>
<event>
 7    1  0.1358622E-013  0.7246153E+02  0.7816164E-02  0.1226708E+00
        -11   -1    0    0    0    0  0.00000000000E+00  0.00000000000E+00  0.45593999997E+02  0.45594000000E+02  0.51100000000E-03 0. -1.
         11   -1    0    0    0    0 -0.00000000000E+00 -0.00000000000E+00 -0.45593999997E+02  0.45594000000E+02  0.51100000000E-03 0.  1.
    9900012    2    1    2    0    0 -0.18154386588E+02  0.22001503864E+01  0.40321502264E+01  0.72461530777E+02  0.69999948522E+02 0.  0.
        -12    1    1    2    0    0  0.18154386588E+02 -0.22001503864E+01 -0.40321502264E+01  0.18726469223E+02  0.00000000000E+00 0.  1.
         11    1    3    3    0    0 -0.17236182302E+02 -0.13152330987E+01  0.38452403626E+01  0.17708802674E+02  0.51100000000E-03 0. -1.
        -11    1    3    3    0    0 -0.26544425970E+02 -0.62805993841E+01  0.11440309940E+01  0.27301305571E+02  0.51100000000E-03 0.  1.
        -12    1    3    3    0    0  0.25626221684E+02  0.97959828692E+01 -0.95712113021E+00  0.27451422532E+02  0.00000000000E+00 0.  1.
</event>
<event>
 7    1  0.1358622E-013  0.7246158E+02  0.7816164E-02  0.1226708E+00
        -11   -1    0    0    0    0  0.00000000000E+00  0.00000000000E+00  0.45593999997E+02  0.45594000000E+02  0.51100000000E-03 0.  1.
         11   -1    0    0    0    0 -0.00000000000E+00 -0.00000000000E+00 -0.45593999997E+02  0.45594000000E+02  0.51100000000E-03 0. -1.
    9900012    2    1    2    0    0  0.64509545441E+01 -0.10835776325E+02 -0.13843771189E+02  0.72461578456E+02  0.70000010632E+02 0.  0.
        -12    1    1    2    0    0 -0.64509545441E+01  0.10835776325E+02  0.13843771189E+02  0.18726421544E+02  0.00000000000E+00 0.  1.
         11    1    3    3    0    0 -0.27114181314E+01  0.91600208118E+01  0.13372881805E+02  0.16434467974E+02  0.51100000000E-03 0. -1.
        -11    1    3    3    0    0 -0.12095251109E+02  0.61969478311E+01 -0.16300189315E+01  0.13687739908E+02  0.51100000000E-03 0.  1.
         12    1    3    3    0    0  0.21257623784E+02 -0.26192744968E+02 -0.25586634063E+02  0.42339370574E+02  0.00000000000E+00 0. -1.
</event>
<event>
 7    1  0.1358622E-013  0.7246156E+02  0.7816164E-02  0.1226708E+00
        -11   -1    0    0    0    0  0.00000000000E+00  0.00000000000E+00  0.45593999997E+02  0.45594000000E+02  0.51100000000E-03 0.  1.
         11   -1    0    0    0    0 -0.00000000000E+00 -0.00000000000E+00 -0.45593999997E+02  0.45594000000E+02  0.51100000000E-03 0. -1.
    9900012    2    1    2    0    0 -0.13447195144E+02  0.52544570086E+01 -0.11926570344E+02  0.72461562648E+02  0.69999990040E+02 0.  0.
        -12    1    1    2    0    0  0.13447195144E+02 -0.52544570086E+01  0.11926570344E+02  0.18726437352E+02  0.00000000000E+00 0.  1.
         11    1    3    3    0    0 -0.67322958385E+01  0.35193626070E+01 -0.13611281722E+01  0.77176674312E+01  0.51100000000E-03 0. -1.
        -11    1    3    3    0    0 -0.17228847825E+02  0.29513002189E+02 -0.58398537310E+01  0.34669213828E+02  0.51100000000E-03 0.  1.
         12    1    3    3    0    0  0.10513948519E+02 -0.27777907788E+02 -0.47255884412E+01  0.30074681389E+02  0.00000000000E+00 0. -1.
</event>
<event>
 7    1  0.1358622E-013  0.7246158E+02  0.7816164E-02  0.1226708E+00
        -11   -1    0    0    0    0  0.00000000000E+00  0.00000000000E+00  0.45593999997E+02  0.45594000000E+02  0.51100000000E-03 0.  1.
         11   -1    0    0    0    0 -0.00000000000E+00 -0.00000000000E+00 -0.45593999997E+02  0.45594000000E+02  0.51100000000E-03 0. -1.
    9900012    2    1    2    0    0  0.17294562991E+02 -0.71638105759E+01  0.50667220521E+00  0.72461579954E+02  0.70000012584E+02 0.  0.
        -12    1    1    2    0    0 -0.17294562991E+02  0.71638105759E+01 -0.50667220521E+00  0.18726420046E+02  0.00000000000E+00 0.  1.
         11    1    3    3    0    0 -0.34334531717E+01 -0.93221403935E+01  0.45150756466E+01  0.10912232153E+02  0.51100000000E-03 0. -1.
        -11    1    3    3    0    0  0.11664366538E+02 -0.14852693504E+01  0.26780337773E+02  0.29248076232E+02  0.51100000000E-03 0.  1.
         12    1    3    3    0    0  0.90636496248E+01  0.36435991680E+01 -0.30788741215E+02  0.32301271569E+02  0.00000000000E+00 0. -1.
</event>
<event>
 7    1  0.1358622E-013  0.7246139E+02  0.7816164E-02  0.1226708E+00
        -11   -1    0    0    0    0  0.00000000000E+00  0.00000000000E+00  0.45593999997E+02  0.45594000000E+02  0.51100000000E-03 0.  1.
         11   -1    0    0    0    0 -0.00000000000E+00 -0.00000000000E+00 -0.45593999997E+02  0.45594000000E+02  0.51100000000E-03 0. -1.
    9900012    2    1    2    0    0 -0.14632462283E+02  0.41667562798E+01  0.10918565153E+02  0.72461391248E+02  0.69999766758E+02 0.  0.
        -12    1    1    2    0    0  0.14632462283E+02 -0.41667562798E+01 -0.10918565153E+02  0.18726608752E+02  0.00000000000E+00 0.  1.
         11    1    3    3    0    0 -0.38169157210E+01 -0.33442055012E+01  0.56887239048E+01  0.76232628173E+01  0.51100000000E-03 0. -1.
        -11    1    3    3    0    0 -0.39404997180E+01 -0.19612386159E+02  0.23925014459E+02  0.31186207624E+02  0.51100000000E-03 0.  1.
         12    1    3    3    0    0 -0.68750468444E+01  0.27123347940E+02 -0.18695173211E+02  0.33651920806E+02  0.00000000000E+00 0. -1.
</event>
<event>
 7    1  0.1982421E-013  0.7246218E+02  0.7816164E-02  0.1226706E+00
        -11   -1    0    0    0    0  0.00000000000E+00  0.00000000000E+00  0.45593999997E+02  0.45594000000E+02  0.51100000000E-03 0. -1.
         11   -1    0    0    0    0 -0.00000000000E+00 -0.00000000000E+00 -0.45593999997E+02  0.45594000000E+02  0.51100000000E-03 0.  1.
    9900012    2    1    2    0    0 -0.15729028825E+01  0.96000717116E+01  0.16000652635E+02  0.72462181324E+02  0.70000795975E+02 0.  0.
        -12    1    1    2    0    0  0.15729028825E+01 -0.96000717116E+01 -0.16000652635E+02  0.18725818676E+02  0.00000000000E+00 0.  1.
         11    1    3    3    0    0  0.87965501032E+01 -0.10131357819E+01  0.23850741485E+02  0.25441375896E+02  0.51100000000E-03 0. -1.
        -11    1    3    3    0    0 -0.76298768032E+01  0.44320306762E+01  0.18136517794E+02  0.20169065271E+02  0.51100000000E-03 0.  1.
        -12    1    3    3    0    0 -0.27395761824E+01  0.61811768174E+01 -0.25986606645E+02  0.26851740156E+02  0.00000000000E+00 0.  1.
</event>
<event>
 7    1  0.1358622E-013  0.7246152E+02  0.7816164E-02  0.1226708E+00
        -11   -1    0    0    0    0  0.00000000000E+00  0.00000000000E+00  0.45593999997E+02  0.45594000000E+02  0.51100000000E-03 0. -1.
         11   -1    0    0    0    0 -0.00000000000E+00 -0.00000000000E+00 -0.45593999997E+02  0.45594000000E+02  0.51100000000E-03 0.  1.
    9900012    2    1    2    0    0  0.75643660767E+01  0.95413004449E+01  0.14227609845E+02  0.72461523283E+02  0.69999938759E+02 0.  0.
        -12    1    1    2    0    0 -0.75643660767E+01 -0.95413004449E+01 -0.14227609845E+02  0.18726476717E+02  0.00000000000E+00 0.  1.
         11    1    3    3    0    0 -0.16912182425E+02 -0.93036799201E+00  0.30277433004E+02  0.34693089348E+02  0.51100000000E-03 0. -1.
        -11    1    3    3    0    0  0.55103027888E+01  0.13332347006E+02 -0.10362596073E+02  0.17762272128E+02  0.51100000000E-03 0.  1.
        -12    1    3    3    0    0  0.18966245713E+02 -0.28606785692E+01 -0.56872270858E+01  0.20006161807E+02  0.00000000000E+00 0.  1.
</event>
<event>
 7    1  0.1358622E-013  0.7246153E+02  0.7816164E-02  0.1226708E+00
        -11   -1    0    0    0    0  0.00000000000E+00  0.00000000000E+00  0.45593999997E+02  0.45594000000E+02  0.51100000000E-03 0.  1.
         11   -1    0    0    0    0 -0.00000000000E+00 -0.00000000000E+00 -0.45593999997E+02  0.45594000000E+02  0.51100000000E-03 0. -1.
    9900012    2    1    2    0    0  0.13503299906E+02 -0.11689605092E+02 -0.56298123266E+01  0.72461527764E+02  0.69999944597E+02 0.  0.
        -12    1    1    2    0    0 -0.13503299906E+02  0.11689605092E+02  0.56298123266E+01  0.18726472236E+02  0.00000000000E+00 0.  1.
         11    1    3    3    0    0 -0.20799315060E+02  0.13852777198E+02  0.42555505446E+01  0.25349963585E+02  0.51100000000E-03 0. -1.
        -11    1    3    3    0    0 -0.19711268967E+01 -0.15620705700E+01  0.14481083210E-01  0.25150776671E+01  0.51100000000E-03 0.  1.
        -12    1    3    3    0    0  0.36273741863E+02 -0.23980311720E+02 -0.98998439544E+01  0.44596486512E+02  0.00000000000E+00 0.  1.
</event>
<event>
 7    1  0.1358622E-013  0.7246157E+02  0.7816164E-02  0.1226708E+00
        -11   -1    0    0    0    0  0.00000000000E+00  0.00000000000E+00  0.45593999997E+02  0.45594000000E+02  0.51100000000E-03 0. -1.
         11   -1    0    0    0    0 -0.00000000000E+00 -0.00000000000E+00 -0.45593999997E+02  0.45594000000E+02  0.51100000000E-03 0.  1.
    9900012    2    1    2    0    0  0.17323019908E+02  0.71111653195E+01 -0.15313327308E+00  0.72461571063E+02  0.70000001001E+02 0.  0.
        -12    1    1    2    0    0 -0.17323019908E+02 -0.71111653195E+01  0.15313327308E+00  0.18726428937E+02  0.00000000000E+00 0.  1.
         11    1    3    3    0    0  0.96764113017E+01  0.33188082053E+01  0.90405614518E+01  0.13652075857E+02  0.51100000000E-03 0. -1.
        -11    1    3    3    0    0 -0.14521033141E+02 -0.46754424855E+01  0.17418237144E+02  0.23154160563E+02  0.51100000000E-03 0.  1.
         12    1    3    3    0    0  0.22167641748E+02  0.84677995997E+01 -0.26611931869E+02  0.35655334643E+02  0.00000000000E+00 0. -1.
</event>
<event>
 7    1  0.1358622E-013  0.7246160E+02  0.7816164E-02  0.1226708E+00
        -11   -1    0    0    0    0  0.00000000000E+00  0.00000000000E+00  0.45593999997E+02  0.45594000000E+02  0.51100000000E-03 0. -1.
         11   -1    0    0    0    0 -0.00000000000E+00 -0.00000000000E+00 -0.45593999997E+02  0.45594000000E+02  0.51100000000E-03 0.  1.
    9900012    2    1    2    0    0 -0.44514110216E+01  0.18054739894E+02  0.22111680841E+01  0.72461602669E+02  0.70000042174E+02 0.  0.
        -12    1    1    2    0    0  0.44514110216E+01 -0.18054739894E+02 -0.22111680841E+01  0.18726397331E+02  0.00000000000E+00 0.  1.
         11    1    3    3    0    0  0.27100188967E+02 -0.25657121478E+01  0.11928254818E+02  0.29720134322E+02  0.51100000000E-03 0. -1.
        -11    1    3    3    0    0 -0.31370530530E+01  0.11284906165E+02 -0.28360498911E+01  0.12051281602E+02  0.51100000000E-03 0.  1.
        -12    1    3    3    0    0 -0.28414546936E+02  0.93355458765E+01 -0.68810368427E+01  0.30690186744E+02  0.00000000000E+00 0.  1.
</event>
<event>
 7    1  0.1358622E-013  0.7246160E+02  0.7816164E-02  0.1226708E+00
        -11   -1    0    0    0    0  0.00000000000E+00  0.00000000000E+00  0.45593999997E+02  0.45594000000E+02  0.51100000000E-03 0.  1.
         11   -1    0    0    0    0 -0.00000000000E+00 -0.00000000000E+00 -0.45593999997E+02  0.45594000000E+02  0.51100000000E-03 0. -1.
    9900012    2    1    2    0    0  0.27294630015E+01 -0.73819348256E+01 -0.16992209734E+02  0.72461598272E+02  0.70000036446E+02 0.  0.
        -12    1    1    2    0    0 -0.27294630015E+01  0.73819348256E+01  0.16992209734E+02  0.18726401728E+02  0.00000000000E+00 0.  1.
         11    1    3    3    0    0 -0.63829515066E+01  0.17310161625E+02 -0.15634820543E+02  0.24183287185E+02  0.51100000000E-03 0. -1.
        -11    1    3    3    0    0  0.11404431281E+02  0.83040553565E+01 -0.50792535320E+01  0.14993905592E+02  0.51100000000E-03 0.  1.
         12    1    3    3    0    0 -0.22920167725E+01 -0.32996151807E+02  0.37218643410E+01  0.33284405495E+02  0.00000000000E+00 0. -1.
</event>
<event>
 7    1  0.1358622E-013  0.7246159E+02  0.7816164E-02  0.1226708E+00
        -11   -1    0    0    0    0  0.00000000000E+00  0.00000000000E+00  0.45593999997E+02  0.45594000000E+02  0.51100000000E-03 0. -1.
         11   -1    0    0    0    0 -0.00000000000E+00 -0.00000000000E+00 -0.45593999997E+02  0.45594000000E+02  0.51100000000E-03 0.  1.
    9900012    2    1    2    0    0  0.62622932175E+01 -0.17350424033E+02  0.32287767959E+01  0.72461587368E+02  0.70000022242E+02 0.  0.
        -12    1    1    2    0    0 -0.62622932175E+01  0.17350424033E+02 -0.32287767959E+01  0.18726412632E+02  0.00000000000E+00 0.  1.
         11    1    3    3    0    0 -0.19911942894E+02 -0.10123653831E+02  0.13790190474E+02  0.26251536913E+02  0.51100000000E-03 0. -1.
        -11    1    3    3    0    0  0.11732680467E+02 -0.14914943922E+02  0.87527800579E+01  0.20897906645E+02  0.51100000000E-03 0.  1.
        -12    1    3    3    0    0  0.14441555645E+02  0.76881737201E+01 -0.19314193736E+02  0.25312143810E+02  0.00000000000E+00 0.  1.
</event>
<event>
 7    1  0.1358622E-013  0.7246235E+02  0.7816164E-02  0.1226706E+00
        -11   -1    0    0    0    0  0.00000000000E+00  0.00000000000E+00  0.45593999997E+02  0.45594000000E+02  0.51100000000E-03 0.  1.
         11   -1    0    0    0    0 -0.00000000000E+00 -0.00000000000E+00 -0.45593999997E+02  0.45594000000E+02  0.51100000000E-03 0. -1.
    9900012    2    1    2    0    0  0.21020224224E+01  0.15961826931E+02 -0.95630346667E+01  0.72462347828E+02  0.70001012874E+02 0.  0.
        -12    1    1    2    0    0 -0.21020224224E+01 -0.15961826931E+02  0.95630346667E+01  0.18725652172E+02  0.00000000000E+00 0.  1.
         11    1    3    3    0    0  0.20642460119E+01  0.31149104053E+01 -0.66066856529E+00  0.37947676668E+01  0.51100000000E-03 0. -1.
        -11    1    3    3    0    0 -0.11107162570E+02  0.38218392522E+02 -0.84531942670E+00  0.39808656754E+02  0.51100000000E-03 0.  1.
         12    1    3    3    0    0  0.11144938980E+02 -0.25371475996E+02 -0.80570466747E+01  0.28858923407E+02  0.00000000000E+00 0. -1.
</event>
<event>
 7    1  0.1358622E-013  0.7246152E+02  0.7816164E-02  0.1226708E+00
        -11   -1    0    0    0    0  0.00000000000E+00  0.00000000000E+00  0.45593999997E+02  0.45594000000E+02  0.51100000000E-03 0. -1.
         11   -1    0    0    0    0 -0.00000000000E+00 -0.00000000000E+00 -0.45593999997E+02  0.45594000000E+02  0.51100000000E-03 0.  1.
    9900012    2    1    2    0    0 -0.17685044197E+02 -0.28054187373E+01 -0.54817836753E+01  0.72461518355E+02  0.69999932339E+02 0.  0.
        -12    1    1    2    0    0  0.17685044197E+02  0.28054187373E+01  0.54817836753E+01  0.18726481645E+02  0.00000000000E+00 0.  1.
         11    1    3    3    0    0 -0.13938827209E+02 -0.18758829384E+02  0.23454169604E+02  0.33110159406E+02  0.51100000000E-03 0. -1.
        -11    1    3    3    0    0  0.55836569524E+01 -0.14641935951E+01 -0.23631943533E+01  0.62374494514E+01  0.51100000000E-03 0.  1.
        -12    1    3    3    0    0 -0.93298739398E+01  0.17417604241E+02 -0.26572758926E+02  0.33113909497E+02  0.00000000000E+00 0.  1.
</event>
<event>
 7    1  0.1358622E-013  0.7246154E+02  0.7816164E-02  0.1226708E+00
        -11   -1    0    0    0    0  0.00000000000E+00  0.00000000000E+00  0.45593999997E+02  0.45594000000E+02  0.51100000000E-03 0. -1.
         11   -1    0    0    0    0 -0.00000000000E+00 -0.00000000000E+00 -0.45593999997E+02  0.45594000000E+02  0.51100000000E-03 0.  1.
    9900012    2    1    2    0    0  0.21884102933E+01  0.54740351496E+01  0.17774309082E+02  0.72461541078E+02  0.69999961940E+02 0.  0.
        -12    1    1    2    0    0 -0.21884102933E+01 -0.54740351496E+01 -0.17774309082E+02  0.18726458922E+02  0.00000000000E+00 0.  1.
         11    1    3    3    0    0 -0.92496245134E+01  0.63708968399E+01  0.21433176998E+01  0.11434058387E+02  0.51100000000E-03 0. -1.
        -11    1    3    3    0    0 -0.20664850344E+02  0.11899622485E+02  0.10630363448E+02  0.26108268467E+02  0.51100000000E-03 0.  1.
         12    1    3    3    0    0  0.32102885151E+02 -0.12796484175E+02  0.50006279337E+01  0.34919214224E+02  0.00000000000E+00 0. -1.
</event>
<event>
 7    1  0.1358622E-013  0.7246161E+02  0.7816164E-02  0.1226708E+00
        -11   -1    0    0    0    0  0.00000000000E+00  0.00000000000E+00  0.45593999997E+02  0.45594000000E+02  0.51100000000E-03 0.  1.
         11   -1    0    0    0    0 -0.00000000000E+00 -0.00000000000E+00 -0.45593999997E+02  0.45594000000E+02  0.51100000000E-03 0. -1.
    9900012    2    1    2    0    0 -0.45178378414E+01 -0.40711791912E+01 -0.17711364012E+02  0.72461607557E+02  0.70000048541E+02 0.  0.
        -12    1    1    2    0    0  0.45178378414E+01  0.40711791912E+01  0.17711364012E+02  0.18726392443E+02  0.00000000000E+00 0.  1.
         11    1    3    3    0    0 -0.15606577513E+02 -0.39902203642E+01  0.10079191041E+02  0.19002031800E+02  0.51100000000E-03 0.  1.
        -11    1    3    3    0    0  0.27637167818E+02 -0.15270179822E+01 -0.10839549055E+02  0.29726093805E+02  0.51100000000E-03 0. -1.
         12    1    3    3    0    0 -0.16548428146E+02  0.14460591552E+01 -0.16951005998E+02  0.23733481951E+02  0.00000000000E+00 0. -1.
</event>
<event>
 7    1  0.1358622E-013  0.7246157E+02  0.7816164E-02  0.1226708E+00
        -11   -1    0    0    0    0  0.00000000000E+00  0.00000000000E+00  0.45593999997E+02  0.45594000000E+02  0.51100000000E-03 0.  1.
         11   -1    0    0    0    0 -0.00000000000E+00 -0.00000000000E+00 -0.45593999997E+02  0.45594000000E+02  0.51100000000E-03 0. -1.
    9900012    2    1    2    0    0 -0.64907401396E+01  0.17559202700E+02  0.47333648522E+00  0.72461565357E+02  0.69999993568E+02 0.  0.
        -12    1    1    2    0    0  0.64907401396E+01 -0.17559202700E+02 -0.47333648522E+00  0.18726434643E+02  0.00000000000E+00 0.  1.
         11    1    3    3    0    0 -0.15692130635E+02  0.40300196366E+00 -0.17598711633E+02  0.23582197223E+02  0.51100000000E-03 0. -1.
        -11    1    3    3    0    0 -0.35101874004E+01  0.28235745086E+02  0.12906582079E+02  0.31243536569E+02  0.51100000000E-03 0.  1.
        -12    1    3    3    0    0  0.12711577896E+02 -0.11079544350E+02  0.51654660389E+01  0.17635831565E+02  0.00000000000E+00 0.  1.
</event>
<event>
 7    1  0.1358622E-013  0.7246163E+02  0.7816164E-02  0.1226708E+00
        -11   -1    0    0    0    0  0.00000000000E+00  0.00000000000E+00  0.45593999997E+02  0.45594000000E+02  0.51100000000E-03 0. -1.
         11   -1    0    0    0    0 -0.00000000000E+00 -0.00000000000E+00 -0.45593999997E+02  0.45594000000E+02  0.51100000000E-03 0.  1.
    9900012    2    1    2    0    0  0.16036398818E+02 -0.80768450911E+01  0.53174686005E+01  0.72461628595E+02  0.70000075947E+02 0.  0.
        -12    1    1    2    0    0 -0.16036398818E+02  0.80768450911E+01 -0.53174686005E+01  0.18726371405E+02  0.00000000000E+00 0.  1.
         11    1    3    3    0    0  0.69407539326E+00 -0.35085864534E+02 -0.24350161760E+01  0.35177108107E+02  0.51100000000E-03 0. -1.
        -11    1    3    3    0    0  0.32182696111E+01 -0.26516392629E+01 -0.48957830750E+00  0.41985875304E+01  0.51100000000E-03 0.  1.
        -12    1    3    3    0    0  0.12124053814E+02  0.29660658706E+02  0.82420630840E+01  0.33085932957E+02  0.00000000000E+00 0.  1.
</event>
<event>
 7    1  0.1358622E-013  0.7246155E+02  0.7816164E-02  0.1226708E+00
        -11   -1    0    0    0    0  0.00000000000E+00  0.00000000000E+00  0.45593999997E+02  0.45594000000E+02  0.51100000000E-03 0.  1.
         11   -1    0    0    0    0 -0.00000000000E+00 -0.00000000000E+00 -0.45593999997E+02  0.45594000000E+02  0.51100000000E-03 0. -1.
    9900012    2    1    2    0    0 -0.16973891558E+02  0.78798443728E+01  0.68915303148E+00  0.72461551489E+02  0.69999975502E+02 0.  0.
        -12    1    1    2    0    0  0.16973891558E+02 -0.78798443728E+01 -0.68915303148E+00  0.18726448511E+02  0.00000000000E+00 0.  1.
         11    1    3    3    0    0 -0.10689884574E+02 -0.29989339868E+01 -0.14798943466E+02  0.18500701749E+02  0.51100000000E-03 0. -1.
        -11    1    3    3    0    0  0.65785941335E+01 -0.86026617558E+01 -0.13135755489E+02  0.17024446029E+02  0.51100000000E-03 0.  1.
        -12    1    3    3    0    0 -0.12862601117E+02  0.19481440115E+02  0.28623851987E+02  0.36936403710E+02  0.00000000000E+00 0.  1.
</event>
<event>
 7    1  0.1358622E-013  0.7246156E+02  0.7816164E-02  0.1226708E+00
        -11   -1    0    0    0    0  0.00000000000E+00  0.00000000000E+00  0.45593999997E+02  0.45594000000E+02  0.51100000000E-03 0. -1.
         11   -1    0    0    0    0 -0.00000000000E+00 -0.00000000000E+00 -0.45593999997E+02  0.45594000000E+02  0.51100000000E-03 0.  1.
    9900012    2    1    2    0    0  0.10896913959E+02  0.59807383418E+01  0.14005977834E+02  0.72461564674E+02  0.69999992678E+02 0.  0.
        -12    1    1    2    0    0 -0.10896913959E+02 -0.59807383418E+01 -0.14005977834E+02  0.18726435326E+02  0.00000000000E+00 0.  1.
         11    1    3    3    0    0  0.64237716325E+01  0.80593017136E+01 -0.63420567414E+01  0.12101192919E+02  0.51100000000E-03 0. -1.
        -11    1    3    3    0    0  0.14275343971E+02  0.32459088280E+01 -0.16384095271E+02  0.21971798919E+02  0.51100000000E-03 0.  1.
         12    1    3    3    0    0 -0.98022016445E+01 -0.53244721997E+01  0.36732129846E+02  0.38388572835E+02  0.00000000000E+00 0. -1.
</event>
<event>
 7    1  0.1358622E-013  0.7246153E+02  0.7816164E-02  0.1226708E+00
        -11   -1    0    0    0    0  0.00000000000E+00  0.00000000000E+00  0.45593999997E+02  0.45594000000E+02  0.51100000000E-03 0.  1.
         11   -1    0    0    0    0 -0.00000000000E+00 -0.00000000000E+00 -0.45593999997E+02  0.45594000000E+02  0.51100000000E-03 0. -1.
    9900012    2    1    2    0    0 -0.62315977261E+01 -0.17568147148E+02 -0.17911231936E+01  0.72461528716E+02  0.69999945837E+02 0.  0.
        -12    1    1    2    0    0  0.62315977261E+01  0.17568147148E+02  0.17911231936E+01  0.18726471284E+02  0.00000000000E+00 0.  1.
         11    1    3    3    0    0 -0.91528228623E+01 -0.16326983838E+02 -0.24597549136E+02  0.30909286491E+02  0.51100000000E-03 0. -1.
        -11    1    3    3    0    0  0.15595427309E+02 -0.91641756966E+01  0.59930752809E+01  0.19055613890E+02  0.51100000000E-03 0.  1.
        -12    1    3    3    0    0 -0.12674202173E+02  0.79230123864E+01  0.16813350662E+02  0.22496628335E+02  0.00000000000E+00 0.  1.
</event>
<event>
 7    1  0.1358622E-013  0.7246154E+02  0.7816164E-02  0.1226708E+00
        -11   -1    0    0    0    0  0.00000000000E+00  0.00000000000E+00  0.45593999997E+02  0.45594000000E+02  0.51100000000E-03 0. -1.
         11   -1    0    0    0    0 -0.00000000000E+00 -0.00000000000E+00 -0.45593999997E+02  0.45594000000E+02  0.51100000000E-03 0.  1.
    9900012    2    1    2    0    0  0.15846613340E+02  0.12682184779E+01  0.98973205869E+01  0.72461535110E+02  0.69999954166E+02 0.  0.
        -12    1    1    2    0    0 -0.15846613340E+02 -0.12682184779E+01 -0.98973205869E+01  0.18726464890E+02  0.00000000000E+00 0.  1.
         11    1    3    3    0    0  0.27944259285E+01 -0.44217131473E+01 -0.26068743070E+02  0.26588338214E+02  0.51100000000E-03 0. -1.
        -11    1    3    3    0    0 -0.58882194565E+01  0.27443268404E+01  0.18726895067E+01  0.67608745310E+01  0.51100000000E-03 0.  1.
         12    1    3    3    0    0  0.18940406868E+02  0.29456047848E+01  0.34093374151E+02  0.39112322366E+02  0.00000000000E+00 0. -1.
</event>
<event>
 7    1  0.1396192E-013  0.7246149E+02  0.7816164E-02  0.1226708E+00
        -11   -1    0    0    0    0  0.00000000000E+00  0.00000000000E+00  0.45593999997E+02  0.45594000000E+02  0.51100000000E-03 0. -1.
         11   -1    0    0    0    0 -0.00000000000E+00 -0.00000000000E+00 -0.45593999997E+02  0.45594000000E+02  0.51100000000E-03 0.  1.
    9900012    2    1    2    0    0 -0.33914320204E+01 -0.13638647305E+02  0.12376088877E+02  0.72461492388E+02  0.69999898512E+02 0.  0.
        -12    1    1    2    0    0  0.33914320204E+01  0.13638647305E+02 -0.12376088877E+02  0.18726507612E+02  0.00000000000E+00 0.  1.
         11    1    3    3    0    0 -0.13173554755E+02 -0.11471715410E+02  0.20306696342E+02  0.26786278501E+02  0.51100000000E-03 0. -1.
        -11    1    3    3    0    0  0.51615026534E+01 -0.23015990670E+02 -0.51099445014E+01  0.24134797891E+02  0.51100000000E-03 0.  1.
        -12    1    3    3    0    0  0.46206200807E+01  0.20849058775E+02 -0.28206629637E+01  0.21540415996E+02  0.00000000000E+00 0.  1.
</event>
<event>
 7    1  0.1358622E-013  0.7246157E+02  0.7816164E-02  0.1226708E+00
        -11   -1    0    0    0    0  0.00000000000E+00  0.00000000000E+00  0.45593999997E+02  0.45594000000E+02  0.51100000000E-03 0. -1.
         11   -1    0    0    0    0 -0.00000000000E+00 -0.00000000000E+00 -0.45593999997E+02  0.45594000000E+02  0.51100000000E-03 0.  1.
    9900012    2    1    2    0    0  0.16197425871E+02 -0.64747429865E+01  0.68117732416E+01  0.72461570647E+02  0.70000000460E+02 0.  0.
        -12    1    1    2    0    0 -0.16197425871E+02  0.64747429865E+01 -0.68117732416E+01  0.18726429353E+02  0.00000000000E+00 0.  1.
         11    1    3    3    0    0 -0.17329222856E+02 -0.68736955711E+01  0.10997696902E+02  0.21644837560E+02  0.51100000000E-03 0. -1.
        -11    1    3    3    0    0  0.39378422419E+01 -0.90838176360E+01 -0.14952333630E+02  0.17933059572E+02  0.51100000000E-03 0.  1.
        -12    1    3    3    0    0  0.29588806485E+02  0.94827702206E+01  0.10766409969E+02  0.32883673516E+02  0.00000000000E+00 0.  1.
</event>
<event>
 7    1  0.1358622E-013  0.7246164E+02  0.7816164E-02  0.1226708E+00
        -11   -1    0    0    0    0  0.00000000000E+00  0.00000000000E+00  0.45593999997E+02  0.45594000000E+02  0.51100000000E-03 0.  1.
         11   -1    0    0    0    0 -0.00000000000E+00 -0.00000000000E+00 -0.45593999997E+02  0.45594000000E+02  0.51100000000E-03 0. -1.
    9900012    2    1    2    0    0 -0.36484522423E+01 -0.10672365649E+02 -0.14948781996E+02  0.72461636886E+02  0.70000086748E+02 0.  0.
        -12    1    1    2    0    0  0.36484522423E+01  0.10672365649E+02  0.14948781996E+02  0.18726363114E+02  0.00000000000E+00 0.  1.
         11    1    3    3    0    0 -0.78516276965E+01 -0.38302945161E+01 -0.17709691689E+02  0.19747212298E+02  0.51100000000E-03 0. -1.
        -11    1    3    3    0    0  0.24932913527E+02 -0.15688884954E+02  0.56379042989E+01  0.29992953392E+02  0.51100000000E-03 0.  1.
         12    1    3    3    0    0 -0.20729738073E+02  0.88468138216E+01 -0.28769946061E+01  0.22721471196E+02  0.00000000000E+00 0. -1.
</event>
<event>
 7    1  0.1358622E-013  0.7246162E+02  0.7816164E-02  0.1226708E+00
        -11   -1    0    0    0    0  0.00000000000E+00  0.00000000000E+00  0.45593999997E+02  0.45594000000E+02  0.51100000000E-03 0.  1.
         11   -1    0    0    0    0 -0.00000000000E+00 -0.00000000000E+00 -0.45593999997E+02  0.45594000000E+02  0.51100000000E-03 0. -1.
    9900012    2    1    2    0    0 -0.46815270782E+01 -0.17203940508E+01 -0.18049956156E+02  0.72461618376E+02  0.70000062636E+02 0.  0.
        -12    1    1    2    0    0  0.46815270782E+01  0.17203940508E+01  0.18049956156E+02  0.18726381624E+02  0.00000000000E+00 0.  1.
         11    1    3    3    0    0 -0.61380215467E+00 -0.40973579662E+01 -0.12811406426E+02  0.13464665991E+02  0.51100000000E-03 0. -1.
        -11    1    3    3    0    0  0.14426130684E+00 -0.25344947574E+02  0.98055817075E+01  0.27176030095E+02  0.51100000000E-03 0.  1.
         12    1    3    3    0    0 -0.42119862304E+01  0.27721911490E+02 -0.15044131438E+02  0.31820922290E+02  0.00000000000E+00 0. -1.
</event>
<event>
 7    1  0.1358622E-013  0.7246160E+02  0.7816164E-02  0.1226708E+00
        -11   -1    0    0    0    0  0.00000000000E+00  0.00000000000E+00  0.45593999997E+02  0.45594000000E+02  0.51100000000E-03 0. -1.
         11   -1    0    0    0    0 -0.00000000000E+00 -0.00000000000E+00 -0.45593999997E+02  0.45594000000E+02  0.51100000000E-03 0.  1.
    9900012    2    1    2    0    0  0.14981800024E+02 -0.25874872395E+01  0.10932921385E+02  0.72461596390E+02  0.70000033994E+02 0.  0.
        -12    1    1    2    0    0 -0.14981800024E+02  0.25874872395E+01 -0.10932921385E+02  0.18726403610E+02  0.00000000000E+00 0.  1.
         11    1    3    3    0    0 -0.37557314183E+01  0.37166850206E+01  0.34953115872E+01  0.63353349857E+01  0.51100000000E-03 0. -1.
        -11    1    3    3    0    0  0.10452165707E+02 -0.57424100658E+01 -0.27627317606E+02  0.30091389461E+02  0.51100000000E-03 0.  1.
         12    1    3    3    0    0  0.82853657352E+01 -0.56176219432E+00  0.35064927403E+02  0.36034871943E+02  0.00000000000E+00 0. -1.
</event>
<event>
 7    1  0.1358622E-013  0.7246155E+02  0.7816164E-02  0.1226708E+00
        -11   -1    0    0    0    0  0.00000000000E+00  0.00000000000E+00  0.45593999997E+02  0.45594000000E+02  0.51100000000E-03 0.  1.
         11   -1    0    0    0    0 -0.00000000000E+00 -0.00000000000E+00 -0.45593999997E+02  0.45594000000E+02  0.51100000000E-03 0. -1.
    9900012    2    1    2    0    0  0.11961818385E+02 -0.93340580986E+01 -0.10975892739E+02  0.72461549159E+02  0.69999972468E+02 0.  0.
        -12    1    1    2    0    0 -0.11961818385E+02  0.93340580986E+01  0.10975892739E+02  0.18726450841E+02  0.00000000000E+00 0.  1.
         11    1    3    3    0    0  0.15715386874E+02  0.14356376767E+02 -0.46412278285E+01  0.21785773672E+02  0.51100000000E-03 0. -1.
        -11    1    3    3    0    0  0.17184714334E+02 -0.10055458418E+01 -0.94682263156E+01  0.19646191463E+02  0.51100000000E-03 0.  1.
        -12    1    3    3    0    0 -0.20938282824E+02 -0.22684889023E+02  0.31335614048E+01  0.31029584024E+02  0.00000000000E+00 0.  1.
</event>
<event>
 7    1  0.1358622E-013  0.7246157E+02  0.7816164E-02  0.1226708E+00
        -11   -1    0    0    0    0  0.00000000000E+00  0.00000000000E+00  0.45593999997E+02  0.45594000000E+02  0.51100000000E-03 0. -1.
         11   -1    0    0    0    0 -0.00000000000E+00 -0.00000000000E+00 -0.45593999997E+02  0.45594000000E+02  0.51100000000E-03 0.  1.
    9900012    2    1    2    0    0  0.10915189024E+02 -0.82880581361E+01  0.12761109212E+02  0.72461570351E+02  0.70000000073E+02 0.  0.
        -12    1    1    2    0    0 -0.10915189024E+02  0.82880581361E+01 -0.12761109212E+02  0.18726429649E+02  0.00000000000E+00 0.  1.
         11    1    3    3    0    0  0.13953386698E+01 -0.31733668551E+02 -0.37348593959E+00  0.31766526119E+02  0.51100000000E-03 0. -1.
        -11    1    3    3    0    0  0.25956782625E+01 -0.67561111179E+01  0.57274237921E+00  0.72602077914E+01  0.51100000000E-03 0.  1.
         12    1    3    3    0    0  0.69241720918E+01  0.30201721532E+02  0.12561852772E+02  0.33434836440E+02  0.00000000000E+00 0. -1.
</event>
<event>
 7    1  0.1358622E-013  0.7246163E+02  0.7816164E-02  0.1226708E+00
        -11   -1    0    0    0    0  0.00000000000E+00  0.00000000000E+00  0.45593999997E+02  0.45594000000E+02  0.51100000000E-03 0.  1.
         11   -1    0    0    0    0 -0.00000000000E+00 -0.00000000000E+00 -0.45593999997E+02  0.45594000000E+02  0.51100000000E-03 0. -1.
    9900012    2    1    2    0    0 -0.14754002361E+02 -0.55211460709E+01 -0.10124876678E+02  0.72461634433E+02  0.70000083552E+02 0.  0.
        -12    1    1    2    0    0  0.14754002361E+02  0.55211460709E+01  0.10124876678E+02  0.18726365567E+02  0.00000000000E+00 0.  1.
         11    1    3    3    0    0 -0.19211516793E+02  0.61267846356E+01  0.47060905565E+01  0.20706693508E+02  0.51100000000E-03 0. -1.
        -11    1    3    3    0    0  0.24561016459E+01 -0.20771881056E+02  0.11462568310E+02  0.23851497866E+02  0.51100000000E-03 0.  1.
         12    1    3    3    0    0  0.20014127857E+01  0.91239503498E+01 -0.26293535544E+02  0.27903443059E+02  0.00000000000E+00 0. -1.
</event>
<event>
 7    1  0.1358622E-013  0.7246138E+02  0.7816164E-02  0.1226709E+00
        -11   -1    0    0    0    0  0.00000000000E+00  0.00000000000E+00  0.45593999997E+02  0.45594000000E+02  0.51100000000E-03 0.  1.
         11   -1    0    0    0    0 -0.00000000000E+00 -0.00000000000E+00 -0.45593999997E+02  0.45594000000E+02  0.51100000000E-03 0. -1.
    9900012    2    1    2    0    0  0.15447678556E+02  0.42159400309E+00 -0.10577227388E+02  0.72461381152E+02  0.69999753606E+02 0.  0.
        -12    1    1    2    0    0 -0.15447678556E+02 -0.42159400309E+00  0.10577227388E+02  0.18726618848E+02  0.00000000000E+00 0.  1.
         11    1    3    3    0    0 -0.64300586933E+01  0.11986058840E+02 -0.62127350649E+00  0.13616065597E+02  0.51100000000E-03 0. -1.
        -11    1    3    3    0    0 -0.11538466879E+02  0.12012153651E+02 -0.62167411315E+01  0.17778524231E+02  0.51100000000E-03 0.  1.
         12    1    3    3    0    0  0.33416204129E+02 -0.23576618488E+02 -0.37392127496E+01  0.41066791324E+02  0.00000000000E+00 0. -1.
</event>
<event>
 7    1  0.1358622E-013  0.7246157E+02  0.7816164E-02  0.1226708E+00
        -11   -1    0    0    0    0  0.00000000000E+00  0.00000000000E+00  0.45593999997E+02  0.45594000000E+02  0.51100000000E-03 0. -1.
         11   -1    0    0    0    0 -0.00000000000E+00 -0.00000000000E+00 -0.45593999997E+02  0.45594000000E+02  0.51100000000E-03 0.  1.
    9900012    2    1    2    0    0 -0.93859310847E+00 -0.18669155341E+02 -0.11229582164E+01  0.72461565387E+02  0.69999993607E+02 0.  0.
        -12    1    1    2    0    0  0.93859310847E+00  0.18669155341E+02  0.11229582164E+01  0.18726434613E+02  0.00000000000E+00 0.  1.
         11    1    3    3    0    0 -0.95579146666E+01 -0.89383471115E+01 -0.25391204181E+02  0.28565031627E+02  0.51100000000E-03 0.  1.
        -11    1    3    3    0    0 -0.84897300728E+01 -0.64933277369E+01 -0.33904686203E+01  0.11213121757E+02  0.51100000000E-03 0. -1.
         12    1    3    3    0    0  0.17109051631E+02 -0.32374804925E+01  0.27658714585E+02  0.32683412003E+02  0.00000000000E+00 0. -1.
</event>
<event>
 7    1  0.1358622E-013  0.7246155E+02  0.7816164E-02  0.1226708E+00
        -11   -1    0    0    0    0  0.00000000000E+00  0.00000000000E+00  0.45593999997E+02  0.45594000000E+02  0.51100000000E-03 0.  1.
         11   -1    0    0    0    0 -0.00000000000E+00 -0.00000000000E+00 -0.45593999997E+02  0.45594000000E+02  0.51100000000E-03 0. -1.
    9900012    2    1    2    0    0  0.13891921934E+02  0.47159224592E+01 -0.11638488114E+02  0.72461552786E+02  0.69999977192E+02 0.  0.
        -12    1    1    2    0    0 -0.13891921934E+02 -0.47159224592E+01  0.11638488114E+02  0.18726447214E+02  0.00000000000E+00 0.  1.
         11    1    3    3    0    0 -0.32922769473E+01  0.12741344748E+02 -0.24393591844E+02  0.27716931230E+02  0.51100000000E-03 0. -1.
        -11    1    3    3    0    0  0.15274702669E+01  0.14835231840E+02  0.68625243934E+01  0.16416805733E+02  0.51100000000E-03 0.  1.
        -12    1    3    3    0    0  0.15656728615E+02 -0.22860654128E+02  0.58925793367E+01  0.28327815823E+02  0.00000000000E+00 0.  1.
</event>
<event>
 7    1  0.1358622E-013  0.7246147E+02  0.7816164E-02  0.1226708E+00
        -11   -1    0    0    0    0  0.00000000000E+00  0.00000000000E+00  0.45593999997E+02  0.45594000000E+02  0.51100000000E-03 0.  1.
         11   -1    0    0    0    0 -0.00000000000E+00 -0.00000000000E+00 -0.45593999997E+02  0.45594000000E+02  0.51100000000E-03 0. -1.
    9900012    2    1    2    0    0  0.36994487308E+01 -0.17223695118E+02 -0.63514736198E+01  0.72461473051E+02  0.69999873323E+02 0.  0.
        -12    1    1    2    0    0 -0.36994487308E+01  0.17223695118E+02  0.63514736198E+01  0.18726526949E+02  0.00000000000E+00 0.  1.
         11    1    3    3    0    0  0.67536017239E+01 -0.21289097112E+02 -0.14127633008E+02  0.26427765830E+02  0.51100000000E-03 0.  1.
        -11    1    3    3    0    0  0.20777737999E+02 -0.15732303065E-01  0.66988061197E+01  0.21830910369E+02  0.51100000000E-03 0. -1.
         12    1    3    3    0    0 -0.23831890992E+02  0.40811342978E+01  0.10773532686E+01  0.24202796852E+02  0.00000000000E+00 0. -1.
</event>
<event>
 7    1  0.1358622E-013  0.7246146E+02  0.7816164E-02  0.1226708E+00
        -11   -1    0    0    0    0  0.00000000000E+00  0.00000000000E+00  0.45593999997E+02  0.45594000000E+02  0.51100000000E-03 0.  1.
         11   -1    0    0    0    0 -0.00000000000E+00 -0.00000000000E+00 -0.45593999997E+02  0.45594000000E+02  0.51100000000E-03 0. -1.
    9900012    2    1    2    0    0 -0.52039279013E+01 -0.84877230048E+01 -0.15860679604E+02  0.72461455607E+02  0.69999850598E+02 0.  0.
        -12    1    1    2    0    0  0.52039279013E+01  0.84877230048E+01  0.15860679604E+02  0.18726544393E+02  0.00000000000E+00 0.  1.
         11    1    3    3    0    0  0.87281710241E+01  0.15328081191E+02 -0.11791107770E+02  0.21217004151E+02  0.51100000000E-03 0. -1.
        -11    1    3    3    0    0 -0.28226888765E+02 -0.22068439045E+02 -0.71034855055E+01  0.36527150967E+02  0.51100000000E-03 0.  1.
         12    1    3    3    0    0  0.14294789839E+02 -0.17473651512E+01  0.30339136712E+01  0.14717300489E+02  0.00000000000E+00 0. -1.
</event>
<event>
 7    1  0.1358622E-013  0.7246163E+02  0.7816164E-02  0.1226708E+00
        -11   -1    0    0    0    0  0.00000000000E+00  0.00000000000E+00  0.45593999997E+02  0.45594000000E+02  0.51100000000E-03 0. -1.
         11   -1    0    0    0    0 -0.00000000000E+00 -0.00000000000E+00 -0.45593999997E+02  0.45594000000E+02  0.51100000000E-03 0.  1.
    9900012    2    1    2    0    0  0.10868343238E+02  0.12176844602E+02  0.91804374935E+01  0.72461631912E+02  0.70000080268E+02 0.  0.
        -12    1    1    2    0    0 -0.10868343238E+02 -0.12176844602E+02 -0.91804374935E+01  0.18726368088E+02  0.00000000000E+00 0.  1.
         11    1    3    3    0    0  0.35405086520E+01  0.22704130346E+02  0.14521950710E+02  0.27182711215E+02  0.51100000000E-03 0. -1.
        -11    1    3    3    0    0  0.42132911008E+00  0.38597863056E+01  0.17215156262E+02  0.17647579832E+02  0.51100000000E-03 0.  1.
        -12    1    3    3    0    0  0.69065054757E+01 -0.14387072050E+02 -0.22556669479E+02  0.27631340865E+02  0.00000000000E+00 0.  1.
</event>
<event>
 7    1  0.1358622E-013  0.7246155E+02  0.7816164E-02  0.1226708E+00
        -11   -1    0    0    0    0  0.00000000000E+00  0.00000000000E+00  0.45593999997E+02  0.45594000000E+02  0.51100000000E-03 0.  1.
         11   -1    0    0    0    0 -0.00000000000E+00 -0.00000000000E+00 -0.45593999997E+02  0.45594000000E+02  0.51100000000E-03 0. -1.
    9900012    2    1    2    0    0  0.17075105717E+02  0.29019364957E+00 -0.76835303745E+01  0.72461545808E+02  0.69999968102E+02 0.  0.
        -12    1    1    2    0    0 -0.17075105717E+02 -0.29019364957E+00  0.76835303745E+01  0.18726454192E+02  0.00000000000E+00 0.  1.
         11    1    3    3    0    0  0.24318508094E+02  0.16511029008E+02 -0.40194470093E+01  0.29667488424E+02  0.51100000000E-03 0. -1.
        -11    1    3    3    0    0  0.15602486159E+02 -0.10547424776E+02 -0.39939538116E+01  0.19251945644E+02  0.51100000000E-03 0.  1.
         12    1    3    3    0    0 -0.22845888537E+02 -0.56734105820E+01  0.32987044643E+00  0.23542111740E+02  0.00000000000E+00 0. -1.
</event>
<event>
 7    1  0.1358622E-013  0.7246150E+02  0.7816164E-02  0.1226708E+00
        -11   -1    0    0    0    0  0.00000000000E+00  0.00000000000E+00  0.45593999997E+02  0.45594000000E+02  0.51100000000E-03 0. -1.
         11   -1    0    0    0    0 -0.00000000000E+00 -0.00000000000E+00 -0.45593999997E+02  0.45594000000E+02  0.51100000000E-03 0.  1.
    9900012    2    1    2    0    0 -0.20032604742E+01 -0.44438342983E+00  0.18613734188E+02  0.72461504610E+02  0.69999914434E+02 0.  0.
        -12    1    1    2    0    0  0.20032604742E+01  0.44438342983E+00 -0.18613734188E+02  0.18726495390E+02  0.00000000000E+00 0.  1.
         11    1    3    3    0    0  0.21081965071E+02  0.17612973984E+01  0.24303892915E+01  0.21294558275E+02  0.51100000000E-03 0. -1.
        -11    1    3    3    0    0  0.12505627902E+02 -0.12266620872E+01  0.15043022911E+01  0.12655368613E+02  0.51100000000E-03 0.  1.
        -12    1    3    3    0    0 -0.35590853447E+02 -0.97901874098E+00  0.14679042606E+02  0.38511577721E+02  0.00000000000E+00 0.  1.
</event>
<event>
 7    1  0.1358622E-013  0.7246155E+02  0.7816164E-02  0.1226708E+00
        -11   -1    0    0    0    0  0.00000000000E+00  0.00000000000E+00  0.45593999997E+02  0.45594000000E+02  0.51100000000E-03 0.  1.
         11   -1    0    0    0    0 -0.00000000000E+00 -0.00000000000E+00 -0.45593999997E+02  0.45594000000E+02  0.51100000000E-03 0. -1.
    9900012    2    1    2    0    0  0.60995395924E+01  0.10204247402E+02 -0.14468892184E+02  0.72461551076E+02  0.69999974965E+02 0.  0.
        -12    1    1    2    0    0 -0.60995395924E+01 -0.10204247402E+02  0.14468892184E+02  0.18726448924E+02  0.00000000000E+00 0.  1.
         11    1    3    3    0    0  0.37200524386E+01 -0.15231363579E+02 -0.25819922019E+02  0.30207641417E+02  0.51100000000E-03 0. -1.
        -11    1    3    3    0    0  0.55416488397E-01 -0.31963755018E+01 -0.73237781276E+01  0.79910958985E+01  0.51100000000E-03 0.  1.
        -12    1    3    3    0    0  0.23240706655E+01  0.28631986482E+02  0.18674807963E+02  0.34262813761E+02  0.00000000000E+00 0.  1.
</event>
<event>
 7    1  0.1358622E-013  0.7246155E+02  0.7816164E-02  0.1226708E+00
        -11   -1    0    0    0    0  0.00000000000E+00  0.00000000000E+00  0.45593999997E+02  0.45594000000E+02  0.51100000000E-03 0.  1.
         11   -1    0    0    0    0 -0.00000000000E+00 -0.00000000000E+00 -0.45593999997E+02  0.45594000000E+02  0.51100000000E-03 0. -1.
    9900012    2    1    2    0    0  0.21943272486E+01 -0.18103566814E+02 -0.42574347328E+01  0.72461549349E+02  0.69999972715E+02 0.  0.
        -12    1    1    2    0    0 -0.21943272486E+01  0.18103566814E+02  0.42574347328E+01  0.18726450651E+02  0.00000000000E+00 0.  1.
         11    1    3    3    0    0 -0.90988461134E-01 -0.13322085566E+01 -0.23869078866E+01  0.27350298095E+01  0.51100000000E-03 0. -1.
        -11    1    3    3    0    0  0.22403883961E+01 -0.37378910613E+02 -0.19846653325E+02  0.42380325002E+02  0.51100000000E-03 0.  1.
        -12    1    3    3    0    0  0.44927313638E-01  0.20607552355E+02  0.17976126479E+02  0.27346194538E+02  0.00000000000E+00 0.  1.
</event>
<event>
 7    1  0.1358622E-013  0.7246159E+02  0.7816164E-02  0.1226708E+00
        -11   -1    0    0    0    0  0.00000000000E+00  0.00000000000E+00  0.45593999997E+02  0.45594000000E+02  0.51100000000E-03 0. -1.
         11   -1    0    0    0    0 -0.00000000000E+00 -0.00000000000E+00 -0.45593999997E+02  0.45594000000E+02  0.51100000000E-03 0.  1.
    9900012    2    1    2    0    0 -0.16516333543E+02 -0.69271984738E+01  0.54683668621E+01  0.72461591147E+02  0.70000027165E+02 0.  0.
        -12    1    1    2    0    0  0.16516333543E+02  0.69271984738E+01 -0.54683668621E+01  0.18726408853E+02  0.00000000000E+00 0.  1.
         11    1    3    3    0    0  0.77081148945E+01  0.16061513359E+02 -0.74437644659E+01  0.19307948526E+02  0.51100000000E-03 0. -1.
        -11    1    3    3    0    0 -0.48399692227E-01  0.19056210800E+01 -0.10901462545E+02  0.11066870385E+02  0.51100000000E-03 0.  1.
        -12    1    3    3    0    0 -0.24176048745E+02 -0.24894332913E+02  0.23813593873E+02  0.42086772236E+02  0.00000000000E+00 0.  1.
</event>
<event>
 7    1  0.1358622E-013  0.7246154E+02  0.7816164E-02  0.1226708E+00
        -11   -1    0    0    0    0  0.00000000000E+00  0.00000000000E+00  0.45593999997E+02  0.45594000000E+02  0.51100000000E-03 0.  1.
         11   -1    0    0    0    0 -0.00000000000E+00 -0.00000000000E+00 -0.45593999997E+02  0.45594000000E+02  0.51100000000E-03 0. -1.
    9900012    2    1    2    0    0 -0.27896929270E+01 -0.17244557849E+02 -0.67470842587E+01  0.72461539896E+02  0.69999960400E+02 0.  0.
        -12    1    1    2    0    0  0.27896929270E+01  0.17244557849E+02  0.67470842587E+01  0.18726460104E+02  0.00000000000E+00 0.  1.
         11    1    3    3    0    0  0.79051312723E+01 -0.68767389969E+01 -0.25992134856E+02  0.28024484193E+02  0.51100000000E-03 0. -1.
        -11    1    3    3    0    0  0.23563288598E+01  0.95236339496E+01 -0.45271291600E+01  0.10804942758E+02  0.51100000000E-03 0.  1.
        -12    1    3    3    0    0 -0.13051153059E+02 -0.19891452802E+02  0.23772179757E+02  0.33632112945E+02  0.00000000000E+00 0.  1.
</event>
<event>
 7    1  0.1358622E-013  0.7246158E+02  0.7816164E-02  0.1226708E+00
        -11   -1    0    0    0    0  0.00000000000E+00  0.00000000000E+00  0.45593999997E+02  0.45594000000E+02  0.51100000000E-03 0.  1.
         11   -1    0    0    0    0 -0.00000000000E+00 -0.00000000000E+00 -0.45593999997E+02  0.45594000000E+02  0.51100000000E-03 0. -1.
    9900012    2    1    2    0    0 -0.17584093685E+02 -0.60658526688E+01 -0.21642499076E+01  0.72461577571E+02  0.70000009479E+02 0.  0.
        -12    1    1    2    0    0  0.17584093685E+02  0.60658526688E+01  0.21642499076E+01  0.18726422429E+02  0.00000000000E+00 0.  1.
         11    1    3    3    0    0  0.81258851748E+01  0.20316565439E+01 -0.91501066517E+01  0.12404922014E+02  0.51100000000E-03 0. -1.
        -11    1    3    3    0    0  0.89615470371E+01 -0.46319758587E+01 -0.15567531401E+02  0.18550271152E+02  0.51100000000E-03 0.  1.
        -12    1    3    3    0    0 -0.34671525897E+02 -0.34655333540E+01  0.22553388145E+02  0.41506384404E+02  0.00000000000E+00 0.  1.
</event>
<event>
 7    1  0.1358622E-013  0.7246160E+02  0.7816164E-02  0.1226708E+00
        -11   -1    0    0    0    0  0.00000000000E+00  0.00000000000E+00  0.45593999997E+02  0.45594000000E+02  0.51100000000E-03 0. -1.
         11   -1    0    0    0    0 -0.00000000000E+00 -0.00000000000E+00 -0.45593999997E+02  0.45594000000E+02  0.51100000000E-03 0.  1.
    9900012    2    1    2    0    0 -0.55512446382E+01  0.43179171406E+01  0.17355615160E+02  0.72461598769E+02  0.70000037094E+02 0.  0.
        -12    1    1    2    0    0  0.55512446382E+01 -0.43179171406E+01 -0.17355615160E+02  0.18726401231E+02  0.00000000000E+00 0.  1.
         11    1    3    3    0    0  0.29121006688E+01  0.10406455901E+02  0.44879585353E+01  0.11701129296E+02  0.51100000000E-03 0. -1.
        -11    1    3    3    0    0  0.49209187460E+01  0.24712880965E+02  0.98009637465E+01  0.27037026787E+02  0.51100000000E-03 0.  1.
        -12    1    3    3    0    0 -0.13384264053E+02 -0.30801419725E+02  0.30666928785E+01  0.33723442685E+02  0.00000000000E+00 0.  1.
</event>
<event>
 7    1  0.1358622E-013  0.7246156E+02  0.7816164E-02  0.1226708E+00
        -11   -1    0    0    0    0  0.00000000000E+00  0.00000000000E+00  0.45593999997E+02  0.45594000000E+02  0.51100000000E-03 0.  1.
         11   -1    0    0    0    0 -0.00000000000E+00 -0.00000000000E+00 -0.45593999997E+02  0.45594000000E+02  0.51100000000E-03 0. -1.
    9900012    2    1    2    0    0  0.77517570388E+01 -0.11421435335E+02 -0.12654661104E+02  0.72461564943E+02  0.69999993028E+02 0.  0.
        -12    1    1    2    0    0 -0.77517570388E+01  0.11421435335E+02  0.12654661104E+02  0.18726435057E+02  0.00000000000E+00 0.  1.
         11    1    3    3    0    0  0.21217485760E+02 -0.24716488478E+02 -0.17416996921E+02  0.36938303788E+02  0.51100000000E-03 0. -1.
        -11    1    3    3    0    0  0.74403156449E+00 -0.60584833344E+01 -0.65746654092E+01  0.89713448705E+01  0.51100000000E-03 0.  1.
        -12    1    3    3    0    0 -0.14209760286E+02  0.19353536478E+02  0.11337001226E+02  0.26551916285E+02  0.00000000000E+00 0.  1.
</event>
<event>
 7    1  0.1358622E-013  0.7246157E+02  0.7816164E-02  0.1226708E+00
        -11   -1    0    0    0    0  0.00000000000E+00  0.00000000000E+00  0.45593999997E+02  0.45594000000E+02  0.51100000000E-03 0.  1.
         11   -1    0    0    0    0 -0.00000000000E+00 -0.00000000000E+00 -0.45593999997E+02  0.45594000000E+02  0.51100000000E-03 0. -1.
    9900012    2    1    2    0    0 -0.36660314393E+00 -0.58668855401E+01 -0.17779891686E+02  0.72461567020E+02  0.69999995735E+02 0.  0.
        -12    1    1    2    0    0  0.36660314393E+00  0.58668855401E+01  0.17779891686E+02  0.18726432980E+02  0.00000000000E+00 0.  1.
         11    1    3    3    0    0 -0.10702432506E+02 -0.69531952633E+01  0.49129389222E+01  0.13675743308E+02  0.51100000000E-03 0. -1.
        -11    1    3    3    0    0 -0.13993325032E+02  0.13308912168E+02  0.50019995068E+01  0.19948942024E+02  0.51100000000E-03 0.  1.
         12    1    3    3    0    0  0.24329154395E+02 -0.12222602445E+02 -0.27694830115E+02  0.38836881687E+02  0.00000000000E+00 0. -1.
</event>
<event>
 7    1  0.1358622E-013  0.7246155E+02  0.7816164E-02  0.1226708E+00
        -11   -1    0    0    0    0  0.00000000000E+00  0.00000000000E+00  0.45593999997E+02  0.45594000000E+02  0.51100000000E-03 0. -1.
         11   -1    0    0    0    0 -0.00000000000E+00 -0.00000000000E+00 -0.45593999997E+02  0.45594000000E+02  0.51100000000E-03 0.  1.
    9900012    2    1    2    0    0  0.22418637269E+01 -0.14712252614E+02  0.11366768863E+02  0.72461554413E+02  0.69999979311E+02 0.  0.
        -12    1    1    2    0    0 -0.22418637269E+01  0.14712252614E+02 -0.11366768863E+02  0.18726445587E+02  0.00000000000E+00 0.  1.
         11    1    3    3    0    0  0.11021705661E+02  0.45357604791E+01 -0.42221925346E+01  0.12644288389E+02  0.51100000000E-03 0. -1.
        -11    1    3    3    0    0 -0.65515131962E+01 -0.28848596796E+02 -0.10920910417E+02  0.31534586518E+02  0.51100000000E-03 0.  1.
         12    1    3    3    0    0 -0.22283287375E+01  0.96005837033E+01  0.26509871815E+02  0.28282679506E+02  0.00000000000E+00 0. -1.
</event>
<event>
 7    1  0.1358622E-013  0.7246157E+02  0.7816164E-02  0.1226708E+00
        -11   -1    0    0    0    0  0.00000000000E+00  0.00000000000E+00  0.45593999997E+02  0.45594000000E+02  0.51100000000E-03 0.  1.
         11   -1    0    0    0    0 -0.00000000000E+00 -0.00000000000E+00 -0.45593999997E+02  0.45594000000E+02  0.51100000000E-03 0. -1.
    9900012    2    1    2    0    0 -0.11294432993E+02 -0.14705557574E+02  0.26194510430E+01  0.72461570442E+02  0.70000000193E+02 0.  0.
        -12    1    1    2    0    0  0.11294432993E+02  0.14705557574E+02 -0.26194510430E+01  0.18726429558E+02  0.00000000000E+00 0.  1.
         11    1    3    3    0    0  0.12780382519E+02  0.62495106900E+01  0.12752996285E+02  0.19105849253E+02  0.51100000000E-03 0. -1.
        -11    1    3    3    0    0 -0.19726523687E+01  0.93933628365E+01  0.72050528468E+01  0.12001641951E+02  0.51100000000E-03 0.  1.
         12    1    3    3    0    0 -0.22102163144E+02 -0.30348431101E+02 -0.17338598088E+02  0.41354079237E+02  0.00000000000E+00 0. -1.
</event>
<event>
 7    1  0.1358622E-013  0.7246159E+02  0.7816164E-02  0.1226708E+00
        -11   -1    0    0    0    0  0.00000000000E+00  0.00000000000E+00  0.45593999997E+02  0.45594000000E+02  0.51100000000E-03 0. -1.
         11   -1    0    0    0    0 -0.00000000000E+00 -0.00000000000E+00 -0.45593999997E+02  0.45594000000E+02  0.51100000000E-03 0.  1.
    9900012    2    1    2    0    0 -0.70132386130E+00  0.12042647180E+02  0.14323447730E+02  0.72461591878E+02  0.70000028117E+02 0.  0.
        -12    1    1    2    0    0  0.70132386130E+00 -0.12042647180E+02 -0.14323447730E+02  0.18726408122E+02  0.00000000000E+00 0.  1.
         11    1    3    3    0    0  0.36001542993E+01  0.44900465733E+01 -0.35684081449E+01  0.67716442729E+01  0.51100000000E-03 0. -1.
        -11    1    3    3    0    0 -0.14727132645E+00  0.20658410304E+02 -0.17908423737E+02  0.27340505594E+02  0.51100000000E-03 0.  1.
         12    1    3    3    0    0 -0.41542068342E+01 -0.13105809697E+02  0.35800279612E+02  0.38349442011E+02  0.00000000000E+00 0. -1.
</event>
<event>
 7    1  0.1358622E-013  0.7246161E+02  0.7816164E-02  0.1226708E+00
        -11   -1    0    0    0    0  0.00000000000E+00  0.00000000000E+00  0.45593999997E+02  0.45594000000E+02  0.51100000000E-03 0.  1.
         11   -1    0    0    0    0 -0.00000000000E+00 -0.00000000000E+00 -0.45593999997E+02  0.45594000000E+02  0.51100000000E-03 0. -1.
    9900012    2    1    2    0    0  0.27628619980E+00 -0.61199975664E+01 -0.17695956402E+02  0.72461612808E+02  0.70000055382E+02 0.  0.
        -12    1    1    2    0    0 -0.27628619980E+00  0.61199975664E+01  0.17695956402E+02  0.18726387192E+02  0.00000000000E+00 0.  1.
         11    1    3    3    0    0 -0.18056981947E+00 -0.23013304298E+01  0.39525334071E+01  0.45772533033E+01  0.51100000000E-03 0. -1.
        -11    1    3    3    0    0 -0.13075110905E+02 -0.17756781883E+02  0.14817061713E+02  0.26567031187E+02  0.51100000000E-03 0.  1.
         12    1    3    3    0    0  0.13531966924E+02  0.13938114746E+02 -0.36465551522E+02  0.41317328318E+02  0.00000000000E+00 0. -1.
</event>
<event>
 7    1  0.1358622E-013  0.7246150E+02  0.7816164E-02  0.1226708E+00
        -11   -1    0    0    0    0  0.00000000000E+00  0.00000000000E+00  0.45593999997E+02  0.45594000000E+02  0.51100000000E-03 0. -1.
         11   -1    0    0    0    0 -0.00000000000E+00 -0.00000000000E+00 -0.45593999997E+02  0.45594000000E+02  0.51100000000E-03 0.  1.
    9900012    2    1    2    0    0  0.15566432961E+02 -0.10239562174E+01  0.10359510571E+02  0.72461500575E+02  0.69999909177E+02 0.  0.
        -12    1    1    2    0    0 -0.15566432961E+02  0.10239562174E+01 -0.10359510571E+02  0.18726499425E+02  0.00000000000E+00 0.  1.
         11    1    3    3    0    0  0.33453409294E+01  0.10306216712E+02 -0.58136409650E+01  0.12296659317E+02  0.51100000000E-03 0. -1.
        -11    1    3    3    0    0  0.10243859712E+02  0.18074041738E+02 -0.77835269161E+01  0.22185376671E+02  0.51100000000E-03 0.  1.
         12    1    3    3    0    0  0.19772323194E+01 -0.29404214667E+02  0.23956678452E+02  0.37979464586E+02  0.00000000000E+00 0. -1.
</event>
<event>
 7    1  0.1358622E-013  0.7246139E+02  0.7816164E-02  0.1226708E+00
        -11   -1    0    0    0    0  0.00000000000E+00  0.00000000000E+00  0.45593999997E+02  0.45594000000E+02  0.51100000000E-03 0.  1.
         11   -1    0    0    0    0 -0.00000000000E+00 -0.00000000000E+00 -0.45593999997E+02  0.45594000000E+02  0.51100000000E-03 0. -1.
    9900012    2    1    2    0    0  0.25795987357E+01  0.72565915876E+01 -0.17069667133E+02  0.72461388263E+02  0.69999762870E+02 0.  0.
        -12    1    1    2    0    0 -0.25795987357E+01 -0.72565915876E+01  0.17069667133E+02  0.18726611737E+02  0.00000000000E+00 0.  1.
         11    1    3    3    0    0  0.73035588415E+01  0.81552302919E+01 -0.33078930601E+02  0.34843441317E+02  0.51100000000E-03 0. -1.
        -11    1    3    3    0    0 -0.54359228881E+01  0.14956977788E+02  0.12812488433E+01  0.15965651914E+02  0.51100000000E-03 0.  1.
        -12    1    3    3    0    0  0.71196278221E+00 -0.15855616492E+02  0.14728014624E+02  0.21652295031E+02  0.00000000000E+00 0.  1.
</event>
<event>
 7    1  0.1358622E-013  0.7246171E+02  0.7816164E-02  0.1226708E+00
        -11   -1    0    0    0    0  0.00000000000E+00  0.00000000000E+00  0.45593999997E+02  0.45594000000E+02  0.51100000000E-03 0.  1.
         11   -1    0    0    0    0 -0.00000000000E+00 -0.00000000000E+00 -0.45593999997E+02  0.45594000000E+02  0.51100000000E-03 0. -1.
    9900012    2    1    2    0    0 -0.58369191358E+01 -0.14639264419E+02 -0.10114167158E+02  0.72461706586E+02  0.70000177545E+02 0.  0.
        -12    1    1    2    0    0  0.58369191358E+01  0.14639264419E+02  0.10114167158E+02  0.18726293414E+02  0.00000000000E+00 0.  1.
         11    1    3    3    0    0 -0.80104464064E+01 -0.18110761021E+02 -0.61084754939E+01  0.20723908645E+02  0.51100000000E-03 0. -1.
        -11    1    3    3    0    0 -0.20638429657E+02  0.71224111895E+01  0.10739181472E+02  0.24331122843E+02  0.51100000000E-03 0.  1.
         12    1    3    3    0    0  0.22811956927E+02 -0.36509145872E+01 -0.14744873136E+02  0.27406675098E+02  0.00000000000E+00 0. -1.
</event>
<event>
 7    1  0.1358622E-013  0.7246159E+02  0.7816164E-02  0.1226708E+00
        -11   -1    0    0    0    0  0.00000000000E+00  0.00000000000E+00  0.45593999997E+02  0.45594000000E+02  0.51100000000E-03 0.  1.
         11   -1    0    0    0    0 -0.00000000000E+00 -0.00000000000E+00 -0.45593999997E+02  0.45594000000E+02  0.51100000000E-03 0. -1.
    9900012    2    1    2    0    0  0.36952223036E+01  0.57399636042E+01 -0.17437795796E+02  0.72461586241E+02  0.70000020774E+02 0.  0.
        -12    1    1    2    0    0 -0.36952223036E+01 -0.57399636042E+01  0.17437795796E+02  0.18726413759E+02  0.00000000000E+00 0.  1.
         11    1    3    3    0    0 -0.18414710439E+02 -0.15368347361E+02 -0.17161349921E+02  0.29492364987E+02  0.51100000000E-03 0. -1.
        -11    1    3    3    0    0  0.18350818007E+01 -0.67410920298E+01  0.43228166322E+01  0.82156308867E+01  0.51100000000E-03 0.  1.
        -12    1    3    3    0    0  0.20274850942E+02  0.27849402995E+02 -0.45992625071E+01  0.34753590368E+02  0.00000000000E+00 0.  1.
</event>
<event>
 7    1  0.1358622E-013  0.7246154E+02  0.7816164E-02  0.1226708E+00
        -11   -1    0    0    0    0  0.00000000000E+00  0.00000000000E+00  0.45593999997E+02  0.45594000000E+02  0.51100000000E-03 0.  1.
         11   -1    0    0    0    0 -0.00000000000E+00 -0.00000000000E+00 -0.45593999997E+02  0.45594000000E+02  0.51100000000E-03 0. -1.
    9900012    2    1    2    0    0 -0.23599603845E+01  0.18555540446E+02  0.89604981102E+00  0.72461537453E+02  0.69999957218E+02 0.  0.
        -12    1    1    2    0    0  0.23599603845E+01 -0.18555540446E+02 -0.89604981102E+00  0.18726462547E+02  0.00000000000E+00 0.  1.
         11    1    3    3    0    0  0.24338288983E+01 -0.72340352948E+01  0.56139591033E+01  0.94747731808E+01  0.51100000000E-03 0. -1.
        -11    1    3    3    0    0 -0.20362794904E+01  0.86570541609E+00  0.24433848284E+02  0.24533830158E+02  0.51100000000E-03 0.  1.
         12    1    3    3    0    0 -0.27575097924E+01  0.24923870325E+02 -0.29151757576E+02  0.38452934114E+02  0.00000000000E+00 0. -1.
</event>
<event>
 7    1  0.1358622E-013  0.7246156E+02  0.7816164E-02  0.1226708E+00
        -11   -1    0    0    0    0  0.00000000000E+00  0.00000000000E+00  0.45593999997E+02  0.45594000000E+02  0.51100000000E-03 0.  1.
         11   -1    0    0    0    0 -0.00000000000E+00 -0.00000000000E+00 -0.45593999997E+02  0.45594000000E+02  0.51100000000E-03 0. -1.
    9900012    2    1    2    0    0  0.14143459655E+01  0.93230421658E+01 -0.16179005505E+02  0.72461555894E+02  0.69999981240E+02 0.  0.
        -12    1    1    2    0    0 -0.14143459655E+01 -0.93230421658E+01  0.16179005505E+02  0.18726444106E+02  0.00000000000E+00 0.  1.
         11    1    3    3    0    0  0.16892583065E+02 -0.10616254363E+02  0.91745246160E+01  0.21959875262E+02  0.51100000000E-03 0. -1.
        -11    1    3    3    0    0  0.72133204180E+01 -0.52814101002E+01 -0.15891650038E+01  0.90802384203E+01  0.51100000000E-03 0.  1.
         12    1    3    3    0    0 -0.22691557518E+02  0.25220706629E+02 -0.23764365117E+02  0.41421442212E+02  0.00000000000E+00 0. -1.
</event>
<event>
 7    1  0.1358622E-013  0.7246158E+02  0.7816164E-02  0.1226708E+00
        -11   -1    0    0    0    0  0.00000000000E+00  0.00000000000E+00  0.45593999997E+02  0.45594000000E+02  0.51100000000E-03 0. -1.
         11   -1    0    0    0    0 -0.00000000000E+00 -0.00000000000E+00 -0.45593999997E+02  0.45594000000E+02  0.51100000000E-03 0.  1.
    9900012    2    1    2    0    0 -0.54097184419E+01  0.86036013871E+01  0.15728693987E+02  0.72461579494E+02  0.70000011984E+02 0.  0.
        -12    1    1    2    0    0  0.54097184419E+01 -0.86036013871E+01 -0.15728693987E+02  0.18726420506E+02  0.00000000000E+00 0.  1.
         11    1    3    3    0    0  0.28669762711E+01  0.22012876350E+02 -0.56443702725E+01  0.22905134669E+02  0.51100000000E-03 0. -1.
        -11    1    3    3    0    0  0.98685974139E+01 -0.17980377684E+02 -0.82070598456E+00  0.20526976279E+02  0.51100000000E-03 0.  1.
         12    1    3    3    0    0 -0.18145292127E+02  0.45711027210E+01  0.22193770244E+02  0.29029468546E+02  0.00000000000E+00 0. -1.
</event>
<event>
 7    1  0.1358622E-013  0.7246219E+02  0.7816164E-02  0.1226706E+00
        -11   -1    0    0    0    0  0.00000000000E+00  0.00000000000E+00  0.45593999997E+02  0.45594000000E+02  0.51100000000E-03 0.  1.
         11   -1    0    0    0    0 -0.00000000000E+00 -0.00000000000E+00 -0.45593999997E+02  0.45594000000E+02  0.51100000000E-03 0. -1.
    9900012    2    1    2    0    0 -0.12260077849E+02 -0.11056030946E+02 -0.88380160233E+01  0.72462192771E+02  0.70000810887E+02 0.  0.
        -12    1    1    2    0    0  0.12260077849E+02  0.11056030946E+02  0.88380160233E+01  0.18725807229E+02  0.00000000000E+00 0.  1.
         11    1    3    3    0    0  0.41690194992E+01  0.87981514164E+01  0.12900733564E+02  0.16162212679E+02  0.51100000000E-03 0. -1.
        -11    1    3    3    0    0 -0.12167541050E+02  0.50870960743E+01  0.93865420111E+01  0.16187488158E+02  0.51100000000E-03 0.  1.
         12    1    3    3    0    0 -0.42615562980E+01 -0.24941278437E+02 -0.31125291598E+02  0.40112491935E+02  0.00000000000E+00 0. -1.
</event>
<event>
 7    1  0.1358622E-013  0.7246161E+02  0.7816164E-02  0.1226708E+00
        -11   -1    0    0    0    0  0.00000000000E+00  0.00000000000E+00  0.45593999997E+02  0.45594000000E+02  0.51100000000E-03 0.  1.
         11   -1    0    0    0    0 -0.00000000000E+00 -0.00000000000E+00 -0.45593999997E+02  0.45594000000E+02  0.51100000000E-03 0. -1.
    9900012    2    1    2    0    0  0.13376833643E+01  0.87342439020E+01 -0.16510643026E+02  0.72461608290E+02  0.70000049497E+02 0.  0.
        -12    1    1    2    0    0 -0.13376833643E+01 -0.87342439020E+01  0.16510643026E+02  0.18726391710E+02  0.00000000000E+00 0.  1.
         11    1    3    3    0    0  0.10412315455E+02 -0.21782165185E+02 -0.18651185037E+01  0.24214823984E+02  0.51100000000E-03 0. -1.
        -11    1    3    3    0    0  0.63245798741E+01 -0.40802107316E+01  0.30672424593E+00  0.75327624562E+01  0.51100000000E-03 0.  1.
        -12    1    3    3    0    0 -0.15399211964E+02  0.34596619818E+02 -0.14952248768E+02  0.40714021850E+02  0.00000000000E+00 0.  1.
</event>
<event>
 7    1  0.1358622E-013  0.7246152E+02  0.7816164E-02  0.1226708E+00
        -11   -1    0    0    0    0  0.00000000000E+00  0.00000000000E+00  0.45593999997E+02  0.45594000000E+02  0.51100000000E-03 0.  1.
         11   -1    0    0    0    0 -0.00000000000E+00 -0.00000000000E+00 -0.45593999997E+02  0.45594000000E+02  0.51100000000E-03 0. -1.
    9900012    2    1    2    0    0  0.69021299829E+01  0.17198982243E+02 -0.26901093276E+01  0.72461519373E+02  0.69999933665E+02 0.  0.
        -12    1    1    2    0    0 -0.69021299829E+01 -0.17198982243E+02  0.26901093276E+01  0.18726480627E+02  0.00000000000E+00 0.  1.
         11    1    3    3    0    0 -0.99732417285E+01 -0.19041531541E+01 -0.37245295127E+01  0.10814965102E+02  0.51100000000E-03 0. -1.
        -11    1    3    3    0    0  0.56222722444E+01 -0.19692551821E+02 -0.42254125429E+01  0.20910778413E+02  0.51100000000E-03 0.  1.
         12    1    3    3    0    0  0.11253099467E+02  0.38795687218E+02  0.52598327280E+01  0.40735775857E+02  0.00000000000E+00 0. -1.
</event>
<event>
 7    1  0.1358622E-013  0.7246157E+02  0.7816164E-02  0.1226708E+00
        -11   -1    0    0    0    0  0.00000000000E+00  0.00000000000E+00  0.45593999997E+02  0.45594000000E+02  0.51100000000E-03 0. -1.
         11   -1    0    0    0    0 -0.00000000000E+00 -0.00000000000E+00 -0.45593999997E+02  0.45594000000E+02  0.51100000000E-03 0.  1.
    9900012    2    1    2    0    0 -0.14490206730E+02  0.11617047250E+02 -0.23994660260E+01  0.72461566407E+02  0.69999994936E+02 0.  0.
        -12    1    1    2    0    0  0.14490206730E+02 -0.11617047250E+02  0.23994660260E+01  0.18726433593E+02  0.00000000000E+00 0.  1.
         11    1    3    3    0    0 -0.17095032289E+02  0.82648342848E+01 -0.13964350219E+02  0.23570122868E+02  0.51100000000E-03 0. -1.
        -11    1    3    3    0    0 -0.90387321338E+01 -0.89249254260E+01 -0.13572767649E+02  0.18589593712E+02  0.51100000000E-03 0.  1.
         12    1    3    3    0    0  0.11643557693E+02  0.12277138391E+02  0.25137651842E+02  0.30301849827E+02  0.00000000000E+00 0. -1.
</event>
<event>
 7    1  0.1358622E-013  0.7246134E+02  0.7816164E-02  0.1226709E+00
        -11   -1    0    0    0    0  0.00000000000E+00  0.00000000000E+00  0.45593999997E+02  0.45594000000E+02  0.51100000000E-03 0.  1.
         11   -1    0    0    0    0 -0.00000000000E+00 -0.00000000000E+00 -0.45593999997E+02  0.45594000000E+02  0.51100000000E-03 0. -1.
    9900012    2    1    2    0    0  0.63676577923E+01  0.17441909293E+02 -0.24331888401E+01  0.72461343238E+02  0.69999704216E+02 0.  0.
        -12    1    1    2    0    0 -0.63676577923E+01 -0.17441909293E+02  0.24331888401E+01  0.18726656762E+02  0.00000000000E+00 0.  1.
         11    1    3    3    0    0  0.13243998589E+02  0.68996751618E+01  0.28645423201E+01  0.15205742958E+02  0.51100000000E-03 0. -1.
        -11    1    3    3    0    0  0.10848269896E+02 -0.18736924030E+02  0.34629664048E+01  0.21925998687E+02  0.51100000000E-03 0.  1.
         12    1    3    3    0    0 -0.17724610693E+02  0.29279158161E+02 -0.87606975650E+01  0.35329601592E+02  0.00000000000E+00 0. -1.
</event>
<event>
 7    1  0.1358622E-013  0.7246112E+02  0.7816164E-02  0.1226709E+00
        -11   -1    0    0    0    0  0.00000000000E+00  0.00000000000E+00  0.45593999997E+02  0.45594000000E+02  0.51100000000E-03 0.  1.
         11   -1    0    0    0    0 -0.00000000000E+00 -0.00000000000E+00 -0.45593999997E+02  0.45594000000E+02  0.51100000000E-03 0. -1.
    9900012    2    1    2    0    0  0.15242487414E+02  0.10863858735E+02 -0.58233025759E+00  0.72461122051E+02  0.69999416078E+02 0.  0.
        -12    1    1    2    0    0 -0.15242487414E+02 -0.10863858735E+02  0.58233025759E+00  0.18726877949E+02  0.00000000000E+00 0.  1.
         11    1    3    3    0    0  0.96535610718E+01 -0.30701155374E+01  0.13371534000E+02  0.16775421680E+02  0.51100000000E-03 0. -1.
        -11    1    3    3    0    0  0.10617308131E+02 -0.65382958733E+01 -0.27797340461E+02  0.30465860924E+02  0.51100000000E-03 0.  1.
         12    1    3    3    0    0 -0.50283817890E+01  0.20472270146E+02  0.13843476204E+02  0.25219839447E+02  0.00000000000E+00 0. -1.
</event>
<event>
 7    1  0.1358622E-013  0.7246158E+02  0.7816164E-02  0.1226708E+00
        -11   -1    0    0    0    0  0.00000000000E+00  0.00000000000E+00  0.45593999997E+02  0.45594000000E+02  0.51100000000E-03 0. -1.
         11   -1    0    0    0    0 -0.00000000000E+00 -0.00000000000E+00 -0.45593999997E+02  0.45594000000E+02  0.51100000000E-03 0.  1.
    9900012    2    1    2    0    0  0.75485222838E+01  0.10044187436E+01  0.17108179673E+02  0.72461578628E+02  0.70000010856E+02 0.  0.
        -12    1    1    2    0    0 -0.75485222838E+01 -0.10044187436E+01 -0.17108179673E+02  0.18726421372E+02  0.00000000000E+00 0.  1.
         11    1    3    3    0    0  0.51607636153E+01 -0.13049947420E+02  0.56998448167E+01  0.15146710532E+02  0.51100000000E-03 0. -1.
        -11    1    3    3    0    0 -0.20004474144E+02 -0.10667401506E+02  0.26246057192E+01  0.22822379282E+02  0.51100000000E-03 0.  1.
        -12    1    3    3    0    0  0.22392232812E+02  0.24721767669E+02  0.87837291370E+01  0.34492488814E+02  0.00000000000E+00 0.  1.
</event>
<event>
 7    1  0.1358622E-013  0.7246158E+02  0.7816164E-02  0.1226708E+00
        -11   -1    0    0    0    0  0.00000000000E+00  0.00000000000E+00  0.45593999997E+02  0.45594000000E+02  0.51100000000E-03 0. -1.
         11   -1    0    0    0    0 -0.00000000000E+00 -0.00000000000E+00 -0.45593999997E+02  0.45594000000E+02  0.51100000000E-03 0.  1.
    9900012    2    1    2    0    0  0.18133915174E+02 -0.33472152476E+01  0.32613051696E+01  0.72461579069E+02  0.70000011431E+02 0.  0.
        -12    1    1    2    0    0 -0.18133915174E+02  0.33472152476E+01 -0.32613051696E+01  0.18726420931E+02  0.00000000000E+00 0.  1.
         11    1    3    3    0    0  0.23308771329E+02  0.18208919154E+01 -0.49999574585E+00  0.23385133402E+02  0.51100000000E-03 0. -1.
        -11    1    3    3    0    0  0.19000091985E+02 -0.81463090787E+00 -0.93945874287E+01  0.21211444839E+02  0.51100000000E-03 0.  1.
        -12    1    3    3    0    0 -0.24174948139E+02 -0.43534762551E+01  0.13155888344E+02  0.27865000828E+02  0.00000000000E+00 0.  1.
</event>
<event>
 7    1  0.1358622E-013  0.7246183E+02  0.7816164E-02  0.1226707E+00
        -11   -1    0    0    0    0  0.00000000000E+00  0.00000000000E+00  0.45593999997E+02  0.45594000000E+02  0.51100000000E-03 0. -1.
         11   -1    0    0    0    0 -0.00000000000E+00 -0.00000000000E+00 -0.45593999997E+02  0.45594000000E+02  0.51100000000E-03 0.  1.
    9900012    2    1    2    0    0  0.47151112977E+01 -0.12292663261E+02  0.13316445982E+02  0.72461826387E+02  0.70000333607E+02 0.  0.
        -12    1    1    2    0    0 -0.47151112977E+01  0.12292663261E+02 -0.13316445982E+02  0.18726173613E+02  0.00000000000E+00 0.  1.
         11    1    3    3    0    0  0.21477372177E+01 -0.16838648780E+02  0.37495697109E+02  0.41159205165E+02  0.51100000000E-03 0. -1.
        -11    1    3    3    0    0  0.80682761425E+01 -0.34672990146E+01 -0.58382985069E+01  0.10545376811E+02  0.51100000000E-03 0.  1.
        -12    1    3    3    0    0 -0.55009020626E+01  0.80132845341E+01 -0.18340952619E+02  0.20757244410E+02  0.00000000000E+00 0.  1.
</event>
<event>
 7    1  0.1358622E-013  0.7246151E+02  0.7816164E-02  0.1226708E+00
        -11   -1    0    0    0    0  0.00000000000E+00  0.00000000000E+00  0.45593999997E+02  0.45594000000E+02  0.51100000000E-03 0.  1.
         11   -1    0    0    0    0 -0.00000000000E+00 -0.00000000000E+00 -0.45593999997E+02  0.45594000000E+02  0.51100000000E-03 0. -1.
    9900012    2    1    2    0    0  0.18723042059E+02 -0.27007189236E+00  0.23684289902E+00  0.72461512414E+02  0.69999924600E+02 0.  0.
        -12    1    1    2    0    0 -0.18723042059E+02  0.27007189236E+00 -0.23684289902E+00  0.18726487586E+02  0.00000000000E+00 0.  1.
         11    1    3    3    0    0 -0.44982043472E+01  0.18605965574E+02 -0.11354115456E+02  0.22256049410E+02  0.51100000000E-03 0. -1.
        -11    1    3    3    0    0  0.73855852799E+01 -0.60743345636E+01 -0.14339236582E+02  0.17235373983E+02  0.51100000000E-03 0.  1.
        -12    1    3    3    0    0  0.15835661126E+02 -0.12801702903E+02  0.25930194938E+02  0.32970089020E+02  0.00000000000E+00 0.  1.
</event>
<event>
 7    1  0.1358622E-013  0.7246157E+02  0.7816164E-02  0.1226708E+00
        -11   -1    0    0    0    0  0.00000000000E+00  0.00000000000E+00  0.45593999997E+02  0.45594000000E+02  0.51100000000E-03 0.  1.
         11   -1    0    0    0    0 -0.00000000000E+00 -0.00000000000E+00 -0.45593999997E+02  0.45594000000E+02  0.51100000000E-03 0. -1.
    9900012    2    1    2    0    0  0.58013392265E+01  0.15124053959E+02  0.93960873111E+01  0.72461574774E+02  0.70000005836E+02 0.  0.
        -12    1    1    2    0    0 -0.58013392265E+01 -0.15124053959E+02 -0.93960873111E+01  0.18726425226E+02  0.00000000000E+00 0.  1.
         11    1    3    3    0    0  0.33690116006E+02  0.12062762221E+02  0.88999909202E+01  0.36874706610E+02  0.51100000000E-03 0. -1.
        -11    1    3    3    0    0 -0.72497707018E+00  0.58632934387E+01  0.52076118119E+01  0.78754696841E+01  0.51100000000E-03 0.  1.
        -12    1    3    3    0    0 -0.27163799709E+02 -0.28020017008E+01 -0.47115154210E+01  0.27711398481E+02  0.00000000000E+00 0.  1.
</event>
<event>
 7    1  0.1358622E-013  0.7246161E+02  0.7816164E-02  0.1226708E+00
        -11   -1    0    0    0    0  0.00000000000E+00  0.00000000000E+00  0.45593999997E+02  0.45594000000E+02  0.51100000000E-03 0.  1.
         11   -1    0    0    0    0 -0.00000000000E+00 -0.00000000000E+00 -0.45593999997E+02  0.45594000000E+02  0.51100000000E-03 0. -1.
    9900012    2    1    2    0    0 -0.16377182358E+02 -0.90569191450E+01  0.66169385184E+00  0.72461608859E+02  0.70000050238E+02 0.  0.
        -12    1    1    2    0    0  0.16377182358E+02  0.90569191450E+01 -0.66169385184E+00  0.18726391141E+02  0.00000000000E+00 0.  1.
         11    1    3    3    0    0  0.11929700621E+02  0.79119220047E+00 -0.63316871250E+01  0.13529006028E+02  0.51100000000E-03 0. -1.
        -11    1    3    3    0    0 -0.87388553596E+01  0.15956962096E+02  0.17139519400E+02  0.24995106678E+02  0.51100000000E-03 0.  1.
         12    1    3    3    0    0 -0.19568027619E+02 -0.25805073442E+02 -0.10146138423E+02  0.33937496153E+02  0.00000000000E+00 0. -1.
</event>
<event>
 7    1  0.1358622E-013  0.7246153E+02  0.7816164E-02  0.1226708E+00
        -11   -1    0    0    0    0  0.00000000000E+00  0.00000000000E+00  0.45593999997E+02  0.45594000000E+02  0.51100000000E-03 0.  1.
         11   -1    0    0    0    0 -0.00000000000E+00 -0.00000000000E+00 -0.45593999997E+02  0.45594000000E+02  0.51100000000E-03 0. -1.
    9900012    2    1    2    0    0 -0.17750080697E+02  0.17755609784E+01  0.56976121317E+01  0.72461527680E+02  0.69999944487E+02 0.  0.
        -12    1    1    2    0    0  0.17750080697E+02 -0.17755609784E+01 -0.56976121317E+01  0.18726472320E+02  0.00000000000E+00 0.  1.
         11    1    3    3    0    0 -0.11396175322E+02 -0.11244528556E+02 -0.15737616284E+02  0.22449605809E+02  0.51100000000E-03 0. -1.
        -11    1    3    3    0    0 -0.56489673390E+01  0.16987842131E+02 -0.84921102759E+01  0.19814478279E+02  0.51100000000E-03 0.  1.
        -12    1    3    3    0    0 -0.70493803671E+00 -0.39677525969E+01  0.29927338692E+02  0.30197443592E+02  0.00000000000E+00 0.  1.
</event>
<event>
 7    1  0.1358622E-013  0.7246156E+02  0.7816164E-02  0.1226708E+00
        -11   -1    0    0    0    0  0.00000000000E+00  0.00000000000E+00  0.45593999997E+02  0.45594000000E+02  0.51100000000E-03 0. -1.
         11   -1    0    0    0    0 -0.00000000000E+00 -0.00000000000E+00 -0.45593999997E+02  0.45594000000E+02  0.51100000000E-03 0.  1.
    9900012    2    1    2    0    0  0.17293029551E+02 -0.68401019365E+01  0.22008417777E+01  0.72461559599E+02  0.69999986067E+02 0.  0.
        -12    1    1    2    0    0 -0.17293029551E+02  0.68401019365E+01 -0.22008417777E+01  0.18726440401E+02  0.00000000000E+00 0.  1.
         11    1    3    3    0    0  0.12262388317E+02  0.16213498784E+02 -0.23809115293E+01  0.20467350831E+02  0.51100000000E-03 0. -1.
        -11    1    3    3    0    0 -0.18619424724E+02 -0.46136914549E+00 -0.16534137199E+01  0.18698385378E+02  0.51100000000E-03 0.  1.
         12    1    3    3    0    0  0.23650065958E+02 -0.22592231575E+02  0.62351670269E+01  0.33295823390E+02  0.00000000000E+00 0. -1.
</event>
<event>
 7    1  0.1358622E-013  0.7246158E+02  0.7816164E-02  0.1226708E+00
        -11   -1    0    0    0    0  0.00000000000E+00  0.00000000000E+00  0.45593999997E+02  0.45594000000E+02  0.51100000000E-03 0.  1.
         11   -1    0    0    0    0 -0.00000000000E+00 -0.00000000000E+00 -0.45593999997E+02  0.45594000000E+02  0.51100000000E-03 0. -1.
    9900012    2    1    2    0    0  0.11432772095E+02 -0.14724243788E+02 -0.17796733347E+01  0.72461578289E+02  0.70000010415E+02 0.  0.
        -12    1    1    2    0    0 -0.11432772095E+02  0.14724243788E+02  0.17796733347E+01  0.18726421711E+02  0.00000000000E+00 0.  1.
         11    1    3    3    0    0 -0.79633369960E+01 -0.19120568413E+02  0.70876034901E+01  0.21891664990E+02  0.51100000000E-03 0. -1.
        -11    1    3    3    0    0 -0.10808266915E+02  0.14115806955E+02 -0.57607419085E+01  0.18688520201E+02  0.51100000000E-03 0.  1.
         12    1    3    3    0    0  0.30204376006E+02 -0.97194823310E+01 -0.31065349163E+01  0.31881393098E+02  0.00000000000E+00 0. -1.
</event>
<event>
 7    1  0.1358622E-013  0.7246153E+02  0.7816164E-02  0.1226708E+00
        -11   -1    0    0    0    0  0.00000000000E+00  0.00000000000E+00  0.45593999997E+02  0.45594000000E+02  0.51100000000E-03 0.  1.
         11   -1    0    0    0    0 -0.00000000000E+00 -0.00000000000E+00 -0.45593999997E+02  0.45594000000E+02  0.51100000000E-03 0. -1.
    9900012    2    1    2    0    0 -0.12606371007E+02 -0.13228987884E+02 -0.40931591754E+01  0.72461530433E+02  0.69999948074E+02 0.  0.
        -12    1    1    2    0    0  0.12606371007E+02  0.13228987884E+02  0.40931591754E+01  0.18726469567E+02  0.00000000000E+00 0.  1.
         11    1    3    3    0    0 -0.12787848802E+02 -0.10060582618E+02 -0.21834193270E+02  0.27230064186E+02  0.51100000000E-03 0. -1.
        -11    1    3    3    0    0  0.56616592354E+01  0.54175568827E+01 -0.11698031867E+02  0.14080065969E+02  0.51100000000E-03 0.  1.
        -12    1    3    3    0    0 -0.54801814408E+01 -0.85859621480E+01  0.29439065961E+02  0.31151400278E+02  0.00000000000E+00 0.  1.
</event>
<event>
 7    1  0.1358622E-013  0.7246160E+02  0.7816164E-02  0.1226708E+00
        -11   -1    0    0    0    0  0.00000000000E+00  0.00000000000E+00  0.45593999997E+02  0.45594000000E+02  0.51100000000E-03 0.  1.
         11   -1    0    0    0    0 -0.00000000000E+00 -0.00000000000E+00 -0.45593999997E+02  0.45594000000E+02  0.51100000000E-03 0. -1.
    9900012    2    1    2    0    0  0.13536761003E+02  0.11817246605E+02  0.52713180731E+01  0.72461601253E+02  0.70000040330E+02 0.  0.
        -12    1    1    2    0    0 -0.13536761003E+02 -0.11817246605E+02 -0.52713180731E+01  0.18726398747E+02  0.00000000000E+00 0.  1.
         11    1    3    3    0    0  0.20123539052E+02 -0.81577066175E+01 -0.14810432222E+02  0.26284099834E+02  0.51100000000E-03 0. -1.
        -11    1    3    3    0    0  0.12007724976E+02 -0.66555231487E+00  0.12575333198E+02  0.17400213340E+02  0.51100000000E-03 0.  1.
        -12    1    3    3    0    0 -0.18594503024E+02  0.20640505538E+02  0.75064170967E+01  0.28777288079E+02  0.00000000000E+00 0.  1.
</event>
<event>
 7    1  0.1358622E-013  0.7246158E+02  0.7816164E-02  0.1226708E+00
        -11   -1    0    0    0    0  0.00000000000E+00  0.00000000000E+00  0.45593999997E+02  0.45594000000E+02  0.51100000000E-03 0.  1.
         11   -1    0    0    0    0 -0.00000000000E+00 -0.00000000000E+00 -0.45593999997E+02  0.45594000000E+02  0.51100000000E-03 0. -1.
    9900012    2    1    2    0    0  0.47605512442E+01  0.17118815207E+02 -0.59128752568E+01  0.72461580800E+02  0.70000013685E+02 0.  0.
        -12    1    1    2    0    0 -0.47605512442E+01 -0.17118815207E+02  0.59128752568E+01  0.18726419200E+02  0.00000000000E+00 0.  1.
         11    1    3    3    0    0  0.11815930432E+02  0.58524384248E+01  0.18466618025E+01  0.13314556228E+02  0.51100000000E-03 0. -1.
        -11    1    3    3    0    0  0.18710780329E+02 -0.20287342359E+01 -0.20189240386E+02  0.27600987133E+02  0.51100000000E-03 0.  1.
        -12    1    3    3    0    0 -0.25766159517E+02  0.13295111019E+02  0.12429703327E+02  0.31546037438E+02  0.00000000000E+00 0.  1.
</event>
<event>
 7    1  0.1358622E-013  0.7246155E+02  0.7816164E-02  0.1226708E+00
        -11   -1    0    0    0    0  0.00000000000E+00  0.00000000000E+00  0.45593999997E+02  0.45594000000E+02  0.51100000000E-03 0.  1.
         11   -1    0    0    0    0 -0.00000000000E+00 -0.00000000000E+00 -0.45593999997E+02  0.45594000000E+02  0.51100000000E-03 0. -1.
    9900012    2    1    2    0    0 -0.17281202886E+02  0.31726012446E+01 -0.64787745820E+01  0.72461551006E+02  0.69999974873E+02 0.  0.
        -12    1    1    2    0    0  0.17281202886E+02 -0.31726012446E+01  0.64787745820E+01  0.18726448994E+02  0.00000000000E+00 0.  1.
         11    1    3    3    0    0 -0.13168764722E+02 -0.43631892708E+01 -0.83156815908E+01  0.16174187630E+02  0.51100000000E-03 0. -1.
        -11    1    3    3    0    0 -0.24446884871E+02 -0.10597620364E+02  0.89862175570E+01  0.28119598922E+02  0.51100000000E-03 0.  1.
         12    1    3    3    0    0  0.20334446707E+02  0.18133410879E+02 -0.71493105482E+01  0.28167764453E+02  0.00000000000E+00 0. -1.
</event>
<event>
 7    1  0.1358622E-013  0.7246156E+02  0.7816164E-02  0.1226708E+00
        -11   -1    0    0    0    0  0.00000000000E+00  0.00000000000E+00  0.45593999997E+02  0.45594000000E+02  0.51100000000E-03 0. -1.
         11   -1    0    0    0    0 -0.00000000000E+00 -0.00000000000E+00 -0.45593999997E+02  0.45594000000E+02  0.51100000000E-03 0.  1.
    9900012    2    1    2    0    0 -0.19717356272E+01 -0.15830851312E+02  0.98069372602E+01  0.72461558451E+02  0.69999984572E+02 0.  0.
        -12    1    1    2    0    0  0.19717356272E+01  0.15830851312E+02 -0.98069372602E+01  0.18726441549E+02  0.00000000000E+00 0.  1.
         11    1    3    3    0    0  0.20116794111E+02 -0.97728530889E+01 -0.39905409708E+01  0.22718241136E+02  0.51100000000E-03 0. -1.
        -11    1    3    3    0    0  0.12175464184E+02  0.21302201006E+01  0.56189161540E+01  0.13577628099E+02  0.51100000000E-03 0.  1.
        -12    1    3    3    0    0 -0.34263993923E+02 -0.81882183239E+01  0.81785620770E+01  0.36165689217E+02  0.00000000000E+00 0.  1.
</event>
<event>
 7    1  0.1358622E-013  0.7246158E+02  0.7816164E-02  0.1226708E+00
        -11   -1    0    0    0    0  0.00000000000E+00  0.00000000000E+00  0.45593999997E+02  0.45594000000E+02  0.51100000000E-03 0. -1.
         11   -1    0    0    0    0 -0.00000000000E+00 -0.00000000000E+00 -0.45593999997E+02  0.45594000000E+02  0.51100000000E-03 0.  1.
    9900012    2    1    2    0    0  0.16842930198E+02 -0.24747342393E+01 -0.78019398310E+01  0.72461578229E+02  0.70000010336E+02 0.  0.
        -12    1    1    2    0    0 -0.16842930198E+02  0.24747342393E+01  0.78019398310E+01  0.18726421771E+02  0.00000000000E+00 0.  1.
         11    1    3    3    0    0 -0.62251704081E+01 -0.18806919338E+02  0.11512949452E+02  0.22912899575E+02  0.51100000000E-03 0. -1.
        -11    1    3    3    0    0  0.10725976437E+02 -0.39377752983E+01 -0.22857196612E+02  0.25553944549E+02  0.51100000000E-03 0.  1.
         12    1    3    3    0    0  0.12342124170E+02  0.20269960397E+02  0.35423073291E+01  0.23994734104E+02  0.00000000000E+00 0. -1.
</event>
<event>
 7    1  0.1358622E-013  0.7246158E+02  0.7816164E-02  0.1226708E+00
        -11   -1    0    0    0    0  0.00000000000E+00  0.00000000000E+00  0.45593999997E+02  0.45594000000E+02  0.51100000000E-03 0.  1.
         11   -1    0    0    0    0 -0.00000000000E+00 -0.00000000000E+00 -0.45593999997E+02  0.45594000000E+02  0.51100000000E-03 0. -1.
    9900012    2    1    2    0    0 -0.43339904483E+01 -0.18213100549E+02  0.42230348033E+00  0.72461578957E+02  0.70000011285E+02 0.  0.
        -12    1    1    2    0    0  0.43339904483E+01  0.18213100549E+02 -0.42230348033E+00  0.18726421043E+02  0.00000000000E+00 0.  1.
         11    1    3    3    0    0  0.24056607877E+02 -0.65277343062E+01 -0.88862280708E+01  0.26463120514E+02  0.51100000000E-03 0. -1.
        -11    1    3    3    0    0  0.26629072525E+01 -0.13621338515E+02  0.39135537854E+01  0.14420396717E+02  0.51100000000E-03 0.  1.
         12    1    3    3    0    0 -0.31053505578E+02  0.19359722721E+01  0.53949777658E+01  0.31578061727E+02  0.00000000000E+00 0. -1.
</event>
<event>
 7    1  0.1358622E-013  0.7246158E+02  0.7816164E-02  0.1226708E+00
        -11   -1    0    0    0    0  0.00000000000E+00  0.00000000000E+00  0.45593999997E+02  0.45594000000E+02  0.51100000000E-03 0.  1.
         11   -1    0    0    0    0 -0.00000000000E+00 -0.00000000000E+00 -0.45593999997E+02  0.45594000000E+02  0.51100000000E-03 0. -1.
    9900012    2    1    2    0    0 -0.54551848097E+01  0.60868795356E+01 -0.16848431189E+02  0.72461580767E+02  0.70000013642E+02 0.  0.
        -12    1    1    2    0    0  0.54551848097E+01 -0.60868795356E+01  0.16848431189E+02  0.18726419233E+02  0.00000000000E+00 0.  1.
         11    1    3    3    0    0 -0.13729881427E+02  0.90971424936E+01  0.38977822196E+01  0.16925139646E+02  0.51100000000E-03 0. -1.
        -11    1    3    3    0    0 -0.17778928559E+02  0.14036905463E+01  0.51244000919E+01  0.18555864960E+02  0.51100000000E-03 0.  1.
        -12    1    3    3    0    0  0.26053625176E+02 -0.44139535043E+01 -0.25870613500E+02  0.36980576161E+02  0.00000000000E+00 0.  1.
</event>
<event>
 7    1  0.1358622E-013  0.7246161E+02  0.7816164E-02  0.1226708E+00
        -11   -1    0    0    0    0  0.00000000000E+00  0.00000000000E+00  0.45593999997E+02  0.45594000000E+02  0.51100000000E-03 0.  1.
         11   -1    0    0    0    0 -0.00000000000E+00 -0.00000000000E+00 -0.45593999997E+02  0.45594000000E+02  0.51100000000E-03 0. -1.
    9900012    2    1    2    0    0 -0.17885143531E+02 -0.26526376529E+01 -0.48747230136E+01  0.72461607659E+02  0.70000048675E+02 0.  0.
        -12    1    1    2    0    0  0.17885143531E+02  0.26526376529E+01  0.48747230136E+01  0.18726392341E+02  0.00000000000E+00 0.  1.
         11    1    3    3    0    0 -0.29863782966E+02  0.22418364549E+00 -0.16331571411E+02  0.34038449089E+02  0.51100000000E-03 0. -1.
        -11    1    3    3    0    0 -0.10124354065E+02  0.71207463334E+01  0.47097588979E+01  0.13243466416E+02  0.51100000000E-03 0.  1.
        -12    1    3    3    0    0  0.22102993501E+02 -0.99975676317E+01  0.67470894999E+01  0.25179692154E+02  0.00000000000E+00 0.  1.
</event>
<event>
 7    1  0.1358622E-013  0.7246150E+02  0.7816164E-02  0.1226708E+00
        -11   -1    0    0    0    0  0.00000000000E+00  0.00000000000E+00  0.45593999997E+02  0.45594000000E+02  0.51100000000E-03 0. -1.
         11   -1    0    0    0    0 -0.00000000000E+00 -0.00000000000E+00 -0.45593999997E+02  0.45594000000E+02  0.51100000000E-03 0.  1.
    9900012    2    1    2    0    0  0.10215891428E+02 -0.19107777482E+01  0.15577743966E+02  0.72461504964E+02  0.69999914895E+02 0.  0.
        -12    1    1    2    0    0 -0.10215891428E+02  0.19107777482E+01 -0.15577743966E+02  0.18726495036E+02  0.00000000000E+00 0.  1.
         11    1    3    3    0    0  0.54149914305E+00 -0.88019025209E+01 -0.78495027471E+01  0.11805990130E+02  0.51100000000E-03 0.  1.
        -11    1    3    3    0    0 -0.11458707750E+02  0.16722546500E+02 -0.77725509781E+01  0.21710782890E+02  0.51100000000E-03 0. -1.
         12    1    3    3    0    0  0.21133100035E+02 -0.98314217271E+01  0.31199797691E+02  0.38944731944E+02  0.00000000000E+00 0. -1.
</event>
<event>
 7    1  0.1358622E-013  0.7246159E+02  0.7816164E-02  0.1226708E+00
        -11   -1    0    0    0    0  0.00000000000E+00  0.00000000000E+00  0.45593999997E+02  0.45594000000E+02  0.51100000000E-03 0.  1.
         11   -1    0    0    0    0 -0.00000000000E+00 -0.00000000000E+00 -0.45593999997E+02  0.45594000000E+02  0.51100000000E-03 0. -1.
    9900012    2    1    2    0    0 -0.90731077395E+01  0.71384191119E+01 -0.14744499730E+02  0.72461585935E+02  0.70000020374E+02 0.  0.
        -12    1    1    2    0    0  0.90731077395E+01 -0.71384191119E+01  0.14744499730E+02  0.18726414065E+02  0.00000000000E+00 0.  1.
         11    1    3    3    0    0 -0.16471234833E+01 -0.48059106347E+00  0.35633795152E+01  0.39549535231E+01  0.51100000000E-03 0. -1.
        -11    1    3    3    0    0 -0.30064938156E+02 -0.14164734706E+00  0.97704110321E+01  0.31612995782E+02  0.51100000000E-03 0.  1.
         12    1    3    3    0    0  0.22638953900E+02  0.77606575224E+01 -0.28078290277E+02  0.36893636630E+02  0.00000000000E+00 0. -1.
</event>
<event>
 7    1  0.1358622E-013  0.7246156E+02  0.7816164E-02  0.1226708E+00
        -11   -1    0    0    0    0  0.00000000000E+00  0.00000000000E+00  0.45593999997E+02  0.45594000000E+02  0.51100000000E-03 0.  1.
         11   -1    0    0    0    0 -0.00000000000E+00 -0.00000000000E+00 -0.45593999997E+02  0.45594000000E+02  0.51100000000E-03 0. -1.
    9900012    2    1    2    0    0  0.77079208418E+01  0.16551271406E+02 -0.41620960179E+01  0.72461556875E+02  0.69999982519E+02 0.  0.
        -12    1    1    2    0    0 -0.77079208418E+01 -0.16551271406E+02  0.41620960179E+01  0.18726443125E+02  0.00000000000E+00 0.  1.
         11    1    3    3    0    0 -0.60483280135E+01  0.99391239137E+01 -0.16114949649E+02  0.19876117790E+02  0.51100000000E-03 0. -1.
        -11    1    3    3    0    0  0.56464591109E+01  0.77212488169E+00  0.30762390351E+02  0.31285832859E+02  0.51100000000E-03 0.  1.
         12    1    3    3    0    0  0.81097897443E+01  0.58400226105E+01 -0.18809536719E+02  0.21299606226E+02  0.00000000000E+00 0. -1.
</event>
<event>
 7    1  0.1358622E-013  0.7246154E+02  0.7816164E-02  0.1226708E+00
        -11   -1    0    0    0    0  0.00000000000E+00  0.00000000000E+00  0.45593999997E+02  0.45594000000E+02  0.51100000000E-03 0.  1.
         11   -1    0    0    0    0 -0.00000000000E+00 -0.00000000000E+00 -0.45593999997E+02  0.45594000000E+02  0.51100000000E-03 0. -1.
    9900012    2    1    2    0    0  0.31076753399E+01  0.89153700101E+00 -0.18445262141E+02  0.72461543323E+02  0.69999964864E+02 0.  0.
        -12    1    1    2    0    0 -0.31076753399E+01 -0.89153700101E+00  0.18445262141E+02  0.18726456677E+02  0.00000000000E+00 0.  1.
         11    1    3    3    0    0 -0.13414361586E+02 -0.99719327174E+01  0.13508700138E+02  0.21491149773E+02  0.51100000000E-03 0. -1.
        -11    1    3    3    0    0 -0.56117426980E+01 -0.34254918338E+01  0.29778489989E+01  0.72175643630E+01  0.51100000000E-03 0.  1.
         12    1    3    3    0    0  0.22133779624E+02  0.14288961552E+02 -0.34931811278E+02  0.43752829187E+02  0.00000000000E+00 0. -1.
</event>
<event>
 7    1  0.1358622E-013  0.7246156E+02  0.7816164E-02  0.1226708E+00
        -11   -1    0    0    0    0  0.00000000000E+00  0.00000000000E+00  0.45593999997E+02  0.45594000000E+02  0.51100000000E-03 0.  1.
         11   -1    0    0    0    0 -0.00000000000E+00 -0.00000000000E+00 -0.45593999997E+02  0.45594000000E+02  0.51100000000E-03 0. -1.
    9900012    2    1    2    0    0  0.83046351760E+01  0.15378160589E+02 -0.67249472302E+01  0.72461556030E+02  0.69999981418E+02 0.  0.
        -12    1    1    2    0    0 -0.83046351760E+01 -0.15378160589E+02  0.67249472302E+01  0.18726443970E+02  0.00000000000E+00 0.  1.
         11    1    3    3    0    0  0.12102745261E+02 -0.70246517928E+01  0.14501377911E+02  0.20152224126E+02  0.51100000000E-03 0. -1.
        -11    1    3    3    0    0 -0.73590706571E+01 -0.99731278080E+01  0.16550236925E+01  0.12504331365E+02  0.51100000000E-03 0.  1.
        -12    1    3    3    0    0  0.35609605719E+01  0.32375940190E+02 -0.22881348834E+02  0.39805000538E+02  0.00000000000E+00 0.  1.
</event>
<event>
 7    1  0.1358622E-013  0.7246163E+02  0.7816164E-02  0.1226708E+00
        -11   -1    0    0    0    0  0.00000000000E+00  0.00000000000E+00  0.45593999997E+02  0.45594000000E+02  0.51100000000E-03 0.  1.
         11   -1    0    0    0    0 -0.00000000000E+00 -0.00000000000E+00 -0.45593999997E+02  0.45594000000E+02  0.51100000000E-03 0. -1.
    9900012    2    1    2    0    0  0.32945044815E+01  0.16589589495E+02 -0.80379453818E+01  0.72461633418E+02  0.70000082230E+02 0.  0.
        -12    1    1    2    0    0 -0.32945044815E+01 -0.16589589495E+02  0.80379453818E+01  0.18726366582E+02  0.00000000000E+00 0.  1.
         11    1    3    3    0    0  0.12993957291E+02  0.22141574205E+02 -0.10531781698E+02  0.27749065937E+02  0.51100000000E-03 0. -1.
        -11    1    3    3    0    0 -0.67177668568E+01  0.17103630385E+02 -0.74025923128E+01  0.19810626873E+02  0.51100000000E-03 0.  1.
        -12    1    3    3    0    0 -0.29816859525E+01 -0.22655615095E+02  0.98964286295E+01  0.24901940608E+02  0.00000000000E+00 0.  1.
</event>
<event>
 7    1  0.1358622E-013  0.7246154E+02  0.7816164E-02  0.1226708E+00
        -11   -1    0    0    0    0  0.00000000000E+00  0.00000000000E+00  0.45593999997E+02  0.45594000000E+02  0.51100000000E-03 0.  1.
         11   -1    0    0    0    0 -0.00000000000E+00 -0.00000000000E+00 -0.45593999997E+02  0.45594000000E+02  0.51100000000E-03 0. -1.
    9900012    2    1    2    0    0  0.50491074890E+01 -0.13024317519E+02 -0.12472122538E+02  0.72461543478E+02  0.69999965067E+02 0.  0.
        -12    1    1    2    0    0 -0.50491074890E+01  0.13024317519E+02  0.12472122538E+02  0.18726456522E+02  0.00000000000E+00 0.  1.
         11    1    3    3    0    0  0.19350437472E+02  0.82017609345E+01 -0.13834651544E+02  0.25161595665E+02  0.51100000000E-03 0. -1.
        -11    1    3    3    0    0  0.12477049220E+01  0.87649481280E+01  0.90434156544E+01  0.12655609437E+02  0.51100000000E-03 0.  1.
         12    1    3    3    0    0 -0.15549034905E+02 -0.29991026581E+02 -0.76808866478E+01  0.34644338377E+02  0.00000000000E+00 0. -1.
</event>
<event>
 7    1  0.1358622E-013  0.7246175E+02  0.7816164E-02  0.1226708E+00
        -11   -1    0    0    0    0  0.00000000000E+00  0.00000000000E+00  0.45593999997E+02  0.45594000000E+02  0.51100000000E-03 0.  1.
         11   -1    0    0    0    0 -0.00000000000E+00 -0.00000000000E+00 -0.45593999997E+02  0.45594000000E+02  0.51100000000E-03 0. -1.
    9900012    2    1    2    0    0  0.15585384306E+02  0.61827306831E+01 -0.83391976945E+01  0.72461746214E+02  0.70000229167E+02 0.  0.
        -12    1    1    2    0    0 -0.15585384306E+02 -0.61827306831E+01  0.83391976945E+01  0.18726253786E+02  0.00000000000E+00 0.  1.
         11    1    3    3    0    0 -0.10834072678E+00  0.26727610503E+01  0.30753980113E+01  0.40759615472E+01  0.51100000000E-03 0. -1.
        -11    1    3    3    0    0 -0.87325830134E+01 -0.14349222363E+01  0.23715863774E+02  0.25313221895E+02  0.51100000000E-03 0.  1.
         12    1    3    3    0    0  0.24426308047E+02  0.49448918691E+01 -0.35130459480E+02  0.43072562771E+02  0.00000000000E+00 0. -1.
</event>
<event>
 7    1  0.1358622E-013  0.7246156E+02  0.7816164E-02  0.1226708E+00
        -11   -1    0    0    0    0  0.00000000000E+00  0.00000000000E+00  0.45593999997E+02  0.45594000000E+02  0.51100000000E-03 0.  1.
         11   -1    0    0    0    0 -0.00000000000E+00 -0.00000000000E+00 -0.45593999997E+02  0.45594000000E+02  0.51100000000E-03 0. -1.
    9900012    2    1    2    0    0  0.83514368474E+01  0.14361109561E+02 -0.86424230350E+01  0.72461563041E+02  0.69999990552E+02 0.  0.
        -12    1    1    2    0    0 -0.83514368474E+01 -0.14361109561E+02  0.86424230350E+01  0.18726436959E+02  0.00000000000E+00 0.  1.
         11    1    3    3    0    0 -0.19962282023E+02 -0.25489041793E+01  0.13243080389E+02  0.24090844620E+02  0.51100000000E-03 0. -1.
        -11    1    3    3    0    0 -0.41114654535E+01 -0.24973773586E+01 -0.51318995212E+01  0.70340198182E+01  0.51100000000E-03 0.  1.
        -12    1    3    3    0    0  0.32425184323E+02  0.19407391099E+02 -0.16753603903E+02  0.41336698603E+02  0.00000000000E+00 0.  1.
</event>
<event>
 7    1  0.1358622E-013  0.7246153E+02  0.7816164E-02  0.1226708E+00
        -11   -1    0    0    0    0  0.00000000000E+00  0.00000000000E+00  0.45593999997E+02  0.45594000000E+02  0.51100000000E-03 0. -1.
         11   -1    0    0    0    0 -0.00000000000E+00 -0.00000000000E+00 -0.45593999997E+02  0.45594000000E+02  0.51100000000E-03 0.  1.
    9900012    2    1    2    0    0  0.12522249568E+02  0.12416749961E+02 -0.63006425072E+01  0.72461534508E+02  0.69999953381E+02 0.  0.
        -12    1    1    2    0    0 -0.12522249568E+02 -0.12416749961E+02  0.63006425072E+01  0.18726465492E+02  0.00000000000E+00 0.  1.
         11    1    3    3    0    0 -0.28389694076E+01  0.45861294511E+01  0.14770471071E+01  0.55923160728E+01  0.51100000000E-03 0. -1.
        -11    1    3    3    0    0 -0.17048965916E+02  0.14741761597E+02 -0.21362601566E+02  0.31053945317E+02  0.51100000000E-03 0.  1.
         12    1    3    3    0    0  0.32410184891E+02 -0.69111410863E+01  0.13584911952E+02  0.35815273118E+02  0.00000000000E+00 0. -1.
</event>
<event>
 7    1  0.1358622E-013  0.7246156E+02  0.7816164E-02  0.1226708E+00
        -11   -1    0    0    0    0  0.00000000000E+00  0.00000000000E+00  0.45593999997E+02  0.45594000000E+02  0.51100000000E-03 0. -1.
         11   -1    0    0    0    0 -0.00000000000E+00 -0.00000000000E+00 -0.45593999997E+02  0.45594000000E+02  0.51100000000E-03 0.  1.
    9900012    2    1    2    0    0 -0.12888479787E+02  0.61050372209E+01  0.12136527650E+02  0.72461556289E+02  0.69999981755E+02 0.  0.
        -12    1    1    2    0    0  0.12888479787E+02 -0.61050372209E+01 -0.12136527650E+02  0.18726443711E+02  0.00000000000E+00 0.  1.
         11    1    3    3    0    0  0.17001343547E+00 -0.28842879201E+01  0.19208783037E+01  0.34695525782E+01  0.51100000000E-03 0. -1.
        -11    1    3    3    0    0  0.24843704247E+02 -0.84440684344E+01  0.69542850185E+01  0.27145423423E+02  0.51100000000E-03 0.  1.
         12    1    3    3    0    0 -0.37902197469E+02  0.17433393575E+02  0.32613643273E+01  0.41846580288E+02  0.00000000000E+00 0. -1.
</event>
<event>
 7    1  0.1358622E-013  0.7246150E+02  0.7816164E-02  0.1226708E+00
        -11   -1    0    0    0    0  0.00000000000E+00  0.00000000000E+00  0.45593999997E+02  0.45594000000E+02  0.51100000000E-03 0.  1.
         11   -1    0    0    0    0 -0.00000000000E+00 -0.00000000000E+00 -0.45593999997E+02  0.45594000000E+02  0.51100000000E-03 0. -1.
    9900012    2    1    2    0    0  0.15152193229E+01  0.18780629438E+00 -0.18664158904E+02  0.72461495030E+02  0.69999901954E+02 0.  0.
        -12    1    1    2    0    0 -0.15152193229E+01 -0.18780629438E+00  0.18664158904E+02  0.18726504970E+02  0.00000000000E+00 0.  1.
         11    1    3    3    0    0 -0.23001082534E+01 -0.16941708411E+02 -0.26294607023E+02  0.31364284475E+02  0.51100000000E-03 0. -1.
        -11    1    3    3    0    0 -0.99082887510E+01 -0.56383539822E+01  0.89300158468E+01  0.14481381318E+02  0.51100000000E-03 0.  1.
         12    1    3    3    0    0  0.13723616327E+02  0.22767868687E+02 -0.12995677278E+01  0.26615829236E+02  0.00000000000E+00 0. -1.
</event>
<event>
 7    1  0.1358622E-013  0.7246150E+02  0.7816164E-02  0.1226708E+00
        -11   -1    0    0    0    0  0.00000000000E+00  0.00000000000E+00  0.45593999997E+02  0.45594000000E+02  0.51100000000E-03 0.  1.
         11   -1    0    0    0    0 -0.00000000000E+00 -0.00000000000E+00 -0.45593999997E+02  0.45594000000E+02  0.51100000000E-03 0. -1.
    9900012    2    1    2    0    0 -0.11031180798E+02 -0.14574603564E+02 -0.40713214979E+01  0.72461503329E+02  0.69999912765E+02 0.  0.
        -12    1    1    2    0    0  0.11031180798E+02  0.14574603564E+02  0.40713214979E+01  0.18726496671E+02  0.00000000000E+00 0.  1.
         11    1    3    3    0    0  0.15846655028E+02 -0.15227064267E+02  0.10537677385E+02  0.24372578991E+02  0.51100000000E-03 0. -1.
        -11    1    3    3    0    0  0.11693030840E+01 -0.70312080085E+01  0.83928174941E+01  0.11011109913E+02  0.51100000000E-03 0.  1.
        -12    1    3    3    0    0 -0.28047138910E+02  0.76836687114E+01 -0.23001816377E+02  0.37077814425E+02  0.00000000000E+00 0.  1.
</event>
<event>
 7    1  0.1358622E-013  0.7246153E+02  0.7816164E-02  0.1226708E+00
        -11   -1    0    0    0    0  0.00000000000E+00  0.00000000000E+00  0.45593999997E+02  0.45594000000E+02  0.51100000000E-03 0.  1.
         11   -1    0    0    0    0 -0.00000000000E+00 -0.00000000000E+00 -0.45593999997E+02  0.45594000000E+02  0.51100000000E-03 0. -1.
    9900012    2    1    2    0    0  0.13373483270E+02 -0.52945170744E+01 -0.11991617012E+02  0.72461525575E+02  0.69999941745E+02 0.  0.
        -12    1    1    2    0    0 -0.13373483270E+02  0.52945170744E+01  0.11991617012E+02  0.18726474425E+02  0.00000000000E+00 0.  1.
         11    1    3    3    0    0  0.29053538622E+02 -0.57164403128E-01 -0.73019444299E+01  0.29957132155E+02  0.51100000000E-03 0. -1.
        -11    1    3    3    0    0 -0.38236060119E+01  0.24117746042E+01  0.16465911455E+02  0.17075211857E+02  0.51100000000E-03 0.  1.
        -12    1    3    3    0    0 -0.11856449340E+02 -0.76491272755E+01 -0.21155584037E+02  0.25429181563E+02  0.00000000000E+00 0.  1.
</event>
<event>
 7    1  0.1358622E-013  0.7246156E+02  0.7816164E-02  0.1226708E+00
        -11   -1    0    0    0    0  0.00000000000E+00  0.00000000000E+00  0.45593999997E+02  0.45594000000E+02  0.51100000000E-03 0.  1.
         11   -1    0    0    0    0 -0.00000000000E+00 -0.00000000000E+00 -0.45593999997E+02  0.45594000000E+02  0.51100000000E-03 0. -1.
    9900012    2    1    2    0    0  0.47005435437E+01 -0.11293715171E+02 -0.14178727045E+02  0.72461563805E+02  0.69999991546E+02 0.  0.
        -12    1    1    2    0    0 -0.47005435437E+01  0.11293715171E+02  0.14178727045E+02  0.18726436195E+02  0.00000000000E+00 0.  1.
         11    1    3    3    0    0 -0.59488312374E+01  0.18049507206E+02 -0.19583255459E+02  0.27288774215E+02  0.51100000000E-03 0. -1.
        -11    1    3    3    0    0 -0.52174177413E+01  0.12579342334E+01  0.90383695163E+01  0.10511706341E+02  0.51100000000E-03 0.  1.
        -12    1    3    3    0    0  0.15866792522E+02 -0.30601156611E+02 -0.36338411018E+01  0.34661083249E+02  0.00000000000E+00 0.  1.
</event>
<event>
 7    1  0.1358622E-013  0.7246148E+02  0.7816164E-02  0.1226708E+00
        -11   -1    0    0    0    0  0.00000000000E+00  0.00000000000E+00  0.45593999997E+02  0.45594000000E+02  0.51100000000E-03 0.  1.
         11   -1    0    0    0    0 -0.00000000000E+00 -0.00000000000E+00 -0.45593999997E+02  0.45594000000E+02  0.51100000000E-03 0. -1.
    9900012    2    1    2    0    0  0.63460418192E+00 -0.59437667804E+01 -0.17746867391E+02  0.72461484355E+02  0.69999888048E+02 0.  0.
        -12    1    1    2    0    0 -0.63460418192E+00  0.59437667804E+01  0.17746867391E+02  0.18726515645E+02  0.00000000000E+00 0.  1.
         11    1    3    3    0    0 -0.22738864931E+02 -0.21228893549E+01 -0.28469919298E+02  0.36497930662E+02  0.51100000000E-03 0. -1.
        -11    1    3    3    0    0  0.19046925173E+01  0.53588794172E+01 -0.51965476419E+01  0.77038659028E+01  0.51100000000E-03 0.  1.
        -12    1    3    3    0    0  0.21468776595E+02 -0.91797568426E+01  0.15919599548E+02  0.28259687790E+02  0.00000000000E+00 0.  1.
</event>
<event>
 7    1  0.1358622E-013  0.7246155E+02  0.7816164E-02  0.1226708E+00
        -11   -1    0    0    0    0  0.00000000000E+00  0.00000000000E+00  0.45593999997E+02  0.45594000000E+02  0.51100000000E-03 0. -1.
         11   -1    0    0    0    0 -0.00000000000E+00 -0.00000000000E+00 -0.45593999997E+02  0.45594000000E+02  0.51100000000E-03 0.  1.
    9900012    2    1    2    0    0 -0.14161667751E+02  0.22672926715E+01  0.12041027564E+02  0.72461553611E+02  0.69999978267E+02 0.  0.
        -12    1    1    2    0    0  0.14161667751E+02 -0.22672926715E+01 -0.12041027564E+02  0.18726446389E+02  0.00000000000E+00 0.  1.
         11    1    3    3    0    0  0.59098296140E+01  0.28468024467E+01  0.13977069383E+01  0.67070079159E+01  0.51100000000E-03 0. -1.
        -11    1    3    3    0    0 -0.36116938455E+01 -0.29691624725E+02 -0.20569588406E+01  0.29981127250E+02  0.51100000000E-03 0.  1.
         12    1    3    3    0    0 -0.16459803519E+02  0.29112114950E+02  0.12700279467E+02  0.35773418445E+02  0.00000000000E+00 0. -1.
</event>
<event>
 7    1  0.1358622E-013  0.7246155E+02  0.7816164E-02  0.1226708E+00
        -11   -1    0    0    0    0  0.00000000000E+00  0.00000000000E+00  0.45593999997E+02  0.45594000000E+02  0.51100000000E-03 0. -1.
         11   -1    0    0    0    0 -0.00000000000E+00 -0.00000000000E+00 -0.45593999997E+02  0.45594000000E+02  0.51100000000E-03 0.  1.
    9900012    2    1    2    0    0  0.16781528624E+01 -0.18415747523E+02  0.29536321721E+01  0.72461550874E+02  0.69999974701E+02 0.  0.
        -12    1    1    2    0    0 -0.16781528624E+01  0.18415747523E+02 -0.29536321721E+01  0.18726449126E+02  0.00000000000E+00 0.  1.
         11    1    3    3    0    0 -0.69051084792E+01 -0.72927176321E+01  0.55835174370E+01  0.11490862492E+02  0.51100000000E-03 0. -1.
        -11    1    3    3    0    0 -0.89128260891E+01 -0.21039406990E+02  0.20234002117E+02  0.30520648048E+02  0.51100000000E-03 0.  1.
        -12    1    3    3    0    0  0.17496087431E+02  0.99163770987E+01 -0.22863887381E+02  0.30450040334E+02  0.00000000000E+00 0.  1.
</event>
<event>
 7    1  0.1358622E-013  0.7246163E+02  0.7816164E-02  0.1226708E+00
        -11   -1    0    0    0    0  0.00000000000E+00  0.00000000000E+00  0.45593999997E+02  0.45594000000E+02  0.51100000000E-03 0. -1.
         11   -1    0    0    0    0 -0.00000000000E+00 -0.00000000000E+00 -0.45593999997E+02  0.45594000000E+02  0.51100000000E-03 0.  1.
    9900012    2    1    2    0    0 -0.15137327249E+02 -0.10832770676E+02  0.20467444457E+01  0.72461634640E+02  0.70000083822E+02 0.  0.
        -12    1    1    2    0    0  0.15137327249E+02  0.10832770676E+02 -0.20467444457E+01  0.18726365360E+02  0.00000000000E+00 0.  1.
         11    1    3    3    0    0  0.28376325732E-01  0.47278630587E+01  0.49151028560E+00  0.47534279146E+01  0.51100000000E-03 0. -1.
        -11    1    3    3    0    0  0.16192654636E+02  0.15708116060E+02  0.55857290220E+01  0.23241070183E+02  0.51100000000E-03 0.  1.
         12    1    3    3    0    0 -0.31358358211E+02 -0.31268749795E+02 -0.40304948619E+01  0.44467136542E+02  0.00000000000E+00 0. -1.
</event>
<event>
 7    1  0.1358622E-013  0.7246154E+02  0.7816164E-02  0.1226708E+00
        -11   -1    0    0    0    0  0.00000000000E+00  0.00000000000E+00  0.45593999997E+02  0.45594000000E+02  0.51100000000E-03 0.  1.
         11   -1    0    0    0    0 -0.00000000000E+00 -0.00000000000E+00 -0.45593999997E+02  0.45594000000E+02  0.51100000000E-03 0. -1.
    9900012    2    1    2    0    0 -0.10322462900E+02 -0.13753202229E+02 -0.74146118515E+01  0.72461540623E+02  0.69999961348E+02 0.  0.
        -12    1    1    2    0    0  0.10322462900E+02  0.13753202229E+02  0.74146118515E+01  0.18726459377E+02  0.00000000000E+00 0.  1.
         11    1    3    3    0    0 -0.45455489728E+01  0.20154337994E+01  0.18476126830E+02  0.19133511224E+02  0.51100000000E-03 0.  1.
        -11    1    3    3    0    0 -0.58669674619E+01  0.10157953816E+02  0.52120487613E+01  0.12836307315E+02  0.51100000000E-03 0. -1.
         12    1    3    3    0    0  0.90053534662E-01 -0.25926589845E+02 -0.31102787443E+02  0.40491722084E+02  0.00000000000E+00 0. -1.
</event>
<event>
 7    1  0.1358622E-013  0.7246159E+02  0.7816164E-02  0.1226708E+00
        -11   -1    0    0    0    0  0.00000000000E+00  0.00000000000E+00  0.45593999997E+02  0.45594000000E+02  0.51100000000E-03 0. -1.
         11   -1    0    0    0    0 -0.00000000000E+00 -0.00000000000E+00 -0.45593999997E+02  0.45594000000E+02  0.51100000000E-03 0.  1.
    9900012    2    1    2    0    0  0.56827638649E+01 -0.17515305209E+02  0.34057016887E+01  0.72461587485E+02  0.70000022393E+02 0.  0.
        -12    1    1    2    0    0 -0.56827638649E+01  0.17515305209E+02 -0.34057016887E+01  0.18726412515E+02  0.00000000000E+00 0.  1.
         11    1    3    3    0    0  0.20943217522E+02  0.30725423384E+01  0.21530510068E+01  0.21276618752E+02  0.51100000000E-03 0. -1.
        -11    1    3    3    0    0 -0.81431288909E+01  0.78591351587E+01  0.15006763037E+02  0.18795730650E+02  0.51100000000E-03 0.  1.
        -12    1    3    3    0    0 -0.71173247664E+01 -0.28446982706E+02 -0.13754112355E+02  0.32389238083E+02  0.00000000000E+00 0.  1.
</event>
<event>
 7    1  0.1358622E-013  0.7246157E+02  0.7816164E-02  0.1226708E+00
        -11   -1    0    0    0    0  0.00000000000E+00  0.00000000000E+00  0.45593999997E+02  0.45594000000E+02  0.51100000000E-03 0.  1.
         11   -1    0    0    0    0 -0.00000000000E+00 -0.00000000000E+00 -0.45593999997E+02  0.45594000000E+02  0.51100000000E-03 0. -1.
    9900012    2    1    2    0    0 -0.11331590953E+02  0.14839135255E+02  0.14401913273E+01  0.72461573760E+02  0.70000004515E+02 0.  0.
        -12    1    1    2    0    0  0.11331590953E+02 -0.14839135255E+02 -0.14401913273E+01  0.18726426240E+02  0.00000000000E+00 0.  1.
         11    1    3    3    0    0 -0.10745563077E+02 -0.11343334205E+02 -0.12429328991E+02  0.19965634880E+02  0.51100000000E-03 0. -1.
        -11    1    3    3    0    0  0.16328649952E+02 -0.30999303516E+01  0.67457538394E+01  0.17937100450E+02  0.51100000000E-03 0.  1.
         12    1    3    3    0    0 -0.16914677827E+02  0.29282399812E+02  0.71237664790E+01  0.34558838430E+02  0.00000000000E+00 0. -1.
</event>
<event>
 7    1  0.1358622E-013  0.7246150E+02  0.7816164E-02  0.1226708E+00
        -11   -1    0    0    0    0  0.00000000000E+00  0.00000000000E+00  0.45593999997E+02  0.45594000000E+02  0.51100000000E-03 0. -1.
         11   -1    0    0    0    0 -0.00000000000E+00 -0.00000000000E+00 -0.45593999997E+02  0.45594000000E+02  0.51100000000E-03 0.  1.
    9900012    2    1    2    0    0 -0.64568248421E+01  0.16556224500E+02 -0.59061684078E+01  0.72461495201E+02  0.69999902177E+02 0.  0.
        -12    1    1    2    0    0  0.64568248421E+01 -0.16556224500E+02  0.59061684078E+01  0.18726504799E+02  0.00000000000E+00 0.  1.
         11    1    3    3    0    0  0.11861505550E+02 -0.82601289485E+01  0.33984599527E+01  0.14848386258E+02  0.51100000000E-03 0. -1.
        -11    1    3    3    0    0 -0.59940871882E+01  0.11865088248E+02  0.19566423744E+02  0.23654900945E+02  0.51100000000E-03 0.  1.
        -12    1    3    3    0    0 -0.12324243204E+02  0.12951265200E+02 -0.28871052104E+02  0.33958207998E+02  0.00000000000E+00 0.  1.
</event>
<event>
 7    1  0.1358622E-013  0.7246155E+02  0.7816164E-02  0.1226708E+00
        -11   -1    0    0    0    0  0.00000000000E+00  0.00000000000E+00  0.45593999997E+02  0.45594000000E+02  0.51100000000E-03 0. -1.
         11   -1    0    0    0    0 -0.00000000000E+00 -0.00000000000E+00 -0.45593999997E+02  0.45594000000E+02  0.51100000000E-03 0.  1.
    9900012    2    1    2    0    0 -0.23119013526E+01 -0.15180924684E+02  0.10717948309E+02  0.72461554046E+02  0.69999978834E+02 0.  0.
        -12    1    1    2    0    0  0.23119013526E+01  0.15180924684E+02 -0.10717948309E+02  0.18726445954E+02  0.00000000000E+00 0.  1.
         11    1    3    3    0    0  0.63063394683E+01 -0.37497997040E+02  0.19044707940E+02  0.42527292416E+02  0.51100000000E-03 0. -1.
        -11    1    3    3    0    0  0.96801172099E+00 -0.86387440635E+00 -0.43459149421E+01  0.45354495507E+01  0.51100000000E-03 0.  1.
        -12    1    3    3    0    0 -0.95862525418E+01  0.23180946762E+02 -0.39808446891E+01  0.25398812079E+02  0.00000000000E+00 0.  1.
</event>
<event>
 7    1  0.1358622E-013  0.7246190E+02  0.7816164E-02  0.1226707E+00
        -11   -1    0    0    0    0  0.00000000000E+00  0.00000000000E+00  0.45593999997E+02  0.45594000000E+02  0.51100000000E-03 0.  1.
         11   -1    0    0    0    0 -0.00000000000E+00 -0.00000000000E+00 -0.45593999997E+02  0.45594000000E+02  0.51100000000E-03 0. -1.
    9900012    2    1    2    0    0 -0.16499122367E+02  0.31947681168E+01 -0.82607017320E+01  0.72461901226E+02  0.70000431098E+02 0.  0.
        -12    1    1    2    0    0  0.16499122367E+02 -0.31947681168E+01  0.82607017320E+01  0.18726098774E+02  0.00000000000E+00 0.  1.
         11    1    3    3    0    0 -0.35232724960E+01  0.16110130597E+01 -0.13996962222E+02  0.14523214653E+02  0.51100000000E-03 0. -1.
        -11    1    3    3    0    0 -0.16973132334E+01 -0.23105499093E+02  0.16809489124E+02  0.28623484858E+02  0.51100000000E-03 0.  1.
         12    1    3    3    0    0 -0.11278536637E+02  0.24689254150E+02 -0.11073228634E+02  0.29315201714E+02  0.00000000000E+00 0. -1.
</event>
<event>
 7    1  0.1358622E-013  0.7246156E+02  0.7816164E-02  0.1226708E+00
        -11   -1    0    0    0    0  0.00000000000E+00  0.00000000000E+00  0.45593999997E+02  0.45594000000E+02  0.51100000000E-03 0. -1.
         11   -1    0    0    0    0 -0.00000000000E+00 -0.00000000000E+00 -0.45593999997E+02  0.45594000000E+02  0.51100000000E-03 0.  1.
    9900012    2    1    2    0    0 -0.21473036547E+00  0.29762399000E+01  0.18487167902E+02  0.72461561734E+02  0.69999988849E+02 0.  0.
        -12    1    1    2    0    0  0.21473036547E+00 -0.29762399000E+01 -0.18487167902E+02  0.18726438266E+02  0.00000000000E+00 0.  1.
         11    1    3    3    0    0 -0.45802743644E+01  0.10538126337E+02  0.10128777493E+02  0.15317413415E+02  0.51100000000E-03 0. -1.
        -11    1    3    3    0    0 -0.30235281582E+01  0.22489054393E+02  0.12525402147E+02  0.25918815352E+02  0.51100000000E-03 0.  1.
        -12    1    3    3    0    0  0.73890721571E+01 -0.30050940831E+02 -0.41670117371E+01  0.31225332968E+02  0.00000000000E+00 0.  1.
</event>
<event>
 7    1  0.1358622E-013  0.7246158E+02  0.7816164E-02  0.1226708E+00
        -11   -1    0    0    0    0  0.00000000000E+00  0.00000000000E+00  0.45593999997E+02  0.45594000000E+02  0.51100000000E-03 0.  1.
         11   -1    0    0    0    0 -0.00000000000E+00 -0.00000000000E+00 -0.45593999997E+02  0.45594000000E+02  0.51100000000E-03 0. -1.
    9900012    2    1    2    0    0 -0.45588776054E+01  0.17816966949E+02  0.35286318099E+01  0.72461576990E+02  0.70000008722E+02 0.  0.
        -12    1    1    2    0    0  0.45588776054E+01 -0.17816966949E+02 -0.35286318099E+01  0.18726423010E+02  0.00000000000E+00 0.  1.
         11    1    3    3    0    0  0.18699261912E+02  0.21665791463E+02 -0.86030895452E+01  0.29884478677E+02  0.51100000000E-03 0. -1.
        -11    1    3    3    0    0  0.45151331496E+01 -0.10850494883E+02  0.81638723753E+00  0.11780753582E+02  0.51100000000E-03 0.  1.
        -12    1    3    3    0    0 -0.27773272667E+02  0.70016703695E+01  0.11315334118E+02  0.30796344731E+02  0.00000000000E+00 0.  1.
</event>
<event>
 7    1  0.1358622E-013  0.7246156E+02  0.7816164E-02  0.1226708E+00
        -11   -1    0    0    0    0  0.00000000000E+00  0.00000000000E+00  0.45593999997E+02  0.45594000000E+02  0.51100000000E-03 0.  1.
         11   -1    0    0    0    0 -0.00000000000E+00 -0.00000000000E+00 -0.45593999997E+02  0.45594000000E+02  0.51100000000E-03 0. -1.
    9900012    2    1    2    0    0  0.64883761816E+01  0.52587999385E+01 -0.16760837238E+02  0.72461557007E+02  0.69999982690E+02 0.  0.
        -12    1    1    2    0    0 -0.64883761816E+01 -0.52587999385E+01  0.16760837238E+02  0.18726442993E+02  0.00000000000E+00 0.  1.
         11    1    3    3    0    0  0.26155129929E+02 -0.35504519596E+01 -0.95304267718E+01  0.28062885908E+02  0.51100000000E-03 0. -1.
        -11    1    3    3    0    0 -0.75673871797E+01  0.28111078126E+01 -0.22564869589E+02  0.23965412905E+02  0.51100000000E-03 0.  1.
        -12    1    3    3    0    0 -0.12099366568E+02  0.59981440855E+01  0.15334459123E+02  0.20433258194E+02  0.00000000000E+00 0.  1.
</event>
<event>
 7    1  0.1358622E-013  0.7246165E+02  0.7816164E-02  0.1226708E+00
        -11   -1    0    0    0    0  0.00000000000E+00  0.00000000000E+00  0.45593999997E+02  0.45594000000E+02  0.51100000000E-03 0.  1.
         11   -1    0    0    0    0 -0.00000000000E+00 -0.00000000000E+00 -0.45593999997E+02  0.45594000000E+02  0.51100000000E-03 0. -1.
    9900012    2    1    2    0    0 -0.87243699722E+01 -0.11282032812E+02 -0.12135784156E+02  0.72461650840E+02  0.70000104926E+02 0.  0.
        -12    1    1    2    0    0  0.87243699722E+01  0.11282032812E+02  0.12135784156E+02  0.18726349160E+02  0.00000000000E+00 0.  1.
         11    1    3    3    0    0  0.69759564882E+01 -0.65143973999E+01 -0.23566922837E+02  0.25426387763E+02  0.51100000000E-03 0. -1.
        -11    1    3    3    0    0  0.36921580423E+01  0.14865342337E+02 -0.34242836823E+01  0.15695099643E+02  0.51100000000E-03 0.  1.
         12    1    3    3    0    0 -0.19392484503E+02 -0.19632977749E+02  0.14855422364E+02  0.31340163434E+02  0.00000000000E+00 0. -1.
</event>
<event>
 7    1  0.1358622E-013  0.7246141E+02  0.7816164E-02  0.1226708E+00
        -11   -1    0    0    0    0  0.00000000000E+00  0.00000000000E+00  0.45593999997E+02  0.45594000000E+02  0.51100000000E-03 0. -1.
         11   -1    0    0    0    0 -0.00000000000E+00 -0.00000000000E+00 -0.45593999997E+02  0.45594000000E+02  0.51100000000E-03 0.  1.
    9900012    2    1    2    0    0 -0.16775750853E+02 -0.63444101764E+01 -0.53858847130E+01  0.72461411648E+02  0.69999793334E+02 0.  0.
        -12    1    1    2    0    0  0.16775750853E+02  0.63444101764E+01  0.53858847130E+01  0.18726588352E+02  0.00000000000E+00 0.  1.
         11    1    3    3    0    0  0.66472701622E+01  0.77878650424E+01  0.14065358403E+02  0.17397452394E+02  0.51100000000E-03 0. -1.
        -11    1    3    3    0    0  0.43909257426E+01  0.61561030797E+01  0.80177828892E+01  0.11021010694E+02  0.51100000000E-03 0.  1.
        -12    1    3    3    0    0 -0.27813946757E+02 -0.20288378298E+02 -0.27469026005E+02  0.44042948560E+02  0.00000000000E+00 0.  1.
</event>
<event>
 7    1  0.1358622E-013  0.7246157E+02  0.7816164E-02  0.1226708E+00
        -11   -1    0    0    0    0  0.00000000000E+00  0.00000000000E+00  0.45593999997E+02  0.45594000000E+02  0.51100000000E-03 0.  1.
         11   -1    0    0    0    0 -0.00000000000E+00 -0.00000000000E+00 -0.45593999997E+02  0.45594000000E+02  0.51100000000E-03 0. -1.
    9900012    2    1    2    0    0  0.92924011026E+01  0.13670089966E+02 -0.88010890628E+01  0.72461568236E+02  0.69999997319E+02 0.  0.
        -12    1    1    2    0    0 -0.92924011026E+01 -0.13670089966E+02  0.88010890628E+01  0.18726431764E+02  0.00000000000E+00 0.  1.
         11    1    3    3    0    0 -0.57384786534E+01  0.23498003861E+01  0.36008573335E+01  0.71706256984E+01  0.51100000000E-03 0. -1.
        -11    1    3    3    0    0  0.17955960042E+02 -0.13550222943E+02  0.15865136958E+02  0.27526852595E+02  0.51100000000E-03 0.  1.
         12    1    3    3    0    0 -0.29250802861E+01  0.24870512523E+02 -0.28267083354E+02  0.37764089942E+02  0.00000000000E+00 0. -1.
</event>
<event>
 7    1  0.1358622E-013  0.7246157E+02  0.7816164E-02  0.1226708E+00
        -11   -1    0    0    0    0  0.00000000000E+00  0.00000000000E+00  0.45593999997E+02  0.45594000000E+02  0.51100000000E-03 0.  1.
         11   -1    0    0    0    0 -0.00000000000E+00 -0.00000000000E+00 -0.45593999997E+02  0.45594000000E+02  0.51100000000E-03 0. -1.
    9900012    2    1    2    0    0  0.14658215009E+02 -0.88367111947E+01 -0.75979338746E+01  0.72461565979E+02  0.69999994378E+02 0.  0.
        -12    1    1    2    0    0 -0.14658215009E+02  0.88367111947E+01  0.75979338746E+01  0.18726434021E+02  0.00000000000E+00 0.  1.
         11    1    3    3    0    0  0.15111691339E+01  0.41758808679E+01 -0.22284618097E+02  0.22722803902E+02  0.51100000000E-03 0. -1.
        -11    1    3    3    0    0 -0.14333360521E+01  0.83068721223E+01 -0.10633504791E+02  0.13569451024E+02  0.51100000000E-03 0.  1.
        -12    1    3    3    0    0  0.14580381928E+02 -0.21319464185E+02  0.25320189014E+02  0.36169311052E+02  0.00000000000E+00 0.  1.
</event>
<event>
 7    1  0.1358622E-013  0.7246176E+02  0.7816164E-02  0.1226707E+00
        -11   -1    0    0    0    0  0.00000000000E+00  0.00000000000E+00  0.45593999997E+02  0.45594000000E+02  0.51100000000E-03 0. -1.
         11   -1    0    0    0    0 -0.00000000000E+00 -0.00000000000E+00 -0.45593999997E+02  0.45594000000E+02  0.51100000000E-03 0.  1.
    9900012    2    1    2    0    0  0.47250478661E+01 -0.15949313512E+02  0.86003031233E+01  0.72461764589E+02  0.70000253105E+02 0.  0.
        -12    1    1    2    0    0 -0.47250478661E+01  0.15949313512E+02 -0.86003031233E+01  0.18726235411E+02  0.00000000000E+00 0.  1.
         11    1    3    3    0    0 -0.16459639502E+02 -0.85194527607E+01 -0.12759135153E+02  0.22501029710E+02  0.51100000000E-03 0. -1.
        -11    1    3    3    0    0  0.89239180559E+01 -0.17617859957E+02 -0.38626453399E+01  0.20123253520E+02  0.51100000000E-03 0.  1.
         12    1    3    3    0    0  0.12260769312E+02  0.10187999206E+02  0.25222083617E+02  0.29837481360E+02  0.00000000000E+00 0. -1.
</event>
<event>
 7    1  0.1358622E-013  0.7246141E+02  0.7816164E-02  0.1226708E+00
        -11   -1    0    0    0    0  0.00000000000E+00  0.00000000000E+00  0.45593999997E+02  0.45594000000E+02  0.51100000000E-03 0.  1.
         11   -1    0    0    0    0 -0.00000000000E+00 -0.00000000000E+00 -0.45593999997E+02  0.45594000000E+02  0.51100000000E-03 0. -1.
    9900012    2    1    2    0    0 -0.72414922435E+01 -0.99684770262E+01 -0.14102319508E+02  0.72461410358E+02  0.69999791653E+02 0.  0.
        -12    1    1    2    0    0  0.72414922435E+01  0.99684770262E+01  0.14102319508E+02  0.18726589642E+02  0.00000000000E+00 0.  1.
         11    1    3    3    0    0 -0.25106442551E+02 -0.28343478074E+02 -0.13562415479E+02  0.40219713087E+02  0.51100000000E-03 0. -1.
        -11    1    3    3    0    0  0.97097894771E+01 -0.21055818152E+01 -0.20528172203E+01  0.10145321349E+02  0.51100000000E-03 0.  1.
        -12    1    3    3    0    0  0.81551608307E+01  0.20480582863E+02  0.15129131915E+01  0.22096375922E+02  0.00000000000E+00 0.  1.
</event>
<event>
 7    1  0.1358622E-013  0.7246159E+02  0.7816164E-02  0.1226708E+00
        -11   -1    0    0    0    0  0.00000000000E+00  0.00000000000E+00  0.45593999997E+02  0.45594000000E+02  0.51100000000E-03 0.  1.
         11   -1    0    0    0    0 -0.00000000000E+00 -0.00000000000E+00 -0.45593999997E+02  0.45594000000E+02  0.51100000000E-03 0. -1.
    9900012    2    1    2    0    0  0.39931150255E+01  0.17319420251E+02 -0.58967054295E+01  0.72461590297E+02  0.70000026057E+02 0.  0.
        -12    1    1    2    0    0 -0.39931150255E+01 -0.17319420251E+02  0.58967054295E+01  0.18726409703E+02  0.00000000000E+00 0.  1.
         11    1    3    3    0    0  0.17433946856E+02  0.11326127534E+02  0.72699641027E+00  0.20802696746E+02  0.51100000000E-03 0. -1.
        -11    1    3    3    0    0 -0.10993272903E+02  0.16476238074E+02  0.16740637615E+02  0.25933904801E+02  0.51100000000E-03 0.  1.
         12    1    3    3    0    0 -0.24475589275E+01 -0.10482945357E+02 -0.23364339454E+02  0.25724988750E+02  0.00000000000E+00 0. -1.
</event>
<event>
 7    1  0.1358622E-013  0.7246155E+02  0.7816164E-02  0.1226708E+00
        -11   -1    0    0    0    0  0.00000000000E+00  0.00000000000E+00  0.45593999997E+02  0.45594000000E+02  0.51100000000E-03 0.  1.
         11   -1    0    0    0    0 -0.00000000000E+00 -0.00000000000E+00 -0.45593999997E+02  0.45594000000E+02  0.51100000000E-03 0. -1.
    9900012    2    1    2    0    0 -0.13990693794E+02 -0.12064104159E+02 -0.30655728120E+01  0.72461551894E+02  0.69999976031E+02 0.  0.
        -12    1    1    2    0    0  0.13990693794E+02  0.12064104159E+02  0.30655728120E+01  0.18726448106E+02  0.00000000000E+00 0.  1.
         11    1    3    3    0    0 -0.63683021662E+01 -0.22491965687E+02 -0.54094089893E+01  0.23993863774E+02  0.51100000000E-03 0. -1.
        -11    1    3    3    0    0 -0.78850975009E+01 -0.17974835343E+02  0.39366231339E+01  0.20019152584E+02  0.51100000000E-03 0.  1.
        -12    1    3    3    0    0  0.26270587320E+00  0.28402696871E+02 -0.15927869566E+01  0.28448535537E+02  0.00000000000E+00 0.  1.
</event>
<event>
 7    1  0.1358622E-013  0.7246139E+02  0.7816164E-02  0.1226708E+00
        -11   -1    0    0    0    0  0.00000000000E+00  0.00000000000E+00  0.45593999997E+02  0.45594000000E+02  0.51100000000E-03 0. -1.
         11   -1    0    0    0    0 -0.00000000000E+00 -0.00000000000E+00 -0.45593999997E+02  0.45594000000E+02  0.51100000000E-03 0.  1.
    9900012    2    1    2    0    0 -0.37406204374E+01 -0.32400158548E+01  0.18060894550E+02  0.72461391766E+02  0.69999767434E+02 0.  0.
        -12    1    1    2    0    0  0.37406204374E+01  0.32400158548E+01 -0.18060894550E+02  0.18726608234E+02  0.00000000000E+00 0.  1.
         11    1    3    3    0    0 -0.15611094129E+02 -0.71789076551E+01  0.37277200653E+02  0.41046713191E+02  0.51100000000E-03 0. -1.
        -11    1    3    3    0    0  0.58328894465E+01  0.70063293560E+01  0.18363244606E+01  0.92996418278E+01  0.51100000000E-03 0.  1.
        -12    1    3    3    0    0  0.60375842446E+01 -0.30674375556E+01 -0.21052630564E+02  0.22115036747E+02  0.00000000000E+00 0.  1.
</event>
<event>
 7    1  0.1358622E-013  0.7246153E+02  0.7816164E-02  0.1226708E+00
        -11   -1    0    0    0    0  0.00000000000E+00  0.00000000000E+00  0.45593999997E+02  0.45594000000E+02  0.51100000000E-03 0.  1.
         11   -1    0    0    0    0 -0.00000000000E+00 -0.00000000000E+00 -0.45593999997E+02  0.45594000000E+02  0.51100000000E-03 0. -1.
    9900012    2    1    2    0    0 -0.36370362409E+01  0.22836737299E+01 -0.18227377712E+02  0.72461534861E+02  0.69999953842E+02 0.  0.
        -12    1    1    2    0    0  0.36370362409E+01 -0.22836737299E+01  0.18227377712E+02  0.18726465139E+02  0.00000000000E+00 0.  1.
         11    1    3    3    0    0 -0.10535274323E+02  0.33140747663E+01 -0.12978494930E+02  0.17041608713E+02  0.51100000000E-03 0. -1.
        -11    1    3    3    0    0 -0.63491119229E+01 -0.19654228971E+02  0.14482721658E+02  0.25225962133E+02  0.51100000000E-03 0.  1.
         12    1    3    3    0    0  0.13247350005E+02  0.18623827935E+02 -0.19731604441E+02  0.30193964015E+02  0.00000000000E+00 0. -1.
</event>
<event>
 7    1  0.1358622E-013  0.7246159E+02  0.7816164E-02  0.1226708E+00
        -11   -1    0    0    0    0  0.00000000000E+00  0.00000000000E+00  0.45593999997E+02  0.45594000000E+02  0.51100000000E-03 0.  1.
         11   -1    0    0    0    0 -0.00000000000E+00 -0.00000000000E+00 -0.45593999997E+02  0.45594000000E+02  0.51100000000E-03 0. -1.
    9900012    2    1    2    0    0  0.11655187118E+02 -0.41035841386E+01 -0.14071092745E+02  0.72461589758E+02  0.70000025355E+02 0.  0.
        -12    1    1    2    0    0 -0.11655187118E+02  0.41035841386E+01  0.14071092745E+02  0.18726410242E+02  0.00000000000E+00 0.  1.
         11    1    3    3    0    0  0.18346693149E+02 -0.11006214608E+02 -0.17343577446E+02  0.27541561110E+02  0.51100000000E-03 0. -1.
        -11    1    3    3    0    0  0.21660611470E+01 -0.18090884345E+02  0.15496891323E+00  0.18220755553E+02  0.51100000000E-03 0.  1.
         12    1    3    3    0    0 -0.88575671778E+01  0.24993514815E+02  0.31175157881E+01  0.26699273095E+02  0.00000000000E+00 0. -1.
</event>
<event>
 7    1  0.1358622E-013  0.7246164E+02  0.7816164E-02  0.1226708E+00
        -11   -1    0    0    0    0  0.00000000000E+00  0.00000000000E+00  0.45593999997E+02  0.45594000000E+02  0.51100000000E-03 0. -1.
         11   -1    0    0    0    0 -0.00000000000E+00 -0.00000000000E+00 -0.45593999997E+02  0.45594000000E+02  0.51100000000E-03 0.  1.
    9900012    2    1    2    0    0  0.27465812025E+01 -0.17477752970E+02 -0.61368415259E+01  0.72461644746E+02  0.70000096987E+02 0.  0.
        -12    1    1    2    0    0 -0.27465812025E+01  0.17477752970E+02  0.61368415259E+01  0.18726355254E+02  0.00000000000E+00 0.  1.
         11    1    3    3    0    0 -0.65373255828E+01 -0.11633769232E+01  0.21101502223E+02  0.22121561156E+02  0.51100000000E-03 0. -1.
        -11    1    3    3    0    0 -0.96079392004E+00 -0.31121284205E+01  0.94659937845E+01  0.10010669650E+02  0.51100000000E-03 0.  1.
        -12    1    3    3    0    0  0.10244700705E+02 -0.13202247626E+02 -0.36704337533E+02  0.40329413939E+02  0.00000000000E+00 0.  1.
</event>
<event>
 7    1  0.1358622E-013  0.7246163E+02  0.7816164E-02  0.1226708E+00
        -11   -1    0    0    0    0  0.00000000000E+00  0.00000000000E+00  0.45593999997E+02  0.45594000000E+02  0.51100000000E-03 0.  1.
         11   -1    0    0    0    0 -0.00000000000E+00 -0.00000000000E+00 -0.45593999997E+02  0.45594000000E+02  0.51100000000E-03 0. -1.
    9900012    2    1    2    0    0 -0.14020304082E+02  0.30999694522E+01 -0.12020733751E+02  0.72461634174E+02  0.70000083215E+02 0.  0.
        -12    1    1    2    0    0  0.14020304082E+02 -0.30999694522E+01  0.12020733751E+02  0.18726365826E+02  0.00000000000E+00 0.  1.
         11    1    3    3    0    0  0.24170245520E+01  0.93911204474E+01  0.69924301578E+01  0.11955301364E+02  0.51100000000E-03 0. -1.
        -11    1    3    3    0    0 -0.77221557223E+01  0.24020428309E+02 -0.13056244763E+02  0.28409121646E+02  0.51100000000E-03 0.  1.
         12    1    3    3    0    0 -0.87151729112E+01 -0.30311579304E+02 -0.59569191454E+01  0.32097211163E+02  0.00000000000E+00 0. -1.
</event>
<event>
 7    1  0.1358622E-013  0.7246159E+02  0.7816164E-02  0.1226708E+00
        -11   -1    0    0    0    0  0.00000000000E+00  0.00000000000E+00  0.45593999997E+02  0.45594000000E+02  0.51100000000E-03 0.  1.
         11   -1    0    0    0    0 -0.00000000000E+00 -0.00000000000E+00 -0.45593999997E+02  0.45594000000E+02  0.51100000000E-03 0. -1.
    9900012    2    1    2    0    0 -0.24777821234E+01 -0.18469663951E+02 -0.18467799782E+01  0.72461588517E+02  0.70000023739E+02 0.  0.
        -12    1    1    2    0    0  0.24777821234E+01  0.18469663951E+02  0.18467799782E+01  0.18726411483E+02  0.00000000000E+00 0.  1.
         11    1    3    3    0    0 -0.54758203525E+01 -0.42976908174E+01  0.20058632765E+01  0.72441868170E+01  0.51100000000E-03 0. -1.
        -11    1    3    3    0    0 -0.27815610444E+02  0.24831719803E+01  0.65391454755E+01  0.28681609984E+02  0.51100000000E-03 0.  1.
         12    1    3    3    0    0  0.30813648673E+02 -0.16655145114E+02 -0.10391788730E+02  0.36535791716E+02  0.00000000000E+00 0. -1.
</event>
<event>
 7    1  0.1358622E-013  0.7246156E+02  0.7816164E-02  0.1226708E+00
        -11   -1    0    0    0    0  0.00000000000E+00  0.00000000000E+00  0.45593999997E+02  0.45594000000E+02  0.51100000000E-03 0.  1.
         11   -1    0    0    0    0 -0.00000000000E+00 -0.00000000000E+00 -0.45593999997E+02  0.45594000000E+02  0.51100000000E-03 0. -1.
    9900012    2    1    2    0    0 -0.31787854445E+01  0.10684499980E+02 -0.15047137780E+02  0.72461559546E+02  0.69999985998E+02 0.  0.
        -12    1    1    2    0    0  0.31787854445E+01 -0.10684499980E+02  0.15047137780E+02  0.18726440454E+02  0.00000000000E+00 0.  1.
         11    1    3    3    0    0 -0.79327631607E+01  0.24446064877E+01 -0.11540193630E+02  0.14215516224E+02  0.51100000000E-03 0. -1.
        -11    1    3    3    0    0  0.19417875387E+02 -0.12723329731E+02 -0.17513096593E+02  0.29079985497E+02  0.51100000000E-03 0.  1.
         12    1    3    3    0    0 -0.14663897670E+02  0.20963223223E+02  0.14006152443E+02  0.29166057825E+02  0.00000000000E+00 0. -1.
</event>
<event>
 7    1  0.1358622E-013  0.7246156E+02  0.7816164E-02  0.1226708E+00
        -11   -1    0    0    0    0  0.00000000000E+00  0.00000000000E+00  0.45593999997E+02  0.45594000000E+02  0.51100000000E-03 0. -1.
         11   -1    0    0    0    0 -0.00000000000E+00 -0.00000000000E+00 -0.45593999997E+02  0.45594000000E+02  0.51100000000E-03 0.  1.
    9900012    2    1    2    0    0  0.10189848217E+01 -0.13445786042E+02  0.12994309042E+02  0.72461559873E+02  0.69999986424E+02 0.  0.
        -12    1    1    2    0    0 -0.10189848217E+01  0.13445786042E+02 -0.12994309042E+02  0.18726440127E+02  0.00000000000E+00 0.  1.
         11    1    3    3    0    0  0.27981983500E+02 -0.13085842636E+02  0.82022056868E+01  0.31961020892E+02  0.51100000000E-03 0.  1.
        -11    1    3    3    0    0  0.59401149718E+00 -0.10395524554E+02  0.40240035645E+01  0.11162991774E+02  0.51100000000E-03 0. -1.
         12    1    3    3    0    0 -0.27557010175E+02  0.10035581148E+02  0.76809979051E+00  0.29337547206E+02  0.00000000000E+00 0. -1.
</event>
<event>
 7    1  0.1358622E-013  0.7246158E+02  0.7816164E-02  0.1226708E+00
        -11   -1    0    0    0    0  0.00000000000E+00  0.00000000000E+00  0.45593999997E+02  0.45594000000E+02  0.51100000000E-03 0.  1.
         11   -1    0    0    0    0 -0.00000000000E+00 -0.00000000000E+00 -0.45593999997E+02  0.45594000000E+02  0.51100000000E-03 0. -1.
    9900012    2    1    2    0    0 -0.10794937757E+02  0.73899547530E+01 -0.13399136177E+02  0.72461575816E+02  0.70000007193E+02 0.  0.
        -12    1    1    2    0    0  0.10794937757E+02 -0.73899547530E+01  0.13399136177E+02  0.18726424184E+02  0.00000000000E+00 0.  1.
         11    1    3    3    0    0 -0.30661574445E+01 -0.35314997449E+01  0.12239509326E+02  0.13102610455E+02  0.51100000000E-03 0. -1.
        -11    1    3    3    0    0  0.17026032324E+01  0.46378724285E+01  0.15718774576E+02  0.16476910901E+02  0.51100000000E-03 0.  1.
         12    1    3    3    0    0 -0.94313835448E+01  0.62835820693E+01 -0.41357420078E+02  0.42882054460E+02  0.00000000000E+00 0. -1.
</event>
<event>
 7    1  0.1358622E-013  0.7246157E+02  0.7816164E-02  0.1226708E+00
        -11   -1    0    0    0    0  0.00000000000E+00  0.00000000000E+00  0.45593999997E+02  0.45594000000E+02  0.51100000000E-03 0.  1.
         11   -1    0    0    0    0 -0.00000000000E+00 -0.00000000000E+00 -0.45593999997E+02  0.45594000000E+02  0.51100000000E-03 0. -1.
    9900012    2    1    2    0    0  0.18675965736E+02 -0.37079620675E-01 -0.13732899532E+01  0.72461574917E+02  0.70000006022E+02 0.  0.
        -12    1    1    2    0    0 -0.18675965736E+02  0.37079620675E-01  0.13732899532E+01  0.18726425083E+02  0.00000000000E+00 0.  1.
         11    1    3    3    0    0  0.43752081624E+01  0.97572612865E+01 -0.33214715055E+01  0.11197266073E+02  0.51100000000E-03 0. -1.
        -11    1    3    3    0    0  0.26715618059E+02  0.15000194061E+02  0.10268929679E+02  0.32313789427E+02  0.51100000000E-03 0.  1.
        -12    1    3    3    0    0 -0.12414860485E+02 -0.24794534968E+02 -0.83207481271E+01  0.28950519417E+02  0.00000000000E+00 0.  1.
</event>
<event>
 7    1  0.1358622E-013  0.7246155E+02  0.7816164E-02  0.1226708E+00
        -11   -1    0    0    0    0  0.00000000000E+00  0.00000000000E+00  0.45593999997E+02  0.45594000000E+02  0.51100000000E-03 0.  1.
         11   -1    0    0    0    0 -0.00000000000E+00 -0.00000000000E+00 -0.45593999997E+02  0.45594000000E+02  0.51100000000E-03 0. -1.
    9900012    2    1    2    0    0 -0.11945933461E+02 -0.84847490683E+01 -0.11661198976E+02  0.72461552003E+02  0.69999976173E+02 0.  0.
        -12    1    1    2    0    0  0.11945933461E+02  0.84847490683E+01  0.11661198976E+02  0.18726447997E+02  0.00000000000E+00 0.  1.
         11    1    3    3    0    0 -0.18063519071E+02  0.49500156544E+01 -0.55180062737E+01  0.19525413432E+02  0.51100000000E-03 0. -1.
        -11    1    3    3    0    0 -0.18313184366E+02 -0.18366563440E+02 -0.98389884053E+01  0.27740026448E+02  0.51100000000E-03 0.  1.
        -12    1    3    3    0    0  0.24430769977E+02  0.49317987172E+01  0.36957957026E+01  0.25196112123E+02  0.00000000000E+00 0.  1.
</event>
<event>
 7    1  0.1358622E-013  0.7246157E+02  0.7816164E-02  0.1226708E+00
        -11   -1    0    0    0    0  0.00000000000E+00  0.00000000000E+00  0.45593999997E+02  0.45594000000E+02  0.51100000000E-03 0.  1.
         11   -1    0    0    0    0 -0.00000000000E+00 -0.00000000000E+00 -0.45593999997E+02  0.45594000000E+02  0.51100000000E-03 0. -1.
    9900012    2    1    2    0    0  0.12222403333E+02  0.33084569121E+00 -0.14183878474E+02  0.72461574536E+02  0.70000005525E+02 0.  0.
        -12    1    1    2    0    0 -0.12222403333E+02 -0.33084569121E+00  0.14183878474E+02  0.18726425464E+02  0.00000000000E+00 0.  1.
         11    1    3    3    0    0 -0.50272169008E+01  0.79425143442E+01 -0.87333482635E+00  0.94402943733E+01  0.51100000000E-03 0. -1.
        -11    1    3    3    0    0 -0.42686520616E+00 -0.32685947645E+01  0.22558487945E+02  0.22798054835E+02  0.51100000000E-03 0.  1.
         12    1    3    3    0    0  0.17676485440E+02 -0.43430738885E+01 -0.35869031593E+02  0.40223225327E+02  0.00000000000E+00 0. -1.
</event>
<event>
 7    1  0.1358622E-013  0.7246160E+02  0.7816164E-02  0.1226708E+00
        -11   -1    0    0    0    0  0.00000000000E+00  0.00000000000E+00  0.45593999997E+02  0.45594000000E+02  0.51100000000E-03 0.  1.
         11   -1    0    0    0    0 -0.00000000000E+00 -0.00000000000E+00 -0.45593999997E+02  0.45594000000E+02  0.51100000000E-03 0. -1.
    9900012    2    1    2    0    0 -0.25758086973E+01  0.95304216950E+01 -0.15912708528E+02  0.72461600964E+02  0.70000039953E+02 0.  0.
        -12    1    1    2    0    0  0.25758086973E+01 -0.95304216950E+01  0.15912708528E+02  0.18726399036E+02  0.00000000000E+00 0.  1.
         11    1    3    3    0    0  0.86714756951E+01 -0.15424681245E+02  0.51663462071E+01  0.18433838874E+02  0.51100000000E-03 0.  1.
        -11    1    3    3    0    0 -0.22121737413E+02  0.14259617198E+01 -0.28746677937E+01  0.22353262584E+02  0.51100000000E-03 0. -1.
         12    1    3    3    0    0  0.10874453020E+02  0.23529141220E+02 -0.18204386942E+02  0.31674499506E+02  0.00000000000E+00 0. -1.
</event>
<event>
 7    1  0.1358622E-013  0.7246133E+02  0.7816164E-02  0.1226709E+00
        -11   -1    0    0    0    0  0.00000000000E+00  0.00000000000E+00  0.45593999997E+02  0.45594000000E+02  0.51100000000E-03 0.  1.
         11   -1    0    0    0    0 -0.00000000000E+00 -0.00000000000E+00 -0.45593999997E+02  0.45594000000E+02  0.51100000000E-03 0. -1.
    9900012    2    1    2    0    0 -0.47169651511E+01 -0.17243699408E+02  0.55761399391E+01  0.72461327414E+02  0.69999683603E+02 0.  0.
        -12    1    1    2    0    0  0.47169651511E+01  0.17243699408E+02 -0.55761399391E+01  0.18726672586E+02  0.00000000000E+00 0.  1.
         11    1    3    3    0    0  0.13949876755E+02  0.13581508665E+02 -0.78184834296E+01  0.20980589183E+02  0.51100000000E-03 0. -1.
        -11    1    3    3    0    0 -0.11173440194E+02 -0.62036725424E+01 -0.10364092523E+02  0.16454353006E+02  0.51100000000E-03 0.  1.
        -12    1    3    3    0    0 -0.74934017119E+01 -0.24621535530E+02  0.23758715891E+02  0.35026385225E+02  0.00000000000E+00 0.  1.
</event>
<event>
 7    1  0.1358622E-013  0.7246191E+02  0.7816164E-02  0.1226707E+00
        -11   -1    0    0    0    0  0.00000000000E+00  0.00000000000E+00  0.45593999997E+02  0.45594000000E+02  0.51100000000E-03 0. -1.
         11   -1    0    0    0    0 -0.00000000000E+00 -0.00000000000E+00 -0.45593999997E+02  0.45594000000E+02  0.51100000000E-03 0.  1.
    9900012    2    1    2    0    0  0.79483244861E+01  0.78150093143E+01  0.15047130544E+02  0.72461912039E+02  0.70000445185E+02 0.  0.
        -12    1    1    2    0    0 -0.79483244861E+01 -0.78150093143E+01 -0.15047130544E+02  0.18726087961E+02  0.00000000000E+00 0.  1.
         11    1    3    3    0    0  0.10671005809E+02 -0.25272358710E+02 -0.11273709014E+02  0.29659045752E+02  0.51100000000E-03 0.  1.
        -11    1    3    3    0    0 -0.22890767441E+01  0.81347969658E+01  0.41231985455E+01  0.94029548824E+01  0.51100000000E-03 0. -1.
        -12    1    3    3    0    0 -0.43360457867E+00  0.24952571058E+02  0.22197641012E+02  0.33399911405E+02  0.00000000000E+00 0.  1.
</event>
<event>
 7    1  0.1358622E-013  0.7246159E+02  0.7816164E-02  0.1226708E+00
        -11   -1    0    0    0    0  0.00000000000E+00  0.00000000000E+00  0.45593999997E+02  0.45594000000E+02  0.51100000000E-03 0. -1.
         11   -1    0    0    0    0 -0.00000000000E+00 -0.00000000000E+00 -0.45593999997E+02  0.45594000000E+02  0.51100000000E-03 0.  1.
    9900012    2    1    2    0    0  0.15836416912E+02 -0.15859761578E+01 -0.98676804875E+01  0.72461587124E+02  0.70000021924E+02 0.  0.
        -12    1    1    2    0    0 -0.15836416912E+02  0.15859761578E+01  0.98676804875E+01  0.18726412876E+02  0.00000000000E+00 0.  1.
         11    1    3    3    0    0  0.21994785305E+02  0.94862131517E+01 -0.30499105872E+02  0.38780849395E+02  0.51100000000E-03 0. -1.
        -11    1    3    3    0    0  0.96414439398E+00 -0.13625379508E+02  0.23033503811E+01  0.13852290944E+02  0.51100000000E-03 0.  1.
        -12    1    3    3    0    0 -0.71225127866E+01  0.25531901985E+01  0.18328075003E+02  0.19828446785E+02  0.00000000000E+00 0.  1.
</event>
<event>
 7    1  0.1358622E-013  0.7246149E+02  0.7816164E-02  0.1226708E+00
        -11   -1    0    0    0    0  0.00000000000E+00  0.00000000000E+00  0.45593999997E+02  0.45594000000E+02  0.51100000000E-03 0. -1.
         11   -1    0    0    0    0 -0.00000000000E+00 -0.00000000000E+00 -0.45593999997E+02  0.45594000000E+02  0.51100000000E-03 0.  1.
    9900012    2    1    2    0    0  0.31214612348E+01 -0.13453689188E+02  0.12646612417E+02  0.72461492620E+02  0.69999898815E+02 0.  0.
        -12    1    1    2    0    0 -0.31214612348E+01  0.13453689188E+02 -0.12646612417E+02  0.18726507380E+02  0.00000000000E+00 0.  1.
         11    1    3    3    0    0  0.26730015607E+02 -0.60911210379E+01  0.19167775265E+01  0.27482167422E+02  0.51100000000E-03 0. -1.
        -11    1    3    3    0    0 -0.19379622411E+01 -0.16903273635E+02 -0.34780421579E+01  0.17365861187E+02  0.51100000000E-03 0.  1.
        -12    1    3    3    0    0 -0.21670592132E+02  0.95407054851E+01  0.14207877049E+02  0.27613464011E+02  0.00000000000E+00 0.  1.
</event>
<event>
 7    1  0.1358622E-013  0.7246154E+02  0.7816164E-02  0.1226708E+00
        -11   -1    0    0    0    0  0.00000000000E+00  0.00000000000E+00  0.45593999997E+02  0.45594000000E+02  0.51100000000E-03 0.  1.
         11   -1    0    0    0    0 -0.00000000000E+00 -0.00000000000E+00 -0.45593999997E+02  0.45594000000E+02  0.51100000000E-03 0. -1.
    9900012    2    1    2    0    0  0.14675126314E+02 -0.10973942978E+02 -0.38592088567E+01  0.72461541450E+02  0.69999962425E+02 0.  0.
        -12    1    1    2    0    0 -0.14675126314E+02  0.10973942978E+02  0.38592088567E+01  0.18726458550E+02  0.00000000000E+00 0.  1.
         11    1    3    3    0    0 -0.16294750639E+01 -0.15903554614E+02 -0.22760418118E+02  0.27813933046E+02  0.51100000000E-03 0. -1.
        -11    1    3    3    0    0 -0.62340360182E+01  0.14340138799E+02  0.44044099426E+01  0.16245048878E+02  0.51100000000E-03 0.  1.
         12    1    3    3    0    0  0.22538637396E+02 -0.94105271628E+01  0.14496799319E+02  0.28402559526E+02  0.00000000000E+00 0. -1.
</event>
<event>
 7    1  0.1358622E-013  0.7246156E+02  0.7816164E-02  0.1226708E+00
        -11   -1    0    0    0    0  0.00000000000E+00  0.00000000000E+00  0.45593999997E+02  0.45594000000E+02  0.51100000000E-03 0. -1.
         11   -1    0    0    0    0 -0.00000000000E+00 -0.00000000000E+00 -0.45593999997E+02  0.45594000000E+02  0.51100000000E-03 0.  1.
    9900012    2    1    2    0    0  0.89798329398E+01  0.15245905382E+02 -0.61322657691E+01  0.72461555757E+02  0.69999981062E+02 0.  0.
        -12    1    1    2    0    0 -0.89798329398E+01 -0.15245905382E+02  0.61322657691E+01  0.18726444243E+02  0.00000000000E+00 0.  1.
         11    1    3    3    0    0  0.12975755307E+02 -0.14448577806E+02  0.72667687177E+01  0.20734935598E+02  0.51100000000E-03 0. -1.
        -11    1    3    3    0    0 -0.12002310169E+02  0.55333115580E+01  0.10448186482E+02  0.16847480145E+02  0.51100000000E-03 0.  1.
         12    1    3    3    0    0  0.80063878020E+01  0.24161171630E+02 -0.23847220969E+02  0.34879140014E+02  0.00000000000E+00 0. -1.
</event>
<event>
 7    1  0.1358622E-013  0.7246158E+02  0.7816164E-02  0.1226708E+00
        -11   -1    0    0    0    0  0.00000000000E+00  0.00000000000E+00  0.45593999997E+02  0.45594000000E+02  0.51100000000E-03 0. -1.
         11   -1    0    0    0    0 -0.00000000000E+00 -0.00000000000E+00 -0.45593999997E+02  0.45594000000E+02  0.51100000000E-03 0.  1.
    9900012    2    1    2    0    0 -0.70672269197E+01  0.15663816590E+02  0.74416326655E+01  0.72461581676E+02  0.70000014827E+02 0.  0.
        -12    1    1    2    0    0  0.70672269197E+01 -0.15663816590E+02 -0.74416326655E+01  0.18726418324E+02  0.00000000000E+00 0.  1.
         11    1    3    3    0    0 -0.11812526022E+02 -0.25502678704E+02  0.48160652816E+00  0.28109684047E+02  0.51100000000E-03 0. -1.
        -11    1    3    3    0    0  0.43300550643E+01  0.79613303575E+01 -0.32217119655E+01  0.96182943483E+01  0.51100000000E-03 0.  1.
        -12    1    3    3    0    0  0.41524403769E+00  0.33205164937E+02  0.10181738103E+02  0.34733603281E+02  0.00000000000E+00 0.  1.
</event>
<event>
 7    1  0.1358622E-013  0.7246151E+02  0.7816164E-02  0.1226708E+00
        -11   -1    0    0    0    0  0.00000000000E+00  0.00000000000E+00  0.45593999997E+02  0.45594000000E+02  0.51100000000E-03 0.  1.
         11   -1    0    0    0    0 -0.00000000000E+00 -0.00000000000E+00 -0.45593999997E+02  0.45594000000E+02  0.51100000000E-03 0. -1.
    9900012    2    1    2    0    0 -0.17063708078E+02  0.15093421680E+01  0.75652506295E+01  0.72461514365E+02  0.69999927141E+02 0.  0.
        -12    1    1    2    0    0  0.17063708078E+02 -0.15093421680E+01 -0.75652506295E+01  0.18726485635E+02  0.00000000000E+00 0.  1.
         11    1    3    3    0    0  0.25394920691E+01  0.27902049442E+01  0.15793110312E+01  0.40900473340E+01  0.51100000000E-03 0. -1.
        -11    1    3    3    0    0  0.11504170759E+02  0.24052061598E+02 -0.41760383968E+01  0.26986791379E+02  0.51100000000E-03 0.  1.
         12    1    3    3    0    0 -0.31107370906E+02 -0.25332924374E+02  0.10161977995E+02  0.41384675652E+02  0.00000000000E+00 0. -1.
</event>
<event>
 7    1  0.1358622E-013  0.7246159E+02  0.7816164E-02  0.1226708E+00
        -11   -1    0    0    0    0  0.00000000000E+00  0.00000000000E+00  0.45593999997E+02  0.45594000000E+02  0.51100000000E-03 0. -1.
         11   -1    0    0    0    0 -0.00000000000E+00 -0.00000000000E+00 -0.45593999997E+02  0.45594000000E+02  0.51100000000E-03 0.  1.
    9900012    2    1    2    0    0 -0.53738187584E+01  0.14325171571E+02 -0.10797686020E+02  0.72461588385E+02  0.70000023566E+02 0.  0.
        -12    1    1    2    0    0  0.53738187584E+01 -0.14325171571E+02  0.10797686020E+02  0.18726411615E+02  0.00000000000E+00 0.  1.
         11    1    3    3    0    0 -0.47376197062E+01  0.46006528624E+01  0.44651468910E+01  0.79717365900E+01  0.51100000000E-03 0. -1.
        -11    1    3    3    0    0  0.47898690798E+01  0.35609434679E+02 -0.11791325480E+02  0.37815473564E+02  0.51100000000E-03 0.  1.
         12    1    3    3    0    0 -0.54260681320E+01 -0.25884915970E+02 -0.34715074310E+01  0.26674378231E+02  0.00000000000E+00 0. -1.
</event>
<event>
 7    1  0.1358622E-013  0.7246155E+02  0.7816164E-02  0.1226708E+00
        -11   -1    0    0    0    0  0.00000000000E+00  0.00000000000E+00  0.45593999997E+02  0.45594000000E+02  0.51100000000E-03 0.  1.
         11   -1    0    0    0    0 -0.00000000000E+00 -0.00000000000E+00 -0.45593999997E+02  0.45594000000E+02  0.51100000000E-03 0. -1.
    9900012    2    1    2    0    0  0.10039581694E+02  0.11230451901E+02 -0.11124904336E+02  0.72461554876E+02  0.69999979915E+02 0.  0.
        -12    1    1    2    0    0 -0.10039581694E+02 -0.11230451901E+02  0.11124904336E+02  0.18726445124E+02  0.00000000000E+00 0.  1.
         11    1    3    3    0    0  0.10687698629E+02 -0.45291788685E+01 -0.43032759790E+01  0.12379763633E+02  0.51100000000E-03 0.  1.
        -11    1    3    3    0    0  0.89540857442E+01  0.24614329959E+02 -0.25981785978E+02  0.36893008738E+02  0.51100000000E-03 0. -1.
        -12    1    3    3    0    0 -0.96022026790E+01 -0.88546991891E+01  0.19160157621E+02  0.23188782506E+02  0.00000000000E+00 0.  1.
</event>
<event>
 7    1  0.1358622E-013  0.7246155E+02  0.7816164E-02  0.1226708E+00
        -11   -1    0    0    0    0  0.00000000000E+00  0.00000000000E+00  0.45593999997E+02  0.45594000000E+02  0.51100000000E-03 0.  1.
         11   -1    0    0    0    0 -0.00000000000E+00 -0.00000000000E+00 -0.45593999997E+02  0.45594000000E+02  0.51100000000E-03 0. -1.
    9900012    2    1    2    0    0 -0.29554955818E+01  0.92399927908E+01 -0.16017721005E+02  0.72461553271E+02  0.69999977824E+02 0.  0.
        -12    1    1    2    0    0  0.29554955818E+01 -0.92399927908E+01  0.16017721005E+02  0.18726446729E+02  0.00000000000E+00 0.  1.
         11    1    3    3    0    0  0.24258580227E+02 -0.12797975853E+02 -0.78490057166E+01  0.28528473348E+02  0.51100000000E-03 0. -1.
        -11    1    3    3    0    0 -0.66218512491E+01  0.12176386396E+02 -0.14681482353E+02  0.20190572651E+02  0.51100000000E-03 0.  1.
        -12    1    3    3    0    0 -0.20592224560E+02  0.98615822469E+01  0.65127670641E+01  0.23742507272E+02  0.00000000000E+00 0.  1.
</event>
<event>
 7    1  0.1358622E-013  0.7246156E+02  0.7816164E-02  0.1226708E+00
        -11   -1    0    0    0    0  0.00000000000E+00  0.00000000000E+00  0.45593999997E+02  0.45594000000E+02  0.51100000000E-03 0.  1.
         11   -1    0    0    0    0 -0.00000000000E+00 -0.00000000000E+00 -0.45593999997E+02  0.45594000000E+02  0.51100000000E-03 0. -1.
    9900012    2    1    2    0    0  0.41217572689E+01  0.14287882151E+02  0.11381873654E+02  0.72461561278E+02  0.69999988254E+02 0.  0.
        -12    1    1    2    0    0 -0.41217572689E+01 -0.14287882151E+02 -0.11381873654E+02  0.18726438722E+02  0.00000000000E+00 0.  1.
         11    1    3    3    0    0  0.35534239640E+01 -0.35091234083E+01 -0.21334004293E+01  0.54306690762E+01  0.51100000000E-03 0. -1.
        -11    1    3    3    0    0  0.26853663003E+02  0.13763227967E+02 -0.97354723153E+01  0.31706861753E+02  0.51100000000E-03 0.  1.
         12    1    3    3    0    0 -0.26285329698E+02  0.40337775917E+01  0.23250746399E+02  0.35324030448E+02  0.00000000000E+00 0. -1.
</event>
<event>
 7    1  0.1358622E-013  0.7246129E+02  0.7816164E-02  0.1226709E+00
        -11   -1    0    0    0    0  0.00000000000E+00  0.00000000000E+00  0.45593999997E+02  0.45594000000E+02  0.51100000000E-03 0.  1.
         11   -1    0    0    0    0 -0.00000000000E+00 -0.00000000000E+00 -0.45593999997E+02  0.45594000000E+02  0.51100000000E-03 0. -1.
    9900012    2    1    2    0    0  0.10453886832E+02  0.87998637492E+01 -0.12805009187E+02  0.72461291475E+02  0.69999636785E+02 0.  0.
        -12    1    1    2    0    0 -0.10453886832E+02 -0.87998637492E+01  0.12805009187E+02  0.18726708525E+02  0.00000000000E+00 0.  1.
         11    1    3    3    0    0  0.23522372726E+02 -0.13452792228E+02 -0.12224664438E+02  0.29727463031E+02  0.51100000000E-03 0. -1.
        -11    1    3    3    0    0  0.63111910896E+01 -0.34840858659E+01 -0.68132416414E+01  0.99191859150E+01  0.51100000000E-03 0.  1.
        -12    1    3    3    0    0 -0.19379676983E+02  0.25736741843E+02  0.62328968922E+01  0.32814642529E+02  0.00000000000E+00 0.  1.
</event>
<event>
 7    1  0.1358622E-013  0.7246149E+02  0.7816164E-02  0.1226708E+00
        -11   -1    0    0    0    0  0.00000000000E+00  0.00000000000E+00  0.45593999997E+02  0.45594000000E+02  0.51100000000E-03 0.  1.
         11   -1    0    0    0    0 -0.00000000000E+00 -0.00000000000E+00 -0.45593999997E+02  0.45594000000E+02  0.51100000000E-03 0. -1.
    9900012    2    1    2    0    0  0.88591803652E+01 -0.12544645341E+02 -0.10715825460E+02  0.72461491549E+02  0.69999897420E+02 0.  0.
        -12    1    1    2    0    0 -0.88591803652E+01  0.12544645341E+02  0.10715825460E+02  0.18726508451E+02  0.00000000000E+00 0.  1.
         11    1    3    3    0    0  0.35634114382E+01  0.22547284511E+02 -0.39863279194E+01  0.23172586184E+02  0.51100000000E-03 0. -1.
        -11    1    3    3    0    0  0.10754827446E+02 -0.55791976102E+01  0.92903558285E+01  0.15267759202E+02  0.51100000000E-03 0.  1.
        -12    1    3    3    0    0 -0.54590585192E+01 -0.29512732242E+02 -0.16019853369E+02  0.34021146163E+02  0.00000000000E+00 0.  1.
</event>
<event>
 7    1  0.1358622E-013  0.7246155E+02  0.7816164E-02  0.1226708E+00
        -11   -1    0    0    0    0  0.00000000000E+00  0.00000000000E+00  0.45593999997E+02  0.45594000000E+02  0.51100000000E-03 0.  1.
         11   -1    0    0    0    0 -0.00000000000E+00 -0.00000000000E+00 -0.45593999997E+02  0.45594000000E+02  0.51100000000E-03 0. -1.
    9900012    2    1    2    0    0 -0.15469149305E+02 -0.94199255116E+01 -0.47592211862E+01  0.72461554444E+02  0.69999979352E+02 0.  0.
        -12    1    1    2    0    0  0.15469149305E+02  0.94199255116E+01  0.47592211862E+01  0.18726445556E+02  0.00000000000E+00 0.  1.
         11    1    3    3    0    0  0.11700156619E+02 -0.21849723069E+02 -0.28838827516E+01  0.24952371493E+02  0.51100000000E-03 0. -1.
        -11    1    3    3    0    0  0.84285095745E+01 -0.11584731110E+01  0.31582677654E+01  0.90750476106E+01  0.51100000000E-03 0.  1.
        -12    1    3    3    0    0 -0.35597815498E+02  0.13588270669E+02 -0.50336062000E+01  0.38434135341E+02  0.00000000000E+00 0.  1.
</event>
<event>
 7    1  0.1358622E-013  0.7246150E+02  0.7816164E-02  0.1226708E+00
        -11   -1    0    0    0    0  0.00000000000E+00  0.00000000000E+00  0.45593999997E+02  0.45594000000E+02  0.51100000000E-03 0.  1.
         11   -1    0    0    0    0 -0.00000000000E+00 -0.00000000000E+00 -0.45593999997E+02  0.45594000000E+02  0.51100000000E-03 0. -1.
    9900012    2    1    2    0    0 -0.55107697131E+01  0.15791974294E+02 -0.84218008007E+01  0.72461501030E+02  0.69999909771E+02 0.  0.
        -12    1    1    2    0    0  0.55107697131E+01 -0.15791974294E+02  0.84218008007E+01  0.18726498970E+02  0.00000000000E+00 0.  1.
         11    1    3    3    0    0 -0.11913930041E+02 -0.67835898670E+01  0.11992966187E+02  0.18215105235E+02  0.51100000000E-03 0. -1.
        -11    1    3    3    0    0 -0.79650460745E+00 -0.71340282711E+01  0.92102339830E+01  0.11677208110E+02  0.51100000000E-03 0.  1.
         12    1    3    3    0    0  0.71996649352E+01  0.29709592432E+02 -0.29625000971E+02  0.42569187685E+02  0.00000000000E+00 0. -1.
</event>
<event>
 7    1  0.1424187E-013  0.7246160E+02  0.7816164E-02  0.1226708E+00
        -11   -1    0    0    0    0  0.00000000000E+00  0.00000000000E+00  0.45593999997E+02  0.45594000000E+02  0.51100000000E-03 0. -1.
         11   -1    0    0    0    0 -0.00000000000E+00 -0.00000000000E+00 -0.45593999997E+02  0.45594000000E+02  0.51100000000E-03 0.  1.
    9900012    2    1    2    0    0 -0.31045039720E+01  0.58000076507E+01  0.17532828288E+02  0.72461598813E+02  0.70000037150E+02 0.  0.
        -12    1    1    2    0    0  0.31045039720E+01 -0.58000076507E+01 -0.17532828288E+02  0.18726401187E+02  0.00000000000E+00 0.  1.
         11    1    3    3    0    0  0.23804763682E+02 -0.11669258006E+02  0.11080425610E+02  0.28733502890E+02  0.51100000000E-03 0. -1.
        -11    1    3    3    0    0  0.30582192719E+01 -0.17972707347E+01 -0.51557113866E+01  0.62581344961E+01  0.51100000000E-03 0.  1.
        -12    1    3    3    0    0 -0.29967486926E+02  0.19266536392E+02  0.11608114065E+02  0.37469961427E+02  0.00000000000E+00 0.  1.
</event>
<event>
 7    1  0.1358622E-013  0.7246156E+02  0.7816164E-02  0.1226708E+00
        -11   -1    0    0    0    0  0.00000000000E+00  0.00000000000E+00  0.45593999997E+02  0.45594000000E+02  0.51100000000E-03 0.  1.
         11   -1    0    0    0    0 -0.00000000000E+00 -0.00000000000E+00 -0.45593999997E+02  0.45594000000E+02  0.51100000000E-03 0. -1.
    9900012    2    1    2    0    0 -0.27570474158E+01  0.34748314990E+01 -0.18193513348E+02  0.72461556335E+02  0.69999981816E+02 0.  0.
        -12    1    1    2    0    0  0.27570474158E+01 -0.34748314990E+01  0.18193513348E+02  0.18726443665E+02  0.00000000000E+00 0.  1.
         11    1    3    3    0    0 -0.10007634335E+02 -0.37022201268E+01 -0.28380309964E+02  0.30319979762E+02  0.51100000000E-03 0. -1.
        -11    1    3    3    0    0  0.60071394019E+01 -0.76671315713E+01 -0.11976686647E+02  0.15437346068E+02  0.51100000000E-03 0.  1.
        -12    1    3    3    0    0  0.12434475172E+01  0.14844183197E+02  0.22163483263E+02  0.26704230505E+02  0.00000000000E+00 0.  1.
</event>
<event>
 7    1  0.1358622E-013  0.7246150E+02  0.7816164E-02  0.1226708E+00
        -11   -1    0    0    0    0  0.00000000000E+00  0.00000000000E+00  0.45593999997E+02  0.45594000000E+02  0.51100000000E-03 0. -1.
         11   -1    0    0    0    0 -0.00000000000E+00 -0.00000000000E+00 -0.45593999997E+02  0.45594000000E+02  0.51100000000E-03 0.  1.
    9900012    2    1    2    0    0  0.59735658485E+01  0.14656519408E+02  0.10009230257E+02  0.72461501651E+02  0.69999910579E+02 0.  0.
        -12    1    1    2    0    0 -0.59735658485E+01 -0.14656519408E+02 -0.10009230257E+02  0.18726498349E+02  0.00000000000E+00 0.  1.
         11    1    3    3    0    0  0.91385575532E+01  0.43063865467E+01 -0.43270666275E+01  0.10990073025E+02  0.51100000000E-03 0. -1.
        -11    1    3    3    0    0 -0.18856140736E+02 -0.14606853004E+02 -0.72544357938E+01  0.24930724760E+02  0.51100000000E-03 0.  1.
         12    1    3    3    0    0  0.15691149031E+02  0.24956985865E+02  0.21590732678E+02  0.36540703865E+02  0.00000000000E+00 0. -1.
</event>
<event>
 7    1  0.1358622E-013  0.7246165E+02  0.7816164E-02  0.1226708E+00
        -11   -1    0    0    0    0  0.00000000000E+00  0.00000000000E+00  0.45593999997E+02  0.45594000000E+02  0.51100000000E-03 0.  1.
         11   -1    0    0    0    0 -0.00000000000E+00 -0.00000000000E+00 -0.45593999997E+02  0.45594000000E+02  0.51100000000E-03 0. -1.
    9900012    2    1    2    0    0 -0.79657095865E+01  0.11803827774E+02 -0.12161145039E+02  0.72461646164E+02  0.70000098834E+02 0.  0.
        -12    1    1    2    0    0  0.79657095865E+01 -0.11803827774E+02  0.12161145039E+02  0.18726353836E+02  0.00000000000E+00 0.  1.
         11    1    3    3    0    0 -0.14849076208E+02  0.89361003052E+01 -0.32444687802E+02  0.36783239657E+02  0.51100000000E-03 0. -1.
        -11    1    3    3    0    0  0.10800268214E+02 -0.10602233765E+02  0.12543377054E+02  0.19656791765E+02  0.51100000000E-03 0.  1.
        -12    1    3    3    0    0 -0.39169015927E+01  0.13469961234E+02  0.77401657082E+01  0.16021614742E+02  0.00000000000E+00 0.  1.
</event>
<event>
 7    1  0.1358622E-013  0.7246153E+02  0.7816164E-02  0.1226708E+00
        -11   -1    0    0    0    0  0.00000000000E+00  0.00000000000E+00  0.45593999997E+02  0.45594000000E+02  0.51100000000E-03 0.  1.
         11   -1    0    0    0    0 -0.00000000000E+00 -0.00000000000E+00 -0.45593999997E+02  0.45594000000E+02  0.51100000000E-03 0. -1.
    9900012    2    1    2    0    0 -0.64980454247E+01 -0.10207324738E+02 -0.14292181598E+02  0.72461534036E+02  0.69999952767E+02 0.  0.
        -12    1    1    2    0    0  0.64980454247E+01  0.10207324738E+02  0.14292181598E+02  0.18726465964E+02  0.00000000000E+00 0.  1.
         11    1    3    3    0    0 -0.12652251085E+02  0.28105941339E+01 -0.17440097759E+02  0.21728688571E+02  0.51100000000E-03 0. -1.
        -11    1    3    3    0    0 -0.74434341361E+01  0.86728284050E+01 -0.15358057549E+02  0.19143996350E+02  0.51100000000E-03 0.  1.
        -12    1    3    3    0    0  0.13597639796E+02 -0.21690747277E+02  0.18505973711E+02  0.31588849116E+02  0.00000000000E+00 0.  1.
</event>
<event>
 7    1  0.1358622E-013  0.7246154E+02  0.7816164E-02  0.1226708E+00
        -11   -1    0    0    0    0  0.00000000000E+00  0.00000000000E+00  0.45593999997E+02  0.45594000000E+02  0.51100000000E-03 0.  1.
         11   -1    0    0    0    0 -0.00000000000E+00 -0.00000000000E+00 -0.45593999997E+02  0.45594000000E+02  0.51100000000E-03 0. -1.
    9900012    2    1    2    0    0 -0.14496485577E+02 -0.94653853247E+01 -0.71371243832E+01  0.72461543904E+02  0.69999965622E+02 0.  0.
        -12    1    1    2    0    0  0.14496485577E+02  0.94653853247E+01  0.71371243832E+01  0.18726456096E+02  0.00000000000E+00 0.  1.
         11    1    3    3    0    0 -0.18676074573E+02  0.80581365911E+01 -0.15644212730E+02  0.25660684305E+02  0.51100000000E-03 0. -1.
        -11    1    3    3    0    0  0.30477275258E+01  0.14013527186E+02  0.10827936798E+01  0.14381934143E+02  0.51100000000E-03 0.  1.
         12    1    3    3    0    0  0.11318614701E+01 -0.31537049102E+02  0.74242946667E+01  0.32418925457E+02  0.00000000000E+00 0. -1.
</event>
<event>
 7    1  0.1358622E-013  0.7246145E+02  0.7816164E-02  0.1226708E+00
        -11   -1    0    0    0    0  0.00000000000E+00  0.00000000000E+00  0.45593999997E+02  0.45594000000E+02  0.51100000000E-03 0.  1.
         11   -1    0    0    0    0 -0.00000000000E+00 -0.00000000000E+00 -0.45593999997E+02  0.45594000000E+02  0.51100000000E-03 0. -1.
    9900012    2    1    2    0    0  0.42483675110E+01 -0.15687981858E+02 -0.93017395739E+01  0.72461447717E+02  0.69999840321E+02 0.  0.
        -12    1    1    2    0    0 -0.42483675110E+01  0.15687981858E+02  0.93017395739E+01  0.18726552283E+02  0.00000000000E+00 0.  1.
         11    1    3    3    0    0  0.25719207810E+02 -0.74392384733E+01 -0.22331310488E+02  0.34864126947E+02  0.51100000000E-03 0. -1.
        -11    1    3    3    0    0 -0.17031832869E+02  0.28178720564E+01 -0.30994593126E+01  0.17539395146E+02  0.51100000000E-03 0.  1.
        -12    1    3    3    0    0 -0.44390074300E+01 -0.11066615441E+02  0.16129030227E+02  0.20057925624E+02  0.00000000000E+00 0.  1.
</event>
<event>
 7    1  0.1358622E-013  0.7246160E+02  0.7816164E-02  0.1226708E+00
        -11   -1    0    0    0    0  0.00000000000E+00  0.00000000000E+00  0.45593999997E+02  0.45594000000E+02  0.51100000000E-03 0.  1.
         11   -1    0    0    0    0 -0.00000000000E+00 -0.00000000000E+00 -0.45593999997E+02  0.45594000000E+02  0.51100000000E-03 0. -1.
    9900012    2    1    2    0    0  0.14387272348E+01  0.16266612218E+02  0.91654567439E+01  0.72461596009E+02  0.70000033499E+02 0.  0.
        -12    1    1    2    0    0 -0.14387272348E+01 -0.16266612218E+02 -0.91654567439E+01  0.18726403991E+02  0.00000000000E+00 0.  1.
         11    1    3    3    0    0  0.27583923408E+02  0.69642964783E+01 -0.14512106888E+02  0.31937055321E+02  0.51100000000E-03 0. -1.
        -11    1    3    3    0    0 -0.63333705464E+01  0.83291916187E+01  0.11778860254E+01  0.10529692837E+02  0.51100000000E-03 0.  1.
        -12    1    3    3    0    0 -0.19811825627E+02  0.97312412060E+00  0.22499677606E+02  0.29994847851E+02  0.00000000000E+00 0.  1.
</event>
<event>
 7    1  0.1358622E-013  0.7246161E+02  0.7816164E-02  0.1226708E+00
        -11   -1    0    0    0    0  0.00000000000E+00  0.00000000000E+00  0.45593999997E+02  0.45594000000E+02  0.51100000000E-03 0.  1.
         11   -1    0    0    0    0 -0.00000000000E+00 -0.00000000000E+00 -0.45593999997E+02  0.45594000000E+02  0.51100000000E-03 0. -1.
    9900012    2    1    2    0    0  0.14836234371E+02 -0.31115296368E+01 -0.10994642829E+02  0.72461611189E+02  0.70000053272E+02 0.  0.
        -12    1    1    2    0    0 -0.14836234371E+02  0.31115296368E+01  0.10994642829E+02  0.18726388811E+02  0.00000000000E+00 0.  1.
         11    1    3    3    0    0 -0.12939719451E+02  0.23423403935E+01 -0.11820363777E+02  0.17681739113E+02  0.51100000000E-03 0. -1.
        -11    1    3    3    0    0 -0.57106577607E+01  0.35867815374E+01 -0.15156716791E+02  0.16589233798E+02  0.51100000000E-03 0.  1.
        -12    1    3    3    0    0  0.33486611582E+02 -0.90406515677E+01  0.15982437739E+02  0.38190638278E+02  0.00000000000E+00 0.  1.
</event>
<event>
 7    1  0.1358622E-013  0.7246156E+02  0.7816164E-02  0.1226708E+00
        -11   -1    0    0    0    0  0.00000000000E+00  0.00000000000E+00  0.45593999997E+02  0.45594000000E+02  0.51100000000E-03 0.  1.
         11   -1    0    0    0    0 -0.00000000000E+00 -0.00000000000E+00 -0.45593999997E+02  0.45594000000E+02  0.51100000000E-03 0. -1.
    9900012    2    1    2    0    0 -0.15654702758E+02 -0.95352555253E+01 -0.38326000531E+01  0.72461557744E+02  0.69999983651E+02 0.  0.
        -12    1    1    2    0    0  0.15654702758E+02  0.95352555253E+01  0.38326000531E+01  0.18726442256E+02  0.00000000000E+00 0.  1.
         11    1    3    3    0    0  0.82754205407E+01  0.21276575791E+01 -0.15977308598E+01  0.86926552940E+01  0.51100000000E-03 0. -1.
        -11    1    3    3    0    0  0.15885755215E+02  0.95359578704E+01  0.92118721246E+00  0.18551018770E+02  0.51100000000E-03 0.  1.
         12    1    3    3    0    0 -0.39815878514E+02 -0.21198870975E+02 -0.31560564057E+01  0.45217883680E+02  0.00000000000E+00 0. -1.
</event>
<event>
 7    1  0.1358622E-013  0.7246155E+02  0.7816164E-02  0.1226708E+00
        -11   -1    0    0    0    0  0.00000000000E+00  0.00000000000E+00  0.45593999997E+02  0.45594000000E+02  0.51100000000E-03 0. -1.
         11   -1    0    0    0    0 -0.00000000000E+00 -0.00000000000E+00 -0.45593999997E+02  0.45594000000E+02  0.51100000000E-03 0.  1.
    9900012    2    1    2    0    0 -0.13512037672E+02 -0.10260573183E+02 -0.79262438809E+01  0.72461551694E+02  0.69999975770E+02 0.  0.
        -12    1    1    2    0    0  0.13512037672E+02  0.10260573183E+02  0.79262438809E+01  0.18726448306E+02  0.00000000000E+00 0.  1.
         11    1    3    3    0    0  0.21233289343E+02 -0.12873181683E+02  0.24803303276E+01  0.24954426897E+02  0.51100000000E-03 0. -1.
        -11    1    3    3    0    0  0.45331777603E+01 -0.45544891372E+01 -0.13823507175E+01  0.65729723623E+01  0.51100000000E-03 0.  1.
        -12    1    3    3    0    0 -0.39278504776E+02  0.71670976376E+01 -0.90242234910E+01  0.40934152435E+02  0.00000000000E+00 0.  1.
</event>
<event>
 7    1  0.1358622E-013  0.7246079E+02  0.7816164E-02  0.1226710E+00
        -11   -1    0    0    0    0  0.00000000000E+00  0.00000000000E+00  0.45593999997E+02  0.45594000000E+02  0.51100000000E-03 0.  1.
         11   -1    0    0    0    0 -0.00000000000E+00 -0.00000000000E+00 -0.45593999997E+02  0.45594000000E+02  0.51100000000E-03 0. -1.
    9900012    2    1    2    0    0 -0.10862656293E+02 -0.15130746002E+02 -0.19420739523E+01  0.72460789114E+02  0.69998982361E+02 0.  0.
        -12    1    1    2    0    0  0.10862656293E+02  0.15130746002E+02  0.19420739523E+01  0.18727210886E+02  0.00000000000E+00 0.  1.
         11    1    3    3    0    0  0.11179961733E+02  0.42051354867E+01  0.19480485649E+01  0.12102462654E+02  0.51100000000E-03 0. -1.
        -11    1    3    3    0    0  0.33725063849E+01  0.78458828519E+01  0.16020045429E+02  0.18154160208E+02  0.51100000000E-03 0.  1.
         12    1    3    3    0    0 -0.25415124411E+02 -0.27181764340E+02 -0.19910167946E+02  0.42204166253E+02  0.00000000000E+00 0. -1.
</event>
<event>
 7    1  0.1358622E-013  0.7246159E+02  0.7816164E-02  0.1226708E+00
        -11   -1    0    0    0    0  0.00000000000E+00  0.00000000000E+00  0.45593999997E+02  0.45594000000E+02  0.51100000000E-03 0. -1.
         11   -1    0    0    0    0 -0.00000000000E+00 -0.00000000000E+00 -0.45593999997E+02  0.45594000000E+02  0.51100000000E-03 0.  1.
    9900012    2    1    2    0    0  0.14118679349E+02 -0.50586451026E+01 -0.11213890971E+02  0.72461592241E+02  0.70000028590E+02 0.  0.
        -12    1    1    2    0    0 -0.14118679349E+02  0.50586451026E+01  0.11213890971E+02  0.18726407759E+02  0.00000000000E+00 0.  1.
         11    1    3    3    0    0  0.91964634452E+01 -0.29587164459E+02  0.98551515021E+01  0.32513062791E+02  0.51100000000E-03 0. -1.
        -11    1    3    3    0    0  0.87514099653E+01  0.72192749705E+00 -0.15304715111E+01  0.89135121584E+01  0.51100000000E-03 0.  1.
        -12    1    3    3    0    0 -0.38291940613E+01  0.23806591859E+02 -0.19538570962E+02  0.31035017292E+02  0.00000000000E+00 0.  1.
</event>
<event>
 7    1  0.1358622E-013  0.7246161E+02  0.7816164E-02  0.1226708E+00
        -11   -1    0    0    0    0  0.00000000000E+00  0.00000000000E+00  0.45593999997E+02  0.45594000000E+02  0.51100000000E-03 0.  1.
         11   -1    0    0    0    0 -0.00000000000E+00 -0.00000000000E+00 -0.45593999997E+02  0.45594000000E+02  0.51100000000E-03 0. -1.
    9900012    2    1    2    0    0  0.60834858092E+01 -0.17625905058E+02 -0.17310289880E+01  0.72461607126E+02  0.70000047980E+02 0.  0.
        -12    1    1    2    0    0 -0.60834858092E+01  0.17625905058E+02  0.17310289880E+01  0.18726392874E+02  0.00000000000E+00 0.  1.
         11    1    3    3    0    0  0.68935543234E+01  0.32504686961E+01 -0.71450796483E+01  0.10446951775E+02  0.51100000000E-03 0. -1.
        -11    1    3    3    0    0  0.22006852297E+02 -0.29987896457E+02  0.26494244258E+01  0.37290681570E+02  0.51100000000E-03 0.  1.
        -12    1    3    3    0    0 -0.22816920812E+02  0.91115227026E+01  0.27646262345E+01  0.24723973781E+02  0.00000000000E+00 0.  1.
</event>
<event>
 7    1  0.1358622E-013  0.7246147E+02  0.7816164E-02  0.1226708E+00
        -11   -1    0    0    0    0  0.00000000000E+00  0.00000000000E+00  0.45593999997E+02  0.45594000000E+02  0.51100000000E-03 0.  1.
         11   -1    0    0    0    0 -0.00000000000E+00 -0.00000000000E+00 -0.45593999997E+02  0.45594000000E+02  0.51100000000E-03 0. -1.
    9900012    2    1    2    0    0  0.34232613121E+01  0.11936496448E+02 -0.14017282866E+02  0.72461471106E+02  0.69999870789E+02 0.  0.
        -12    1    1    2    0    0 -0.34232613121E+01 -0.11936496448E+02  0.14017282866E+02  0.18726528894E+02  0.00000000000E+00 0.  1.
         11    1    3    3    0    0 -0.13645770664E+02  0.14295400030E+01 -0.23644963287E+02  0.27337427288E+02  0.51100000000E-03 0. -1.
        -11    1    3    3    0    0  0.20400110319E+02 -0.25943137170E+01 -0.87178157667E+01  0.22335963751E+02  0.51100000000E-03 0.  1.
        -12    1    3    3    0    0 -0.33310783420E+01  0.13101270162E+02  0.18345496187E+02  0.22788080067E+02  0.00000000000E+00 0.  1.
</event>
<event>
 7    1  0.1358622E-013  0.7246160E+02  0.7816164E-02  0.1226708E+00
        -11   -1    0    0    0    0  0.00000000000E+00  0.00000000000E+00  0.45593999997E+02  0.45594000000E+02  0.51100000000E-03 0.  1.
         11   -1    0    0    0    0 -0.00000000000E+00 -0.00000000000E+00 -0.45593999997E+02  0.45594000000E+02  0.51100000000E-03 0. -1.
    9900012    2    1    2    0    0  0.11586891531E+02  0.12561537928E+02  0.76570058413E+01  0.72461600748E+02  0.70000039672E+02 0.  0.
        -12    1    1    2    0    0 -0.11586891531E+02 -0.12561537928E+02 -0.76570058413E+01  0.18726399252E+02  0.00000000000E+00 0.  1.
         11    1    3    3    0    0  0.14264669280E+01 -0.16754800035E+02  0.29836712093E+00  0.16818060391E+02  0.51100000000E-03 0.  1.
        -11    1    3    3    0    0  0.66988404098E+01 -0.74515447361E+01 -0.10592937533E+02  0.14581162767E+02  0.51100000000E-03 0. -1.
        -12    1    3    3    0    0  0.34615841934E+01  0.36767882700E+02  0.17951576254E+02  0.41062377590E+02  0.00000000000E+00 0.  1.
</event>
<event>
 7    1  0.1358622E-013  0.7246158E+02  0.7816164E-02  0.1226708E+00
        -11   -1    0    0    0    0  0.00000000000E+00  0.00000000000E+00  0.45593999997E+02  0.45594000000E+02  0.51100000000E-03 0.  1.
         11   -1    0    0    0    0 -0.00000000000E+00 -0.00000000000E+00 -0.45593999997E+02  0.45594000000E+02  0.51100000000E-03 0. -1.
    9900012    2    1    2    0    0  0.15016327075E+01 -0.15342929768E+02 -0.10631007255E+02  0.72461582566E+02  0.70000015987E+02 0.  0.
        -12    1    1    2    0    0 -0.15016327075E+01  0.15342929768E+02  0.10631007255E+02  0.18726417434E+02  0.00000000000E+00 0.  1.
         11    1    3    3    0    0 -0.19235795354E+00  0.15649328218E+02 -0.14854636910E+02  0.21577736519E+02  0.51100000000E-03 0. -1.
        -11    1    3    3    0    0  0.40291372513E+01 -0.20780563838E+02 -0.17043906101E+02  0.27176469894E+02  0.51100000000E-03 0.  1.
        -12    1    3    3    0    0 -0.23351465903E+01 -0.10211694148E+02  0.21267535756E+02  0.23707376154E+02  0.00000000000E+00 0.  1.
</event>
<event>
 7    1  0.1358622E-013  0.7246156E+02  0.7816164E-02  0.1226708E+00
        -11   -1    0    0    0    0  0.00000000000E+00  0.00000000000E+00  0.45593999997E+02  0.45594000000E+02  0.51100000000E-03 0.  1.
         11   -1    0    0    0    0 -0.00000000000E+00 -0.00000000000E+00 -0.45593999997E+02  0.45594000000E+02  0.51100000000E-03 0. -1.
    9900012    2    1    2    0    0  0.15323755899E+01 -0.17694097830E+02  0.59371940184E+01  0.72461560249E+02  0.69999986913E+02 0.  0.
        -12    1    1    2    0    0 -0.15323755899E+01  0.17694097830E+02 -0.59371940184E+01  0.18726439751E+02  0.00000000000E+00 0.  1.
         11    1    3    3    0    0 -0.30750901367E+01 -0.37322777614E+02 -0.11983316309E+02  0.39319788633E+02  0.51100000000E-03 0. -1.
        -11    1    3    3    0    0  0.52517806454E+01 -0.23512483105E+01  0.50937763977E+01  0.76847984239E+01  0.51100000000E-03 0.  1.
        -12    1    3    3    0    0 -0.64431491876E+00  0.21979928095E+02  0.12826733929E+02  0.25456973191E+02  0.00000000000E+00 0.  1.
</event>
<event>
 7    1  0.1358622E-013  0.7246159E+02  0.7816164E-02  0.1226708E+00
        -11   -1    0    0    0    0  0.00000000000E+00  0.00000000000E+00  0.45593999997E+02  0.45594000000E+02  0.51100000000E-03 0.  1.
         11   -1    0    0    0    0 -0.00000000000E+00 -0.00000000000E+00 -0.45593999997E+02  0.45594000000E+02  0.51100000000E-03 0. -1.
    9900012    2    1    2    0    0  0.10249832041E+01 -0.17607547379E+02 -0.62930284740E+01  0.72461587566E+02  0.70000022500E+02 0.  0.
        -12    1    1    2    0    0 -0.10249832041E+01  0.17607547379E+02  0.62930284740E+01  0.18726412434E+02  0.00000000000E+00 0.  1.
         11    1    3    3    0    0 -0.17169162072E+01  0.14012876222E+02 -0.75126114312E+01  0.15992117810E+02  0.51100000000E-03 0. -1.
        -11    1    3    3    0    0 -0.21534128212E+02 -0.13614419590E+02 -0.40253450418E+01  0.25792915724E+02  0.51100000000E-03 0.  1.
         12    1    3    3    0    0  0.24276027623E+02 -0.18006004011E+02  0.52449279990E+01  0.30676554032E+02  0.00000000000E+00 0. -1.
</event>
<event>
 7    1  0.1358622E-013  0.7246151E+02  0.7816164E-02  0.1226708E+00
        -11   -1    0    0    0    0  0.00000000000E+00  0.00000000000E+00  0.45593999997E+02  0.45594000000E+02  0.51100000000E-03 0.  1.
         11   -1    0    0    0    0 -0.00000000000E+00 -0.00000000000E+00 -0.45593999997E+02  0.45594000000E+02  0.51100000000E-03 0. -1.
    9900012    2    1    2    0    0 -0.20543837075E+01 -0.13125250449E+02 -0.13198059672E+02  0.72461508848E+02  0.69999919955E+02 0.  0.
        -12    1    1    2    0    0  0.20543837075E+01  0.13125250449E+02  0.13198059672E+02  0.18726491152E+02  0.00000000000E+00 0.  1.
         11    1    3    3    0    0 -0.16420850776E+02  0.11028435905E+01  0.24849942869E+01  0.16644392481E+02  0.51100000000E-03 0. -1.
        -11    1    3    3    0    0 -0.78665247513E+01 -0.48491311994E+01  0.14487482323E+02  0.17183813005E+02  0.51100000000E-03 0.  1.
        -12    1    3    3    0    0  0.22232991820E+02 -0.93789628397E+01 -0.30170536282E+02  0.38633303363E+02  0.00000000000E+00 0.  1.
</event>
<event>
 7    1  0.1358622E-013  0.7246153E+02  0.7816164E-02  0.1226708E+00
        -11   -1    0    0    0    0  0.00000000000E+00  0.00000000000E+00  0.45593999997E+02  0.45594000000E+02  0.51100000000E-03 0. -1.
         11   -1    0    0    0    0 -0.00000000000E+00 -0.00000000000E+00 -0.45593999997E+02  0.45594000000E+02  0.51100000000E-03 0.  1.
    9900012    2    1    2    0    0  0.17928776885E+02  0.47652052723E+01  0.25558401527E+01  0.72461533682E+02  0.69999952305E+02 0.  0.
        -12    1    1    2    0    0 -0.17928776885E+02 -0.47652052723E+01 -0.25558401527E+01  0.18726466318E+02  0.00000000000E+00 0.  1.
         11    1    3    3    0    0 -0.22389376195E+01 -0.24765383741E+02 -0.43900746094E+01  0.25250937187E+02  0.51100000000E-03 0. -1.
        -11    1    3    3    0    0  0.15133101840E+02 -0.22772659417E+00 -0.30070120792E+01  0.15430643298E+02  0.51100000000E-03 0.  1.
         12    1    3    3    0    0  0.50346126652E+01  0.29758315607E+02  0.99529268413E+01  0.31779953197E+02  0.00000000000E+00 0. -1.
</event>
<event>
 7    1  0.1358622E-013  0.7246154E+02  0.7816164E-02  0.1226708E+00
        -11   -1    0    0    0    0  0.00000000000E+00  0.00000000000E+00  0.45593999997E+02  0.45594000000E+02  0.51100000000E-03 0.  1.
         11   -1    0    0    0    0 -0.00000000000E+00 -0.00000000000E+00 -0.45593999997E+02  0.45594000000E+02  0.51100000000E-03 0. -1.
    9900012    2    1    2    0    0 -0.29877072057E+01 -0.16565723673E+02 -0.82055280921E+01  0.72461540473E+02  0.69999961152E+02 0.  0.
        -12    1    1    2    0    0  0.29877072057E+01  0.16565723673E+02  0.82055280921E+01  0.18726459527E+02  0.00000000000E+00 0.  1.
         11    1    3    3    0    0  0.20854017930E+02  0.12161439328E+02 -0.16732267543E+02  0.29372767111E+02  0.51100000000E-03 0. -1.
        -11    1    3    3    0    0 -0.80147180948E+01 -0.13119436930E+02 -0.60344952255E+01  0.16515764117E+02  0.51100000000E-03 0.  1.
        -12    1    3    3    0    0 -0.15827007041E+02 -0.15607726072E+02  0.14561234677E+02  0.26573009244E+02  0.00000000000E+00 0.  1.
</event>
<event>
 7    1  0.1358622E-013  0.7246158E+02  0.7816164E-02  0.1226708E+00
        -11   -1    0    0    0    0  0.00000000000E+00  0.00000000000E+00  0.45593999997E+02  0.45594000000E+02  0.51100000000E-03 0.  1.
         11   -1    0    0    0    0 -0.00000000000E+00 -0.00000000000E+00 -0.45593999997E+02  0.45594000000E+02  0.51100000000E-03 0. -1.
    9900012    2    1    2    0    0  0.24624732624E+00 -0.14280475365E+02 -0.12111414595E+02  0.72461575411E+02  0.70000006665E+02 0.  0.
        -12    1    1    2    0    0 -0.24624732624E+00  0.14280475365E+02  0.12111414595E+02  0.18726424589E+02  0.00000000000E+00 0.  1.
         11    1    3    3    0    0  0.16578634577E+02 -0.14779765583E+02  0.12418533312E+01  0.22244882447E+02  0.51100000000E-03 0. -1.
        -11    1    3    3    0    0 -0.11739505533E+02 -0.13146647443E+02  0.11816455037E+02  0.21219777074E+02  0.51100000000E-03 0.  1.
         12    1    3    3    0    0 -0.45928817177E+01  0.13645937661E+02 -0.25169722963E+02  0.28996915890E+02  0.00000000000E+00 0. -1.
</event>
<event>
 7    1  0.1358622E-013  0.7246154E+02  0.7816164E-02  0.1226708E+00
        -11   -1    0    0    0    0  0.00000000000E+00  0.00000000000E+00  0.45593999997E+02  0.45594000000E+02  0.51100000000E-03 0. -1.
         11   -1    0    0    0    0 -0.00000000000E+00 -0.00000000000E+00 -0.45593999997E+02  0.45594000000E+02  0.51100000000E-03 0.  1.
    9900012    2    1    2    0    0  0.15997167939E+02 -0.41268894575E+01  0.88170036633E+01  0.72461544055E+02  0.69999965818E+02 0.  0.
        -12    1    1    2    0    0 -0.15997167939E+02  0.41268894575E+01 -0.88170036633E+01  0.18726455945E+02  0.00000000000E+00 0.  1.
         11    1    3    3    0    0  0.27046823994E+01  0.69681213290E+01  0.92813809186E+01  0.11916964956E+02  0.51100000000E-03 0. -1.
        -11    1    3    3    0    0  0.13355376064E+02  0.22886894001E+02 -0.15652142671E+01  0.26544790125E+02  0.51100000000E-03 0.  1.
         12    1    3    3    0    0 -0.62890524349E-01 -0.33981904787E+02  0.11008370118E+01  0.33999788975E+02  0.00000000000E+00 0. -1.
</event>
<event>
 7    1  0.1374151E-013  0.7246160E+02  0.7816164E-02  0.1226708E+00
        -11   -1    0    0    0    0  0.00000000000E+00  0.00000000000E+00  0.45593999997E+02  0.45594000000E+02  0.51100000000E-03 0. -1.
         11   -1    0    0    0    0 -0.00000000000E+00 -0.00000000000E+00 -0.45593999997E+02  0.45594000000E+02  0.51100000000E-03 0.  1.
    9900012    2    1    2    0    0 -0.11285727700E+02 -0.59412061445E+01  0.13711764972E+02  0.72461599416E+02  0.70000037937E+02 0.  0.
        -12    1    1    2    0    0  0.11285727700E+02  0.59412061445E+01 -0.13711764972E+02  0.18726400584E+02  0.00000000000E+00 0.  1.
         11    1    3    3    0    0 -0.10089494678E+02  0.21648982326E+02  0.25686575277E+02  0.35075297409E+02  0.51100000000E-03 0. -1.
        -11    1    3    3    0    0  0.35727976432E+00  0.31563705767E+01  0.18091333540E+01  0.36555831000E+01  0.51100000000E-03 0.  1.
        -12    1    3    3    0    0 -0.15535127859E+01 -0.30746559047E+02 -0.13783943658E+02  0.33730718907E+02  0.00000000000E+00 0.  1.
</event>
<event>
 7    1  0.1358622E-013  0.7246154E+02  0.7816164E-02  0.1226708E+00
        -11   -1    0    0    0    0  0.00000000000E+00  0.00000000000E+00  0.45593999997E+02  0.45594000000E+02  0.51100000000E-03 0. -1.
         11   -1    0    0    0    0 -0.00000000000E+00 -0.00000000000E+00 -0.45593999997E+02  0.45594000000E+02  0.51100000000E-03 0.  1.
    9900012    2    1    2    0    0 -0.13444394659E+02  0.89271383056E+01  0.94992028980E+01  0.72461537393E+02  0.69999957140E+02 0.  0.
        -12    1    1    2    0    0  0.13444394659E+02 -0.89271383056E+01 -0.94992028980E+01  0.18726462607E+02  0.00000000000E+00 0.  1.
         11    1    3    3    0    0 -0.81265777417E+01  0.28909280197E+01 -0.17569789878E+02  0.19572844638E+02  0.51100000000E-03 0. -1.
        -11    1    3    3    0    0 -0.76276649386E+01  0.24370453593E+02  0.90884085553E+01  0.27105339900E+02  0.51100000000E-03 0.  1.
         12    1    3    3    0    0  0.23098480210E+01 -0.18334243308E+02  0.17980584220E+02  0.25783352855E+02  0.00000000000E+00 0. -1.
</event>
<event>
 7    1  0.1358622E-013  0.7246153E+02  0.7816164E-02  0.1226708E+00
        -11   -1    0    0    0    0  0.00000000000E+00  0.00000000000E+00  0.45593999997E+02  0.45594000000E+02  0.51100000000E-03 0.  1.
         11   -1    0    0    0    0 -0.00000000000E+00 -0.00000000000E+00 -0.45593999997E+02  0.45594000000E+02  0.51100000000E-03 0. -1.
    9900012    2    1    2    0    0 -0.14646081058E+02  0.10539025580E+02 -0.50101660556E+01  0.72461534385E+02  0.69999953221E+02 0.  0.
        -12    1    1    2    0    0  0.14646081058E+02 -0.10539025580E+02  0.50101660556E+01  0.18726465615E+02  0.00000000000E+00 0.  1.
         11    1    3    3    0    0  0.16466889805E+02  0.11579746336E+02 -0.14184742263E+02  0.24626325312E+02  0.51100000000E-03 0. -1.
        -11    1    3    3    0    0 -0.26667178136E+02  0.13642107290E+02 -0.11556648246E-01  0.29954058404E+02  0.51100000000E-03 0.  1.
        -12    1    3    3    0    0 -0.44457927269E+01 -0.14682828046E+02  0.91861328555E+01  0.17881150668E+02  0.00000000000E+00 0.  1.
</event>
<event>
 7    1  0.1358622E-013  0.7246155E+02  0.7816164E-02  0.1226708E+00
        -11   -1    0    0    0    0  0.00000000000E+00  0.00000000000E+00  0.45593999997E+02  0.45594000000E+02  0.51100000000E-03 0. -1.
         11   -1    0    0    0    0 -0.00000000000E+00 -0.00000000000E+00 -0.45593999997E+02  0.45594000000E+02  0.51100000000E-03 0.  1.
    9900012    2    1    2    0    0 -0.12396166531E+02  0.13978751475E+02 -0.12686390874E+01  0.72461551255E+02  0.69999975198E+02 0.  0.
        -12    1    1    2    0    0  0.12396166531E+02 -0.13978751475E+02  0.12686390874E+01  0.18726448745E+02  0.00000000000E+00 0.  1.
         11    1    3    3    0    0 -0.40272591168E+00  0.19685241950E+00 -0.61917795053E+01  0.62079845955E+01  0.51100000000E-03 0. -1.
        -11    1    3    3    0    0 -0.58160878709E+01 -0.50504302159E+01 -0.27331510776E+02  0.28396218147E+02  0.51100000000E-03 0.  1.
         12    1    3    3    0    0 -0.61773527482E+01  0.18832329271E+02  0.32254651194E+02  0.37857348513E+02  0.00000000000E+00 0. -1.
</event>
<event>
 7    1  0.1358622E-013  0.7246160E+02  0.7816164E-02  0.1226708E+00
        -11   -1    0    0    0    0  0.00000000000E+00  0.00000000000E+00  0.45593999997E+02  0.45594000000E+02  0.51100000000E-03 0.  1.
         11   -1    0    0    0    0 -0.00000000000E+00 -0.00000000000E+00 -0.45593999997E+02  0.45594000000E+02  0.51100000000E-03 0. -1.
    9900012    2    1    2    0    0 -0.15032303216E+01  0.26871133874E+01 -0.18471542778E+02  0.72461596919E+02  0.70000034683E+02 0.  0.
        -12    1    1    2    0    0  0.15032303216E+01 -0.26871133874E+01  0.18471542778E+02  0.18726403081E+02  0.00000000000E+00 0.  1.
         11    1    3    3    0    0  0.74614220757E+01 -0.88143097144E+01 -0.24043233272E+02  0.26672869017E+02  0.51100000000E-03 0. -1.
        -11    1    3    3    0    0 -0.81016000407E+01 -0.10233046254E+02 -0.12073723944E+02  0.17779931636E+02  0.51100000000E-03 0.  1.
        -12    1    3    3    0    0 -0.86305235659E+00  0.21734469356E+02  0.17645414438E+02  0.28008796266E+02  0.00000000000E+00 0.  1.
</event>
<event>
 7    1  0.1358622E-013  0.7246166E+02  0.7816164E-02  0.1226708E+00
        -11   -1    0    0    0    0  0.00000000000E+00  0.00000000000E+00  0.45593999997E+02  0.45594000000E+02  0.51100000000E-03 0. -1.
         11   -1    0    0    0    0 -0.00000000000E+00 -0.00000000000E+00 -0.45593999997E+02  0.45594000000E+02  0.51100000000E-03 0.  1.
    9900012    2    1    2    0    0  0.62429987491E+01  0.46922542955E+01  0.17020090079E+02  0.72461661596E+02  0.70000118937E+02 0.  0.
        -12    1    1    2    0    0 -0.62429987491E+01 -0.46922542955E+01 -0.17020090079E+02  0.18726338404E+02  0.00000000000E+00 0.  1.
         11    1    3    3    0    0  0.24866439808E+02 -0.13992093846E+02  0.27553086114E+02  0.39664733373E+02  0.51100000000E-03 0. -1.
        -11    1    3    3    0    0  0.17581563792E+01  0.36828328668E+01  0.20131373103E+01  0.45505047928E+01  0.51100000000E-03 0.  1.
        -12    1    3    3    0    0 -0.20381597438E+02  0.15001515274E+02 -0.12546133345E+02  0.28246423430E+02  0.00000000000E+00 0.  1.
</event>
<event>
 7    1  0.1358622E-013  0.7246163E+02  0.7816164E-02  0.1226708E+00
        -11   -1    0    0    0    0  0.00000000000E+00  0.00000000000E+00  0.45593999997E+02  0.45594000000E+02  0.51100000000E-03 0.  1.
         11   -1    0    0    0    0 -0.00000000000E+00 -0.00000000000E+00 -0.45593999997E+02  0.45594000000E+02  0.51100000000E-03 0. -1.
    9900012    2    1    2    0    0  0.96621168414E+01 -0.11789622463E+02 -0.10877733922E+02  0.72461633696E+02  0.70000082592E+02 0.  0.
        -12    1    1    2    0    0 -0.96621168414E+01  0.11789622463E+02  0.10877733922E+02  0.18726366304E+02  0.00000000000E+00 0.  1.
         11    1    3    3    0    0  0.34131245361E+01 -0.15079321890E+02 -0.12857740772E+02  0.20108626650E+02  0.51100000000E-03 0. -1.
        -11    1    3    3    0    0 -0.34101874552E+01 -0.19687199106E+02 -0.12460468281E+02  0.23547366247E+02  0.51100000000E-03 0.  1.
        -12    1    3    3    0    0  0.96591797605E+01  0.22976898533E+02  0.14440475131E+02  0.28805640799E+02  0.00000000000E+00 0.  1.
</event>
<event>
 7    1  0.1358622E-013  0.7246170E+02  0.7816164E-02  0.1226708E+00
        -11   -1    0    0    0    0  0.00000000000E+00  0.00000000000E+00  0.45593999997E+02  0.45594000000E+02  0.51100000000E-03 0.  1.
         11   -1    0    0    0    0 -0.00000000000E+00 -0.00000000000E+00 -0.45593999997E+02  0.45594000000E+02  0.51100000000E-03 0. -1.
    9900012    2    1    2    0    0  0.40668618018E+01 -0.90232868313E+01 -0.15897018869E+02  0.72461700870E+02  0.70000170099E+02 0.  0.
        -12    1    1    2    0    0 -0.40668618018E+01  0.90232868313E+01  0.15897018869E+02  0.18726299130E+02  0.00000000000E+00 0.  1.
         11    1    3    3    0    0 -0.98689436420E+01 -0.27030934246E+02 -0.27581322799E+02  0.39859714279E+02  0.51100000000E-03 0. -1.
        -11    1    3    3    0    0  0.85590834711E+01  0.12249021680E+02 -0.36320015026E+01  0.15378162347E+02  0.51100000000E-03 0.  1.
        -12    1    3    3    0    0  0.53767219727E+01  0.57586257348E+01  0.15316305432E+02  0.17223824245E+02  0.00000000000E+00 0.  1.
</event>
<event>
 7    1  0.1358622E-013  0.7246158E+02  0.7816164E-02  0.1226708E+00
        -11   -1    0    0    0    0  0.00000000000E+00  0.00000000000E+00  0.45593999997E+02  0.45594000000E+02  0.51100000000E-03 0.  1.
         11   -1    0    0    0    0 -0.00000000000E+00 -0.00000000000E+00 -0.45593999997E+02  0.45594000000E+02  0.51100000000E-03 0. -1.
    9900012    2    1    2    0    0  0.73929539022E+01 -0.88359610059E+01 -0.14763085952E+02  0.72461583335E+02  0.70000016988E+02 0.  0.
        -12    1    1    2    0    0 -0.73929539022E+01  0.88359610059E+01  0.14763085952E+02  0.18726416665E+02  0.00000000000E+00 0.  1.
         11    1    3    3    0    0 -0.49897536237E+00  0.27483080012E+02 -0.36985635685E+01  0.27735321093E+02  0.51100000000E-03 0. -1.
        -11    1    3    3    0    0  0.16731226251E+01  0.28589867785E+01 -0.24837031804E+01  0.41402809649E+01  0.51100000000E-03 0.  1.
        -12    1    3    3    0    0  0.62188066395E+01 -0.39178027797E+02 -0.85808192030E+01  0.40585981277E+02  0.00000000000E+00 0.  1.
</event>
<event>
 7    1  0.1358622E-013  0.7246149E+02  0.7816164E-02  0.1226708E+00
        -11   -1    0    0    0    0  0.00000000000E+00  0.00000000000E+00  0.45593999997E+02  0.45594000000E+02  0.51100000000E-03 0.  1.
         11   -1    0    0    0    0 -0.00000000000E+00 -0.00000000000E+00 -0.45593999997E+02  0.45594000000E+02  0.51100000000E-03 0. -1.
    9900012    2    1    2    0    0  0.17899020952E+02  0.45305422152E+01 -0.31275215019E+01  0.72461490593E+02  0.69999896174E+02 0.  0.
        -12    1    1    2    0    0 -0.17899020952E+02 -0.45305422152E+01  0.31275215019E+01  0.18726509407E+02  0.00000000000E+00 0.  1.
         11    1    3    3    0    0  0.25547277545E+02 -0.10587003124E+02 -0.76837912274E+01  0.28701718990E+02  0.51100000000E-03 0. -1.
        -11    1    3    3    0    0 -0.13738240312E+02 -0.13163000570E+01 -0.12995074700E+02  0.18956367253E+02  0.51100000000E-03 0.  1.
        -12    1    3    3    0    0  0.60899837187E+01  0.16433845396E+02  0.17551344426E+02  0.24803404350E+02  0.00000000000E+00 0.  1.
</event>
<event>
 7    1  0.1358622E-013  0.7246159E+02  0.7816164E-02  0.1226708E+00
        -11   -1    0    0    0    0  0.00000000000E+00  0.00000000000E+00  0.45593999997E+02  0.45594000000E+02  0.51100000000E-03 0.  1.
         11   -1    0    0    0    0 -0.00000000000E+00 -0.00000000000E+00 -0.45593999997E+02  0.45594000000E+02  0.51100000000E-03 0. -1.
    9900012    2    1    2    0    0 -0.15960989494E+02  0.29672094929E+01 -0.93338625463E+01  0.72461587962E+02  0.70000023015E+02 0.  0.
        -12    1    1    2    0    0  0.15960989494E+02 -0.29672094929E+01  0.93338625463E+01  0.18726412038E+02  0.00000000000E+00 0.  1.
         11    1    3    3    0    0 -0.15195413672E+02  0.31820158209E+01  0.40766945814E+01  0.16051332042E+02  0.51100000000E-03 0. -1.
        -11    1    3    3    0    0  0.49737689954E+01  0.13302741144E+02  0.17291780699E+02  0.22376482743E+02  0.51100000000E-03 0.  1.
         12    1    3    3    0    0 -0.57393448174E+01 -0.13517547472E+02 -0.30702337827E+02  0.34033773176E+02  0.00000000000E+00 0. -1.
</event>
<event>
 7    1  0.1358622E-013  0.7246138E+02  0.7816164E-02  0.1226709E+00
        -11   -1    0    0    0    0  0.00000000000E+00  0.00000000000E+00  0.45593999997E+02  0.45594000000E+02  0.51100000000E-03 0.  1.
         11   -1    0    0    0    0 -0.00000000000E+00 -0.00000000000E+00 -0.45593999997E+02  0.45594000000E+02  0.51100000000E-03 0. -1.
    9900012    2    1    2    0    0 -0.12016213766E+02  0.14219082958E+02  0.20284344252E+01  0.72461380987E+02  0.69999753392E+02 0.  0.
        -12    1    1    2    0    0  0.12016213766E+02 -0.14219082958E+02 -0.20284344252E+01  0.18726619013E+02  0.00000000000E+00 0.  1.
         11    1    3    3    0    0 -0.32029278079E+01 -0.18589233978E+02 -0.44441047290E+01  0.19379588064E+02  0.51100000000E-03 0. -1.
        -11    1    3    3    0    0  0.12693684960E+02 -0.24502556148E+00  0.49224932249E+01  0.13616923853E+02  0.51100000000E-03 0.  1.
         12    1    3    3    0    0 -0.21506970918E+02  0.33053342498E+02  0.15500459293E+01  0.39464869070E+02  0.00000000000E+00 0. -1.
</event>
<event>
 7    1  0.1358622E-013  0.7246161E+02  0.7816164E-02  0.1226708E+00
        -11   -1    0    0    0    0  0.00000000000E+00  0.00000000000E+00  0.45593999997E+02  0.45594000000E+02  0.51100000000E-03 0. -1.
         11   -1    0    0    0    0 -0.00000000000E+00 -0.00000000000E+00 -0.45593999997E+02  0.45594000000E+02  0.51100000000E-03 0.  1.
    9900012    2    1    2    0    0 -0.62109565543E+01 -0.50710921822E+01 -0.16922938916E+02  0.72461606359E+02  0.70000046981E+02 0.  0.
        -12    1    1    2    0    0  0.62109565543E+01  0.50710921822E+01  0.16922938916E+02  0.18726393641E+02  0.00000000000E+00 0.  1.
         11    1    3    3    0    0  0.87832871880E+01 -0.17856738448E+02  0.17608210116E+02  0.26571757668E+02  0.51100000000E-03 0. -1.
        -11    1    3    3    0    0 -0.50790921848E+01 -0.42621195826E+01 -0.61789054710E+00  0.66591763565E+01  0.51100000000E-03 0.  1.
        -12    1    3    3    0    0 -0.99151515574E+01  0.17047765848E+02 -0.33913258484E+02  0.39230672335E+02  0.00000000000E+00 0.  1.
</event>
<event>
 7    1  0.1358622E-013  0.7246102E+02  0.7816164E-02  0.1226709E+00
        -11   -1    0    0    0    0  0.00000000000E+00  0.00000000000E+00  0.45593999997E+02  0.45594000000E+02  0.51100000000E-03 0. -1.
         11   -1    0    0    0    0 -0.00000000000E+00 -0.00000000000E+00 -0.45593999997E+02  0.45594000000E+02  0.51100000000E-03 0.  1.
    9900012    2    1    2    0    0 -0.10063215128E+02  0.14570129794E+01  0.15726051380E+02  0.72461017394E+02  0.69999279740E+02 0.  0.
        -12    1    1    2    0    0  0.10063215128E+02 -0.14570129794E+01 -0.15726051380E+02  0.18726982606E+02  0.00000000000E+00 0.  1.
         11    1    3    3    0    0  0.35774135228E+00 -0.23889978664E+02  0.40112256840E+01  0.24227030176E+02  0.51100000000E-03 0. -1.
        -11    1    3    3    0    0  0.72948939932E+01 -0.47139061257E+01  0.10075985011E+02  0.13302701362E+02  0.51100000000E-03 0.  1.
        -12    1    3    3    0    0 -0.17715850474E+02  0.30060897769E+02  0.16388406846E+01  0.34931285855E+02  0.00000000000E+00 0.  1.
</event>
<event>
 7    1  0.1358622E-013  0.7246157E+02  0.7816164E-02  0.1226708E+00
        -11   -1    0    0    0    0  0.00000000000E+00  0.00000000000E+00  0.45593999997E+02  0.45594000000E+02  0.51100000000E-03 0.  1.
         11   -1    0    0    0    0 -0.00000000000E+00 -0.00000000000E+00 -0.45593999997E+02  0.45594000000E+02  0.51100000000E-03 0. -1.
    9900012    2    1    2    0    0  0.16808143872E+02  0.33553243229E+01 -0.75436833698E+01  0.72461573205E+02  0.70000003792E+02 0.  0.
        -12    1    1    2    0    0 -0.16808143872E+02 -0.33553243229E+01  0.75436833698E+01  0.18726426795E+02  0.00000000000E+00 0.  1.
         11    1    3    3    0    0 -0.17238590144E+02 -0.69239832099E+01  0.78888750896E+00  0.18593893552E+02  0.51100000000E-03 0. -1.
        -11    1    3    3    0    0  0.10519652334E+02 -0.15060788993E+02 -0.32153965402E+00  0.18373726849E+02  0.51100000000E-03 0.  1.
        -12    1    3    3    0    0  0.23527081682E+02  0.25340096525E+02 -0.80110312247E+01  0.35493952804E+02  0.00000000000E+00 0.  1.
</event>
<event>
 7    1  0.1358622E-013  0.7246158E+02  0.7816164E-02  0.1226708E+00
        -11   -1    0    0    0    0  0.00000000000E+00  0.00000000000E+00  0.45593999997E+02  0.45594000000E+02  0.51100000000E-03 0. -1.
         11   -1    0    0    0    0 -0.00000000000E+00 -0.00000000000E+00 -0.45593999997E+02  0.45594000000E+02  0.51100000000E-03 0.  1.
    9900012    2    1    2    0    0  0.99289812484E+01  0.22883953551E+01  0.15711699523E+02  0.72461576854E+02  0.70000008545E+02 0.  0.
        -12    1    1    2    0    0 -0.99289812484E+01 -0.22883953551E+01 -0.15711699523E+02  0.18726423146E+02  0.00000000000E+00 0.  1.
         11    1    3    3    0    0  0.84495635068E+01 -0.29446869405E+01  0.13332803113E+02  0.16057083912E+02  0.51100000000E-03 0. -1.
        -11    1    3    3    0    0  0.15985541615E+02 -0.18378568816E+02 -0.96432771447E+01  0.26197368700E+02  0.51100000000E-03 0.  1.
         12    1    3    3    0    0 -0.14506123874E+02  0.23611651111E+02  0.12022173555E+02  0.30207124243E+02  0.00000000000E+00 0. -1.
</event>
<event>
 7    1  0.1358622E-013  0.7246169E+02  0.7816164E-02  0.1226708E+00
        -11   -1    0    0    0    0  0.00000000000E+00  0.00000000000E+00  0.45593999997E+02  0.45594000000E+02  0.51100000000E-03 0.  1.
         11   -1    0    0    0    0 -0.00000000000E+00 -0.00000000000E+00 -0.45593999997E+02  0.45594000000E+02  0.51100000000E-03 0. -1.
    9900012    2    1    2    0    0  0.95214287648E+01  0.16072482260E+02  0.13009189028E+01  0.72461690120E+02  0.70000156095E+02 0.  0.
        -12    1    1    2    0    0 -0.95214287648E+01 -0.16072482260E+02 -0.13009189028E+01  0.18726309880E+02  0.00000000000E+00 0.  1.
         11    1    3    3    0    0  0.96202761153E+01 -0.55399711917E+01 -0.18690708743E+02  0.21738987716E+02  0.51100000000E-03 0. -1.
        -11    1    3    3    0    0  0.81660512927E+01 -0.43210532742E+01 -0.76014660796E+01  0.11964037025E+02  0.51100000000E-03 0.  1.
        -12    1    3    3    0    0 -0.82648986432E+01  0.25933506726E+02  0.27593093725E+02  0.38758665380E+02  0.00000000000E+00 0.  1.
</event>
<event>
 7    1  0.1358622E-013  0.7246153E+02  0.7816164E-02  0.1226708E+00
        -11   -1    0    0    0    0  0.00000000000E+00  0.00000000000E+00  0.45593999997E+02  0.45594000000E+02  0.51100000000E-03 0. -1.
         11   -1    0    0    0    0 -0.00000000000E+00 -0.00000000000E+00 -0.45593999997E+02  0.45594000000E+02  0.51100000000E-03 0.  1.
    9900012    2    1    2    0    0 -0.16587071674E+02 -0.11415761174E+01  0.86166381633E+01  0.72461532207E+02  0.69999950385E+02 0.  0.
        -12    1    1    2    0    0  0.16587071674E+02  0.11415761174E+01 -0.86166381633E+01  0.18726467793E+02  0.00000000000E+00 0.  1.
         11    1    3    3    0    0 -0.26793016047E+02 -0.10360091453E+02 -0.54441913779E+01  0.29237585807E+02  0.51100000000E-03 0. -1.
        -11    1    3    3    0    0 -0.14484558191E+02  0.52151549630E+01  0.85551058877E+01  0.17612214634E+02  0.51100000000E-03 0.  1.
         12    1    3    3    0    0  0.24690502564E+02  0.40033603723E+01  0.55057236536E+01  0.25611731767E+02  0.00000000000E+00 0. -1.
</event>
<event>
 7    1  0.1358622E-013  0.7246156E+02  0.7816164E-02  0.1226708E+00
        -11   -1    0    0    0    0  0.00000000000E+00  0.00000000000E+00  0.45593999997E+02  0.45594000000E+02  0.51100000000E-03 0.  1.
         11   -1    0    0    0    0 -0.00000000000E+00 -0.00000000000E+00 -0.45593999997E+02  0.45594000000E+02  0.51100000000E-03 0. -1.
    9900012    2    1    2    0    0 -0.80109050114E+01  0.84086103305E+00 -0.16905553503E+02  0.72461564525E+02  0.69999992484E+02 0.  0.
        -12    1    1    2    0    0  0.80109050114E+01 -0.84086103305E+00  0.16905553503E+02  0.18726435475E+02  0.00000000000E+00 0.  1.
         11    1    3    3    0    0  0.81042101772E+01 -0.96961094900E+01 -0.21688475091E+02  0.25101448442E+02  0.51100000000E-03 0. -1.
        -11    1    3    3    0    0  0.83702830940E+01 -0.70576650922E+01 -0.90331566579E+01  0.14194019695E+02  0.51100000000E-03 0.  1.
        -12    1    3    3    0    0 -0.24485398283E+02  0.17594635615E+02  0.13816078246E+02  0.33166096388E+02  0.00000000000E+00 0.  1.
</event>
<event>
 7    1  0.1358622E-013  0.7246104E+02  0.7816164E-02  0.1226709E+00
        -11   -1    0    0    0    0  0.00000000000E+00  0.00000000000E+00  0.45593999997E+02  0.45594000000E+02  0.51100000000E-03 0.  1.
         11   -1    0    0    0    0 -0.00000000000E+00 -0.00000000000E+00 -0.45593999997E+02  0.45594000000E+02  0.51100000000E-03 0. -1.
    9900012    2    1    2    0    0 -0.18137306244E+02  0.18092153303E+01  0.42969731002E+01  0.72461037734E+02  0.69999306238E+02 0.  0.
        -12    1    1    2    0    0  0.18137306244E+02 -0.18092153303E+01 -0.42969731002E+01  0.18726962266E+02  0.00000000000E+00 0.  1.
         11    1    3    3    0    0 -0.11864166529E+02 -0.12210173685E+02 -0.10806160542E+02  0.20164818243E+02  0.51100000000E-03 0. -1.
        -11    1    3    3    0    0 -0.26589739326E+02  0.25023145349E+01  0.76312932180E+01  0.27776112973E+02  0.51100000000E-03 0.  1.
        -12    1    3    3    0    0  0.20316599611E+02  0.11517074481E+02  0.74718404246E+01  0.24520106518E+02  0.00000000000E+00 0.  1.
</event>
<event>
 7    1  0.1358622E-013  0.7246157E+02  0.7816164E-02  0.1226708E+00
        -11   -1    0    0    0    0  0.00000000000E+00  0.00000000000E+00  0.45593999997E+02  0.45594000000E+02  0.51100000000E-03 0. -1.
         11   -1    0    0    0    0 -0.00000000000E+00 -0.00000000000E+00 -0.45593999997E+02  0.45594000000E+02  0.51100000000E-03 0.  1.
    9900012    2    1    2    0    0 -0.99326343477E+01 -0.10753980926E+02  0.11677915712E+02  0.72461573586E+02  0.70000004288E+02 0.  0.
        -12    1    1    2    0    0  0.99326343477E+01  0.10753980926E+02 -0.11677915712E+02  0.18726426414E+02  0.00000000000E+00 0.  1.
         11    1    3    3    0    0 -0.19506897468E+02  0.65081040870E+01  0.14632576555E+02  0.25238596723E+02  0.51100000000E-03 0. -1.
        -11    1    3    3    0    0 -0.38704480842E+01  0.83532086810E+01  0.11623804191E+02  0.14827990011E+02  0.51100000000E-03 0.  1.
        -12    1    3    3    0    0  0.13444711204E+02 -0.25615293695E+02 -0.14578465034E+02  0.32394986853E+02  0.00000000000E+00 0.  1.
</event>
<event>
 7    1  0.1358622E-013  0.7246160E+02  0.7816164E-02  0.1226708E+00
        -11   -1    0    0    0    0  0.00000000000E+00  0.00000000000E+00  0.45593999997E+02  0.45594000000E+02  0.51100000000E-03 0.  1.
         11   -1    0    0    0    0 -0.00000000000E+00 -0.00000000000E+00 -0.45593999997E+02  0.45594000000E+02  0.51100000000E-03 0. -1.
    9900012    2    1    2    0    0  0.61323415701E+01 -0.12216454561E+02 -0.12799631912E+02  0.72461602796E+02  0.70000042339E+02 0.  0.
        -12    1    1    2    0    0 -0.61323415701E+01  0.12216454561E+02  0.12799631912E+02  0.18726397204E+02  0.00000000000E+00 0.  1.
         11    1    3    3    0    0  0.18700597713E+02 -0.15776866667E+02 -0.15198186349E+02  0.28802894736E+02  0.51100000000E-03 0. -1.
        -11    1    3    3    0    0  0.47119631477E+01 -0.16015411447E+02  0.49763704116E+01  0.17420110885E+02  0.51100000000E-03 0.  1.
        -12    1    3    3    0    0 -0.17280219290E+02  0.19575823553E+02 -0.25778159745E+01  0.26238597174E+02  0.00000000000E+00 0.  1.
</event>
<event>
 7    1  0.1358622E-013  0.7246158E+02  0.7816164E-02  0.1226708E+00
        -11   -1    0    0    0    0  0.00000000000E+00  0.00000000000E+00  0.45593999997E+02  0.45594000000E+02  0.51100000000E-03 0.  1.
         11   -1    0    0    0    0 -0.00000000000E+00 -0.00000000000E+00 -0.45593999997E+02  0.45594000000E+02  0.51100000000E-03 0. -1.
    9900012    2    1    2    0    0  0.14379597840E+02 -0.11465324162E+02 -0.35287600401E+01  0.72461584443E+02  0.70000018431E+02 0.  0.
        -12    1    1    2    0    0 -0.14379597840E+02  0.11465324162E+02  0.35287600401E+01  0.18726415557E+02  0.00000000000E+00 0.  1.
         11    1    3    3    0    0 -0.25006521757E+01 -0.43624142509E+01  0.68838530401E+01  0.85247494004E+01  0.51100000000E-03 0. -1.
        -11    1    3    3    0    0  0.15675805275E+02  0.12703930446E+02  0.19487345774E+02  0.28051334467E+02  0.51100000000E-03 0.  1.
         12    1    3    3    0    0  0.12044447408E+01 -0.19806840358E+02 -0.29899958854E+02  0.35885500576E+02  0.00000000000E+00 0. -1.
</event>
<event>
 7    1  0.1358622E-013  0.7246154E+02  0.7816164E-02  0.1226708E+00
        -11   -1    0    0    0    0  0.00000000000E+00  0.00000000000E+00  0.45593999997E+02  0.45594000000E+02  0.51100000000E-03 0.  1.
         11   -1    0    0    0    0 -0.00000000000E+00 -0.00000000000E+00 -0.45593999997E+02  0.45594000000E+02  0.51100000000E-03 0. -1.
    9900012    2    1    2    0    0 -0.69025805499E+01  0.17406832049E+02 -0.19206947136E+00  0.72461539819E+02  0.69999960300E+02 0.  0.
        -12    1    1    2    0    0  0.69025805499E+01 -0.17406832049E+02  0.19206947136E+00  0.18726460181E+02  0.00000000000E+00 0.  1.
         11    1    3    3    0    0  0.19363231751E+01 -0.31081799439E+01  0.70694688775E+01  0.79616280040E+01  0.51100000000E-03 0. -1.
        -11    1    3    3    0    0 -0.20190521527E+02  0.75803775334E+01  0.21838067878E+02  0.30692352337E+02  0.51100000000E-03 0.  1.
         12    1    3    3    0    0  0.11351617802E+02  0.12934634460E+02 -0.29099606226E+02  0.33807559478E+02  0.00000000000E+00 0. -1.
</event>
<event>
 7    1  0.1358622E-013  0.7246158E+02  0.7816164E-02  0.1226708E+00
        -11   -1    0    0    0    0  0.00000000000E+00  0.00000000000E+00  0.45593999997E+02  0.45594000000E+02  0.51100000000E-03 0.  1.
         11   -1    0    0    0    0 -0.00000000000E+00 -0.00000000000E+00 -0.45593999997E+02  0.45594000000E+02  0.51100000000E-03 0. -1.
    9900012    2    1    2    0    0 -0.12961164570E+02 -0.13301069739E+02  0.24017555507E+01  0.72461583553E+02  0.70000017272E+02 0.  0.
        -12    1    1    2    0    0  0.12961164570E+02  0.13301069739E+02 -0.24017555507E+01  0.18726416447E+02  0.00000000000E+00 0.  1.
         11    1    3    3    0    0 -0.33055662171E+02 -0.43212740718E+01  0.93991910245E+00  0.33350167306E+02  0.51100000000E-03 0. -1.
        -11    1    3    3    0    0  0.76495908168E+01 -0.18003719711E+02  0.95201228366E+01  0.21755066127E+02  0.51100000000E-03 0.  1.
        -12    1    3    3    0    0  0.12444906784E+02  0.90239240434E+01 -0.80582863883E+01  0.17356350121E+02  0.00000000000E+00 0.  1.
</event>
<event>
 7    1  0.1358622E-013  0.7246158E+02  0.7816164E-02  0.1226708E+00
        -11   -1    0    0    0    0  0.00000000000E+00  0.00000000000E+00  0.45593999997E+02  0.45594000000E+02  0.51100000000E-03 0.  1.
         11   -1    0    0    0    0 -0.00000000000E+00 -0.00000000000E+00 -0.45593999997E+02  0.45594000000E+02  0.51100000000E-03 0. -1.
    9900012    2    1    2    0    0  0.16325719959E+02  0.43111476992E+01 -0.80971311123E+01  0.72461583928E+02  0.70000017760E+02 0.  0.
        -12    1    1    2    0    0 -0.16325719959E+02 -0.43111476992E+01  0.80971311123E+01  0.18726416072E+02  0.00000000000E+00 0.  1.
         11    1    3    3    0    0  0.87109603226E+01  0.15191698281E+02 -0.16432829328E+02  0.24014712290E+02  0.51100000000E-03 0. -1.
        -11    1    3    3    0    0  0.17423725934E+01 -0.19086130300E+02 -0.14135289648E+02  0.23814336980E+02  0.51100000000E-03 0.  1.
        -12    1    3    3    0    0  0.58723870431E+01  0.82055797186E+01  0.22470987863E+02  0.24632534658E+02  0.00000000000E+00 0.  1.
</event>
<event>
 7    1  0.1358622E-013  0.7246153E+02  0.7816164E-02  0.1226708E+00
        -11   -1    0    0    0    0  0.00000000000E+00  0.00000000000E+00  0.45593999997E+02  0.45594000000E+02  0.51100000000E-03 0.  1.
         11   -1    0    0    0    0 -0.00000000000E+00 -0.00000000000E+00 -0.45593999997E+02  0.45594000000E+02  0.51100000000E-03 0. -1.
    9900012    2    1    2    0    0  0.15336792623E+02  0.45090615112E+01 -0.97535463013E+01  0.72461534526E+02  0.69999953405E+02 0.  0.
        -12    1    1    2    0    0 -0.15336792623E+02 -0.45090615112E+01  0.97535463013E+01  0.18726465474E+02  0.00000000000E+00 0.  1.
         11    1    3    3    0    0 -0.67577567200E+01  0.53186327595E+01  0.21698867490E+01  0.88692468159E+01  0.51100000000E-03 0. -1.
        -11    1    3    3    0    0  0.32607639648E+02  0.11545670394E+02  0.10286592272E+02  0.36088428188E+02  0.51100000000E-03 0.  1.
         12    1    3    3    0    0 -0.10513090305E+02 -0.12355241643E+02 -0.22210025322E+02  0.27503859522E+02  0.00000000000E+00 0. -1.
</event>
<event>
 7    1  0.1358622E-013  0.7246104E+02  0.7816164E-02  0.1226709E+00
        -11   -1    0    0    0    0  0.00000000000E+00  0.00000000000E+00  0.45593999997E+02  0.45594000000E+02  0.51100000000E-03 0.  1.
         11   -1    0    0    0    0 -0.00000000000E+00 -0.00000000000E+00 -0.45593999997E+02  0.45594000000E+02  0.51100000000E-03 0. -1.
    9900012    2    1    2    0    0  0.32788132623E+01  0.15797544968E+02 -0.95071610999E+01  0.72461036669E+02  0.69999304850E+02 0.  0.
        -12    1    1    2    0    0 -0.32788132623E+01 -0.15797544968E+02  0.95071610999E+01  0.18726963331E+02  0.00000000000E+00 0.  1.
         11    1    3    3    0    0  0.30441325480E+00  0.13596766162E+01  0.16292517364E+01  0.21437932298E+01  0.51100000000E-03 0. -1.
        -11    1    3    3    0    0 -0.19576248695E+02 -0.76879495652E+01  0.17741358399E+02  0.27515266301E+02  0.51100000000E-03 0.  1.
         12    1    3    3    0    0  0.22550648702E+02  0.22125817917E+02 -0.28877771236E+02  0.42801977138E+02  0.00000000000E+00 0. -1.
</event>
<event>
 7    1  0.1358622E-013  0.7246156E+02  0.7816164E-02  0.1226708E+00
        -11   -1    0    0    0    0  0.00000000000E+00  0.00000000000E+00  0.45593999997E+02  0.45594000000E+02  0.51100000000E-03 0. -1.
         11   -1    0    0    0    0 -0.00000000000E+00 -0.00000000000E+00 -0.45593999997E+02  0.45594000000E+02  0.51100000000E-03 0.  1.
    9900012    2    1    2    0    0 -0.86333088843E+01 -0.14959532775E+02  0.72358654728E+01  0.72461564346E+02  0.69999992252E+02 0.  0.
        -12    1    1    2    0    0  0.86333088843E+01  0.14959532775E+02 -0.72358654728E+01  0.18726435654E+02  0.00000000000E+00 0.  1.
         11    1    3    3    0    0  0.20682492094E+01  0.53671949650E+00 -0.88697112071E+00  0.23135342315E+01  0.51100000000E-03 0. -1.
        -11    1    3    3    0    0 -0.16906369609E+02 -0.60190926352E+01 -0.27460879203E+02  0.32804796850E+02  0.51100000000E-03 0.  1.
         12    1    3    3    0    0  0.62048115155E+01 -0.94771596368E+01  0.35583715797E+02  0.37343233264E+02  0.00000000000E+00 0. -1.
</event>
<event>
 7    1  0.1358622E-013  0.7246177E+02  0.7816164E-02  0.1226707E+00
        -11   -1    0    0    0    0  0.00000000000E+00  0.00000000000E+00  0.45593999997E+02  0.45594000000E+02  0.51100000000E-03 0.  1.
         11   -1    0    0    0    0 -0.00000000000E+00 -0.00000000000E+00 -0.45593999997E+02  0.45594000000E+02  0.51100000000E-03 0. -1.
    9900012    2    1    2    0    0 -0.53558310456E+01  0.80983295988E+01 -0.16012614969E+02  0.72461769557E+02  0.70000259576E+02 0.  0.
        -12    1    1    2    0    0  0.53558310456E+01 -0.80983295988E+01  0.16012614969E+02  0.18726230443E+02  0.00000000000E+00 0.  1.
         11    1    3    3    0    0 -0.18654066330E+02 -0.44812682342E+01  0.79792976200E+00  0.19201370987E+02  0.51100000000E-03 0. -1.
        -11    1    3    3    0    0  0.69902444406E+01 -0.17983933032E+02 -0.54558752634E+01  0.20051232875E+02  0.51100000000E-03 0.  1.
        -12    1    3    3    0    0  0.63079908433E+01  0.30563530865E+02 -0.11354669467E+02  0.33209165695E+02  0.00000000000E+00 0.  1.
</event>
<event>
 7    1  0.1358622E-013  0.7246167E+02  0.7816164E-02  0.1226708E+00
        -11   -1    0    0    0    0  0.00000000000E+00  0.00000000000E+00  0.45593999997E+02  0.45594000000E+02  0.51100000000E-03 0.  1.
         11   -1    0    0    0    0 -0.00000000000E+00 -0.00000000000E+00 -0.45593999997E+02  0.45594000000E+02  0.51100000000E-03 0. -1.
    9900012    2    1    2    0    0 -0.15453227068E+02  0.39492174840E+01 -0.98120790983E+01  0.72461669826E+02  0.70000129658E+02 0.  0.
        -12    1    1    2    0    0  0.15453227068E+02 -0.39492174840E+01  0.98120790983E+01  0.18726330174E+02  0.00000000000E+00 0.  1.
         11    1    3    3    0    0  0.15837308629E+01  0.64826538288E+01 -0.25647694227E+02  0.26501645675E+02  0.51100000000E-03 0. -1.
        -11    1    3    3    0    0 -0.19124731508E+02  0.15710407371E+02  0.82050299172E+01  0.26074791873E+02  0.51100000000E-03 0.  1.
        -12    1    3    3    0    0  0.20877735770E+01 -0.18243843716E+02  0.76305852111E+01  0.19885232277E+02  0.00000000000E+00 0.  1.
</event>
<event>
 7    1  0.1358622E-013  0.7246160E+02  0.7816164E-02  0.1226708E+00
        -11   -1    0    0    0    0  0.00000000000E+00  0.00000000000E+00  0.45593999997E+02  0.45594000000E+02  0.51100000000E-03 0.  1.
         11   -1    0    0    0    0 -0.00000000000E+00 -0.00000000000E+00 -0.45593999997E+02  0.45594000000E+02  0.51100000000E-03 0. -1.
    9900012    2    1    2    0    0  0.15507227412E+02  0.99260090834E+01  0.34173619658E+01  0.72461598286E+02  0.70000036465E+02 0.  0.
        -12    1    1    2    0    0 -0.15507227412E+02 -0.99260090834E+01 -0.34173619658E+01  0.18726401714E+02  0.00000000000E+00 0.  1.
         11    1    3    3    0    0 -0.22946881846E+01  0.36579235618E+01 -0.48933499607E+01  0.65261683052E+01  0.51100000000E-03 0. -1.
        -11    1    3    3    0    0  0.36039122344E+01  0.95733309386E+01 -0.26386706335E+02  0.28300090461E+02  0.51100000000E-03 0.  1.
        -12    1    3    3    0    0  0.14198003362E+02 -0.33052454169E+01  0.34697418262E+02  0.37635339520E+02  0.00000000000E+00 0.  1.
</event>
<event>
 7    1  0.1447361E-013  0.7246159E+02  0.7816164E-02  0.1226708E+00
        -11   -1    0    0    0    0  0.00000000000E+00  0.00000000000E+00  0.45593999997E+02  0.45594000000E+02  0.51100000000E-03 0.  1.
         11   -1    0    0    0    0 -0.00000000000E+00 -0.00000000000E+00 -0.45593999997E+02  0.45594000000E+02  0.51100000000E-03 0. -1.
    9900012    2    1    2    0    0 -0.86770733153E+01  0.12501914190E+02 -0.10912794308E+02  0.72461587120E+02  0.70000021918E+02 0.  0.
        -12    1    1    2    0    0  0.86770733153E+01 -0.12501914190E+02  0.10912794308E+02  0.18726412880E+02  0.00000000000E+00 0.  1.
         11    1    3    3    0    0 -0.21209053224E+02  0.27528115670E+02 -0.17360612672E+02  0.38846003187E+02  0.51100000000E-03 0. -1.
        -11    1    3    3    0    0  0.11054571036E+02  0.41382452504E+01  0.81118400967E+01  0.14322379850E+02  0.51100000000E-03 0.  1.
        -12    1    3    3    0    0  0.14774088729E+01 -0.19164446730E+02 -0.16640217329E+01  0.19293204083E+02  0.00000000000E+00 0.  1.
</event>
<event>
 7    1  0.1358622E-013  0.7246156E+02  0.7816164E-02  0.1226708E+00
        -11   -1    0    0    0    0  0.00000000000E+00  0.00000000000E+00  0.45593999997E+02  0.45594000000E+02  0.51100000000E-03 0.  1.
         11   -1    0    0    0    0 -0.00000000000E+00 -0.00000000000E+00 -0.45593999997E+02  0.45594000000E+02  0.51100000000E-03 0. -1.
    9900012    2    1    2    0    0  0.93139086223E+01  0.66762098073E+01 -0.14810773325E+02  0.72461556726E+02  0.69999982325E+02 0.  0.
        -12    1    1    2    0    0 -0.93139086223E+01 -0.66762098073E+01  0.14810773325E+02  0.18726443274E+02  0.00000000000E+00 0.  1.
         11    1    3    3    0    0  0.14302845379E+02  0.69683391754E+01  0.23577262321E+02  0.28443214228E+02  0.51100000000E-03 0.  1.
        -11    1    3    3    0    0  0.68972288080E+01  0.48551707172E+01 -0.17752647397E+02  0.19654539877E+02  0.51100000000E-03 0. -1.
        -12    1    3    3    0    0 -0.11886165565E+02 -0.51473000852E+01 -0.20635388249E+02  0.24363802621E+02  0.00000000000E+00 0.  1.
</event>
<event>
 7    1  0.1358622E-013  0.7246156E+02  0.7816164E-02  0.1226708E+00
        -11   -1    0    0    0    0  0.00000000000E+00  0.00000000000E+00  0.45593999997E+02  0.45594000000E+02  0.51100000000E-03 0. -1.
         11   -1    0    0    0    0 -0.00000000000E+00 -0.00000000000E+00 -0.45593999997E+02  0.45594000000E+02  0.51100000000E-03 0.  1.
    9900012    2    1    2    0    0  0.10890074096E+02 -0.98815619576E+01  0.11594857192E+02  0.72461556295E+02  0.69999981764E+02 0.  0.
        -12    1    1    2    0    0 -0.10890074096E+02  0.98815619576E+01 -0.11594857192E+02  0.18726443705E+02  0.00000000000E+00 0.  1.
         11    1    3    3    0    0 -0.66053657131E+01  0.80234082306E+01  0.57843148125E+01  0.11893873799E+02  0.51100000000E-03 0. -1.
        -11    1    3    3    0    0 -0.12135799314E+02 -0.96765361424E+01 -0.16440244873E+02  0.22609613629E+02  0.51100000000E-03 0.  1.
        -12    1    3    3    0    0  0.29631239123E+02 -0.82284340458E+01  0.22250787252E+02  0.37958068867E+02  0.00000000000E+00 0.  1.
</event>
<event>
 7    1  0.1358622E-013  0.7246153E+02  0.7816164E-02  0.1226708E+00
        -11   -1    0    0    0    0  0.00000000000E+00  0.00000000000E+00  0.45593999997E+02  0.45594000000E+02  0.51100000000E-03 0. -1.
         11   -1    0    0    0    0 -0.00000000000E+00 -0.00000000000E+00 -0.45593999997E+02  0.45594000000E+02  0.51100000000E-03 0.  1.
    9900012    2    1    2    0    0 -0.13893625677E+02  0.35269968978E+01 -0.12050230939E+02  0.72461531906E+02  0.69999949993E+02 0.  0.
        -12    1    1    2    0    0  0.13893625677E+02 -0.35269968978E+01  0.12050230939E+02  0.18726468094E+02  0.00000000000E+00 0.  1.
         11    1    3    3    0    0 -0.73073306492E+01  0.38579887998E+01  0.17646365620E+02  0.19485260549E+02  0.51100000000E-03 0. -1.
        -11    1    3    3    0    0  0.13890171395E+02  0.49547524073E+00  0.31589489135E+01  0.14253466792E+02  0.51100000000E-03 0.  1.
         12    1    3    3    0    0 -0.20476466423E+02 -0.82646714279E+00 -0.32855545472E+02  0.38722804565E+02  0.00000000000E+00 0. -1.
</event>
<event>
 7    1  0.1358622E-013  0.7246157E+02  0.7816164E-02  0.1226708E+00
        -11   -1    0    0    0    0  0.00000000000E+00  0.00000000000E+00  0.45593999997E+02  0.45594000000E+02  0.51100000000E-03 0.  1.
         11   -1    0    0    0    0 -0.00000000000E+00 -0.00000000000E+00 -0.45593999997E+02  0.45594000000E+02  0.51100000000E-03 0. -1.
    9900012    2    1    2    0    0  0.10641670289E+02  0.13114851241E+02 -0.80891818280E+01  0.72461565949E+02  0.69999994339E+02 0.  0.
        -12    1    1    2    0    0 -0.10641670289E+02 -0.13114851241E+02  0.80891818280E+01  0.18726434051E+02  0.00000000000E+00 0.  1.
         11    1    3    3    0    0 -0.31255542202E+01  0.69032841887E+01  0.21468454306E+01  0.78761264171E+01  0.51100000000E-03 0. -1.
        -11    1    3    3    0    0  0.30198181425E+02 -0.15323862625E+02  0.38014165095E+01  0.34076409653E+02  0.51100000000E-03 0.  1.
         12    1    3    3    0    0 -0.16430956916E+02  0.21535429678E+02 -0.14037443768E+02  0.30509029878E+02  0.00000000000E+00 0. -1.
</event>
<event>
 7    1  0.1358622E-013  0.7246175E+02  0.7816164E-02  0.1226708E+00
        -11   -1    0    0    0    0  0.00000000000E+00  0.00000000000E+00  0.45593999997E+02  0.45594000000E+02  0.51100000000E-03 0.  1.
         11   -1    0    0    0    0 -0.00000000000E+00 -0.00000000000E+00 -0.45593999997E+02  0.45594000000E+02  0.51100000000E-03 0. -1.
    9900012    2    1    2    0    0 -0.58541578758E+00 -0.41244965336E+01 -0.18257005609E+02  0.72461750052E+02  0.70000234168E+02 0.  0.
        -12    1    1    2    0    0  0.58541578758E+00  0.41244965336E+01  0.18257005609E+02  0.18726249948E+02  0.00000000000E+00 0.  1.
         11    1    3    3    0    0 -0.21777580425E+02 -0.22708889425E+01 -0.89700707464E+00  0.21914026735E+02  0.51100000000E-03 0. -1.
        -11    1    3    3    0    0  0.11449771590E+02 -0.54544337040E+01  0.13179300961E+02  0.18290491808E+02  0.51100000000E-03 0.  1.
         12    1    3    3    0    0  0.97423930475E+01  0.36008261129E+01 -0.30539299495E+02  0.32257231510E+02  0.00000000000E+00 0. -1.
</event>
<event>
 7    1  0.1358622E-013  0.7246151E+02  0.7816164E-02  0.1226708E+00
        -11   -1    0    0    0    0  0.00000000000E+00  0.00000000000E+00  0.45593999997E+02  0.45594000000E+02  0.51100000000E-03 0.  1.
         11   -1    0    0    0    0 -0.00000000000E+00 -0.00000000000E+00 -0.45593999997E+02  0.45594000000E+02  0.51100000000E-03 0. -1.
    9900012    2    1    2    0    0 -0.15068712648E+02  0.99542695252E+01 -0.49525739715E+01  0.72461506159E+02  0.69999916451E+02 0.  0.
        -12    1    1    2    0    0  0.15068712648E+02 -0.99542695252E+01  0.49525739715E+01  0.18726493841E+02  0.00000000000E+00 0.  1.
         11    1    3    3    0    0 -0.19498677335E+02  0.69209148601E+01  0.38851777864E+01  0.21052127850E+02  0.51100000000E-03 0. -1.
        -11    1    3    3    0    0 -0.47316055401E+01  0.25716429747E+02 -0.36444917022E+01  0.26400855477E+02  0.51100000000E-03 0.  1.
         12    1    3    3    0    0  0.91615702271E+01 -0.22683075082E+02 -0.51932600557E+01  0.25008522831E+02  0.00000000000E+00 0. -1.
</event>
<event>
 7    1  0.1358622E-013  0.7246158E+02  0.7816164E-02  0.1226708E+00
        -11   -1    0    0    0    0  0.00000000000E+00  0.00000000000E+00  0.45593999997E+02  0.45594000000E+02  0.51100000000E-03 0.  1.
         11   -1    0    0    0    0 -0.00000000000E+00 -0.00000000000E+00 -0.45593999997E+02  0.45594000000E+02  0.51100000000E-03 0. -1.
    9900012    2    1    2    0    0  0.11523342013E+01 -0.97626644238E+01 -0.15938673399E+02  0.72461580147E+02  0.70000012836E+02 0.  0.
        -12    1    1    2    0    0 -0.11523342013E+01  0.97626644238E+01  0.15938673399E+02  0.18726419853E+02  0.00000000000E+00 0.  1.
         11    1    3    3    0    0 -0.34850271642E+01 -0.16251342951E+02 -0.17610571903E+02  0.24215362997E+02  0.51100000000E-03 0. -1.
        -11    1    3    3    0    0  0.63433660978E+00  0.16553740597E+02 -0.18817123365E+02  0.25070158410E+02  0.51100000000E-03 0.  1.
        -12    1    3    3    0    0  0.40030247558E+01 -0.10065062070E+02  0.20489021868E+02  0.23176058741E+02  0.00000000000E+00 0.  1.
</event>
<event>
 7    1  0.1358622E-013  0.7246157E+02  0.7816164E-02  0.1226708E+00
        -11   -1    0    0    0    0  0.00000000000E+00  0.00000000000E+00  0.45593999997E+02  0.45594000000E+02  0.51100000000E-03 0.  1.
         11   -1    0    0    0    0 -0.00000000000E+00 -0.00000000000E+00 -0.45593999997E+02  0.45594000000E+02  0.51100000000E-03 0. -1.
    9900012    2    1    2    0    0  0.11448606397E+02 -0.82000321807E+01 -0.12343749914E+02  0.72461567394E+02  0.69999996222E+02 0.  0.
        -12    1    1    2    0    0 -0.11448606397E+02  0.82000321807E+01  0.12343749914E+02  0.18726432606E+02  0.00000000000E+00 0.  1.
         11    1    3    3    0    0  0.23626782274E+02  0.25110492628E+01 -0.30363492554E+02  0.38554790745E+02  0.51100000000E-03 0. -1.
        -11    1    3    3    0    0 -0.78711631318E+01 -0.29076735623E+01 -0.46177745928E+01  0.95777668088E+01  0.51100000000E-03 0.  1.
        -12    1    3    3    0    0 -0.43070127448E+01 -0.78034078811E+01  0.22637517233E+02  0.24329009840E+02  0.00000000000E+00 0.  1.
</event>
<event>
 7    1  0.1358622E-013  0.7246095E+02  0.7816164E-02  0.1226710E+00
        -11   -1    0    0    0    0  0.00000000000E+00  0.00000000000E+00  0.45593999997E+02  0.45594000000E+02  0.51100000000E-03 0.  1.
         11   -1    0    0    0    0 -0.00000000000E+00 -0.00000000000E+00 -0.45593999997E+02  0.45594000000E+02  0.51100000000E-03 0. -1.
    9900012    2    1    2    0    0 -0.15875091110E+02  0.75856910634E+01 -0.64141356337E+01  0.72460951044E+02  0.69999193307E+02 0.  0.
        -12    1    1    2    0    0  0.15875091110E+02 -0.75856910634E+01  0.64141356337E+01  0.18727048956E+02  0.00000000000E+00 0.  1.
         11    1    3    3    0    0 -0.18447931388E+02  0.26373931276E+02 -0.20095486484E+01  0.32248235757E+02  0.51100000000E-03 0.  1.
        -11    1    3    3    0    0 -0.26737332042E+01 -0.41273278014E+01 -0.18540715253E+02  0.19181809257E+02  0.51100000000E-03 0. -1.
        -12    1    3    3    0    0  0.52465734817E+01 -0.14660912411E+02  0.14136128268E+02  0.21030906030E+02  0.00000000000E+00 0.  1.
</event>
<event>
 7    1  0.1358622E-013  0.7246160E+02  0.7816164E-02  0.1226708E+00
        -11   -1    0    0    0    0  0.00000000000E+00  0.00000000000E+00  0.45593999997E+02  0.45594000000E+02  0.51100000000E-03 0.  1.
         11   -1    0    0    0    0 -0.00000000000E+00 -0.00000000000E+00 -0.45593999997E+02  0.45594000000E+02  0.51100000000E-03 0. -1.
    9900012    2    1    2    0    0  0.84219804789E+01  0.15056050122E+02  0.72844883817E+01  0.72461596943E+02  0.70000034715E+02 0.  0.
        -12    1    1    2    0    0 -0.84219804789E+01 -0.15056050122E+02 -0.72844883817E+01  0.18726403057E+02  0.00000000000E+00 0.  1.
         11    1    3    3    0    0 -0.31917787453E+01 -0.51545127725E+01 -0.36016302645E+01  0.70518220556E+01  0.51100000000E-03 0. -1.
        -11    1    3    3    0    0 -0.50818225714E+00 -0.10260455489E+02  0.26987410615E+02  0.28876556720E+02  0.51100000000E-03 0.  1.
         12    1    3    3    0    0  0.12121941481E+02  0.30471018384E+02 -0.16101291969E+02  0.36533218168E+02  0.00000000000E+00 0. -1.
</event>
<event>
 7    1  0.1358622E-013  0.7246156E+02  0.7816164E-02  0.1226708E+00
        -11   -1    0    0    0    0  0.00000000000E+00  0.00000000000E+00  0.45593999997E+02  0.45594000000E+02  0.51100000000E-03 0.  1.
         11   -1    0    0    0    0 -0.00000000000E+00 -0.00000000000E+00 -0.45593999997E+02  0.45594000000E+02  0.51100000000E-03 0. -1.
    9900012    2    1    2    0    0  0.17247546526E+02  0.28845919077E+01 -0.66993105750E+01  0.72461561635E+02  0.69999988720E+02 0.  0.
        -12    1    1    2    0    0 -0.17247546526E+02 -0.28845919077E+01  0.66993105750E+01  0.18726438365E+02  0.00000000000E+00 0.  1.
         11    1    3    3    0    0  0.30646896445E+01  0.43003710692E+01  0.42928747418E+01  0.68054601431E+01  0.51100000000E-03 0. -1.
        -11    1    3    3    0    0 -0.53496848451E+01  0.24015931606E+02  0.10815121247E+02  0.26876587333E+02  0.51100000000E-03 0.  1.
         12    1    3    3    0    0  0.19532541727E+02 -0.25431710767E+02 -0.21807306563E+02  0.38779514159E+02  0.00000000000E+00 0. -1.
</event>
<event>
 7    1  0.1358622E-013  0.7246148E+02  0.7816164E-02  0.1226708E+00
        -11   -1    0    0    0    0  0.00000000000E+00  0.00000000000E+00  0.45593999997E+02  0.45594000000E+02  0.51100000000E-03 0. -1.
         11   -1    0    0    0    0 -0.00000000000E+00 -0.00000000000E+00 -0.45593999997E+02  0.45594000000E+02  0.51100000000E-03 0.  1.
    9900012    2    1    2    0    0 -0.75510024917E+01  0.21057853857E+01  0.17006778034E+02  0.72461482176E+02  0.69999885209E+02 0.  0.
        -12    1    1    2    0    0  0.75510024917E+01 -0.21057853857E+01 -0.17006778034E+02  0.18726517824E+02  0.00000000000E+00 0.  1.
         11    1    3    3    0    0  0.12917818216E+02  0.24422944847E+01 -0.12320062211E+02  0.18017179661E+02  0.51100000000E-03 0. -1.
        -11    1    3    3    0    0  0.94224983976E+01  0.10469608685E+02  0.88651878851E+01  0.16642948614E+02  0.51100000000E-03 0.  1.
         12    1    3    3    0    0 -0.29891319105E+02 -0.10806117784E+02  0.20461652360E+02  0.37801353900E+02  0.00000000000E+00 0. -1.
</event>
<event>
 7    1  0.1358622E-013  0.7246152E+02  0.7816164E-02  0.1226708E+00
        -11   -1    0    0    0    0  0.00000000000E+00  0.00000000000E+00  0.45593999997E+02  0.45594000000E+02  0.51100000000E-03 0.  1.
         11   -1    0    0    0    0 -0.00000000000E+00 -0.00000000000E+00 -0.45593999997E+02  0.45594000000E+02  0.51100000000E-03 0. -1.
    9900012    2    1    2    0    0  0.16236877606E+02 -0.20464504112E+01 -0.91025801154E+01  0.72461518258E+02  0.69999932212E+02 0.  0.
        -12    1    1    2    0    0 -0.16236877606E+02  0.20464504112E+01  0.91025801154E+01  0.18726481742E+02  0.00000000000E+00 0.  1.
         11    1    3    3    0    0  0.15465940470E+02 -0.81652244821E+01  0.10566383041E+02  0.20433175384E+02  0.51100000000E-03 0. -1.
        -11    1    3    3    0    0 -0.17306727763E+02 -0.12914107198E+02 -0.58944615065E+01  0.22383960045E+02  0.51100000000E-03 0.  1.
         12    1    3    3    0    0  0.18077664899E+02  0.19032881269E+02 -0.13774501650E+02  0.29644382829E+02  0.00000000000E+00 0. -1.
</event>
<event>
 7    1  0.1358622E-013  0.7246157E+02  0.7816164E-02  0.1226708E+00
        -11   -1    0    0    0    0  0.00000000000E+00  0.00000000000E+00  0.45593999997E+02  0.45594000000E+02  0.51100000000E-03 0. -1.
         11   -1    0    0    0    0 -0.00000000000E+00 -0.00000000000E+00 -0.45593999997E+02  0.45594000000E+02  0.51100000000E-03 0.  1.
    9900012    2    1    2    0    0  0.15762184403E+02  0.95374745308E+01  0.33570042384E+01  0.72461565341E+02  0.69999993548E+02 0.  0.
        -12    1    1    2    0    0 -0.15762184403E+02 -0.95374745308E+01 -0.33570042384E+01  0.18726434659E+02  0.00000000000E+00 0.  1.
         11    1    3    3    0    0  0.85545778758E+01  0.10648572862E+02 -0.10660929378E+02  0.17327097913E+02  0.51100000000E-03 0. -1.
        -11    1    3    3    0    0 -0.83570951469E+01  0.41454730565E+01 -0.17364679911E+02  0.19711876999E+02  0.51100000000E-03 0.  1.
         12    1    3    3    0    0  0.15564701674E+02 -0.52565713878E+01  0.31382613527E+02  0.35422590429E+02  0.00000000000E+00 0. -1.
</event>
<event>
 7    1  0.1358622E-013  0.7246159E+02  0.7816164E-02  0.1226708E+00
        -11   -1    0    0    0    0  0.00000000000E+00  0.00000000000E+00  0.45593999997E+02  0.45594000000E+02  0.51100000000E-03 0. -1.
         11   -1    0    0    0    0 -0.00000000000E+00 -0.00000000000E+00 -0.45593999997E+02  0.45594000000E+02  0.51100000000E-03 0.  1.
    9900012    2    1    2    0    0  0.17600791050E+02  0.17911781816E+01  0.61385901413E+01  0.72461589404E+02  0.70000024894E+02 0.  0.
        -12    1    1    2    0    0 -0.17600791050E+02 -0.17911781816E+01 -0.61385901413E+01  0.18726410596E+02  0.00000000000E+00 0.  1.
         11    1    3    3    0    0  0.19620806076E+02  0.11323994166E+02 -0.16806990569E+02  0.28207867824E+02  0.51100000000E-03 0. -1.
        -11    1    3    3    0    0  0.49469835987E+01  0.17906831125E+01 -0.85657826673E+01  0.10052453715E+02  0.51100000000E-03 0.  1.
         12    1    3    3    0    0 -0.69669986243E+01 -0.11323499097E+02  0.31511363378E+02  0.34201267865E+02  0.00000000000E+00 0. -1.
</event>
<event>
 7    1  0.1358622E-013  0.7246192E+02  0.7816164E-02  0.1226707E+00
        -11   -1    0    0    0    0  0.00000000000E+00  0.00000000000E+00  0.45593999997E+02  0.45594000000E+02  0.51100000000E-03 0.  1.
         11   -1    0    0    0    0 -0.00000000000E+00 -0.00000000000E+00 -0.45593999997E+02  0.45594000000E+02  0.51100000000E-03 0. -1.
    9900012    2    1    2    0    0  0.13479768008E+02 -0.97538489760E+01 -0.85921042145E+01  0.72461922722E+02  0.70000459101E+02 0.  0.
        -12    1    1    2    0    0 -0.13479768008E+02  0.97538489760E+01  0.85921042145E+01  0.18726077278E+02  0.00000000000E+00 0.  1.
         11    1    3    3    0    0 -0.14086701722E+02 -0.11526786187E+02  0.12308969113E+02  0.21972999023E+02  0.51100000000E-03 0.  1.
        -11    1    3    3    0    0  0.18972399714E+02  0.10774300350E+02  0.44321001670E+01  0.22263894787E+02  0.51100000000E-03 0. -1.
        -12    1    3    3    0    0  0.85940700152E+01 -0.90013631383E+01 -0.25333173494E+02  0.28225028912E+02  0.00000000000E+00 0.  1.
</event>
<event>
 7    1  0.1358622E-013  0.7246148E+02  0.7816164E-02  0.1226708E+00
        -11   -1    0    0    0    0  0.00000000000E+00  0.00000000000E+00  0.45593999997E+02  0.45594000000E+02  0.51100000000E-03 0.  1.
         11   -1    0    0    0    0 -0.00000000000E+00 -0.00000000000E+00 -0.45593999997E+02  0.45594000000E+02  0.51100000000E-03 0. -1.
    9900012    2    1    2    0    0  0.12935859753E+02 -0.42441529406E+01 -0.12858198596E+02  0.72461479425E+02  0.69999881625E+02 0.  0.
        -12    1    1    2    0    0 -0.12935859753E+02  0.42441529406E+01  0.12858198596E+02  0.18726520575E+02  0.00000000000E+00 0.  1.
         11    1    3    3    0    0 -0.11055683110E+02 -0.30064811539E+01  0.80173403735E+01  0.13983733582E+02  0.51100000000E-03 0. -1.
        -11    1    3    3    0    0 -0.11624320696E+02 -0.56369247732E+01 -0.18431321087E+02  0.22508072992E+02  0.51100000000E-03 0.  1.
         12    1    3    3    0    0  0.35615863559E+02  0.43992529864E+01 -0.24442178816E+01  0.35969672850E+02  0.00000000000E+00 0. -1.
</event>
<event>
 7    1  0.1358622E-013  0.7246157E+02  0.7816164E-02  0.1226708E+00
        -11   -1    0    0    0    0  0.00000000000E+00  0.00000000000E+00  0.45593999997E+02  0.45594000000E+02  0.51100000000E-03 0. -1.
         11   -1    0    0    0    0 -0.00000000000E+00 -0.00000000000E+00 -0.45593999997E+02  0.45594000000E+02  0.51100000000E-03 0.  1.
    9900012    2    1    2    0    0 -0.15215076842E+02  0.10898161077E+02  0.64096943949E+00  0.72461566277E+02  0.69999994766E+02 0.  0.
        -12    1    1    2    0    0  0.15215076842E+02 -0.10898161077E+02 -0.64096943949E+00  0.18726433723E+02  0.00000000000E+00 0.  1.
         11    1    3    3    0    0 -0.34599204857E+01  0.17422390738E+02 -0.32851527538E+01  0.18063858327E+02  0.51100000000E-03 0. -1.
        -11    1    3    3    0    0 -0.54364069121E+01 -0.11091968185E+02 -0.23140178724E+02  0.26230786301E+02  0.51100000000E-03 0.  1.
         12    1    3    3    0    0 -0.63187494446E+01  0.45677385241E+01  0.27066300918E+02  0.28166921648E+02  0.00000000000E+00 0. -1.
</event>
<event>
 7    1  0.1358622E-013  0.7246165E+02  0.7816164E-02  0.1226708E+00
        -11   -1    0    0    0    0  0.00000000000E+00  0.00000000000E+00  0.45593999997E+02  0.45594000000E+02  0.51100000000E-03 0. -1.
         11   -1    0    0    0    0 -0.00000000000E+00 -0.00000000000E+00 -0.45593999997E+02  0.45594000000E+02  0.51100000000E-03 0.  1.
    9900012    2    1    2    0    0 -0.18100787037E+01 -0.18432274687E+02  0.27660439125E+01  0.72461651344E+02  0.70000105582E+02 0.  0.
        -12    1    1    2    0    0  0.18100787037E+01  0.18432274687E+02 -0.27660439125E+01  0.18726348656E+02  0.00000000000E+00 0.  1.
         11    1    3    3    0    0 -0.11727812328E+02  0.16286281638E+02  0.10529025896E+02  0.22663736192E+02  0.51100000000E-03 0. -1.
        -11    1    3    3    0    0  0.12984709723E+02 -0.48372188123E+00 -0.83061229842E+01  0.15421684498E+02  0.51100000000E-03 0.  1.
        -12    1    3    3    0    0 -0.30669760987E+01 -0.34234834445E+02  0.54314100120E+00  0.34376230654E+02  0.00000000000E+00 0.  1.
</event>
<event>
 7    1  0.1358622E-013  0.7246138E+02  0.7816164E-02  0.1226709E+00
        -11   -1    0    0    0    0  0.00000000000E+00  0.00000000000E+00  0.45593999997E+02  0.45594000000E+02  0.51100000000E-03 0.  1.
         11   -1    0    0    0    0 -0.00000000000E+00 -0.00000000000E+00 -0.45593999997E+02  0.45594000000E+02  0.51100000000E-03 0. -1.
    9900012    2    1    2    0    0 -0.41967822610E+01 -0.12824727524E+02 -0.12984590662E+02  0.72461382258E+02  0.69999755047E+02 0.  0.
        -12    1    1    2    0    0  0.41967822610E+01  0.12824727524E+02  0.12984590662E+02  0.18726617742E+02  0.00000000000E+00 0.  1.
         11    1    3    3    0    0 -0.31002946183E+02 -0.27658561110E+01 -0.42110271826E+01  0.31409638366E+02  0.51100000000E-03 0. -1.
        -11    1    3    3    0    0 -0.34526223996E+01 -0.88064821186E+01 -0.44724376084E+01  0.10463146141E+02  0.51100000000E-03 0.  1.
        -12    1    3    3    0    0  0.30258786322E+02 -0.12523892947E+01 -0.43011258708E+01  0.30588597751E+02  0.00000000000E+00 0.  1.
</event>
<event>
 7    1  0.1358622E-013  0.7246160E+02  0.7816164E-02  0.1226708E+00
        -11   -1    0    0    0    0  0.00000000000E+00  0.00000000000E+00  0.45593999997E+02  0.45594000000E+02  0.51100000000E-03 0. -1.
         11   -1    0    0    0    0 -0.00000000000E+00 -0.00000000000E+00 -0.45593999997E+02  0.45594000000E+02  0.51100000000E-03 0.  1.
    9900012    2    1    2    0    0 -0.13268913566E+02  0.16833164000E+01  0.13106500139E+02  0.72461602396E+02  0.70000041818E+02 0.  0.
        -12    1    1    2    0    0  0.13268913566E+02 -0.16833164000E+01 -0.13106500139E+02  0.18726397604E+02  0.00000000000E+00 0.  1.
         11    1    3    3    0    0 -0.37463467882E+02 -0.21209700694E+01  0.39080841541E+01  0.37726423920E+02  0.51100000000E-03 0. -1.
        -11    1    3    3    0    0  0.83177634422E+01 -0.26783180459E+01  0.14374206858E+02  0.16821902368E+02  0.51100000000E-03 0.  1.
        -12    1    3    3    0    0  0.15876790874E+02  0.64826045153E+01 -0.51757908724E+01  0.17913276108E+02  0.00000000000E+00 0.  1.
</event>
<event>
 7    1  0.1358622E-013  0.7246158E+02  0.7816164E-02  0.1226708E+00
        -11   -1    0    0    0    0  0.00000000000E+00  0.00000000000E+00  0.45593999997E+02  0.45594000000E+02  0.51100000000E-03 0. -1.
         11   -1    0    0    0    0 -0.00000000000E+00 -0.00000000000E+00 -0.45593999997E+02  0.45594000000E+02  0.51100000000E-03 0.  1.
    9900012    2    1    2    0    0  0.74841457424E+00 -0.17658956165E+02  0.61870807007E+01  0.72461579498E+02  0.70000011990E+02 0.  0.
        -12    1    1    2    0    0 -0.74841457424E+00  0.17658956165E+02 -0.61870807007E+01  0.18726420502E+02  0.00000000000E+00 0.  1.
         11    1    3    3    0    0 -0.14705045633E+02 -0.36108809009E+00  0.31048522028E+02  0.34356651060E+02  0.51100000000E-03 0. -1.
        -11    1    3    3    0    0  0.49369315269E+01 -0.37400584997E+01 -0.18982359095E+02  0.19967255383E+02  0.51100000000E-03 0.  1.
        -12    1    3    3    0    0  0.10516528680E+02 -0.13557809575E+02 -0.58790822325E+01  0.18137673055E+02  0.00000000000E+00 0.  1.
</event>
<event>
 7    1  0.1358622E-013  0.7246156E+02  0.7816164E-02  0.1226708E+00
        -11   -1    0    0    0    0  0.00000000000E+00  0.00000000000E+00  0.45593999997E+02  0.45594000000E+02  0.51100000000E-03 0.  1.
         11   -1    0    0    0    0 -0.00000000000E+00 -0.00000000000E+00 -0.45593999997E+02  0.45594000000E+02  0.51100000000E-03 0. -1.
    9900012    2    1    2    0    0 -0.19275140487E+01  0.15269023132E+02 -0.10668707680E+02  0.72461556094E+02  0.69999981501E+02 0.  0.
        -12    1    1    2    0    0  0.19275140487E+01 -0.15269023132E+02  0.10668707680E+02  0.18726443906E+02  0.00000000000E+00 0.  1.
         11    1    3    3    0    0  0.82637625673E+01  0.15376822852E+02  0.92841655306E+00  0.17481373240E+02  0.51100000000E-03 0. -1.
        -11    1    3    3    0    0 -0.59854064513E+01  0.26059614216E+02 -0.20760722155E+01  0.26818625236E+02  0.51100000000E-03 0.  1.
         12    1    3    3    0    0 -0.42058701647E+01 -0.26167413936E+02 -0.95210520177E+01  0.28161557618E+02  0.00000000000E+00 0. -1.
</event>
<event>
 7    1  0.1358622E-013  0.7246159E+02  0.7816164E-02  0.1226708E+00
        -11   -1    0    0    0    0  0.00000000000E+00  0.00000000000E+00  0.45593999997E+02  0.45594000000E+02  0.51100000000E-03 0.  1.
         11   -1    0    0    0    0 -0.00000000000E+00 -0.00000000000E+00 -0.45593999997E+02  0.45594000000E+02  0.51100000000E-03 0. -1.
    9900012    2    1    2    0    0 -0.72443901193E+01  0.13233187038E+02  0.11094138267E+02  0.72461592676E+02  0.70000029156E+02 0.  0.
        -12    1    1    2    0    0  0.72443901193E+01 -0.13233187038E+02 -0.11094138267E+02  0.18726407324E+02  0.00000000000E+00 0.  1.
         11    1    3    3    0    0 -0.35461646922E+02  0.14856526916E+01  0.12362538124E+02  0.37584144469E+02  0.51100000000E-03 0. -1.
        -11    1    3    3    0    0  0.12143559710E+02 -0.12245138757E+01 -0.61296474697E+01  0.13657893507E+02  0.51100000000E-03 0.  1.
        -12    1    3    3    0    0  0.16073697093E+02  0.12972048222E+02  0.48612476135E+01  0.21219554700E+02  0.00000000000E+00 0.  1.
</event>
<event>
 7    1  0.1358622E-013  0.7246156E+02  0.7816164E-02  0.1226708E+00
        -11   -1    0    0    0    0  0.00000000000E+00  0.00000000000E+00  0.45593999997E+02  0.45594000000E+02  0.51100000000E-03 0.  1.
         11   -1    0    0    0    0 -0.00000000000E+00 -0.00000000000E+00 -0.45593999997E+02  0.45594000000E+02  0.51100000000E-03 0. -1.
    9900012    2    1    2    0    0  0.66355981702E+01  0.27143399451E+01 -0.17299731547E+02  0.72461561043E+02  0.69999987949E+02 0.  0.
        -12    1    1    2    0    0 -0.66355981702E+01 -0.27143399451E+01  0.17299731547E+02  0.18726438957E+02  0.00000000000E+00 0.  1.
         11    1    3    3    0    0  0.22356300749E+02 -0.60625406317E+01 -0.18619903628E+02  0.29719680238E+02  0.51100000000E-03 0. -1.
        -11    1    3    3    0    0 -0.23894540432E+02  0.10240011644E+01 -0.10758475956E+02  0.26224844060E+02  0.51100000000E-03 0.  1.
        -12    1    3    3    0    0  0.81738378531E+01  0.77528794124E+01  0.12078648037E+02  0.16517036745E+02  0.00000000000E+00 0.  1.
</event>
<event>
 7    1  0.1358622E-013  0.7246165E+02  0.7816164E-02  0.1226708E+00
        -11   -1    0    0    0    0  0.00000000000E+00  0.00000000000E+00  0.45593999997E+02  0.45594000000E+02  0.51100000000E-03 0.  1.
         11   -1    0    0    0    0 -0.00000000000E+00 -0.00000000000E+00 -0.45593999997E+02  0.45594000000E+02  0.51100000000E-03 0. -1.
    9900012    2    1    2    0    0  0.37256092863E+01 -0.64380234383E+00 -0.18340708786E+02  0.72461648386E+02  0.70000101729E+02 0.  0.
        -12    1    1    2    0    0 -0.37256092863E+01  0.64380234383E+00  0.18340708786E+02  0.18726351614E+02  0.00000000000E+00 0.  1.
         11    1    3    3    0    0  0.13242562683E+01  0.13144723148E+02 -0.12802637665E+02  0.18396872906E+02  0.51100000000E-03 0. -1.
        -11    1    3    3    0    0 -0.18886740426E+02  0.12847371680E+00  0.12706984670E+02  0.22763851368E+02  0.51100000000E-03 0.  1.
         12    1    3    3    0    0  0.21288093444E+02 -0.13916999208E+02 -0.18245055791E+02  0.31300924112E+02  0.00000000000E+00 0. -1.
</event>
<event>
 7    1  0.1358622E-013  0.7246184E+02  0.7816164E-02  0.1226707E+00
        -11   -1    0    0    0    0  0.00000000000E+00  0.00000000000E+00  0.45593999997E+02  0.45594000000E+02  0.51100000000E-03 0.  1.
         11   -1    0    0    0    0 -0.00000000000E+00 -0.00000000000E+00 -0.45593999997E+02  0.45594000000E+02  0.51100000000E-03 0. -1.
    9900012    2    1    2    0    0 -0.12511319343E+02 -0.31576620431E+01 -0.13570750227E+02  0.72461836404E+02  0.70000346656E+02 0.  0.
        -12    1    1    2    0    0  0.12511319343E+02  0.31576620431E+01  0.13570750227E+02  0.18726163596E+02  0.00000000000E+00 0.  1.
         11    1    3    3    0    0  0.22273553085E+02 -0.10488302861E+02 -0.12205281466E+02  0.27478802009E+02  0.51100000000E-03 0. -1.
        -11    1    3    3    0    0 -0.10045948916E+01  0.46665501873E+01 -0.90551562973E+01  0.10236296077E+02  0.51100000000E-03 0.  1.
        -12    1    3    3    0    0 -0.33780277537E+02  0.26640906308E+01  0.76896875358E+01  0.34746738318E+02  0.00000000000E+00 0.  1.
</event>
<event>
 7    1  0.1358622E-013  0.7246161E+02  0.7816164E-02  0.1226708E+00
        -11   -1    0    0    0    0  0.00000000000E+00  0.00000000000E+00  0.45593999997E+02  0.45594000000E+02  0.51100000000E-03 0.  1.
         11   -1    0    0    0    0 -0.00000000000E+00 -0.00000000000E+00 -0.45593999997E+02  0.45594000000E+02  0.51100000000E-03 0. -1.
    9900012    2    1    2    0    0 -0.25847633228E+01  0.11044604472E+02 -0.14900110941E+02  0.72461612323E+02  0.70000054749E+02 0.  0.
        -12    1    1    2    0    0  0.25847633228E+01 -0.11044604472E+02  0.14900110941E+02  0.18726387677E+02  0.00000000000E+00 0.  1.
         11    1    3    3    0    0 -0.18639921383E+02  0.66876760151E+01 -0.16274815148E+02  0.25632816622E+02  0.51100000000E-03 0. -1.
        -11    1    3    3    0    0 -0.57321704469E+01 -0.74507528078E+01 -0.14585702323E+02  0.17352642679E+02  0.51100000000E-03 0.  1.
         12    1    3    3    0    0  0.21787328507E+02  0.11807681265E+02  0.15960406530E+02  0.29476153021E+02  0.00000000000E+00 0. -1.
</event>
<event>
 7    1  0.1358622E-013  0.7246160E+02  0.7816164E-02  0.1226708E+00
        -11   -1    0    0    0    0  0.00000000000E+00  0.00000000000E+00  0.45593999997E+02  0.45594000000E+02  0.51100000000E-03 0.  1.
         11   -1    0    0    0    0 -0.00000000000E+00 -0.00000000000E+00 -0.45593999997E+02  0.45594000000E+02  0.51100000000E-03 0. -1.
    9900012    2    1    2    0    0  0.13517206174E+02  0.11344511473E+02 -0.62662058478E+01  0.72461597809E+02  0.70000035843E+02 0.  0.
        -12    1    1    2    0    0 -0.13517206174E+02 -0.11344511473E+02  0.62662058478E+01  0.18726402191E+02  0.00000000000E+00 0.  1.
         11    1    3    3    0    0 -0.81334022360E+01  0.33381595171E+02 -0.13133045490E+02  0.36782604750E+02  0.51100000000E-03 0. -1.
        -11    1    3    3    0    0 -0.34505529594E+00 -0.18671277277E+01 -0.35861346521E+01  0.40577815506E+01  0.51100000000E-03 0.  1.
        -12    1    3    3    0    0  0.21995663706E+02 -0.20169955970E+02  0.10452974294E+02  0.31621211509E+02  0.00000000000E+00 0.  1.
</event>
<event>
 7    1  0.1358622E-013  0.7246159E+02  0.7816164E-02  0.1226708E+00
        -11   -1    0    0    0    0  0.00000000000E+00  0.00000000000E+00  0.45593999997E+02  0.45594000000E+02  0.51100000000E-03 0.  1.
         11   -1    0    0    0    0 -0.00000000000E+00 -0.00000000000E+00 -0.45593999997E+02  0.45594000000E+02  0.51100000000E-03 0. -1.
    9900012    2    1    2    0    0 -0.40706282318E+01  0.29348447746E+01 -0.18041478457E+02  0.72461594232E+02  0.70000031184E+02 0.  0.
        -12    1    1    2    0    0  0.40706282318E+01 -0.29348447746E+01  0.18041478457E+02  0.18726405768E+02  0.00000000000E+00 0.  1.
         11    1    3    3    0    0 -0.13329632508E+02  0.73657943620E+01 -0.98733960764E+01  0.18149875474E+02  0.51100000000E-03 0. -1.
        -11    1    3    3    0    0 -0.12120825840E+02 -0.10470577023E+02  0.15190703696E+02  0.22074983155E+02  0.51100000000E-03 0.  1.
         12    1    3    3    0    0  0.21379830117E+02  0.60396274351E+01 -0.23358786077E+02  0.32236735603E+02  0.00000000000E+00 0. -1.
</event>
<event>
 7    1  0.1358622E-013  0.7246156E+02  0.7816164E-02  0.1226708E+00
        -11   -1    0    0    0    0  0.00000000000E+00  0.00000000000E+00  0.45593999997E+02  0.45594000000E+02  0.51100000000E-03 0.  1.
         11   -1    0    0    0    0 -0.00000000000E+00 -0.00000000000E+00 -0.45593999997E+02  0.45594000000E+02  0.51100000000E-03 0. -1.
    9900012    2    1    2    0    0  0.23767104028E+01  0.15950408021E+02 -0.95192151212E+01  0.72461555466E+02  0.69999980683E+02 0.  0.
        -12    1    1    2    0    0 -0.23767104028E+01 -0.15950408021E+02  0.95192151212E+01  0.18726444534E+02  0.00000000000E+00 0.  1.
         11    1    3    3    0    0  0.19037542917E+01 -0.91733720050E+01 -0.18469359873E+00  0.93706534634E+01  0.51100000000E-03 0. -1.
        -11    1    3    3    0    0  0.92328646480E+01 -0.14830639808E+02 -0.13355822719E+02  0.21990263015E+02  0.51100000000E-03 0.  1.
         12    1    3    3    0    0 -0.87599085369E+01  0.39954419834E+02  0.40213011966E+01  0.41100638987E+02  0.00000000000E+00 0. -1.
</event>
<event>
 7    1  0.1358622E-013  0.7246159E+02  0.7816164E-02  0.1226708E+00
        -11   -1    0    0    0    0  0.00000000000E+00  0.00000000000E+00  0.45593999997E+02  0.45594000000E+02  0.51100000000E-03 0.  1.
         11   -1    0    0    0    0 -0.00000000000E+00 -0.00000000000E+00 -0.45593999997E+02  0.45594000000E+02  0.51100000000E-03 0. -1.
    9900012    2    1    2    0    0 -0.12223086372E+02  0.98128587951E+01 -0.10246100272E+02  0.72461585261E+02  0.70000019497E+02 0.  0.
        -12    1    1    2    0    0  0.12223086372E+02 -0.98128587951E+01  0.10246100272E+02  0.18726414739E+02  0.00000000000E+00 0.  1.
         11    1    3    3    0    0  0.18551046180E+00  0.22264253556E+02 -0.31140258286E+02  0.38281158380E+02  0.51100000000E-03 0. -1.
        -11    1    3    3    0    0  0.28544798274E+01  0.18087647326E+01 -0.13747023933E+01  0.36482176298E+01  0.51100000000E-03 0.  1.
        -12    1    3    3    0    0 -0.15263076661E+02 -0.14260159493E+02  0.22268860407E+02  0.30532209251E+02  0.00000000000E+00 0.  1.
</event>
<event>
 7    1  0.1358622E-013  0.7246165E+02  0.7816164E-02  0.1226708E+00
        -11   -1    0    0    0    0  0.00000000000E+00  0.00000000000E+00  0.45593999997E+02  0.45594000000E+02  0.51100000000E-03 0.  1.
         11   -1    0    0    0    0 -0.00000000000E+00 -0.00000000000E+00 -0.45593999997E+02  0.45594000000E+02  0.51100000000E-03 0. -1.
    9900012    2    1    2    0    0  0.85277116416E-01  0.11592597230E+02 -0.14706486228E+02  0.72461646380E+02  0.70000099115E+02 0.  0.
        -12    1    1    2    0    0 -0.85277116416E-01 -0.11592597230E+02  0.14706486228E+02  0.18726353620E+02  0.00000000000E+00 0.  1.
         11    1    3    3    0    0 -0.18779282738E+02  0.31035784833E+02 -0.12176108274E+02  0.38264069482E+02  0.51100000000E-03 0. -1.
        -11    1    3    3    0    0  0.20710848285E+01 -0.12968704563E+00 -0.77963997304E+01  0.80678411062E+01  0.51100000000E-03 0.  1.
        -12    1    3    3    0    0  0.16793475026E+02 -0.19313500557E+02  0.52660217759E+01  0.26129735792E+02  0.00000000000E+00 0.  1.
</event>
<event>
 7    1  0.1358622E-013  0.7246158E+02  0.7816164E-02  0.1226708E+00
        -11   -1    0    0    0    0  0.00000000000E+00  0.00000000000E+00  0.45593999997E+02  0.45594000000E+02  0.51100000000E-03 0.  1.
         11   -1    0    0    0    0 -0.00000000000E+00 -0.00000000000E+00 -0.45593999997E+02  0.45594000000E+02  0.51100000000E-03 0. -1.
    9900012    2    1    2    0    0  0.36415491710E+01  0.19064709136E+01 -0.18269737269E+02  0.72461579851E+02  0.70000012449E+02 0.  0.
        -12    1    1    2    0    0 -0.36415491710E+01 -0.19064709136E+01  0.18269737269E+02  0.18726420149E+02  0.00000000000E+00 0.  1.
         11    1    3    3    0    0 -0.18969566093E+01 -0.94420540464E+01  0.19789707560E+02  0.22008710880E+02  0.51100000000E-03 0. -1.
        -11    1    3    3    0    0  0.27985783446E+01 -0.68482762351E-01  0.50495171452E+01  0.57735911096E+01  0.51100000000E-03 0.  1.
         12    1    3    3    0    0  0.27399274357E+01  0.11417007722E+02 -0.43108961975E+02  0.44679277862E+02  0.00000000000E+00 0. -1.
</event>
<event>
 7    1  0.1358622E-013  0.7246157E+02  0.7816164E-02  0.1226708E+00
        -11   -1    0    0    0    0  0.00000000000E+00  0.00000000000E+00  0.45593999997E+02  0.45594000000E+02  0.51100000000E-03 0.  1.
         11   -1    0    0    0    0 -0.00000000000E+00 -0.00000000000E+00 -0.45593999997E+02  0.45594000000E+02  0.51100000000E-03 0. -1.
    9900012    2    1    2    0    0  0.19429322421E+01  0.16553432123E+02  0.85374619512E+01  0.72461565280E+02  0.69999993468E+02 0.  0.
        -12    1    1    2    0    0 -0.19429322421E+01 -0.16553432123E+02 -0.85374619512E+01  0.18726434720E+02  0.00000000000E+00 0.  1.
         11    1    3    3    0    0 -0.56238688143E+01 -0.81759392676E+01  0.81778041446E+01  0.12858863256E+02  0.51100000000E-03 0. -1.
        -11    1    3    3    0    0  0.18484409375E+02  0.14543055957E+02  0.22729104852E+02  0.32707584352E+02  0.51100000000E-03 0.  1.
         12    1    3    3    0    0 -0.10917608319E+02  0.10186315433E+02 -0.22369447045E+02  0.26895117672E+02  0.00000000000E+00 0. -1.
</event>
<event>
 7    1  0.1358622E-013  0.7246156E+02  0.7816164E-02  0.1226708E+00
        -11   -1    0    0    0    0  0.00000000000E+00  0.00000000000E+00  0.45593999997E+02  0.45594000000E+02  0.51100000000E-03 0. -1.
         11   -1    0    0    0    0 -0.00000000000E+00 -0.00000000000E+00 -0.45593999997E+02  0.45594000000E+02  0.51100000000E-03 0.  1.
    9900012    2    1    2    0    0 -0.15697965461E+02  0.90368846776E+01  0.47526910951E+01  0.72461562087E+02  0.69999989308E+02 0.  0.
        -12    1    1    2    0    0  0.15697965461E+02 -0.90368846776E+01 -0.47526910951E+01  0.18726437913E+02  0.00000000000E+00 0.  1.
         11    1    3    3    0    0 -0.39041151269E+01  0.15501415024E+01  0.16575781249E+02  0.17099753738E+02  0.51100000000E-03 0. -1.
        -11    1    3    3    0    0  0.61427600448E+01  0.13826475642E+02  0.15764973955E+02  0.21850385208E+02  0.51100000000E-03 0.  1.
        -12    1    3    3    0    0 -0.17936610378E+02 -0.63397324671E+01 -0.27588064110E+02  0.33511423141E+02  0.00000000000E+00 0.  1.
</event>
<event>
 7    1  0.1358622E-013  0.7246160E+02  0.7816164E-02  0.1226708E+00
        -11   -1    0    0    0    0  0.00000000000E+00  0.00000000000E+00  0.45593999997E+02  0.45594000000E+02  0.51100000000E-03 0. -1.
         11   -1    0    0    0    0 -0.00000000000E+00 -0.00000000000E+00 -0.45593999997E+02  0.45594000000E+02  0.51100000000E-03 0.  1.
    9900012    2    1    2    0    0  0.14185555508E+02  0.60347437096E+00  0.12209990502E+02  0.72461600601E+02  0.70000039481E+02 0.  0.
        -12    1    1    2    0    0 -0.14185555508E+02 -0.60347437096E+00 -0.12209990502E+02  0.18726399399E+02  0.00000000000E+00 0.  1.
         11    1    3    3    0    0  0.32244950661E+02  0.10938318197E+02  0.14576890311E+01  0.34080911162E+02  0.51100000000E-03 0. -1.
        -11    1    3    3    0    0  0.38017108185E+01 -0.88939242647E+01  0.13168797620E+02  0.16339281655E+02  0.51100000000E-03 0.  1.
        -12    1    3    3    0    0 -0.21861105971E+02 -0.14409195611E+01 -0.24164961499E+01  0.22041407784E+02  0.00000000000E+00 0.  1.
</event>
<event>
 7    1  0.1358622E-013  0.7246156E+02  0.7816164E-02  0.1226708E+00
        -11   -1    0    0    0    0  0.00000000000E+00  0.00000000000E+00  0.45593999997E+02  0.45594000000E+02  0.51100000000E-03 0.  1.
         11   -1    0    0    0    0 -0.00000000000E+00 -0.00000000000E+00 -0.45593999997E+02  0.45594000000E+02  0.51100000000E-03 0. -1.
    9900012    2    1    2    0    0 -0.18082453474E+02  0.28794753050E+00 -0.48601856725E+01  0.72461563014E+02  0.69999990516E+02 0.  0.
        -12    1    1    2    0    0  0.18082453474E+02 -0.28794753050E+00  0.48601856725E+01  0.18726436986E+02  0.00000000000E+00 0.  1.
         11    1    3    3    0    0 -0.11541125366E+02 -0.15245509426E+02  0.22818048500E+01  0.19256940723E+02  0.51100000000E-03 0. -1.
        -11    1    3    3    0    0 -0.18618192097E+02  0.14231567501E+02 -0.23262561873E+02  0.33020014773E+02  0.51100000000E-03 0.  1.
        -12    1    3    3    0    0  0.12076863990E+02  0.13018894554E+01  0.16120571350E+02  0.20184607517E+02  0.00000000000E+00 0.  1.
</event>
<event>
 7    1  0.1358622E-013  0.7246149E+02  0.7816164E-02  0.1226708E+00
        -11   -1    0    0    0    0  0.00000000000E+00  0.00000000000E+00  0.45593999997E+02  0.45594000000E+02  0.51100000000E-03 0.  1.
         11   -1    0    0    0    0 -0.00000000000E+00 -0.00000000000E+00 -0.45593999997E+02  0.45594000000E+02  0.51100000000E-03 0. -1.
    9900012    2    1    2    0    0 -0.58147873044E+00  0.13901962045E+02 -0.12533130529E+02  0.72461493998E+02  0.69999900609E+02 0.  0.
        -12    1    1    2    0    0  0.58147873044E+00 -0.13901962045E+02  0.12533130529E+02  0.18726506002E+02  0.00000000000E+00 0.  1.
         11    1    3    3    0    0  0.10654815973E+02  0.24304518753E+01  0.20409703637E+01  0.11117452947E+02  0.51100000000E-03 0. -1.
        -11    1    3    3    0    0  0.21785522102E+02 -0.22735188374E+00  0.32661950477E+01  0.22030176860E+02  0.51100000000E-03 0.  1.
         12    1    3    3    0    0 -0.33021816805E+02  0.11698862053E+02 -0.17840295940E+02  0.39313864191E+02  0.00000000000E+00 0. -1.
</event>
<event>
 7    1  0.1358622E-013  0.7246153E+02  0.7816164E-02  0.1226708E+00
        -11   -1    0    0    0    0  0.00000000000E+00  0.00000000000E+00  0.45593999997E+02  0.45594000000E+02  0.51100000000E-03 0.  1.
         11   -1    0    0    0    0 -0.00000000000E+00 -0.00000000000E+00 -0.45593999997E+02  0.45594000000E+02  0.51100000000E-03 0. -1.
    9900012    2    1    2    0    0  0.76179289622E+01  0.10712114379E+02 -0.13337859109E+02  0.72461528850E+02  0.69999946011E+02 0.  0.
        -12    1    1    2    0    0 -0.76179289622E+01 -0.10712114379E+02  0.13337859109E+02  0.18726471150E+02  0.00000000000E+00 0.  1.
         11    1    3    3    0    0 -0.17861983737E+02  0.19341539263E+01 -0.27364346879E+02  0.32735285165E+02  0.51100000000E-03 0. -1.
        -11    1    3    3    0    0 -0.62746201839E+00 -0.22359109951E+01 -0.50562909374E+01  0.55640888623E+01  0.51100000000E-03 0.  1.
        -12    1    3    3    0    0  0.26107374718E+02  0.11013871448E+02  0.19082778708E+02  0.34162154823E+02  0.00000000000E+00 0.  1.
</event>
<event>
 7    1  0.1358622E-013  0.7246136E+02  0.7816164E-02  0.1226709E+00
        -11   -1    0    0    0    0  0.00000000000E+00  0.00000000000E+00  0.45593999997E+02  0.45594000000E+02  0.51100000000E-03 0. -1.
         11   -1    0    0    0    0 -0.00000000000E+00 -0.00000000000E+00 -0.45593999997E+02  0.45594000000E+02  0.51100000000E-03 0.  1.
    9900012    2    1    2    0    0  0.10352273498E+02 -0.15518594653E+02  0.16402829898E+01  0.72461364561E+02  0.69999731994E+02 0.  0.
        -12    1    1    2    0    0 -0.10352273498E+02  0.15518594653E+02 -0.16402829898E+01  0.18726635439E+02  0.00000000000E+00 0.  1.
         11    1    3    3    0    0  0.29826832202E+01 -0.44472804255E+01 -0.77868166685E+01  0.94503553618E+01  0.51100000000E-03 0. -1.
        -11    1    3    3    0    0 -0.10237980406E+02  0.16852260191E+02 -0.12531405883E+02  0.23363455438E+02  0.51100000000E-03 0.  1.
         12    1    3    3    0    0  0.17607570683E+02 -0.27923574418E+02  0.21958505542E+02  0.39647553761E+02  0.00000000000E+00 0. -1.
</event>
<event>
 7    1  0.1358622E-013  0.7246159E+02  0.7816164E-02  0.1226708E+00
        -11   -1    0    0    0    0  0.00000000000E+00  0.00000000000E+00  0.45593999997E+02  0.45594000000E+02  0.51100000000E-03 0.  1.
         11   -1    0    0    0    0 -0.00000000000E+00 -0.00000000000E+00 -0.45593999997E+02  0.45594000000E+02  0.51100000000E-03 0. -1.
    9900012    2    1    2    0    0 -0.72329390005E+01 -0.11393346949E+02 -0.12982857708E+02  0.72461592027E+02  0.70000028311E+02 0.  0.
        -12    1    1    2    0    0  0.72329390005E+01  0.11393346949E+02  0.12982857708E+02  0.18726407973E+02  0.00000000000E+00 0.  1.
         11    1    3    3    0    0 -0.28224235272E+02  0.37324291134E+01 -0.22852719758E+02  0.36507331927E+02  0.51100000000E-03 0. -1.
        -11    1    3    3    0    0  0.66568051237E+01 -0.10891037570E+02 -0.60429010336E+01  0.14122478783E+02  0.51100000000E-03 0.  1.
        -12    1    3    3    0    0  0.14334491148E+02 -0.42347384920E+01  0.15912763083E+02  0.21831781318E+02  0.00000000000E+00 0.  1.
</event>
<event>
 7    1  0.1358622E-013  0.7246135E+02  0.7816164E-02  0.1226709E+00
        -11   -1    0    0    0    0  0.00000000000E+00  0.00000000000E+00  0.45593999997E+02  0.45594000000E+02  0.51100000000E-03 0. -1.
         11   -1    0    0    0    0 -0.00000000000E+00 -0.00000000000E+00 -0.45593999997E+02  0.45594000000E+02  0.51100000000E-03 0.  1.
    9900012    2    1    2    0    0 -0.14168382203E+02 -0.12205162804E+02 -0.98916949062E+00  0.72461347614E+02  0.69999709916E+02 0.  0.
        -12    1    1    2    0    0  0.14168382203E+02  0.12205162804E+02  0.98916949062E+00  0.18726652386E+02  0.00000000000E+00 0.  1.
         11    1    3    3    0    0  0.52690444693E+01 -0.47182064917E+01  0.19565474259E+02  0.20804616924E+02  0.51100000000E-03 0. -1.
        -11    1    3    3    0    0  0.79073216034E+01 -0.56525666777E+01  0.76204516091E+01  0.12351053719E+02  0.51100000000E-03 0.  1.
        -12    1    3    3    0    0 -0.27344748276E+02 -0.18343896346E+01 -0.28175095359E+02  0.39305676970E+02  0.00000000000E+00 0.  1.
</event>
<event>
 7    1  0.1358622E-013  0.7246196E+02  0.7816164E-02  0.1226707E+00
        -11   -1    0    0    0    0  0.00000000000E+00  0.00000000000E+00  0.45593999997E+02  0.45594000000E+02  0.51100000000E-03 0. -1.
         11   -1    0    0    0    0 -0.00000000000E+00 -0.00000000000E+00 -0.45593999997E+02  0.45594000000E+02  0.51100000000E-03 0.  1.
    9900012    2    1    2    0    0 -0.27219085563E+01  0.14604473058E+02 -0.11400229226E+02  0.72461958082E+02  0.70000505164E+02 0.  0.
        -12    1    1    2    0    0  0.27219085563E+01 -0.14604473058E+02  0.11400229226E+02  0.18726041918E+02  0.00000000000E+00 0.  1.
         11    1    3    3    0    0 -0.22914504461E+02  0.27575941928E+02  0.37669646109E+01  0.36051312189E+02  0.51100000000E-03 0. -1.
        -11    1    3    3    0    0 -0.45499399146E+01  0.94656520778E+00 -0.13580534558E+01  0.48417195673E+01  0.51100000000E-03 0.  1.
        -12    1    3    3    0    0  0.24742535819E+02 -0.13918034077E+02 -0.13809140381E+02  0.31568926326E+02  0.00000000000E+00 0.  1.
</event>
<event>
 7    1  0.1358622E-013  0.7246166E+02  0.7816164E-02  0.1226708E+00
        -11   -1    0    0    0    0  0.00000000000E+00  0.00000000000E+00  0.45593999997E+02  0.45594000000E+02  0.51100000000E-03 0. -1.
         11   -1    0    0    0    0 -0.00000000000E+00 -0.00000000000E+00 -0.45593999997E+02  0.45594000000E+02  0.51100000000E-03 0.  1.
    9900012    2    1    2    0    0  0.14459153679E+02  0.83674995870E+01  0.84612979859E+01  0.72461661916E+02  0.70000119354E+02 0.  0.
        -12    1    1    2    0    0 -0.14459153679E+02 -0.83674995870E+01 -0.84612979859E+01  0.18726338084E+02  0.00000000000E+00 0.  1.
         11    1    3    3    0    0 -0.20326085804E+02  0.73113213038E+01  0.14535173081E+02  0.26036060380E+02  0.51100000000E-03 0. -1.
        -11    1    3    3    0    0 -0.26681067014E+01  0.38064222540E+01 -0.75232358756E+01  0.88434564536E+01  0.51100000000E-03 0.  1.
        -12    1    3    3    0    0  0.37453346184E+02 -0.27502439708E+01  0.14493607800E+01  0.37582145082E+02  0.00000000000E+00 0.  1.
</event>
<event>
 7    1  0.1358622E-013  0.7246155E+02  0.7816164E-02  0.1226708E+00
        -11   -1    0    0    0    0  0.00000000000E+00  0.00000000000E+00  0.45593999997E+02  0.45594000000E+02  0.51100000000E-03 0.  1.
         11   -1    0    0    0    0 -0.00000000000E+00 -0.00000000000E+00 -0.45593999997E+02  0.45594000000E+02  0.51100000000E-03 0. -1.
    9900012    2    1    2    0    0 -0.37945201380E+01 -0.15662619118E+02 -0.95374924156E+01  0.72461553933E+02  0.69999978687E+02 0.  0.
        -12    1    1    2    0    0  0.37945201380E+01  0.15662619118E+02  0.95374924156E+01  0.18726446067E+02  0.00000000000E+00 0.  1.
         11    1    3    3    0    0  0.19350255734E+02  0.22851515084E+01  0.27436265657E+01  0.19676935773E+02  0.51100000000E-03 0. -1.
        -11    1    3    3    0    0  0.95266719810E+01  0.43449740840E+01 -0.76382527770E+01  0.12960678399E+02  0.51100000000E-03 0.  1.
        -12    1    3    3    0    0 -0.32671447853E+02 -0.22292744710E+02 -0.46428662043E+01  0.39823939762E+02  0.00000000000E+00 0.  1.
</event>
<event>
 8    1  0.1358622E-013  0.7246154E+02  0.7816164E-02  0.1226708E+00
        -11   -1    0    0    0    0  0.00000000000E+00  0.00000000000E+00  0.45593999997E+02  0.45594000000E+02  0.51100000000E-03 0.  1.
         11   -1    0    0    0    0 -0.00000000000E+00 -0.00000000000E+00 -0.45593999997E+02  0.45594000000E+02  0.51100000000E-03 0. -1.
    9900012    2    1    2    0    0 -0.13555175287E+02  0.11209022539E+02  0.64261582424E+01  0.72461535489E+02  0.69999954660E+02 0.  0.
         23    2    3    3    0    0 -0.71123822511E+01 -0.22122552463E+01  0.11785017062E+02  0.56638841429E+02  0.54896190001E+02 0.  0.
        -12    1    1    2    0    0  0.13555175287E+02 -0.11209022539E+02 -0.64261582424E+01  0.18726464511E+02  0.00000000000E+00 0.  1.
         11    1    4    4    0    0  0.45393879962E+01  0.22285665578E+02  0.17765815077E+02  0.28859679819E+02  0.51100000000E-03 0. -1.
        -11    1    4    4    0    0 -0.11651770247E+02 -0.24497920824E+02 -0.59807980147E+01  0.27779161610E+02  0.51100000000E-03 0.  1.
         12    1    3    3    0    0 -0.64427930355E+01  0.13421277785E+02 -0.53588588194E+01  0.15822694060E+02  0.00000000000E+00 0. -1.
</event>
<event>
 7    1  0.1358622E-013  0.7246159E+02  0.7816164E-02  0.1226708E+00
        -11   -1    0    0    0    0  0.00000000000E+00  0.00000000000E+00  0.45593999997E+02  0.45594000000E+02  0.51100000000E-03 0. -1.
         11   -1    0    0    0    0 -0.00000000000E+00 -0.00000000000E+00 -0.45593999997E+02  0.45594000000E+02  0.51100000000E-03 0.  1.
    9900012    2    1    2    0    0  0.45713265347E+01  0.55071131917E+01  0.17304708971E+02  0.72461594190E+02  0.70000031128E+02 0.  0.
        -12    1    1    2    0    0 -0.45713265347E+01 -0.55071131917E+01 -0.17304708971E+02  0.18726405810E+02  0.00000000000E+00 0.  1.
         11    1    3    3    0    0 -0.22163972624E+01  0.11587396103E+02  0.49953718454E+01  0.12811475535E+02  0.51100000000E-03 0. -1.
        -11    1    3    3    0    0 -0.11819722369E+01 -0.14411188274E+02 -0.20379317947E+02  0.24987917202E+02  0.51100000000E-03 0.  1.
         12    1    3    3    0    0  0.79696960341E+01  0.83309053635E+01  0.32688655073E+02  0.34662201452E+02  0.00000000000E+00 0. -1.
</event>
<event>
 7    1  0.1358622E-013  0.7246154E+02  0.7816164E-02  0.1226708E+00
        -11   -1    0    0    0    0  0.00000000000E+00  0.00000000000E+00  0.45593999997E+02  0.45594000000E+02  0.51100000000E-03 0. -1.
         11   -1    0    0    0    0 -0.00000000000E+00 -0.00000000000E+00 -0.45593999997E+02  0.45594000000E+02  0.51100000000E-03 0.  1.
    9900012    2    1    2    0    0  0.13918428853E+02  0.12525546066E+02  0.26149390220E+00  0.72461538908E+02  0.69999959113E+02 0.  0.
        -12    1    1    2    0    0 -0.13918428853E+02 -0.12525546066E+02 -0.26149390220E+00  0.18726461092E+02  0.00000000000E+00 0.  1.
         11    1    3    3    0    0  0.67471695957E+01  0.14036288603E+00 -0.56799147734E+01  0.88207387099E+01  0.51100000000E-03 0. -1.
        -11    1    3    3    0    0  0.10040178697E+02 -0.24441226337E+02  0.22418478950E+01  0.26518005494E+02  0.51100000000E-03 0.  1.
         12    1    3    3    0    0 -0.28689194397E+01  0.36826409517E+02  0.36995607807E+01  0.37122794704E+02  0.00000000000E+00 0. -1.
</event>
<event>
 7    1  0.1358622E-013  0.7246153E+02  0.7816164E-02  0.1226708E+00
        -11   -1    0    0    0    0  0.00000000000E+00  0.00000000000E+00  0.45593999997E+02  0.45594000000E+02  0.51100000000E-03 0. -1.
         11   -1    0    0    0    0 -0.00000000000E+00 -0.00000000000E+00 -0.45593999997E+02  0.45594000000E+02  0.51100000000E-03 0.  1.
    9900012    2    1    2    0    0 -0.66049686258E+00 -0.15409297810E+02  0.10620631129E+02  0.72461534218E+02  0.69999953004E+02 0.  0.
        -12    1    1    2    0    0  0.66049686258E+00  0.15409297810E+02 -0.10620631129E+02  0.18726465782E+02  0.00000000000E+00 0.  1.
         11    1    3    3    0    0  0.14337150362E+02  0.42218555992E+01  0.19198517429E+02  0.24330249011E+02  0.51100000000E-03 0. -1.
        -11    1    3    3    0    0  0.11368832850E+02  0.29962150383E+01  0.17444494084E+01  0.11885738048E+02  0.51100000000E-03 0.  1.
        -12    1    3    3    0    0 -0.26366480075E+02 -0.22627368447E+02 -0.10322335708E+02  0.36245547159E+02  0.00000000000E+00 0.  1.
</event>
<event>
 7    1  0.1358622E-013  0.7246159E+02  0.7816164E-02  0.1226708E+00
        -11   -1    0    0    0    0  0.00000000000E+00  0.00000000000E+00  0.45593999997E+02  0.45594000000E+02  0.51100000000E-03 0. -1.
         11   -1    0    0    0    0 -0.00000000000E+00 -0.00000000000E+00 -0.45593999997E+02  0.45594000000E+02  0.51100000000E-03 0.  1.
    9900012    2    1    2    0    0  0.11494982575E+02  0.14001588478E+02 -0.47433370175E+01  0.72461592166E+02  0.70000028491E+02 0.  0.
        -12    1    1    2    0    0 -0.11494982575E+02 -0.14001588478E+02  0.47433370175E+01  0.18726407834E+02  0.00000000000E+00 0.  1.
         11    1    3    3    0    0  0.73612703581E+01  0.21960395071E+02  0.30835890132E+01  0.23365696532E+02  0.51100000000E-03 0. -1.
        -11    1    3    3    0    0  0.87821070542E+01 -0.10132204956E+02 -0.26516958766E+02  0.29714240425E+02  0.51100000000E-03 0.  1.
         12    1    3    3    0    0 -0.46483948372E+01  0.21733983625E+01  0.18690032735E+02  0.19381655209E+02  0.00000000000E+00 0. -1.
</event>
<event>
 7    1  0.1358622E-013  0.7246149E+02  0.7816164E-02  0.1226708E+00
        -11   -1    0    0    0    0  0.00000000000E+00  0.00000000000E+00  0.45593999997E+02  0.45594000000E+02  0.51100000000E-03 0.  1.
         11   -1    0    0    0    0 -0.00000000000E+00 -0.00000000000E+00 -0.45593999997E+02  0.45594000000E+02  0.51100000000E-03 0. -1.
    9900012    2    1    2    0    0 -0.10911174417E+02  0.31450600814E+01 -0.14890832539E+02  0.72461494085E+02  0.69999900724E+02 0.  0.
        -12    1    1    2    0    0  0.10911174417E+02 -0.31450600814E+01  0.14890832539E+02  0.18726505915E+02  0.00000000000E+00 0.  1.
         11    1    3    3    0    0 -0.57942035798E+01 -0.13209421889E+02 -0.78957257580E+01  0.16443968721E+02  0.51100000000E-03 0. -1.
        -11    1    3    3    0    0  0.55002669620E+01 -0.52436559773E+01  0.19077499167E+02  0.20535331490E+02  0.51100000000E-03 0.  1.
         12    1    3    3    0    0 -0.10617237799E+02  0.21598137948E+02 -0.26072605948E+02  0.35482193875E+02  0.00000000000E+00 0. -1.
</event>
<event>
 7    1  0.1358622E-013  0.7246180E+02  0.7816164E-02  0.1226707E+00
        -11   -1    0    0    0    0  0.00000000000E+00  0.00000000000E+00  0.45593999997E+02  0.45594000000E+02  0.51100000000E-03 0.  1.
         11   -1    0    0    0    0 -0.00000000000E+00 -0.00000000000E+00 -0.45593999997E+02  0.45594000000E+02  0.51100000000E-03 0. -1.
    9900012    2    1    2    0    0 -0.17544769762E+02  0.62607470967E+01 -0.19117433698E+01  0.72461797424E+02  0.70000295878E+02 0.  0.
        -12    1    1    2    0    0  0.17544769762E+02 -0.62607470967E+01  0.19117433698E+01  0.18726202576E+02  0.00000000000E+00 0.  1.
         11    1    3    3    0    0  0.12031109441E+01  0.13715703029E+02 -0.19667042141E+02  0.24007509916E+02  0.51100000000E-03 0. -1.
        -11    1    3    3    0    0  0.45086812765E+01  0.13168194405E+02  0.41544240105E+01  0.14525453173E+02  0.51100000000E-03 0.  1.
        -12    1    3    3    0    0 -0.23256561983E+02 -0.20623150338E+02  0.13600874760E+02  0.33928834335E+02  0.00000000000E+00 0.  1.
</event>
<event>
 7    1  0.1358622E-013  0.7246147E+02  0.7816164E-02  0.1226708E+00
        -11   -1    0    0    0    0  0.00000000000E+00  0.00000000000E+00  0.45593999997E+02  0.45594000000E+02  0.51100000000E-03 0. -1.
         11   -1    0    0    0    0 -0.00000000000E+00 -0.00000000000E+00 -0.45593999997E+02  0.45594000000E+02  0.51100000000E-03 0.  1.
    9900012    2    1    2    0    0 -0.10380675726E+02 -0.63784988367E+01  0.14221079456E+02  0.72461473979E+02  0.69999874531E+02 0.  0.
        -12    1    1    2    0    0  0.10380675726E+02  0.63784988367E+01 -0.14221079456E+02  0.18726526021E+02  0.00000000000E+00 0.  1.
         11    1    3    3    0    0 -0.84500835851E+01 -0.86002851396E+00 -0.19403394264E+02  0.21181012036E+02  0.51100000000E-03 0. -1.
        -11    1    3    3    0    0  0.15156258900E+02 -0.10043280638E+02  0.73446242612E+01  0.19609262495E+02  0.51100000000E-03 0.  1.
         12    1    3    3    0    0 -0.17086851041E+02  0.45248103147E+01  0.26279849458E+02  0.31671199448E+02  0.00000000000E+00 0. -1.
</event>
<event>
 7    1  0.1358622E-013  0.7246156E+02  0.7816164E-02  0.1226708E+00
        -11   -1    0    0    0    0  0.00000000000E+00  0.00000000000E+00  0.45593999997E+02  0.45594000000E+02  0.51100000000E-03 0. -1.
         11   -1    0    0    0    0 -0.00000000000E+00 -0.00000000000E+00 -0.45593999997E+02  0.45594000000E+02  0.51100000000E-03 0.  1.
    9900012    2    1    2    0    0  0.80303106257E+01 -0.79500528963E+01  0.14932857913E+02  0.72461562131E+02  0.69999989366E+02 0.  0.
        -12    1    1    2    0    0 -0.80303106257E+01  0.79500528963E+01 -0.14932857913E+02  0.18726437869E+02  0.00000000000E+00 0.  1.
         11    1    3    3    0    0 -0.22813257041E+02 -0.33095284715E+01  0.12124648541E+02  0.26046204677E+02  0.51100000000E-03 0. -1.
        -11    1    3    3    0    0  0.72160472602E+01  0.59417507292E+01 -0.13052276361E+02  0.16054209985E+02  0.51100000000E-03 0.  1.
        -12    1    3    3    0    0  0.23627520407E+02 -0.10582275154E+02  0.15860485732E+02  0.30361147470E+02  0.00000000000E+00 0.  1.
</event>
<event>
 7    1  0.1358622E-013  0.7246209E+02  0.7816164E-02  0.1226707E+00
        -11   -1    0    0    0    0  0.00000000000E+00  0.00000000000E+00  0.45593999997E+02  0.45594000000E+02  0.51100000000E-03 0. -1.
         11   -1    0    0    0    0 -0.00000000000E+00 -0.00000000000E+00 -0.45593999997E+02  0.45594000000E+02  0.51100000000E-03 0.  1.
    9900012    2    1    2    0    0  0.15408553035E+02 -0.10641104250E+02  0.56956229630E-01  0.72462086129E+02  0.70000671967E+02 0.  0.
        -12    1    1    2    0    0 -0.15408553035E+02  0.10641104250E+02 -0.56956229630E-01  0.18725913871E+02  0.00000000000E+00 0.  1.
         11    1    3    3    0    0 -0.10409052066E+02  0.16564300030E+01  0.12628372809E+01  0.10615407836E+02  0.51100000000E-03 0. -1.
        -11    1    3    3    0    0 -0.14992882468E+02 -0.20107402957E+01  0.10196130446E+02  0.18242551290E+02  0.51100000000E-03 0.  1.
        -12    1    3    3    0    0  0.40810487569E+02 -0.10286793958E+02 -0.11402011497E+02  0.43604127003E+02  0.00000000000E+00 0.  1.
</event>
<event>
 7    1  0.1358622E-013  0.7246147E+02  0.7816164E-02  0.1226708E+00
        -11   -1    0    0    0    0  0.00000000000E+00  0.00000000000E+00  0.45593999997E+02  0.45594000000E+02  0.51100000000E-03 0. -1.
         11   -1    0    0    0    0 -0.00000000000E+00 -0.00000000000E+00 -0.45593999997E+02  0.45594000000E+02  0.51100000000E-03 0.  1.
    9900012    2    1    2    0    0 -0.11436579858E+02 -0.14742191392E+02 -0.15985154321E+01  0.72461472894E+02  0.69999873117E+02 0.  0.
        -12    1    1    2    0    0  0.11436579858E+02  0.14742191392E+02  0.15985154321E+01  0.18726527106E+02  0.00000000000E+00 0.  1.
         11    1    3    3    0    0  0.37512675630E+01  0.95896754720E+01  0.10295676973E+02  0.14561416435E+02  0.51100000000E-03 0. -1.
        -11    1    3    3    0    0  0.81190708390E+01  0.83293020827E+01 -0.13404100506E+02  0.17747295431E+02  0.51100000000E-03 0.  1.
        -12    1    3    3    0    0 -0.23306918260E+02 -0.32661168947E+02  0.15099081003E+01  0.40152761028E+02  0.00000000000E+00 0.  1.
</event>
<event>
 7    1  0.1358622E-013  0.7246159E+02  0.7816164E-02  0.1226708E+00
        -11   -1    0    0    0    0  0.00000000000E+00  0.00000000000E+00  0.45593999997E+02  0.45594000000E+02  0.51100000000E-03 0.  1.
         11   -1    0    0    0    0 -0.00000000000E+00 -0.00000000000E+00 -0.45593999997E+02  0.45594000000E+02  0.51100000000E-03 0. -1.
    9900012    2    1    2    0    0  0.15057830363E+02 -0.92335004272E+01 -0.62195431784E+01  0.72461588098E+02  0.70000023192E+02 0.  0.
        -12    1    1    2    0    0 -0.15057830363E+02  0.92335004272E+01  0.62195431784E+01  0.18726411902E+02  0.00000000000E+00 0.  1.
         11    1    3    3    0    0 -0.84818758763E+01  0.34610138359E+01 -0.72559446563E+01  0.11686298313E+02  0.51100000000E-03 0. -1.
        -11    1    3    3    0    0  0.34273081028E+02  0.92581777889E+01  0.55292782923E+01  0.35929526267E+02  0.51100000000E-03 0.  1.
         12    1    3    3    0    0 -0.10733374788E+02 -0.21952692052E+02 -0.44928768144E+01  0.24845763517E+02  0.00000000000E+00 0. -1.
</event>
<event>
 7    1  0.1358622E-013  0.7246154E+02  0.7816164E-02  0.1226708E+00
        -11   -1    0    0    0    0  0.00000000000E+00  0.00000000000E+00  0.45593999997E+02  0.45594000000E+02  0.51100000000E-03 0.  1.
         11   -1    0    0    0    0 -0.00000000000E+00 -0.00000000000E+00 -0.45593999997E+02  0.45594000000E+02  0.51100000000E-03 0. -1.
    9900012    2    1    2    0    0 -0.24905962102E+01  0.55430574031E+01 -0.17713033717E+02  0.72461544961E+02  0.69999966999E+02 0.  0.
        -12    1    1    2    0    0  0.24905962102E+01 -0.55430574031E+01  0.17713033717E+02  0.18726455039E+02  0.00000000000E+00 0.  1.
         11    1    3    3    0    0  0.97228055527E+01  0.25580153751E+02  0.17926406075E+01  0.27424273451E+02  0.51100000000E-03 0. -1.
        -11    1    3    3    0    0  0.92894874232E+01 -0.13576618925E+01  0.16821712732E+01  0.95376895973E+01  0.51100000000E-03 0.  1.
        -12    1    3    3    0    0 -0.21502889186E+02 -0.18679434455E+02 -0.21187845598E+02  0.35499581913E+02  0.00000000000E+00 0.  1.
</event>
<event>
 7    1  0.1358622E-013  0.7246149E+02  0.7816164E-02  0.1226708E+00
        -11   -1    0    0    0    0  0.00000000000E+00  0.00000000000E+00  0.45593999997E+02  0.45594000000E+02  0.51100000000E-03 0.  1.
         11   -1    0    0    0    0 -0.00000000000E+00 -0.00000000000E+00 -0.45593999997E+02  0.45594000000E+02  0.51100000000E-03 0. -1.
    9900012    2    1    2    0    0 -0.18215268418E+02 -0.30609052098E+01 -0.30849825396E+01  0.72461487737E+02  0.69999892454E+02 0.  0.
        -12    1    1    2    0    0  0.18215268418E+02  0.30609052098E+01  0.30849825396E+01  0.18726512263E+02  0.00000000000E+00 0.  1.
         11    1    3    3    0    0  0.68465552251E+01  0.16148603681E+01  0.81979517430E+01  0.10802291678E+02  0.51100000000E-03 0. -1.
        -11    1    3    3    0    0 -0.10203124454E+02  0.20007505173E+02  0.11216610105E+02  0.25104110309E+02  0.51100000000E-03 0.  1.
        -12    1    3    3    0    0 -0.14858699190E+02 -0.24683270751E+02 -0.22499544388E+02  0.36555085751E+02  0.00000000000E+00 0.  1.
</event>
<event>
 7    1  0.1358622E-013  0.7246159E+02  0.7816164E-02  0.1226708E+00
        -11   -1    0    0    0    0  0.00000000000E+00  0.00000000000E+00  0.45593999997E+02  0.45594000000E+02  0.51100000000E-03 0. -1.
         11   -1    0    0    0    0 -0.00000000000E+00 -0.00000000000E+00 -0.45593999997E+02  0.45594000000E+02  0.51100000000E-03 0.  1.
    9900012    2    1    2    0    0 -0.14623997679E+02  0.11115157356E+02  0.36428406307E+01  0.72461593003E+02  0.70000029582E+02 0.  0.
        -12    1    1    2    0    0  0.14623997679E+02 -0.11115157356E+02 -0.36428406307E+01  0.18726406997E+02  0.00000000000E+00 0.  1.
         11    1    3    3    0    0 -0.60837902472E+01 -0.11236647304E+02  0.26488918260E+01  0.13049573732E+02  0.51100000000E-03 0.  1.
        -11    1    3    3    0    0  0.20892826130E+02  0.13305529075E+02 -0.10005717858E+02  0.26714446986E+02  0.51100000000E-03 0. -1.
         12    1    3    3    0    0 -0.29433033562E+02  0.90462755851E+01  0.10999666663E+02  0.32697572285E+02  0.00000000000E+00 0. -1.
</event>
<event>
 7    1  0.1358622E-013  0.7246158E+02  0.7816164E-02  0.1226708E+00
        -11   -1    0    0    0    0  0.00000000000E+00  0.00000000000E+00  0.45593999997E+02  0.45594000000E+02  0.51100000000E-03 0. -1.
         11   -1    0    0    0    0 -0.00000000000E+00 -0.00000000000E+00 -0.45593999997E+02  0.45594000000E+02  0.51100000000E-03 0.  1.
    9900012    2    1    2    0    0  0.17529885869E+02 -0.22892831983E+01  0.61758539347E+01  0.72461577812E+02  0.70000009793E+02 0.  0.
        -12    1    1    2    0    0 -0.17529885869E+02  0.22892831983E+01 -0.61758539347E+01  0.18726422188E+02  0.00000000000E+00 0.  1.
         11    1    3    3    0    0 -0.12034648626E+02  0.11530776008E+02 -0.44817206669E+01  0.17259124639E+02  0.51100000000E-03 0. -1.
        -11    1    3    3    0    0 -0.10602094575E+02  0.18988773052E+01 -0.67823115295E-02  0.10770802693E+02  0.51100000000E-03 0.  1.
         12    1    3    3    0    0  0.40166629071E+02 -0.15718936512E+02  0.10664356913E+02  0.44431650479E+02  0.00000000000E+00 0. -1.
</event>
<event>
 7    1  0.1358622E-013  0.7246163E+02  0.7816164E-02  0.1226708E+00
        -11   -1    0    0    0    0  0.00000000000E+00  0.00000000000E+00  0.45593999997E+02  0.45594000000E+02  0.51100000000E-03 0. -1.
         11   -1    0    0    0    0 -0.00000000000E+00 -0.00000000000E+00 -0.45593999997E+02  0.45594000000E+02  0.51100000000E-03 0.  1.
    9900012    2    1    2    0    0 -0.15710287936E+02  0.10189899806E+02 -0.17254435777E+00  0.72461628845E+02  0.70000076273E+02 0.  0.
        -12    1    1    2    0    0  0.15710287936E+02 -0.10189899806E+02  0.17254435777E+00  0.18726371155E+02  0.00000000000E+00 0.  1.
         11    1    3    3    0    0  0.32777842530E+01  0.73896439308E+01  0.99591944445E+01  0.12827168872E+02  0.51100000000E-03 0. -1.
        -11    1    3    3    0    0  0.82890990773E+01 -0.12162402182E+02  0.13959783111E+02  0.20285678079E+02  0.51100000000E-03 0.  1.
         12    1    3    3    0    0 -0.27277171266E+02  0.14962658057E+02 -0.24091521913E+02  0.39348781894E+02  0.00000000000E+00 0. -1.
</event>
<event>
 7    1  0.1358622E-013  0.7246157E+02  0.7816164E-02  0.1226708E+00
        -11   -1    0    0    0    0  0.00000000000E+00  0.00000000000E+00  0.45593999997E+02  0.45594000000E+02  0.51100000000E-03 0.  1.
         11   -1    0    0    0    0 -0.00000000000E+00 -0.00000000000E+00 -0.45593999997E+02  0.45594000000E+02  0.51100000000E-03 0. -1.
    9900012    2    1    2    0    0  0.14617051904E+02 -0.27743282409E+01 -0.11372078328E+02  0.72461567637E+02  0.69999996539E+02 0.  0.
        -12    1    1    2    0    0 -0.14617051904E+02  0.27743282409E+01  0.11372078328E+02  0.18726432363E+02  0.00000000000E+00 0.  1.
         11    1    3    3    0    0  0.26718537089E+01  0.50697110127E+01 -0.15219068293E+02  0.16262251134E+02  0.51100000000E-03 0. -1.
        -11    1    3    3    0    0  0.22804908161E+02 -0.75939292954E+01  0.23581825347E+02  0.33672452915E+02  0.51100000000E-03 0.  1.
         12    1    3    3    0    0 -0.10859709967E+02 -0.25010995820E+00 -0.19734835382E+02  0.22526863588E+02  0.00000000000E+00 0. -1.
</event>
<event>
 7    1  0.1358622E-013  0.7246155E+02  0.7816164E-02  0.1226708E+00
        -11   -1    0    0    0    0  0.00000000000E+00  0.00000000000E+00  0.45593999997E+02  0.45594000000E+02  0.51100000000E-03 0. -1.
         11   -1    0    0    0    0 -0.00000000000E+00 -0.00000000000E+00 -0.45593999997E+02  0.45594000000E+02  0.51100000000E-03 0.  1.
    9900012    2    1    2    0    0 -0.96430676771E+01  0.11995502350E+02  0.10667663810E+02  0.72461551271E+02  0.69999975218E+02 0.  0.
        -12    1    1    2    0    0  0.96430676771E+01 -0.11995502350E+02 -0.10667663810E+02  0.18726448729E+02  0.00000000000E+00 0.  1.
         11    1    3    3    0    0 -0.33963388238E+01  0.66541504957E+01 -0.36963471950E+01  0.83352155984E+01  0.51100000000E-03 0. -1.
        -11    1    3    3    0    0 -0.32020608106E+02  0.12068881891E+02  0.78749505022E+00  0.34228605030E+02  0.51100000000E-03 0.  1.
         12    1    3    3    0    0  0.25773879253E+02 -0.67275300368E+01  0.13576515955E+02  0.29897730643E+02  0.00000000000E+00 0. -1.
</event>
<event>
 7    1  0.1358622E-013  0.7246158E+02  0.7816164E-02  0.1226708E+00
        -11   -1    0    0    0    0  0.00000000000E+00  0.00000000000E+00  0.45593999997E+02  0.45594000000E+02  0.51100000000E-03 0.  1.
         11   -1    0    0    0    0 -0.00000000000E+00 -0.00000000000E+00 -0.45593999997E+02  0.45594000000E+02  0.51100000000E-03 0. -1.
    9900012    2    1    2    0    0 -0.65484994637E+01  0.41993286607E+01 -0.17034124950E+02  0.72461584987E+02  0.70000019140E+02 0.  0.
        -12    1    1    2    0    0  0.65484994637E+01 -0.41993286607E+01  0.17034124950E+02  0.18726415013E+02  0.00000000000E+00 0.  1.
         11    1    3    3    0    0  0.22689291808E+01  0.26366230133E+02 -0.23833048966E+01  0.26570778565E+02  0.51100000000E-03 0. -1.
        -11    1    3    3    0    0  0.55033706559E+01  0.62032670729E+01 -0.11183349683E+02  0.13922461037E+02  0.51100000000E-03 0.  1.
         12    1    3    3    0    0 -0.14320799300E+02 -0.28370168545E+02 -0.34674703711E+01  0.31968345385E+02  0.00000000000E+00 0. -1.
</event>
<event>
 7    1  0.1358622E-013  0.7246161E+02  0.7816164E-02  0.1226708E+00
        -11   -1    0    0    0    0  0.00000000000E+00  0.00000000000E+00  0.45593999997E+02  0.45594000000E+02  0.51100000000E-03 0.  1.
         11   -1    0    0    0    0 -0.00000000000E+00 -0.00000000000E+00 -0.45593999997E+02  0.45594000000E+02  0.51100000000E-03 0. -1.
    9900012    2    1    2    0    0  0.17557368558E+02  0.50806294906E+01 -0.40747413520E+01  0.72461614770E+02  0.70000057937E+02 0.  0.
        -12    1    1    2    0    0 -0.17557368558E+02 -0.50806294906E+01  0.40747413520E+01  0.18726385230E+02  0.00000000000E+00 0.  1.
         11    1    3    3    0    0  0.17751874479E+02  0.18060430455E+02 -0.72967094045E+01  0.26354319648E+02  0.51100000000E-03 0. -1.
        -11    1    3    3    0    0  0.20448058279E+02 -0.14737211335E+02  0.30513686103E+01  0.25389354776E+02  0.51100000000E-03 0.  1.
        -12    1    3    3    0    0 -0.20642564200E+02  0.17574103711E+01  0.17059944219E+00  0.20717940345E+02  0.00000000000E+00 0.  1.
</event>
<event>
 7    1  0.1358622E-013  0.7246163E+02  0.7816164E-02  0.1226708E+00
        -11   -1    0    0    0    0  0.00000000000E+00  0.00000000000E+00  0.45593999997E+02  0.45594000000E+02  0.51100000000E-03 0.  1.
         11   -1    0    0    0    0 -0.00000000000E+00 -0.00000000000E+00 -0.45593999997E+02  0.45594000000E+02  0.51100000000E-03 0. -1.
    9900012    2    1    2    0    0  0.89242481059E+01  0.15312590418E+02  0.60464394998E+01  0.72461626614E+02  0.70000073366E+02 0.  0.
        -12    1    1    2    0    0 -0.89242481059E+01 -0.15312590418E+02 -0.60464394998E+01  0.18726373386E+02  0.00000000000E+00 0.  1.
         11    1    3    3    0    0  0.98398227661E+01 -0.37739003954E+01 -0.17926035628E+02  0.20794402850E+02  0.51100000000E-03 0. -1.
        -11    1    3    3    0    0  0.92117739479E+01 -0.70816439436E+01  0.20270628619E+02  0.23364606675E+02  0.51100000000E-03 0.  1.
        -12    1    3    3    0    0 -0.10127348608E+02  0.26168134757E+02  0.37018465095E+01  0.28302617089E+02  0.00000000000E+00 0.  1.
</event>
<event>
 7    1  0.1358622E-013  0.7246140E+02  0.7816164E-02  0.1226708E+00
        -11   -1    0    0    0    0  0.00000000000E+00  0.00000000000E+00  0.45593999997E+02  0.45594000000E+02  0.51100000000E-03 0.  1.
         11   -1    0    0    0    0 -0.00000000000E+00 -0.00000000000E+00 -0.45593999997E+02  0.45594000000E+02  0.51100000000E-03 0. -1.
    9900012    2    1    2    0    0 -0.13174807679E+02 -0.81588427023E+01 -0.10513958875E+02  0.72461398524E+02  0.69999776237E+02 0.  0.
        -12    1    1    2    0    0  0.13174807679E+02  0.81588427023E+01  0.10513958875E+02  0.18726601476E+02  0.00000000000E+00 0.  1.
         11    1    3    3    0    0  0.18295095639E+02 -0.14098253001E+01  0.97730483372E+00  0.18375343719E+02  0.51100000000E-03 0. -1.
        -11    1    3    3    0    0  0.70070809913E+01  0.88769195690E+01 -0.19671546134E+01  0.11479049725E+02  0.51100000000E-03 0.  1.
         12    1    3    3    0    0 -0.38476984309E+02 -0.15625936971E+02 -0.95241090950E+01  0.42607005079E+02  0.00000000000E+00 0. -1.
</event>
<event>
 7    1  0.1358622E-013  0.7246165E+02  0.7816164E-02  0.1226708E+00
        -11   -1    0    0    0    0  0.00000000000E+00  0.00000000000E+00  0.45593999997E+02  0.45594000000E+02  0.51100000000E-03 0.  1.
         11   -1    0    0    0    0 -0.00000000000E+00 -0.00000000000E+00 -0.45593999997E+02  0.45594000000E+02  0.51100000000E-03 0. -1.
    9900012    2    1    2    0    0 -0.44721270495E+01 -0.15141048832E+02 -0.10070986290E+02  0.72461653722E+02  0.70000108680E+02 0.  0.
        -12    1    1    2    0    0  0.44721270495E+01  0.15141048832E+02  0.10070986290E+02  0.18726346278E+02  0.00000000000E+00 0.  1.
         11    1    3    3    0    0 -0.19080395382E+01 -0.30797792777E+01  0.30815228681E+00  0.36360161402E+01  0.51100000000E-03 0. -1.
        -11    1    3    3    0    0 -0.32608853535E+02 -0.99259858901E+01  0.58913795061E+01  0.34591485622E+02  0.51100000000E-03 0.  1.
         12    1    3    3    0    0  0.30044766024E+02 -0.21352836640E+01 -0.16270518083E+02  0.34234151960E+02  0.00000000000E+00 0. -1.
</event>
<event>
 7    1  0.1358622E-013  0.7246159E+02  0.7816164E-02  0.1226708E+00
        -11   -1    0    0    0    0  0.00000000000E+00  0.00000000000E+00  0.45593999997E+02  0.45594000000E+02  0.51100000000E-03 0.  1.
         11   -1    0    0    0    0 -0.00000000000E+00 -0.00000000000E+00 -0.45593999997E+02  0.45594000000E+02  0.51100000000E-03 0. -1.
    9900012    2    1    2    0    0 -0.95006345690E+01 -0.12013728142E+02 -0.10774346919E+02  0.72461594242E+02  0.70000031197E+02 0.  0.
        -12    1    1    2    0    0  0.95006345690E+01  0.12013728142E+02  0.10774346919E+02  0.18726405758E+02  0.00000000000E+00 0.  1.
         11    1    3    3    0    0  0.13641431447E+02  0.12846719686E+00  0.12476119230E+02  0.18486717044E+02  0.51100000000E-03 0. -1.
        -11    1    3    3    0    0 -0.16564743164E+02 -0.41794846036E+01  0.95603304547E+01  0.19576994823E+02  0.51100000000E-03 0.  1.
         12    1    3    3    0    0 -0.65773228529E+01 -0.79627107348E+01 -0.32810796604E+02  0.34397882376E+02  0.00000000000E+00 0. -1.
</event>
<event>
 7    1  0.1358622E-013  0.7246168E+02  0.7816164E-02  0.1226708E+00
        -11   -1    0    0    0    0  0.00000000000E+00  0.00000000000E+00  0.45593999997E+02  0.45594000000E+02  0.51100000000E-03 0. -1.
         11   -1    0    0    0    0 -0.00000000000E+00 -0.00000000000E+00 -0.45593999997E+02  0.45594000000E+02  0.51100000000E-03 0.  1.
    9900012    2    1    2    0    0 -0.13590932915E+02 -0.12818912314E+02 -0.12794533056E+01  0.72461682391E+02  0.70000146027E+02 0.  0.
        -12    1    1    2    0    0  0.13590932915E+02  0.12818912314E+02  0.12794533056E+01  0.18726317609E+02  0.00000000000E+00 0.  1.
         11    1    3    3    0    0  0.21582417604E+01 -0.23573233695E+02  0.13308059597E+02  0.27156211164E+02  0.51100000000E-03 0. -1.
        -11    1    3    3    0    0 -0.17825109708E+02 -0.42724505427E+01  0.63952438869E+01  0.19413590971E+02  0.51100000000E-03 0.  1.
        -12    1    3    3    0    0  0.20759350326E+01  0.15026771924E+02 -0.20982756789E+02  0.25891880256E+02  0.00000000000E+00 0.  1.
</event>
<event>
 7    1  0.1358622E-013  0.7246159E+02  0.7816164E-02  0.1226708E+00
        -11   -1    0    0    0    0  0.00000000000E+00  0.00000000000E+00  0.45593999997E+02  0.45594000000E+02  0.51100000000E-03 0.  1.
         11   -1    0    0    0    0 -0.00000000000E+00 -0.00000000000E+00 -0.45593999997E+02  0.45594000000E+02  0.51100000000E-03 0. -1.
    9900012    2    1    2    0    0 -0.13289327483E+02 -0.52037524986E+01 -0.12124077517E+02  0.72461587619E+02  0.70000022569E+02 0.  0.
        -12    1    1    2    0    0  0.13289327483E+02  0.52037524986E+01  0.12124077517E+02  0.18726412381E+02  0.00000000000E+00 0.  1.
         11    1    3    3    0    0 -0.49657010692E+01 -0.17463252735E+02 -0.17218824978E+02  0.25022216470E+02  0.51100000000E-03 0. -1.
        -11    1    3    3    0    0 -0.33847645243E+01 -0.96052683851E+01 -0.14464438700E+02  0.17690048016E+02  0.51100000000E-03 0.  1.
        -12    1    3    3    0    0 -0.49388618897E+01  0.21864768621E+02  0.19559186161E+02  0.29749323133E+02  0.00000000000E+00 0.  1.
</event>
<event>
 7    1  0.1358622E-013  0.7246156E+02  0.7816164E-02  0.1226708E+00
        -11   -1    0    0    0    0  0.00000000000E+00  0.00000000000E+00  0.45593999997E+02  0.45594000000E+02  0.51100000000E-03 0.  1.
         11   -1    0    0    0    0 -0.00000000000E+00 -0.00000000000E+00 -0.45593999997E+02  0.45594000000E+02  0.51100000000E-03 0. -1.
    9900012    2    1    2    0    0  0.52256849435E+01 -0.61461378724E+01 -0.16899605136E+02  0.72461562868E+02  0.69999990326E+02 0.  0.
        -12    1    1    2    0    0 -0.52256849435E+01  0.61461378724E+01  0.16899605136E+02  0.18726437132E+02  0.00000000000E+00 0.  1.
         11    1    3    3    0    0 -0.60855283607E+01  0.13493688675E+02 -0.16264249006E+02  0.21991795868E+02  0.51100000000E-03 0. -1.
        -11    1    3    3    0    0  0.37147401939E+01  0.11796913860E+02 -0.10954644338E+02  0.16521825085E+02  0.51100000000E-03 0.  1.
        -12    1    3    3    0    0  0.75964731103E+01 -0.31436740408E+02  0.10319288208E+02  0.33947941915E+02  0.00000000000E+00 0.  1.
</event>
<event>
 7    1  0.1358622E-013  0.7246163E+02  0.7816164E-02  0.1226708E+00
        -11   -1    0    0    0    0  0.00000000000E+00  0.00000000000E+00  0.45593999997E+02  0.45594000000E+02  0.51100000000E-03 0.  1.
         11   -1    0    0    0    0 -0.00000000000E+00 -0.00000000000E+00 -0.45593999997E+02  0.45594000000E+02  0.51100000000E-03 0. -1.
    9900012    2    1    2    0    0 -0.71783508203E+01  0.17287516253E+02 -0.53847419306E+00  0.72461631074E+02  0.70000079176E+02 0.  0.
        -12    1    1    2    0    0  0.71783508203E+01 -0.17287516253E+02  0.53847419306E+00  0.18726368926E+02  0.00000000000E+00 0.  1.
         11    1    3    3    0    0  0.36066533175E+01 -0.74526424759E+01  0.10718158034E+02  0.13543586672E+02  0.51100000000E-03 0. -1.
        -11    1    3    3    0    0 -0.16115579693E+02  0.36814212917E+01  0.16710563973E+02  0.23505482767E+02  0.51100000000E-03 0.  1.
         12    1    3    3    0    0  0.53305755557E+01  0.21058737437E+02 -0.27967196200E+02  0.35412561634E+02  0.00000000000E+00 0. -1.
</event>
<event>
 7    1  0.1358622E-013  0.7246159E+02  0.7816164E-02  0.1226708E+00
        -11   -1    0    0    0    0  0.00000000000E+00  0.00000000000E+00  0.45593999997E+02  0.45594000000E+02  0.51100000000E-03 0.  1.
         11   -1    0    0    0    0 -0.00000000000E+00 -0.00000000000E+00 -0.45593999997E+02  0.45594000000E+02  0.51100000000E-03 0. -1.
    9900012    2    1    2    0    0 -0.54932004429E+00 -0.17451356510E+02 -0.67695433424E+01  0.72461593147E+02  0.70000029770E+02 0.  0.
        -12    1    1    2    0    0  0.54932004429E+00  0.17451356510E+02  0.67695433424E+01  0.18726406853E+02  0.00000000000E+00 0.  1.
         11    1    3    3    0    0 -0.22953193410E+02 -0.11523060763E+02 -0.97144346467E+01  0.27459065130E+02  0.51100000000E-03 0. -1.
        -11    1    3    3    0    0 -0.62957183781E+01 -0.24357024319E+01 -0.10998216615E+02  0.12904630379E+02  0.51100000000E-03 0.  1.
        -12    1    3    3    0    0  0.28699591744E+02 -0.34925933155E+01  0.13943107920E+02  0.32097897638E+02  0.00000000000E+00 0.  1.
</event>
<event>
 7    1  0.1358622E-013  0.7246149E+02  0.7816164E-02  0.1226708E+00
        -11   -1    0    0    0    0  0.00000000000E+00  0.00000000000E+00  0.45593999997E+02  0.45594000000E+02  0.51100000000E-03 0. -1.
         11   -1    0    0    0    0 -0.00000000000E+00 -0.00000000000E+00 -0.45593999997E+02  0.45594000000E+02  0.51100000000E-03 0.  1.
    9900012    2    1    2    0    0 -0.52651704064E+01  0.16295476063E+02 -0.75774372336E+01  0.72461491661E+02  0.69999897566E+02 0.  0.
        -12    1    1    2    0    0  0.52651704064E+01 -0.16295476063E+02  0.75774372336E+01  0.18726508339E+02  0.00000000000E+00 0.  1.
         11    1    3    3    0    0  0.11867139751E+02 -0.12936760355E+02  0.32000792446E+01  0.17844586904E+02  0.51100000000E-03 0. -1.
        -11    1    3    3    0    0  0.43156077293E+01 -0.87896047609E+01 -0.32599881214E+01  0.10320326775E+02  0.51100000000E-03 0.  1.
        -12    1    3    3    0    0 -0.21447917887E+02  0.38021841179E+02 -0.75175283568E+01  0.44296577982E+02  0.00000000000E+00 0.  1.
</event>
<event>
 7    1  0.1358622E-013  0.7246157E+02  0.7816164E-02  0.1226708E+00
        -11   -1    0    0    0    0  0.00000000000E+00  0.00000000000E+00  0.45593999997E+02  0.45594000000E+02  0.51100000000E-03 0. -1.
         11   -1    0    0    0    0 -0.00000000000E+00 -0.00000000000E+00 -0.45593999997E+02  0.45594000000E+02  0.51100000000E-03 0.  1.
    9900012    2    1    2    0    0 -0.55068219028E+01  0.13599098888E+02  0.11636952563E+02  0.72461568333E+02  0.69999997445E+02 0.  0.
        -12    1    1    2    0    0  0.55068219028E+01 -0.13599098888E+02 -0.11636952563E+02  0.18726431667E+02  0.00000000000E+00 0.  1.
         11    1    3    3    0    0 -0.22091644259E+02  0.90648483480E+01  0.19934072992E+02  0.31105939754E+02  0.51100000000E-03 0. -1.
        -11    1    3    3    0    0 -0.84614303130E+01  0.85543564174E+01  0.46208871463E+01  0.12888964851E+02  0.51100000000E-03 0.  1.
        -12    1    3    3    0    0  0.25046252669E+02 -0.40201058774E+01 -0.12918007576E+02  0.28466663728E+02  0.00000000000E+00 0.  1.
</event>
<event>
 7    1  0.1358622E-013  0.7246161E+02  0.7816164E-02  0.1226708E+00
        -11   -1    0    0    0    0  0.00000000000E+00  0.00000000000E+00  0.45593999997E+02  0.45594000000E+02  0.51100000000E-03 0. -1.
         11   -1    0    0    0    0 -0.00000000000E+00 -0.00000000000E+00 -0.45593999997E+02  0.45594000000E+02  0.51100000000E-03 0.  1.
    9900012    2    1    2    0    0  0.71067971770E+01 -0.95434673094E+01  0.14460054575E+02  0.72461614531E+02  0.70000057627E+02 0.  0.
        -12    1    1    2    0    0 -0.71067971770E+01  0.95434673094E+01 -0.14460054575E+02  0.18726385469E+02  0.00000000000E+00 0.  1.
         11    1    3    3    0    0 -0.20673908079E+00  0.20810658269E+01  0.85872981650E+01  0.88382841128E+01  0.51100000000E-03 0. -1.
        -11    1    3    3    0    0  0.17162859492E+02 -0.16003434800E+02  0.29475409127E+02  0.37675899655E+02  0.51100000000E-03 0.  1.
        -12    1    3    3    0    0 -0.98493232342E+01  0.43789016639E+01 -0.23602652717E+02  0.25947430764E+02  0.00000000000E+00 0.  1.
</event>
<event>
 7    1  0.1358622E-013  0.7246160E+02  0.7816164E-02  0.1226708E+00
        -11   -1    0    0    0    0  0.00000000000E+00  0.00000000000E+00  0.45593999997E+02  0.45594000000E+02  0.51100000000E-03 0. -1.
         11   -1    0    0    0    0 -0.00000000000E+00 -0.00000000000E+00 -0.45593999997E+02  0.45594000000E+02  0.51100000000E-03 0.  1.
    9900012    2    1    2    0    0  0.89877776546E+01  0.44391979818E+01  0.15817442062E+02  0.72461598871E+02  0.70000037226E+02 0.  0.
        -12    1    1    2    0    0 -0.89877776546E+01 -0.44391979818E+01 -0.15817442062E+02  0.18726401129E+02  0.00000000000E+00 0.  1.
         11    1    3    3    0    0  0.33290302134E+01 -0.10067718576E+02  0.57049222296E+01  0.12041077086E+02  0.51100000000E-03 0. -1.
        -11    1    3    3    0    0  0.19420125842E+02  0.26394280054E+02 -0.90574153143E+01  0.33997589322E+02  0.51100000000E-03 0.  1.
         12    1    3    3    0    0 -0.13761378401E+02 -0.11887363496E+02  0.19169935146E+02  0.26422932462E+02  0.00000000000E+00 0. -1.
</event>
<event>
 7    1  0.1358622E-013  0.7246161E+02  0.7816164E-02  0.1226708E+00
        -11   -1    0    0    0    0  0.00000000000E+00  0.00000000000E+00  0.45593999997E+02  0.45594000000E+02  0.51100000000E-03 0.  1.
         11   -1    0    0    0    0 -0.00000000000E+00 -0.00000000000E+00 -0.45593999997E+02  0.45594000000E+02  0.51100000000E-03 0. -1.
    9900012    2    1    2    0    0 -0.16772958168E+02  0.78523447126E+01  0.27724177451E+01  0.72461608374E+02  0.70000049605E+02 0.  0.
        -12    1    1    2    0    0  0.16772958168E+02 -0.78523447126E+01 -0.27724177451E+01  0.18726391626E+02  0.00000000000E+00 0.  1.
         11    1    3    3    0    0 -0.69252104780E+01  0.99564258099E+01  0.25202316477E+02  0.27968655870E+02  0.51100000000E-03 0. -1.
        -11    1    3    3    0    0 -0.18461263765E+02  0.10450121306E+02 -0.58979323815E+01  0.22018376455E+02  0.51100000000E-03 0.  1.
         12    1    3    3    0    0  0.86135160745E+01 -0.12554202403E+02 -0.16531966351E+02  0.22474576049E+02  0.00000000000E+00 0. -1.
</event>
<event>
 7    1  0.1358622E-013  0.7246155E+02  0.7816164E-02  0.1226708E+00
        -11   -1    0    0    0    0  0.00000000000E+00  0.00000000000E+00  0.45593999997E+02  0.45594000000E+02  0.51100000000E-03 0.  1.
         11   -1    0    0    0    0 -0.00000000000E+00 -0.00000000000E+00 -0.45593999997E+02  0.45594000000E+02  0.51100000000E-03 0. -1.
    9900012    2    1    2    0    0  0.20275403008E+01  0.13791873625E+02  0.12504124901E+02  0.72461552464E+02  0.69999976773E+02 0.  0.
        -12    1    1    2    0    0 -0.20275403008E+01 -0.13791873625E+02 -0.12504124901E+02  0.18726447536E+02  0.00000000000E+00 0.  1.
         11    1    3    3    0    0 -0.22121413430E+02 -0.94712272785E+01 -0.73709012301E+01  0.25167265714E+02  0.51100000000E-03 0. -1.
        -11    1    3    3    0    0 -0.83625206568E+00  0.90808491514E+01 -0.39818083391E+01  0.99506751901E+01  0.51100000000E-03 0.  1.
        -12    1    3    3    0    0  0.24985205796E+02  0.14182251752E+02  0.23856834471E+02  0.37343611561E+02  0.00000000000E+00 0.  1.
</event>
<event>
 7    1  0.1358622E-013  0.7246159E+02  0.7816164E-02  0.1226708E+00
        -11   -1    0    0    0    0  0.00000000000E+00  0.00000000000E+00  0.45593999997E+02  0.45594000000E+02  0.51100000000E-03 0.  1.
         11   -1    0    0    0    0 -0.00000000000E+00 -0.00000000000E+00 -0.45593999997E+02  0.45594000000E+02  0.51100000000E-03 0. -1.
    9900012    2    1    2    0    0 -0.74897061161E+01 -0.11044489678E+02  0.13137804174E+02  0.72461592216E+02  0.70000028557E+02 0.  0.
        -12    1    1    2    0    0  0.74897061161E+01  0.11044489678E+02 -0.13137804174E+02  0.18726407784E+02  0.00000000000E+00 0.  1.
         11    1    3    3    0    0 -0.28224442171E+02  0.33054646948E+01 -0.78127151744E+00  0.28428077989E+02  0.51100000000E-03 0. -1.
        -11    1    3    3    0    0  0.15085067409E+02 -0.59566538290E+00 -0.83532734592E+01  0.17253731589E+02  0.51100000000E-03 0.  1.
        -12    1    3    3    0    0  0.56496686460E+01 -0.13754288990E+02  0.22272349151E+02  0.26779782638E+02  0.00000000000E+00 0.  1.
</event>
<event>
 7    1  0.1358622E-013  0.7246160E+02  0.7816164E-02  0.1226708E+00
        -11   -1    0    0    0    0  0.00000000000E+00  0.00000000000E+00  0.45593999997E+02  0.45594000000E+02  0.51100000000E-03 0.  1.
         11   -1    0    0    0    0 -0.00000000000E+00 -0.00000000000E+00 -0.45593999997E+02  0.45594000000E+02  0.51100000000E-03 0. -1.
    9900012    2    1    2    0    0 -0.99310436551E+01  0.13730725319E+02 -0.79699298044E+01  0.72461595461E+02  0.70000032784E+02 0.  0.
        -12    1    1    2    0    0  0.99310436551E+01 -0.13730725319E+02  0.79699298044E+01  0.18726404539E+02  0.00000000000E+00 0.  1.
         11    1    3    3    0    0 -0.12903661985E+02 -0.84066937990E+01 -0.42517332409E-01  0.15400610418E+02  0.51100000000E-03 0. -1.
        -11    1    3    3    0    0 -0.18233581615E+02 -0.71990984735E+01 -0.71110626778E+01  0.20853242674E+02  0.51100000000E-03 0.  1.
        -12    1    3    3    0    0  0.21206199945E+02  0.29336517592E+02 -0.81634979419E+00  0.36207742370E+02  0.00000000000E+00 0.  1.
</event>
<event>
 7    1  0.1358622E-013  0.7246163E+02  0.7816164E-02  0.1226708E+00
        -11   -1    0    0    0    0  0.00000000000E+00  0.00000000000E+00  0.45593999997E+02  0.45594000000E+02  0.51100000000E-03 0.  1.
         11   -1    0    0    0    0 -0.00000000000E+00 -0.00000000000E+00 -0.45593999997E+02  0.45594000000E+02  0.51100000000E-03 0. -1.
    9900012    2    1    2    0    0  0.18186018601E+02 -0.96736483470E+00 -0.43600484073E+01  0.72461625835E+02  0.70000072352E+02 0.  0.
        -12    1    1    2    0    0 -0.18186018601E+02  0.96736483470E+00  0.43600484073E+01  0.18726374165E+02  0.00000000000E+00 0.  1.
         11    1    3    3    0    0 -0.38091309262E+00  0.17927013537E+02  0.69268227312E+01  0.19222481176E+02  0.51100000000E-03 0. -1.
        -11    1    3    3    0    0  0.29317969785E+02  0.10095559353E+01 -0.77559015325E+01  0.30343311691E+02  0.51100000000E-03 0.  1.
        -12    1    3    3    0    0 -0.10751038092E+02 -0.19903934307E+02 -0.35309696060E+01  0.22895832968E+02  0.00000000000E+00 0.  1.
</event>
<event>
 7    1  0.1358622E-013  0.7246166E+02  0.7816164E-02  0.1226708E+00
        -11   -1    0    0    0    0  0.00000000000E+00  0.00000000000E+00  0.45593999997E+02  0.45594000000E+02  0.51100000000E-03 0.  1.
         11   -1    0    0    0    0 -0.00000000000E+00 -0.00000000000E+00 -0.45593999997E+02  0.45594000000E+02  0.51100000000E-03 0. -1.
    9900012    2    1    2    0    0 -0.30171835623E+01 -0.18481579360E+02 -0.59595835604E-01  0.72461662292E+02  0.70000119845E+02 0.  0.
        -12    1    1    2    0    0  0.30171835623E+01  0.18481579360E+02  0.59595835604E-01  0.18726337708E+02  0.00000000000E+00 0.  1.
         11    1    3    3    0    0 -0.11369524700E+02 -0.34008122182E+01 -0.18219604739E+02  0.21743633844E+02  0.51100000000E-03 0. -1.
        -11    1    3    3    0    0 -0.17296907556E+02  0.47344711952E-01  0.40439545798E+01  0.17763412437E+02  0.51100000000E-03 0.  1.
        -12    1    3    3    0    0  0.25649248693E+02 -0.15128111853E+02  0.14116054323E+02  0.32954616011E+02  0.00000000000E+00 0.  1.
</event>
<event>
 7    1  0.1358622E-013  0.7246161E+02  0.7816164E-02  0.1226708E+00
        -11   -1    0    0    0    0  0.00000000000E+00  0.00000000000E+00  0.45593999997E+02  0.45594000000E+02  0.51100000000E-03 0.  1.
         11   -1    0    0    0    0 -0.00000000000E+00 -0.00000000000E+00 -0.45593999997E+02  0.45594000000E+02  0.51100000000E-03 0. -1.
    9900012    2    1    2    0    0 -0.13064417522E+01 -0.12638758923E+02 -0.13756184509E+02  0.72461611415E+02  0.70000053568E+02 0.  0.
        -12    1    1    2    0    0  0.13064417522E+01  0.12638758923E+02  0.13756184509E+02  0.18726388585E+02  0.00000000000E+00 0.  1.
         11    1    3    3    0    0  0.92384665803E+01 -0.39145313608E+01  0.12369592222E+02  0.15927323458E+02  0.51100000000E-03 0.  1.
        -11    1    3    3    0    0 -0.41237340920E+01 -0.28574505961E+02 -0.18658999227E+02  0.34375366561E+02  0.51100000000E-03 0. -1.
         12    1    3    3    0    0 -0.64211742405E+01  0.19850278399E+02 -0.74667775043E+01  0.22158921396E+02  0.00000000000E+00 0. -1.
</event>
<event>
 7    1  0.1358622E-013  0.7246157E+02  0.7816164E-02  0.1226708E+00
        -11   -1    0    0    0    0  0.00000000000E+00  0.00000000000E+00  0.45593999997E+02  0.45594000000E+02  0.51100000000E-03 0.  1.
         11   -1    0    0    0    0 -0.00000000000E+00 -0.00000000000E+00 -0.45593999997E+02  0.45594000000E+02  0.51100000000E-03 0. -1.
    9900012    2    1    2    0    0 -0.23284118503E+01  0.58915894968E+01  0.17622335740E+02  0.72461573606E+02  0.70000004314E+02 0.  0.
        -12    1    1    2    0    0  0.23284118503E+01 -0.58915894968E+01 -0.17622335740E+02  0.18726426394E+02  0.00000000000E+00 0.  1.
         11    1    3    3    0    0  0.14000308488E+02 -0.44091944277E+01 -0.17998125774E+02  0.23224602578E+02  0.51100000000E-03 0. -1.
        -11    1    3    3    0    0  0.79412400219E+01  0.34252607867E+01  0.73615405301E+01  0.11357287695E+02  0.51100000000E-03 0.  1.
        -12    1    3    3    0    0 -0.24269960360E+02  0.68755231378E+01  0.28258920984E+02  0.37879683334E+02  0.00000000000E+00 0.  1.
</event>
<event>
 7    1  0.1358622E-013  0.7246156E+02  0.7816164E-02  0.1226708E+00
        -11   -1    0    0    0    0  0.00000000000E+00  0.00000000000E+00  0.45593999997E+02  0.45594000000E+02  0.51100000000E-03 0.  1.
         11   -1    0    0    0    0 -0.00000000000E+00 -0.00000000000E+00 -0.45593999997E+02  0.45594000000E+02  0.51100000000E-03 0. -1.
    9900012    2    1    2    0    0  0.16401021697E+02  0.90119313856E+01 -0.68647110423E+00  0.72461557129E+02  0.69999982850E+02 0.  0.
        -12    1    1    2    0    0 -0.16401021697E+02 -0.90119313856E+01  0.68647110423E+00  0.18726442871E+02  0.00000000000E+00 0.  1.
         11    1    3    3    0    0  0.13878134524E+01  0.15366796756E+01  0.87675604200E+01  0.90087472260E+01  0.51100000000E-03 0. -1.
        -11    1    3    3    0    0  0.72145055851E+01  0.14549408983E+01  0.25809778111E+02  0.26838602614E+02  0.51100000000E-03 0.  1.
         12    1    3    3    0    0  0.77987026599E+01  0.60203108116E+01 -0.35263809635E+02  0.36614207289E+02  0.00000000000E+00 0. -1.
</event>
<event>
 7    1  0.1358622E-013  0.7246160E+02  0.7816164E-02  0.1226708E+00
        -11   -1    0    0    0    0  0.00000000000E+00  0.00000000000E+00  0.45593999997E+02  0.45594000000E+02  0.51100000000E-03 0. -1.
         11   -1    0    0    0    0 -0.00000000000E+00 -0.00000000000E+00 -0.45593999997E+02  0.45594000000E+02  0.51100000000E-03 0.  1.
    9900012    2    1    2    0    0  0.83743392047E+01 -0.16532137458E+02  0.26901285362E+01  0.72461603722E+02  0.70000043545E+02 0.  0.
        -12    1    1    2    0    0 -0.83743392047E+01  0.16532137458E+02 -0.26901285362E+01  0.18726396278E+02  0.00000000000E+00 0.  1.
         11    1    3    3    0    0  0.21423549182E+02 -0.90794861582E+01  0.26531309972E+02  0.35289034239E+02  0.51100000000E-03 0. -1.
        -11    1    3    3    0    0  0.34914119742E+01 -0.16909873669E+01  0.31493896945E+01  0.49968041344E+01  0.51100000000E-03 0.  1.
        -12    1    3    3    0    0 -0.16540621951E+02 -0.57616639325E+01 -0.26990571130E+02  0.32175765348E+02  0.00000000000E+00 0.  1.
</event>
<event>
 7    1  0.1358622E-013  0.7246158E+02  0.7816164E-02  0.1226708E+00
        -11   -1    0    0    0    0  0.00000000000E+00  0.00000000000E+00  0.45593999997E+02  0.45594000000E+02  0.51100000000E-03 0.  1.
         11   -1    0    0    0    0 -0.00000000000E+00 -0.00000000000E+00 -0.45593999997E+02  0.45594000000E+02  0.51100000000E-03 0. -1.
    9900012    2    1    2    0    0 -0.76550526978E+01 -0.16368843941E+02 -0.49132315475E+01  0.72461582083E+02  0.70000015357E+02 0.  0.
        -12    1    1    2    0    0  0.76550526978E+01  0.16368843941E+02  0.49132315475E+01  0.18726417917E+02  0.00000000000E+00 0.  1.
         11    1    3    3    0    0 -0.23234491509E+02 -0.35228054765E+02 -0.18866217952E+01  0.42242357655E+02  0.51100000000E-03 0. -1.
        -11    1    3    3    0    0 -0.14634009587E+01  0.14479519473E+01 -0.53618197982E+01  0.57434500970E+01  0.51100000000E-03 0.  1.
        -12    1    3    3    0    0  0.17042839770E+02  0.17411258877E+02  0.23352100459E+01  0.24475774331E+02  0.00000000000E+00 0.  1.
</event>
<event>
 7    1  0.1358622E-013  0.7246159E+02  0.7816164E-02  0.1226708E+00
        -11   -1    0    0    0    0  0.00000000000E+00  0.00000000000E+00  0.45593999997E+02  0.45594000000E+02  0.51100000000E-03 0.  1.
         11   -1    0    0    0    0 -0.00000000000E+00 -0.00000000000E+00 -0.45593999997E+02  0.45594000000E+02  0.51100000000E-03 0. -1.
    9900012    2    1    2    0    0  0.15983479433E+02  0.27067468471E+01 -0.93744449787E+01  0.72461593192E+02  0.70000029828E+02 0.  0.
        -12    1    1    2    0    0 -0.15983479433E+02 -0.27067468471E+01  0.93744449787E+01  0.18726406808E+02  0.00000000000E+00 0.  1.
         11    1    3    3    0    0  0.70569297768E+01  0.13672103348E+02 -0.11876465256E+02  0.19436488753E+02  0.51100000000E-03 0. -1.
        -11    1    3    3    0    0  0.49128385151E+01 -0.65398064114E+01 -0.24261289186E+02  0.25603031137E+02  0.51100000000E-03 0.  1.
        -12    1    3    3    0    0  0.40137111414E+01 -0.44255500892E+01  0.26763309463E+02  0.27422073301E+02  0.00000000000E+00 0.  1.
</event>
<event>
 7    1  0.1358622E-013  0.7246158E+02  0.7816164E-02  0.1226708E+00
        -11   -1    0    0    0    0  0.00000000000E+00  0.00000000000E+00  0.45593999997E+02  0.45594000000E+02  0.51100000000E-03 0.  1.
         11   -1    0    0    0    0 -0.00000000000E+00 -0.00000000000E+00 -0.45593999997E+02  0.45594000000E+02  0.51100000000E-03 0. -1.
    9900012    2    1    2    0    0  0.15620301562E+02 -0.35496347380E+01 -0.96997440790E+01  0.72461581153E+02  0.70000014145E+02 0.  0.
        -12    1    1    2    0    0 -0.15620301562E+02  0.35496347380E+01  0.96997440790E+01  0.18726418847E+02  0.00000000000E+00 0.  1.
         11    1    3    3    0    0  0.16831850590E+02 -0.10679024054E+02  0.35584828887E+01  0.20248840702E+02  0.51100000000E-03 0. -1.
        -11    1    3    3    0    0 -0.12374403860E+02  0.10005642511E+02  0.14891363384E+02  0.21794298719E+02  0.51100000000E-03 0.  1.
        -12    1    3    3    0    0  0.11162854831E+02 -0.28762531954E+01 -0.28149590352E+02  0.30418441732E+02  0.00000000000E+00 0.  1.
</event>
<event>
 7    1  0.1358622E-013  0.7246156E+02  0.7816164E-02  0.1226708E+00
        -11   -1    0    0    0    0  0.00000000000E+00  0.00000000000E+00  0.45593999997E+02  0.45594000000E+02  0.51100000000E-03 0. -1.
         11   -1    0    0    0    0 -0.00000000000E+00 -0.00000000000E+00 -0.45593999997E+02  0.45594000000E+02  0.51100000000E-03 0.  1.
    9900012    2    1    2    0    0 -0.79259566557E+01  0.62208318387E+01  0.15784808364E+02  0.72461555790E+02  0.69999981105E+02 0.  0.
        -12    1    1    2    0    0  0.79259566557E+01 -0.62208318387E+01 -0.15784808364E+02  0.18726444210E+02  0.00000000000E+00 0.  1.
         11    1    3    3    0    0 -0.99800302066E+01  0.23450505903E+02 -0.10349130809E+02  0.27506939830E+02  0.51100000000E-03 0. -1.
        -11    1    3    3    0    0 -0.46208378964E-01  0.54243473386E+01 -0.43243086687E+01  0.69372418862E+01  0.51100000000E-03 0.  1.
         12    1    3    3    0    0  0.21002819298E+01 -0.22654021403E+02  0.30458247842E+02  0.38017374074E+02  0.00000000000E+00 0. -1.
</event>
<event>
 7    1  0.1358622E-013  0.7246155E+02  0.7816164E-02  0.1226708E+00
        -11   -1    0    0    0    0  0.00000000000E+00  0.00000000000E+00  0.45593999997E+02  0.45594000000E+02  0.51100000000E-03 0. -1.
         11   -1    0    0    0    0 -0.00000000000E+00 -0.00000000000E+00 -0.45593999997E+02  0.45594000000E+02  0.51100000000E-03 0.  1.
    9900012    2    1    2    0    0 -0.58288445145E+01  0.17036588036E+02  0.51438417869E+01  0.72461551628E+02  0.69999975684E+02 0.  0.
        -12    1    1    2    0    0  0.58288445145E+01 -0.17036588036E+02 -0.51438417869E+01  0.18726448372E+02  0.00000000000E+00 0.  1.
         11    1    3    3    0    0  0.14018500490E+01  0.45791013632E+00 -0.47423338309E+00  0.15491167857E+01  0.51100000000E-03 0. -1.
        -11    1    3    3    0    0  0.11254370382E+02  0.33924126198E+02 -0.14478917411E+02  0.38563535116E+02  0.51100000000E-03 0.  1.
         12    1    3    3    0    0 -0.18485064946E+02 -0.17345448298E+02  0.20096992581E+02  0.32348899726E+02  0.00000000000E+00 0. -1.
</event>
<event>
 7    1  0.1358622E-013  0.7246156E+02  0.7816164E-02  0.1226708E+00
        -11   -1    0    0    0    0  0.00000000000E+00  0.00000000000E+00  0.45593999997E+02  0.45594000000E+02  0.51100000000E-03 0.  1.
         11   -1    0    0    0    0 -0.00000000000E+00 -0.00000000000E+00 -0.45593999997E+02  0.45594000000E+02  0.51100000000E-03 0. -1.
    9900012    2    1    2    0    0  0.60694932406E+01 -0.17180147524E+02 -0.43224228843E+01  0.72461559955E+02  0.69999986531E+02 0.  0.
        -12    1    1    2    0    0 -0.60694932406E+01  0.17180147524E+02  0.43224228843E+01  0.18726440045E+02  0.00000000000E+00 0.  1.
         11    1    3    3    0    0 -0.94185133603E+01 -0.38096911061E+02 -0.28198094991E+01  0.39345067698E+02  0.51100000000E-03 0. -1.
        -11    1    3    3    0    0 -0.12357646088E+01 -0.32358097770E+01  0.10736913918E+01  0.36263469976E+01  0.51100000000E-03 0.  1.
        -12    1    3    3    0    0  0.16723771210E+02  0.24152573313E+02 -0.25763047770E+01  0.29490145260E+02  0.00000000000E+00 0.  1.
</event>
<event>
 7    1  0.1358622E-013  0.7246156E+02  0.7816164E-02  0.1226708E+00
        -11   -1    0    0    0    0  0.00000000000E+00  0.00000000000E+00  0.45593999997E+02  0.45594000000E+02  0.51100000000E-03 0. -1.
         11   -1    0    0    0    0 -0.00000000000E+00 -0.00000000000E+00 -0.45593999997E+02  0.45594000000E+02  0.51100000000E-03 0.  1.
    9900012    2    1    2    0    0  0.14455754495E+01  0.17259142882E+02  0.71212225371E+01  0.72461561155E+02  0.69999988094E+02 0.  0.
        -12    1    1    2    0    0 -0.14455754495E+01 -0.17259142882E+02 -0.71212225371E+01  0.18726438845E+02  0.00000000000E+00 0.  1.
         11    1    3    3    0    0  0.26692662585E+02  0.66278040226E+01  0.15301520301E+02  0.31473203616E+02  0.51100000000E-03 0. -1.
        -11    1    3    3    0    0 -0.10281481639E+02  0.14482956144E+02  0.72189087750E+01  0.19172311481E+02  0.51100000000E-03 0.  1.
        -12    1    3    3    0    0 -0.14965605497E+02 -0.38516172845E+01 -0.15399206539E+02  0.21816046058E+02  0.00000000000E+00 0.  1.
</event>
<event>
 7    1  0.1358622E-013  0.7246144E+02  0.7816164E-02  0.1226708E+00
        -11   -1    0    0    0    0  0.00000000000E+00  0.00000000000E+00  0.45593999997E+02  0.45594000000E+02  0.51100000000E-03 0.  1.
         11   -1    0    0    0    0 -0.00000000000E+00 -0.00000000000E+00 -0.45593999997E+02  0.45594000000E+02  0.51100000000E-03 0. -1.
    9900012    2    1    2    0    0 -0.48069819764E+01  0.15040332488E+01 -0.18036484110E+02  0.72461442634E+02  0.69999833699E+02 0.  0.
        -12    1    1    2    0    0  0.48069819764E+01 -0.15040332488E+01  0.18036484110E+02  0.18726557366E+02  0.00000000000E+00 0.  1.
         11    1    3    3    0    0 -0.13476208101E+01 -0.17566444231E+02 -0.25556448299E+01  0.17802453918E+02  0.51100000000E-03 0. -1.
        -11    1    3    3    0    0  0.89960029916E+01  0.16063605834E+02  0.13594058663E+02  0.22885933091E+02  0.51100000000E-03 0.  1.
         12    1    3    3    0    0 -0.12455364158E+02  0.30068716450E+01 -0.29074897943E+02  0.31773055625E+02  0.00000000000E+00 0. -1.
</event>
<event>
 7    1  0.1358622E-013  0.7246157E+02  0.7816164E-02  0.1226708E+00
        -11   -1    0    0    0    0  0.00000000000E+00  0.00000000000E+00  0.45593999997E+02  0.45594000000E+02  0.51100000000E-03 0. -1.
         11   -1    0    0    0    0 -0.00000000000E+00 -0.00000000000E+00 -0.45593999997E+02  0.45594000000E+02  0.51100000000E-03 0.  1.
    9900012    2    1    2    0    0  0.45446318813E+01 -0.15052171170E+02  0.10171418507E+02  0.72461567069E+02  0.69999995798E+02 0.  0.
        -12    1    1    2    0    0 -0.45446318813E+01  0.15052171170E+02 -0.10171418507E+02  0.18726432931E+02  0.00000000000E+00 0.  1.
         11    1    3    3    0    0  0.12064727543E+02  0.48846338115E+01  0.18453762701E+02  0.22582264196E+02  0.51100000000E-03 0. -1.
        -11    1    3    3    0    0 -0.18090364118E+02 -0.28742492252E+02 -0.27825766105E+00  0.33962767296E+02  0.51100000000E-03 0.  1.
         12    1    3    3    0    0  0.10570268457E+02  0.88056872700E+01 -0.80040865326E+01  0.15916535577E+02  0.00000000000E+00 0. -1.
</event>
<event>
 7    1  0.1358622E-013  0.7246174E+02  0.7816164E-02  0.1226708E+00
        -11   -1    0    0    0    0  0.00000000000E+00  0.00000000000E+00  0.45593999997E+02  0.45594000000E+02  0.51100000000E-03 0. -1.
         11   -1    0    0    0    0 -0.00000000000E+00 -0.00000000000E+00 -0.45593999997E+02  0.45594000000E+02  0.51100000000E-03 0.  1.
    9900012    2    1    2    0    0 -0.12702562878E+00 -0.14162165124E+02  0.12251105507E+02  0.72461744564E+02  0.70000227019E+02 0.  0.
        -12    1    1    2    0    0  0.12702562878E+00  0.14162165124E+02 -0.12251105507E+02  0.18726255436E+02  0.00000000000E+00 0.  1.
         11    1    3    3    0    0  0.12842096067E+01  0.52795440117E+01  0.10998196732E+02  0.12267155779E+02  0.51100000000E-03 0. -1.
        -11    1    3    3    0    0  0.67904887752E+01  0.16062790746E+02  0.13172694582E+02  0.21855065024E+02  0.51100000000E-03 0.  1.
        -12    1    3    3    0    0 -0.82017240107E+01 -0.35504499882E+02 -0.11919785808E+02  0.38339523762E+02  0.00000000000E+00 0.  1.
</event>
<event>
 7    1  0.1358622E-013  0.7246155E+02  0.7816164E-02  0.1226708E+00
        -11   -1    0    0    0    0  0.00000000000E+00  0.00000000000E+00  0.45593999997E+02  0.45594000000E+02  0.51100000000E-03 0. -1.
         11   -1    0    0    0    0 -0.00000000000E+00 -0.00000000000E+00 -0.45593999997E+02  0.45594000000E+02  0.51100000000E-03 0.  1.
    9900012    2    1    2    0    0  0.14135044377E+02 -0.10513017168E+02 -0.63526977368E+01  0.72461554046E+02  0.69999978834E+02 0.  0.
        -12    1    1    2    0    0 -0.14135044377E+02  0.10513017168E+02  0.63526977368E+01  0.18726445954E+02  0.00000000000E+00 0.  1.
         11    1    3    3    0    0  0.68403820762E+01 -0.20114219652E+01  0.11880130125E+02  0.13855473190E+02  0.51100000000E-03 0. -1.
        -11    1    3    3    0    0 -0.53134950640E+01 -0.24712169609E+02 -0.26359109360E+02  0.36520230053E+02  0.51100000000E-03 0.  1.
         12    1    3    3    0    0  0.12608157365E+02  0.16210574407E+02  0.81262814986E+01  0.22085850804E+02  0.00000000000E+00 0. -1.
</event>
<event>
 7    1  0.1358622E-013  0.7246153E+02  0.7816164E-02  0.1226708E+00
        -11   -1    0    0    0    0  0.00000000000E+00  0.00000000000E+00  0.45593999997E+02  0.45594000000E+02  0.51100000000E-03 0.  1.
         11   -1    0    0    0    0 -0.00000000000E+00 -0.00000000000E+00 -0.45593999997E+02  0.45594000000E+02  0.51100000000E-03 0. -1.
    9900012    2    1    2    0    0 -0.70914583252E+01  0.10468354005E+02 -0.13813232251E+02  0.72461532047E+02  0.69999950176E+02 0.  0.
        -12    1    1    2    0    0  0.70914583252E+01 -0.10468354005E+02  0.13813232251E+02  0.18726467953E+02  0.00000000000E+00 0.  1.
         11    1    3    3    0    0  0.25666448378E+02  0.35116167254E+01 -0.20643051173E+02  0.33124516394E+02  0.51100000000E-03 0. -1.
        -11    1    3    3    0    0 -0.61924882274E+00 -0.45526880218E+01  0.55938748727E+00  0.46285366964E+01  0.51100000000E-03 0.  1.
        -12    1    3    3    0    0 -0.32138657880E+02  0.11509425302E+02  0.62704314350E+01  0.34708478957E+02  0.00000000000E+00 0.  1.
</event>
<event>
 7    1  0.1358622E-013  0.7246132E+02  0.7816164E-02  0.1226709E+00
        -11   -1    0    0    0    0  0.00000000000E+00  0.00000000000E+00  0.45593999997E+02  0.45594000000E+02  0.51100000000E-03 0. -1.
         11   -1    0    0    0    0 -0.00000000000E+00 -0.00000000000E+00 -0.45593999997E+02  0.45594000000E+02  0.51100000000E-03 0.  1.
    9900012    2    1    2    0    0 -0.59985216866E+01  0.15640952023E+02 -0.83706013740E+01  0.72461318234E+02  0.69999671644E+02 0.  0.
        -12    1    1    2    0    0  0.59985216866E+01 -0.15640952023E+02  0.83706013740E+01  0.18726681766E+02  0.00000000000E+00 0.  1.
         11    1    3    3    0    0  0.13653067290E+01  0.25381084661E+01  0.16080157560E+01  0.33002684713E+01  0.51100000000E-03 0. -1.
        -11    1    3    3    0    0 -0.29143564815E+02 -0.12804619348E+02 -0.14563795827E+02  0.35005853738E+02  0.51100000000E-03 0.  1.
         12    1    3    3    0    0  0.21779736400E+02  0.25907462904E+02  0.45851786969E+01  0.34155196025E+02  0.00000000000E+00 0. -1.
</event>
<event>
 7    1  0.1358622E-013  0.7246154E+02  0.7816164E-02  0.1226708E+00
        -11   -1    0    0    0    0  0.00000000000E+00  0.00000000000E+00  0.45593999997E+02  0.45594000000E+02  0.51100000000E-03 0. -1.
         11   -1    0    0    0    0 -0.00000000000E+00 -0.00000000000E+00 -0.45593999997E+02  0.45594000000E+02  0.51100000000E-03 0.  1.
    9900012    2    1    2    0    0 -0.33812441598E-01 -0.18609187971E+02 -0.20922294521E+01  0.72461536258E+02  0.69999955661E+02 0.  0.
        -12    1    1    2    0    0  0.33812441598E-01  0.18609187971E+02  0.20922294521E+01  0.18726463742E+02  0.00000000000E+00 0.  1.
         11    1    3    3    0    0 -0.11070163035E+02 -0.35479004858E+02 -0.33714975243E+01  0.37318564967E+02  0.51100000000E-03 0. -1.
        -11    1    3    3    0    0 -0.80032788662E+01  0.49180936636E+01  0.72701687512E+01  0.11878361496E+02  0.51100000000E-03 0.  1.
        -12    1    3    3    0    0  0.19039629459E+02  0.11951723224E+02 -0.59909006790E+01  0.23264609795E+02  0.00000000000E+00 0.  1.
</event>
<event>
 7    1  0.1358622E-013  0.7246159E+02  0.7816164E-02  0.1226708E+00
        -11   -1    0    0    0    0  0.00000000000E+00  0.00000000000E+00  0.45593999997E+02  0.45594000000E+02  0.51100000000E-03 0.  1.
         11   -1    0    0    0    0 -0.00000000000E+00 -0.00000000000E+00 -0.45593999997E+02  0.45594000000E+02  0.51100000000E-03 0. -1.
    9900012    2    1    2    0    0 -0.47367147689E+01 -0.15187792765E+02 -0.98779088696E+01  0.72461585514E+02  0.70000019826E+02 0.  0.
        -12    1    1    2    0    0  0.47367147689E+01  0.15187792765E+02  0.98779088696E+01  0.18726414486E+02  0.00000000000E+00 0.  1.
         11    1    3    3    0    0 -0.39113196446E+01  0.63017807815E+01 -0.11473235015E+02  0.13661844105E+02  0.51100000000E-03 0. -1.
        -11    1    3    3    0    0 -0.17954871514E+02 -0.85377167421E+01 -0.20101316814E+02  0.28272477008E+02  0.51100000000E-03 0.  1.
         12    1    3    3    0    0  0.17129476390E+02 -0.12951856805E+02  0.21696642959E+02  0.30527264401E+02  0.00000000000E+00 0. -1.
</event>
<event>
 7    1  0.1358622E-013  0.7246154E+02  0.7816164E-02  0.1226708E+00
        -11   -1    0    0    0    0  0.00000000000E+00  0.00000000000E+00  0.45593999997E+02  0.45594000000E+02  0.51100000000E-03 0. -1.
         11   -1    0    0    0    0 -0.00000000000E+00 -0.00000000000E+00 -0.45593999997E+02  0.45594000000E+02  0.51100000000E-03 0.  1.
    9900012    2    1    2    0    0 -0.10682509983E+02  0.22650695611E+01  0.15212943353E+02  0.72461542644E+02  0.69999963980E+02 0.  0.
        -12    1    1    2    0    0  0.10682509983E+02 -0.22650695611E+01 -0.15212943353E+02  0.18726457356E+02  0.00000000000E+00 0.  1.
         11    1    3    3    0    0 -0.36121574867E+01 -0.22873936119E+02 -0.12880359083E+02  0.26498458175E+02  0.51100000000E-03 0. -1.
        -11    1    3    3    0    0 -0.10022467531E+02  0.39759436467E+00  0.27013136815E+01  0.10387734718E+02  0.51100000000E-03 0.  1.
         12    1    3    3    0    0  0.29521150351E+01  0.24741411315E+02  0.25391988754E+02  0.35575349752E+02  0.00000000000E+00 0. -1.
</event>
<event>
 7    1  0.1358622E-013  0.7246158E+02  0.7816164E-02  0.1226708E+00
        -11   -1    0    0    0    0  0.00000000000E+00  0.00000000000E+00  0.45593999997E+02  0.45594000000E+02  0.51100000000E-03 0. -1.
         11   -1    0    0    0    0 -0.00000000000E+00 -0.00000000000E+00 -0.45593999997E+02  0.45594000000E+02  0.51100000000E-03 0.  1.
    9900012    2    1    2    0    0  0.33145068114E+01 -0.10433981814E+02 -0.15192917806E+02  0.72461583275E+02  0.70000016910E+02 0.  0.
        -12    1    1    2    0    0 -0.33145068114E+01  0.10433981814E+02  0.15192917806E+02  0.18726416725E+02  0.00000000000E+00 0.  1.
         11    1    3    3    0    0 -0.15448023117E+02 -0.88865080071E+01  0.15362050856E+02  0.23528791927E+02  0.51100000000E-03 0. -1.
        -11    1    3    3    0    0 -0.65803610522E+01 -0.33307812956E+01  0.19963977417E+01  0.76407368637E+01  0.51100000000E-03 0.  1.
        -12    1    3    3    0    0  0.25342890980E+02  0.17833074886E+01 -0.32551366403E+02  0.41292054485E+02  0.00000000000E+00 0.  1.
</event>
<event>
 7    1  0.1358622E-013  0.7246157E+02  0.7816164E-02  0.1226708E+00
        -11   -1    0    0    0    0  0.00000000000E+00  0.00000000000E+00  0.45593999997E+02  0.45594000000E+02  0.51100000000E-03 0. -1.
         11   -1    0    0    0    0 -0.00000000000E+00 -0.00000000000E+00 -0.45593999997E+02  0.45594000000E+02  0.51100000000E-03 0.  1.
    9900012    2    1    2    0    0  0.90955796888E+00 -0.16431033066E+02  0.89371776115E+01  0.72461567158E+02  0.69999995915E+02 0.  0.
        -12    1    1    2    0    0 -0.90955796888E+00  0.16431033066E+02 -0.89371776115E+01  0.18726432842E+02  0.00000000000E+00 0.  1.
         11    1    3    3    0    0 -0.10033897972E+02  0.35694048804E+01  0.78199065392E+01  0.13212520511E+02  0.51100000000E-03 0. -1.
        -11    1    3    3    0    0 -0.67568465547E+01 -0.46475060277E+00  0.23630673770E+02  0.24582101448E+02  0.51100000000E-03 0.  1.
        -12    1    3    3    0    0  0.17700302496E+02 -0.19535687344E+02 -0.22513402698E+02  0.34666945199E+02  0.00000000000E+00 0.  1.
</event>
<event>
 7    1  0.1358622E-013  0.7246159E+02  0.7816164E-02  0.1226708E+00
        -11   -1    0    0    0    0  0.00000000000E+00  0.00000000000E+00  0.45593999997E+02  0.45594000000E+02  0.51100000000E-03 0. -1.
         11   -1    0    0    0    0 -0.00000000000E+00 -0.00000000000E+00 -0.45593999997E+02  0.45594000000E+02  0.51100000000E-03 0.  1.
    9900012    2    1    2    0    0 -0.16957413297E+02 -0.28513331541E+01  0.74158365235E+01  0.72461585559E+02  0.70000019885E+02 0.  0.
        -12    1    1    2    0    0  0.16957413297E+02  0.28513331541E+01 -0.74158365235E+01  0.18726414441E+02  0.00000000000E+00 0.  1.
         11    1    3    3    0    0 -0.17681440294E+02  0.18375137411E+02  0.10101525995E+02  0.27428449344E+02  0.51100000000E-03 0. -1.
        -11    1    3    3    0    0  0.16965768619E+01 -0.11759063613E+02  0.18398127346E+02  0.21900799990E+02  0.51100000000E-03 0.  1.
        -12    1    3    3    0    0 -0.97254986507E+00 -0.94674069523E+01 -0.21083816817E+02  0.23132336225E+02  0.00000000000E+00 0.  1.
</event>
<event>
 7    1  0.1358622E-013  0.7246151E+02  0.7816164E-02  0.1226708E+00
        -11   -1    0    0    0    0  0.00000000000E+00  0.00000000000E+00  0.45593999997E+02  0.45594000000E+02  0.51100000000E-03 0. -1.
         11   -1    0    0    0    0 -0.00000000000E+00 -0.00000000000E+00 -0.45593999997E+02  0.45594000000E+02  0.51100000000E-03 0.  1.
    9900012    2    1    2    0    0 -0.17549785560E+02  0.42586472884E+00  0.65195887762E+01  0.72461511494E+02  0.69999923402E+02 0.  0.
        -12    1    1    2    0    0  0.17549785560E+02 -0.42586472884E+00 -0.65195887762E+01  0.18726488506E+02  0.00000000000E+00 0.  1.
         11    1    3    3    0    0 -0.10312135558E+02  0.42281834207E+01  0.11791355147E+02  0.16225095725E+02  0.51100000000E-03 0. -1.
        -11    1    3    3    0    0 -0.15043408361E+02  0.22111561580E+02 -0.10393007652E+02  0.28692157446E+02  0.51100000000E-03 0.  1.
         12    1    3    3    0    0  0.78057583592E+01 -0.25913880272E+02  0.51212412812E+01  0.27544258323E+02  0.00000000000E+00 0. -1.
</event>
<event>
 7    1  0.1358622E-013  0.7246160E+02  0.7816164E-02  0.1226708E+00
        -11   -1    0    0    0    0  0.00000000000E+00  0.00000000000E+00  0.45593999997E+02  0.45594000000E+02  0.51100000000E-03 0.  1.
         11   -1    0    0    0    0 -0.00000000000E+00 -0.00000000000E+00 -0.45593999997E+02  0.45594000000E+02  0.51100000000E-03 0. -1.
    9900012    2    1    2    0    0 -0.98488843076E+01 -0.13624215607E+02 -0.82497479459E+01  0.72461598472E+02  0.70000036707E+02 0.  0.
        -12    1    1    2    0    0  0.98488843076E+01  0.13624215607E+02  0.82497479459E+01  0.18726401528E+02  0.00000000000E+00 0.  1.
         11    1    3    3    0    0 -0.42769198370E+00 -0.23854264222E+02 -0.83778460695E+01  0.25286303546E+02  0.51100000000E-03 0. -1.
        -11    1    3    3    0    0 -0.29795674707E+01  0.17853143978E+02  0.18741609290E+02  0.26054951377E+02  0.51100000000E-03 0.  1.
         12    1    3    3    0    0 -0.64416248532E+01 -0.76230953634E+01 -0.18613511167E+02  0.21120343549E+02  0.00000000000E+00 0. -1.
</event>
<event>
 7    1  0.1358622E-013  0.7246159E+02  0.7816164E-02  0.1226708E+00
        -11   -1    0    0    0    0  0.00000000000E+00  0.00000000000E+00  0.45593999997E+02  0.45594000000E+02  0.51100000000E-03 0.  1.
         11   -1    0    0    0    0 -0.00000000000E+00 -0.00000000000E+00 -0.45593999997E+02  0.45594000000E+02  0.51100000000E-03 0. -1.
    9900012    2    1    2    0    0  0.62345636400E+01  0.13117470441E+02 -0.11821199416E+02  0.72461586296E+02  0.70000020846E+02 0.  0.
        -12    1    1    2    0    0 -0.62345636400E+01 -0.13117470441E+02  0.11821199416E+02  0.18726413704E+02  0.00000000000E+00 0.  1.
         11    1    3    3    0    0 -0.27809971040E+01 -0.63094608062E+01  0.13506644385E+01  0.70262034730E+01  0.51100000000E-03 0. -1.
        -11    1    3    3    0    0 -0.19921274854E+02 -0.10201717516E+02 -0.16227064386E+01  0.22440263112E+02  0.51100000000E-03 0.  1.
         12    1    3    3    0    0  0.28936835598E+02  0.29628648763E+02 -0.11549157416E+02  0.42995119711E+02  0.00000000000E+00 0. -1.
</event>
<event>
 7    1  0.1358622E-013  0.7246156E+02  0.7816164E-02  0.1226708E+00
        -11   -1    0    0    0    0  0.00000000000E+00  0.00000000000E+00  0.45593999997E+02  0.45594000000E+02  0.51100000000E-03 0.  1.
         11   -1    0    0    0    0 -0.00000000000E+00 -0.00000000000E+00 -0.45593999997E+02  0.45594000000E+02  0.51100000000E-03 0. -1.
    9900012    2    1    2    0    0  0.12800228756E+02 -0.97484513369E+01  0.95813031671E+01  0.72461560668E+02  0.69999987460E+02 0.  0.
        -12    1    1    2    0    0 -0.12800228756E+02  0.97484513369E+01 -0.95813031671E+01  0.18726439332E+02  0.00000000000E+00 0.  1.
         11    1    3    3    0    0 -0.13191752972E+02 -0.19612446009E+02  0.24603298956E+01  0.23763913995E+02  0.51100000000E-03 0. -1.
        -11    1    3    3    0    0 -0.80937236192E+01 -0.63694303905E+01  0.12020780451E+00  0.10300119208E+02  0.51100000000E-03 0.  1.
         12    1    3    3    0    0  0.34085705347E+02  0.16233425062E+02  0.70007654669E+01  0.38397527465E+02  0.00000000000E+00 0. -1.
</event>
<event>
 7    1  0.1358622E-013  0.7246160E+02  0.7816164E-02  0.1226708E+00
        -11   -1    0    0    0    0  0.00000000000E+00  0.00000000000E+00  0.45593999997E+02  0.45594000000E+02  0.51100000000E-03 0. -1.
         11   -1    0    0    0    0 -0.00000000000E+00 -0.00000000000E+00 -0.45593999997E+02  0.45594000000E+02  0.51100000000E-03 0.  1.
    9900012    2    1    2    0    0 -0.34047102849E+01  0.44694132050E+01  0.17863660056E+02  0.72461599996E+02  0.70000038692E+02 0.  0.
        -12    1    1    2    0    0  0.34047102849E+01 -0.44694132050E+01 -0.17863660056E+02  0.18726400004E+02  0.00000000000E+00 0.  1.
         11    1    3    3    0    0 -0.97140622261E+01  0.21258571152E+02  0.13933020183E+02  0.27210639537E+02  0.51100000000E-03 0. -1.
        -11    1    3    3    0    0 -0.79478193729E+01  0.76725143268E+01 -0.88808082985E+01  0.14174063115E+02  0.51100000000E-03 0.  1.
        -12    1    3    3    0    0  0.14257171314E+02 -0.24461672274E+02  0.12811448171E+02  0.31076897344E+02  0.00000000000E+00 0.  1.
</event>
<event>
 7    1  0.1358622E-013  0.7246155E+02  0.7816164E-02  0.1226708E+00
        -11   -1    0    0    0    0  0.00000000000E+00  0.00000000000E+00  0.45593999997E+02  0.45594000000E+02  0.51100000000E-03 0.  1.
         11   -1    0    0    0    0 -0.00000000000E+00 -0.00000000000E+00 -0.45593999997E+02  0.45594000000E+02  0.51100000000E-03 0. -1.
    9900012    2    1    2    0    0  0.17051319461E+02 -0.62218850215E+01  0.46065953490E+01  0.72461546270E+02  0.69999968704E+02 0.  0.
        -12    1    1    2    0    0 -0.17051319461E+02  0.62218850215E+01 -0.46065953490E+01  0.18726453730E+02  0.00000000000E+00 0.  1.
         11    1    3    3    0    0 -0.23056984903E+01  0.14178391004E+01  0.15383267371E+02  0.15619584774E+02  0.51100000000E-03 0. -1.
        -11    1    3    3    0    0 -0.11291868642E+02  0.12270187768E+02  0.44345723974E+01  0.17254832305E+02  0.51100000000E-03 0.  1.
         12    1    3    3    0    0  0.30648886593E+02 -0.19909911889E+02 -0.15211244419E+02  0.39587129191E+02  0.00000000000E+00 0. -1.
</event>
<event>
 7    1  0.1358622E-013  0.7246129E+02  0.7816164E-02  0.1226709E+00
        -11   -1    0    0    0    0  0.00000000000E+00  0.00000000000E+00  0.45593999997E+02  0.45594000000E+02  0.51100000000E-03 0.  1.
         11   -1    0    0    0    0 -0.00000000000E+00 -0.00000000000E+00 -0.45593999997E+02  0.45594000000E+02  0.51100000000E-03 0. -1.
    9900012    2    1    2    0    0 -0.16219755584E+02  0.77315671169E+01 -0.52756146422E+01  0.72461288833E+02  0.69999633343E+02 0.  0.
        -12    1    1    2    0    0  0.16219755584E+02 -0.77315671169E+01  0.52756146422E+01  0.18726711167E+02  0.00000000000E+00 0.  1.
         11    1    3    3    0    0 -0.87065020208E+01  0.81838577014E+01 -0.26123616133E+02  0.28726677923E+02  0.51100000000E-03 0. -1.
        -11    1    3    3    0    0 -0.32102964165E+01 -0.15550054675E-01 -0.11069385183E+02  0.11525516625E+02  0.51100000000E-03 0.  1.
        -12    1    3    3    0    0 -0.43029571469E+01 -0.43674052981E+00  0.31917386675E+02  0.32209094285E+02  0.00000000000E+00 0.  1.
</event>
<event>
 7    1  0.1358622E-013  0.7246157E+02  0.7816164E-02  0.1226708E+00
        -11   -1    0    0    0    0  0.00000000000E+00  0.00000000000E+00  0.45593999997E+02  0.45594000000E+02  0.51100000000E-03 0. -1.
         11   -1    0    0    0    0 -0.00000000000E+00 -0.00000000000E+00 -0.45593999997E+02  0.45594000000E+02  0.51100000000E-03 0.  1.
    9900012    2    1    2    0    0 -0.13811694468E+02  0.26916583688E+00  0.12642928596E+02  0.72461574879E+02  0.70000005973E+02 0.  0.
        -12    1    1    2    0    0  0.13811694468E+02 -0.26916583688E+00 -0.12642928596E+02  0.18726425121E+02  0.00000000000E+00 0.  1.
         11    1    3    3    0    0 -0.11321909564E+02  0.70007348247E+01 -0.81597098068E+01  0.15613352896E+02  0.51100000000E-03 0. -1.
        -11    1    3    3    0    0  0.34948356295E+01  0.13658552424E+02 -0.11492237663E+02  0.18189047726E+02  0.51100000000E-03 0.  1.
         12    1    3    3    0    0 -0.59846205328E+01 -0.20390121412E+02  0.32294876066E+02  0.38659174257E+02  0.00000000000E+00 0. -1.
</event>
<event>
 7    1  0.1358622E-013  0.7246157E+02  0.7816164E-02  0.1226708E+00
        -11   -1    0    0    0    0  0.00000000000E+00  0.00000000000E+00  0.45593999997E+02  0.45594000000E+02  0.51100000000E-03 0.  1.
         11   -1    0    0    0    0 -0.00000000000E+00 -0.00000000000E+00 -0.45593999997E+02  0.45594000000E+02  0.51100000000E-03 0. -1.
    9900012    2    1    2    0    0  0.73937261183E+01  0.16706544307E+02 -0.41113728220E+01  0.72461569612E+02  0.69999999112E+02 0.  0.
        -12    1    1    2    0    0 -0.73937261183E+01 -0.16706544307E+02  0.41113728220E+01  0.18726430388E+02  0.00000000000E+00 0.  1.
         11    1    3    3    0    0  0.30000315935E+02  0.16772477035E+01  0.16200061394E+02  0.34136111458E+02  0.51100000000E-03 0.  1.
        -11    1    3    3    0    0  0.18441414584E+00 -0.33471870687E+00 -0.83345726263E+01  0.83433294502E+01  0.51100000000E-03 0. -1.
        -12    1    3    3    0    0 -0.22791003963E+02  0.15364015310E+02 -0.11976861590E+02  0.29982128704E+02  0.00000000000E+00 0.  1.
</event>
<event>
 7    1  0.1358622E-013  0.7246146E+02  0.7816164E-02  0.1226708E+00
        -11   -1    0    0    0    0  0.00000000000E+00  0.00000000000E+00  0.45593999997E+02  0.45594000000E+02  0.51100000000E-03 0.  1.
         11   -1    0    0    0    0 -0.00000000000E+00 -0.00000000000E+00 -0.45593999997E+02  0.45594000000E+02  0.51100000000E-03 0. -1.
    9900012    2    1    2    0    0  0.20045497519E+01 -0.14745880279E+02 -0.11367683555E+02  0.72461456423E+02  0.69999851662E+02 0.  0.
        -12    1    1    2    0    0 -0.20045497519E+01  0.14745880279E+02  0.11367683555E+02  0.18726543577E+02  0.00000000000E+00 0.  1.
         11    1    3    3    0    0  0.41207394577E+01 -0.78721123814E+01 -0.20403808776E+01  0.91166771035E+01  0.51100000000E-03 0.  1.
        -11    1    3    3    0    0 -0.86521116110E+01  0.24425255470E+02  0.78150078547E+01  0.27065226548E+02  0.51100000000E-03 0. -1.
         12    1    3    3    0    0  0.65359219052E+01 -0.31299023367E+02 -0.17142310532E+02  0.36279552771E+02  0.00000000000E+00 0. -1.
</event>
<event>
 7    1  0.1358622E-013  0.7246155E+02  0.7816164E-02  0.1226708E+00
        -11   -1    0    0    0    0  0.00000000000E+00  0.00000000000E+00  0.45593999997E+02  0.45594000000E+02  0.51100000000E-03 0.  1.
         11   -1    0    0    0    0 -0.00000000000E+00 -0.00000000000E+00 -0.45593999997E+02  0.45594000000E+02  0.51100000000E-03 0. -1.
    9900012    2    1    2    0    0  0.16103680805E+02 -0.63031509603E+01 -0.71848137762E+01  0.72461553554E+02  0.69999978192E+02 0.  0.
        -12    1    1    2    0    0 -0.16103680805E+02  0.63031509603E+01  0.71848137762E+01  0.18726446446E+02  0.00000000000E+00 0.  1.
         11    1    3    3    0    0 -0.72324536439E+01 -0.19739595191E+02 -0.83256652411E+00  0.21039324402E+02  0.51100000000E-03 0. -1.
        -11    1    3    3    0    0  0.42879167545E+00  0.16909226660E+01  0.16745409228E+02  0.16836027211E+02  0.51100000000E-03 0.  1.
         12    1    3    3    0    0  0.22907342774E+02  0.11745521565E+02 -0.23097656481E+02  0.34586201941E+02  0.00000000000E+00 0. -1.
</event>
<event>
 7    1  0.1358622E-013  0.7246166E+02  0.7816164E-02  0.1226708E+00
        -11   -1    0    0    0    0  0.00000000000E+00  0.00000000000E+00  0.45593999997E+02  0.45594000000E+02  0.51100000000E-03 0.  1.
         11   -1    0    0    0    0 -0.00000000000E+00 -0.00000000000E+00 -0.45593999997E+02  0.45594000000E+02  0.51100000000E-03 0. -1.
    9900012    2    1    2    0    0  0.12641882054E+02  0.13675597474E+02  0.19587346966E+01  0.72461660535E+02  0.70000117555E+02 0.  0.
        -12    1    1    2    0    0 -0.12641882054E+02 -0.13675597474E+02 -0.19587346966E+01  0.18726339465E+02  0.00000000000E+00 0.  1.
         11    1    3    3    0    0 -0.42893426141E+01  0.16752394759E+02  0.11531440822E+02  0.20784978179E+02  0.51100000000E-03 0. -1.
        -11    1    3    3    0    0  0.23138767564E+02  0.17399248479E+02 -0.88309927287E+01  0.30267521287E+02  0.51100000000E-03 0.  1.
        -12    1    3    3    0    0 -0.62075428958E+01 -0.20476045763E+02 -0.74171339712E+00  0.21409161069E+02  0.00000000000E+00 0.  1.
</event>
<event>
 7    1  0.1358622E-013  0.7246162E+02  0.7816164E-02  0.1226708E+00
        -11   -1    0    0    0    0  0.00000000000E+00  0.00000000000E+00  0.45593999997E+02  0.45594000000E+02  0.51100000000E-03 0. -1.
         11   -1    0    0    0    0 -0.00000000000E+00 -0.00000000000E+00 -0.45593999997E+02  0.45594000000E+02  0.51100000000E-03 0.  1.
    9900012    2    1    2    0    0  0.17214094544E+02  0.45420599509E+01  0.58070476469E+01  0.72461623897E+02  0.70000069828E+02 0.  0.
        -12    1    1    2    0    0 -0.17214094544E+02 -0.45420599509E+01 -0.58070476469E+01  0.18726376103E+02  0.00000000000E+00 0.  1.
         11    1    3    3    0    0  0.25259764323E+02  0.91919316403E+01  0.19378725553E+02  0.33137324956E+02  0.51100000000E-03 0.  1.
        -11    1    3    3    0    0 -0.25270387814E+01 -0.16695471209E+02  0.39651485382E+01  0.17344944136E+02  0.51100000000E-03 0. -1.
        -12    1    3    3    0    0 -0.55186309973E+01  0.12045599520E+02 -0.17536826445E+02  0.21979354805E+02  0.00000000000E+00 0.  1.
</event>
<event>
 7    1  0.1358622E-013  0.7246143E+02  0.7816164E-02  0.1226708E+00
        -11   -1    0    0    0    0  0.00000000000E+00  0.00000000000E+00  0.45593999997E+02  0.45594000000E+02  0.51100000000E-03 0.  1.
         11   -1    0    0    0    0 -0.00000000000E+00 -0.00000000000E+00 -0.45593999997E+02  0.45594000000E+02  0.51100000000E-03 0. -1.
    9900012    2    1    2    0    0  0.14599688989E+02  0.47495899940E+01 -0.10722634934E+02  0.72461430009E+02  0.69999817252E+02 0.  0.
        -12    1    1    2    0    0 -0.14599688989E+02 -0.47495899940E+01  0.10722634934E+02  0.18726569991E+02  0.00000000000E+00 0.  1.
         11    1    3    3    0    0 -0.51489983493E+00  0.91725734179E+01 -0.96451667832E+01  0.13320302830E+02  0.51100000000E-03 0.  1.
        -11    1    3    3    0    0  0.14058753930E+02 -0.93599665527E+01 -0.27482661398E+02  0.32257622568E+02  0.51100000000E-03 0. -1.
        -12    1    3    3    0    0  0.10558348948E+01  0.49369831287E+01  0.26405193248E+02  0.26883504612E+02  0.00000000000E+00 0.  1.
</event>
<event>
 7    1  0.1358622E-013  0.7246164E+02  0.7816164E-02  0.1226708E+00
        -11   -1    0    0    0    0  0.00000000000E+00  0.00000000000E+00  0.45593999997E+02  0.45594000000E+02  0.51100000000E-03 0. -1.
         11   -1    0    0    0    0 -0.00000000000E+00 -0.00000000000E+00 -0.45593999997E+02  0.45594000000E+02  0.51100000000E-03 0.  1.
    9900012    2    1    2    0    0 -0.97489762764E+01  0.12620809692E+02  0.98157564054E+01  0.72461642919E+02  0.70000094606E+02 0.  0.
        -12    1    1    2    0    0  0.97489762764E+01 -0.12620809692E+02 -0.98157564054E+01  0.18726357081E+02  0.00000000000E+00 0.  1.
         11    1    3    3    0    0  0.12380886665E+01 -0.13426890450E+01 -0.51453271300E+01  0.54598597924E+01  0.51100000000E-03 0. -1.
        -11    1    3    3    0    0 -0.12028148373E+01  0.11134559479E+02 -0.24131791825E+02  0.26603919923E+02  0.51100000000E-03 0.  1.
         12    1    3    3    0    0 -0.97842501056E+01  0.28289392587E+01  0.39092875360E+02  0.40397863203E+02  0.00000000000E+00 0. -1.
</event>
<event>
 7    1  0.1358622E-013  0.7246162E+02  0.7816164E-02  0.1226708E+00
        -11   -1    0    0    0    0  0.00000000000E+00  0.00000000000E+00  0.45593999997E+02  0.45594000000E+02  0.51100000000E-03 0.  1.
         11   -1    0    0    0    0 -0.00000000000E+00 -0.00000000000E+00 -0.45593999997E+02  0.45594000000E+02  0.51100000000E-03 0. -1.
    9900012    2    1    2    0    0 -0.98208100128E+01 -0.42475800493E+01 -0.15368375189E+02  0.72461622840E+02  0.70000068450E+02 0.  0.
        -12    1    1    2    0    0  0.98208100128E+01  0.42475800493E+01  0.15368375189E+02  0.18726377160E+02  0.00000000000E+00 0.  1.
         11    1    3    3    0    0  0.70108507751E+01  0.69018555198E+00 -0.31423118569E+01  0.77137869269E+01  0.51100000000E-03 0. -1.
        -11    1    3    3    0    0  0.24051872906E+01  0.19570493658E+02  0.13869298382E+02  0.24106982096E+02  0.51100000000E-03 0.  1.
         12    1    3    3    0    0 -0.19236848078E+02 -0.24508259259E+02 -0.26095361715E+02  0.40640853817E+02  0.00000000000E+00 0. -1.
</event>
<event>
 7    1  0.1358622E-013  0.7246156E+02  0.7816164E-02  0.1226708E+00
        -11   -1    0    0    0    0  0.00000000000E+00  0.00000000000E+00  0.45593999997E+02  0.45594000000E+02  0.51100000000E-03 0.  1.
         11   -1    0    0    0    0 -0.00000000000E+00 -0.00000000000E+00 -0.45593999997E+02  0.45594000000E+02  0.51100000000E-03 0. -1.
    9900012    2    1    2    0    0  0.20798176241E+01  0.76377172689E+01 -0.16971123802E+02  0.72461563886E+02  0.69999991651E+02 0.  0.
        -12    1    1    2    0    0 -0.20798176241E+01 -0.76377172689E+01  0.16971123802E+02  0.18726436114E+02  0.00000000000E+00 0.  1.
         11    1    3    3    0    0 -0.14087801476E+02 -0.72218999023E+01 -0.29837843687E+00  0.15833856718E+02  0.51100000000E-03 0. -1.
        -11    1    3    3    0    0 -0.86833244752E+01  0.19538842388E+02  0.64801200881E+01  0.22341854051E+02  0.51100000000E-03 0.  1.
         12    1    3    3    0    0  0.24850943575E+02 -0.46792252170E+01 -0.23152865454E+02  0.34285853116E+02  0.00000000000E+00 0. -1.
</event>
<event>
 7    1  0.1358622E-013  0.7246157E+02  0.7816164E-02  0.1226708E+00
        -11   -1    0    0    0    0  0.00000000000E+00  0.00000000000E+00  0.45593999997E+02  0.45594000000E+02  0.51100000000E-03 0.  1.
         11   -1    0    0    0    0 -0.00000000000E+00 -0.00000000000E+00 -0.45593999997E+02  0.45594000000E+02  0.51100000000E-03 0. -1.
    9900012    2    1    2    0    0 -0.72928732207E+01  0.16834757439E+02 -0.37528791455E+01  0.72461570556E+02  0.70000000341E+02 0.  0.
        -12    1    1    2    0    0  0.72928732207E+01 -0.16834757439E+02  0.37528791455E+01  0.18726429444E+02  0.00000000000E+00 0.  1.
         11    1    3    3    0    0  0.73977834429E+01  0.37298258723E+01 -0.23692909935E+01  0.86169798061E+01  0.51100000000E-03 0. -1.
        -11    1    3    3    0    0  0.18760417758E+02  0.18636931964E+02 -0.10940699514E+02  0.28617956140E+02  0.51100000000E-03 0.  1.
        -12    1    3    3    0    0 -0.33451074422E+02 -0.55320003972E+01  0.95571113623E+01  0.35226634610E+02  0.00000000000E+00 0.  1.
</event>
<event>
 7    1  0.1358622E-013  0.7246221E+02  0.7816164E-02  0.1226706E+00
        -11   -1    0    0    0    0  0.00000000000E+00  0.00000000000E+00  0.45593999997E+02  0.45594000000E+02  0.51100000000E-03 0. -1.
         11   -1    0    0    0    0 -0.00000000000E+00 -0.00000000000E+00 -0.45593999997E+02  0.45594000000E+02  0.51100000000E-03 0.  1.
    9900012    2    1    2    0    0  0.52949749191E+01  0.84685879058E+01 -0.15839869834E+02  0.72462209847E+02  0.70000833131E+02 0.  0.
        -12    1    1    2    0    0 -0.52949749191E+01 -0.84685879058E+01  0.15839869834E+02  0.18725790153E+02  0.00000000000E+00 0.  1.
         11    1    3    3    0    0  0.17664795267E+02  0.27581170399E+01 -0.34793753905E+01  0.18214232204E+02  0.51100000000E-03 0. -1.
        -11    1    3    3    0    0  0.15718833422E+02  0.16432569054E+02 -0.46741954942E+01  0.23215493828E+02  0.51100000000E-03 0.  1.
         12    1    3    3    0    0 -0.28088653770E+02 -0.10722098188E+02 -0.76862989491E+01  0.31032483815E+02  0.00000000000E+00 0. -1.
</event>
<event>
 7    1  0.1358622E-013  0.7246147E+02  0.7816164E-02  0.1226708E+00
        -11   -1    0    0    0    0  0.00000000000E+00  0.00000000000E+00  0.45593999997E+02  0.45594000000E+02  0.51100000000E-03 0.  1.
         11   -1    0    0    0    0 -0.00000000000E+00 -0.00000000000E+00 -0.45593999997E+02  0.45594000000E+02  0.51100000000E-03 0. -1.
    9900012    2    1    2    0    0  0.40839629875E+01  0.92485117921E+01 -0.15762901957E+02  0.72461473303E+02  0.69999873650E+02 0.  0.
        -12    1    1    2    0    0 -0.40839629875E+01 -0.92485117921E+01  0.15762901957E+02  0.18726526697E+02  0.00000000000E+00 0.  1.
         11    1    3    3    0    0  0.51195632593E+01  0.12932485807E+02 -0.33980059163E+02  0.36716529494E+02  0.51100000000E-03 0. -1.
        -11    1    3    3    0    0  0.14122668465E+01  0.67283522725E+01 -0.60925721756E+01  0.91861122313E+01  0.51100000000E-03 0.  1.
        -12    1    3    3    0    0 -0.24478671183E+01 -0.10412326288E+02  0.24309729381E+02  0.26558831577E+02  0.00000000000E+00 0.  1.
</event>
<event>
 7    1  0.1358622E-013  0.7246157E+02  0.7816164E-02  0.1226708E+00
        -11   -1    0    0    0    0  0.00000000000E+00  0.00000000000E+00  0.45593999997E+02  0.45594000000E+02  0.51100000000E-03 0.  1.
         11   -1    0    0    0    0 -0.00000000000E+00 -0.00000000000E+00 -0.45593999997E+02  0.45594000000E+02  0.51100000000E-03 0. -1.
    9900012    2    1    2    0    0  0.15310510438E+02  0.94873966402E+01  0.51241390810E+01  0.72461568781E+02  0.69999998028E+02 0.  0.
        -12    1    1    2    0    0 -0.15310510438E+02 -0.94873966402E+01 -0.51241390810E+01  0.18726431219E+02  0.00000000000E+00 0.  1.
         11    1    3    3    0    0 -0.13185504895E+02 -0.12969194098E+02 -0.46450718851E+01  0.19069195787E+02  0.51100000000E-03 0. -1.
        -11    1    3    3    0    0  0.25858124834E+02 -0.33908083125E+01  0.14840617827E+01  0.26121689083E+02  0.51100000000E-03 0.  1.
         12    1    3    3    0    0  0.26378904996E+01  0.25847399051E+02  0.82851491833E+01  0.27270683911E+02  0.00000000000E+00 0. -1.
</event>
<event>
 7    1  0.1358622E-013  0.7246156E+02  0.7816164E-02  0.1226708E+00
        -11   -1    0    0    0    0  0.00000000000E+00  0.00000000000E+00  0.45593999997E+02  0.45594000000E+02  0.51100000000E-03 0. -1.
         11   -1    0    0    0    0 -0.00000000000E+00 -0.00000000000E+00 -0.45593999997E+02  0.45594000000E+02  0.51100000000E-03 0.  1.
    9900012    2    1    2    0    0  0.24029681197E+01 -0.15952056292E+02  0.95098566826E+01  0.72461555333E+02  0.69999980511E+02 0.  0.
        -12    1    1    2    0    0 -0.24029681197E+01  0.15952056292E+02 -0.95098566826E+01  0.18726444667E+02  0.00000000000E+00 0.  1.
         11    1    3    3    0    0  0.27156810891E+01  0.11544061172E+02  0.75952123385E+01  0.14082880489E+02  0.51100000000E-03 0. -1.
        -11    1    3    3    0    0 -0.18381371767E+02 -0.20613995467E+02 -0.16085619202E+02  0.31961833216E+02  0.51100000000E-03 0.  1.
         12    1    3    3    0    0  0.18068658798E+02 -0.68821219973E+01  0.18000263546E+02  0.26416841629E+02  0.00000000000E+00 0. -1.
</event>
<event>
 7    1  0.1358622E-013  0.7246154E+02  0.7816164E-02  0.1226708E+00
        -11   -1    0    0    0    0  0.00000000000E+00  0.00000000000E+00  0.45593999997E+02  0.45594000000E+02  0.51100000000E-03 0.  1.
         11   -1    0    0    0    0 -0.00000000000E+00 -0.00000000000E+00 -0.45593999997E+02  0.45594000000E+02  0.51100000000E-03 0. -1.
    9900012    2    1    2    0    0  0.16415990168E+02  0.41821177646E+01 -0.79815702394E+01  0.72461539959E+02  0.69999960482E+02 0.  0.
        -12    1    1    2    0    0 -0.16415990168E+02 -0.41821177646E+01  0.79815702394E+01  0.18726460041E+02  0.00000000000E+00 0.  1.
         11    1    3    3    0    0 -0.12042102483E+02 -0.22628168141E+01 -0.41738753060E+01  0.12944257703E+02  0.51100000000E-03 0. -1.
        -11    1    3    3    0    0 -0.85119259093E+01 -0.85853780105E+01  0.11583829170E+02  0.16743556873E+02  0.51100000000E-03 0.  1.
         12    1    3    3    0    0  0.36970018560E+02  0.15030312589E+02 -0.15391524104E+02  0.42773725383E+02  0.00000000000E+00 0. -1.
</event>
<event>
 7    1  0.1538087E-013  0.7246152E+02  0.7816164E-02  0.1226708E+00
        -11   -1    0    0    0    0  0.00000000000E+00  0.00000000000E+00  0.45593999997E+02  0.45594000000E+02  0.51100000000E-03 0. -1.
         11   -1    0    0    0    0 -0.00000000000E+00 -0.00000000000E+00 -0.45593999997E+02  0.45594000000E+02  0.51100000000E-03 0.  1.
    9900012    2    1    2    0    0  0.85330771243E+01 -0.12416309907E+02  0.11122180691E+02  0.72461519812E+02  0.69999934238E+02 0.  0.
        -12    1    1    2    0    0 -0.85330771243E+01  0.12416309907E+02 -0.11122180691E+02  0.18726480188E+02  0.00000000000E+00 0.  1.
         11    1    3    3    0    0  0.31143804600E+02 -0.10356046962E+02  0.46410383310E+01  0.33146998517E+02  0.51100000000E-03 0. -1.
        -11    1    3    3    0    0 -0.23908553127E+01 -0.13839540131E+02 -0.24702760979E+01  0.14260130589E+02  0.51100000000E-03 0.  1.
        -12    1    3    3    0    0 -0.20219872163E+02  0.11779277185E+02  0.89514184577E+01  0.25054390707E+02  0.00000000000E+00 0.  1.
</event>
<event>
 7    1  0.1358622E-013  0.7246158E+02  0.7816164E-02  0.1226708E+00
        -11   -1    0    0    0    0  0.00000000000E+00  0.00000000000E+00  0.45593999997E+02  0.45594000000E+02  0.51100000000E-03 0. -1.
         11   -1    0    0    0    0 -0.00000000000E+00 -0.00000000000E+00 -0.45593999997E+02  0.45594000000E+02  0.51100000000E-03 0.  1.
    9900012    2    1    2    0    0 -0.18518574968E+02  0.43423172646E+00 -0.27481906627E+01  0.72461582085E+02  0.70000015359E+02 0.  0.
        -12    1    1    2    0    0  0.18518574968E+02 -0.43423172646E+00  0.27481906627E+01  0.18726417915E+02  0.00000000000E+00 0.  1.
         11    1    3    3    0    0 -0.28497507800E+00  0.26525375362E+01 -0.42661406418E+01  0.50316123075E+01  0.51100000000E-03 0. -1.
        -11    1    3    3    0    0 -0.28371406114E+01  0.30820241526E+02  0.13418480775E+01  0.30979625742E+02  0.51100000000E-03 0.  1.
         12    1    3    3    0    0 -0.15396459278E+02 -0.33038547336E+02  0.17610190160E+00  0.36450344035E+02  0.00000000000E+00 0. -1.
</event>
<event>
 7    1  0.1358622E-013  0.7246150E+02  0.7816164E-02  0.1226708E+00
        -11   -1    0    0    0    0  0.00000000000E+00  0.00000000000E+00  0.45593999997E+02  0.45594000000E+02  0.51100000000E-03 0.  1.
         11   -1    0    0    0    0 -0.00000000000E+00 -0.00000000000E+00 -0.45593999997E+02  0.45594000000E+02  0.51100000000E-03 0. -1.
    9900012    2    1    2    0    0 -0.14118063649E+02 -0.11990484065E+02  0.27550847130E+01  0.72461496828E+02  0.69999904296E+02 0.  0.
        -12    1    1    2    0    0  0.14118063649E+02  0.11990484065E+02 -0.27550847130E+01  0.18726503172E+02  0.00000000000E+00 0.  1.
         11    1    3    3    0    0 -0.76692533952E+01  0.49881853184E+01 -0.15620551992E+01  0.92811344736E+01  0.51100000000E-03 0. -1.
        -11    1    3    3    0    0 -0.10056020576E+02  0.83207527008E+01 -0.22578636559E+02  0.26079748935E+02  0.51100000000E-03 0.  1.
        -12    1    3    3    0    0  0.36072103229E+01 -0.25299422084E+02  0.26895776472E+02  0.37100613419E+02  0.00000000000E+00 0.  1.
</event>
<event>
 7    1  0.1358622E-013  0.7246162E+02  0.7816164E-02  0.1226708E+00
        -11   -1    0    0    0    0  0.00000000000E+00  0.00000000000E+00  0.45593999997E+02  0.45594000000E+02  0.51100000000E-03 0.  1.
         11   -1    0    0    0    0 -0.00000000000E+00 -0.00000000000E+00 -0.45593999997E+02  0.45594000000E+02  0.51100000000E-03 0. -1.
    9900012    2    1    2    0    0 -0.12335915822E+02 -0.35238477525E+01 -0.13641302460E+02  0.72461616074E+02  0.70000059636E+02 0.  0.
        -12    1    1    2    0    0  0.12335915822E+02  0.35238477525E+01  0.13641302460E+02  0.18726383926E+02  0.00000000000E+00 0.  1.
         11    1    3    3    0    0 -0.47194543578E+01 -0.13732027173E+02  0.46976997236E+01  0.15261395830E+02  0.51100000000E-03 0. -1.
        -11    1    3    3    0    0 -0.23623029117E+02 -0.54720293233E+01  0.50944733244E+01  0.24777898787E+02  0.51100000000E-03 0.  1.
         12    1    3    3    0    0  0.16006567653E+02  0.15680208744E+02 -0.23433475508E+02  0.32422321457E+02  0.00000000000E+00 0. -1.
</event>
<event>
 7    1  0.1358622E-013  0.7246157E+02  0.7816164E-02  0.1226708E+00
        -11   -1    0    0    0    0  0.00000000000E+00  0.00000000000E+00  0.45593999997E+02  0.45594000000E+02  0.51100000000E-03 0.  1.
         11   -1    0    0    0    0 -0.00000000000E+00 -0.00000000000E+00 -0.45593999997E+02  0.45594000000E+02  0.51100000000E-03 0. -1.
    9900012    2    1    2    0    0  0.87628754096E+01  0.16399286120E+02  0.22258585371E+01  0.72461574369E+02  0.70000005308E+02 0.  0.
        -12    1    1    2    0    0 -0.87628754096E+01 -0.16399286120E+02 -0.22258585371E+01  0.18726425631E+02  0.00000000000E+00 0.  1.
         11    1    3    3    0    0 -0.37724616972E+01  0.30584597688E+02  0.16865620492E+02  0.35129734383E+02  0.51100000000E-03 0. -1.
        -11    1    3    3    0    0 -0.35384721585E+01  0.27643488500E+01  0.50669202855E+01  0.67702356843E+01  0.51100000000E-03 0.  1.
        -12    1    3    3    0    0  0.16073809265E+02 -0.16949660418E+02 -0.19706682240E+02  0.30561604302E+02  0.00000000000E+00 0.  1.
</event>
<event>
 7    1  0.1358622E-013  0.7246153E+02  0.7816164E-02  0.1226708E+00
        -11   -1    0    0    0    0  0.00000000000E+00  0.00000000000E+00  0.45593999997E+02  0.45594000000E+02  0.51100000000E-03 0. -1.
         11   -1    0    0    0    0 -0.00000000000E+00 -0.00000000000E+00 -0.45593999997E+02  0.45594000000E+02  0.51100000000E-03 0.  1.
    9900012    2    1    2    0    0 -0.11357482162E+02 -0.10180810993E+02  0.10864598899E+02  0.72461526152E+02  0.69999942497E+02 0.  0.
        -12    1    1    2    0    0  0.11357482162E+02  0.10180810993E+02 -0.10864598899E+02  0.18726473848E+02  0.00000000000E+00 0.  1.
         11    1    3    3    0    0 -0.25268281731E+02 -0.16920690304E+02  0.94438527551E+01  0.31843086803E+02  0.51100000000E-03 0. -1.
        -11    1    3    3    0    0 -0.56015372970E+01  0.17309325993E+02  0.26907673561E+01  0.18391036285E+02  0.51100000000E-03 0.  1.
         12    1    3    3    0    0  0.19512336866E+02 -0.10569446681E+02 -0.12700212128E+01  0.22227403065E+02  0.00000000000E+00 0. -1.
</event>
<event>
 7    1  0.1358622E-013  0.7246187E+02  0.7816164E-02  0.1226707E+00
        -11   -1    0    0    0    0  0.00000000000E+00  0.00000000000E+00  0.45593999997E+02  0.45594000000E+02  0.51100000000E-03 0. -1.
         11   -1    0    0    0    0 -0.00000000000E+00 -0.00000000000E+00 -0.45593999997E+02  0.45594000000E+02  0.51100000000E-03 0.  1.
    9900012    2    1    2    0    0  0.20484242990E+01 -0.18573230233E+02  0.12275484893E+01  0.72461873900E+02  0.70000395502E+02 0.  0.
        -12    1    1    2    0    0 -0.20484242990E+01  0.18573230233E+02 -0.12275484893E+01  0.18726126100E+02  0.00000000000E+00 0.  1.
         11    1    3    3    0    0 -0.23490780126E+02 -0.15543733753E+02 -0.74521461368E+01  0.29136899153E+02  0.51100000000E-03 0. -1.
        -11    1    3    3    0    0  0.12262880544E+02  0.15113340465E+02  0.72003382118E+00  0.19475876057E+02  0.51100000000E-03 0.  1.
         12    1    3    3    0    0  0.13276323882E+02 -0.18142836945E+02  0.79596608049E+01  0.23849098690E+02  0.00000000000E+00 0. -1.
</event>
<event>
 8    1  0.1358622E-013  0.7246162E+02  0.7816164E-02  0.1226708E+00
        -11   -1    0    0    0    0  0.00000000000E+00  0.00000000000E+00  0.45593999997E+02  0.45594000000E+02  0.51100000000E-03 0.  1.
         11   -1    0    0    0    0 -0.00000000000E+00 -0.00000000000E+00 -0.45593999997E+02  0.45594000000E+02  0.51100000000E-03 0. -1.
    9900012    2    1    2    0    0  0.17220642531E+02 -0.28396445797E+01 -0.67869911957E+01  0.72461618609E+02  0.70000062939E+02 0.  0.
         23    2    3    3    0    0  0.26937534718E+02  0.34416486748E+01 -0.39364150706E+01  0.60545309492E+02  0.53970023305E+02 0.  0.
        -12    1    1    2    0    0 -0.17220642531E+02  0.28396445797E+01  0.67869911957E+01  0.18726381391E+02  0.00000000000E+00 0.  1.
         11    1    4    4    0    0  0.20518965730E+02  0.25166541059E+02 -0.14486106436E+02  0.35556012479E+02  0.51100000000E-03 0. -1.
        -11    1    4    4    0    0  0.64185689890E+01 -0.21724892384E+02  0.10549691366E+02  0.24989297012E+02  0.51100000000E-03 0.  1.
        -12    1    3    3    0    0 -0.97168921876E+01 -0.62812932545E+01 -0.28505761252E+01  0.11916309117E+02  0.00000000000E+00 0.  1.
</event>
<event>
 7    1  0.1358622E-013  0.7246154E+02  0.7816164E-02  0.1226708E+00
        -11   -1    0    0    0    0  0.00000000000E+00  0.00000000000E+00  0.45593999997E+02  0.45594000000E+02  0.51100000000E-03 0.  1.
         11   -1    0    0    0    0 -0.00000000000E+00 -0.00000000000E+00 -0.45593999997E+02  0.45594000000E+02  0.51100000000E-03 0. -1.
    9900012    2    1    2    0    0  0.14469004781E+01 -0.49322088188E+01 -0.18007221676E+02  0.72461541784E+02  0.69999962860E+02 0.  0.
        -12    1    1    2    0    0 -0.14469004781E+01  0.49322088188E+01  0.18007221676E+02  0.18726458216E+02  0.00000000000E+00 0.  1.
         11    1    3    3    0    0 -0.97690207949E+01 -0.88884958463E+01 -0.22813097114E+02  0.26360510729E+02  0.51100000000E-03 0. -1.
        -11    1    3    3    0    0  0.26938728558E+02  0.67887698855E+01 -0.36593433919E+01  0.28020943724E+02  0.51100000000E-03 0.  1.
         12    1    3    3    0    0 -0.15722807285E+02 -0.28324828580E+01  0.84652188296E+01  0.18080087331E+02  0.00000000000E+00 0. -1.
</event>
<event>
 7    1  0.1358622E-013  0.7246159E+02  0.7816164E-02  0.1226708E+00
        -11   -1    0    0    0    0  0.00000000000E+00  0.00000000000E+00  0.45593999997E+02  0.45594000000E+02  0.51100000000E-03 0. -1.
         11   -1    0    0    0    0 -0.00000000000E+00 -0.00000000000E+00 -0.45593999997E+02  0.45594000000E+02  0.51100000000E-03 0.  1.
    9900012    2    1    2    0    0  0.10706793970E+02 -0.15147871021E+02  0.25661252200E+01  0.72461589980E+02  0.70000025644E+02 0.  0.
        -12    1    1    2    0    0 -0.10706793970E+02  0.15147871021E+02 -0.25661252200E+01  0.18726410020E+02  0.00000000000E+00 0.  1.
         11    1    3    3    0    0  0.18858868953E+02 -0.64944578848E+01 -0.26299713465E+01  0.20118441067E+02  0.51100000000E-03 0. -1.
        -11    1    3    3    0    0 -0.85290532843E+01  0.11181537871E+02 -0.17335533071E+02  0.22322460577E+02  0.51100000000E-03 0.  1.
         12    1    3    3    0    0  0.37697830126E+00 -0.19834951007E+02  0.22531629637E+02  0.30020688337E+02  0.00000000000E+00 0. -1.
</event>
<event>
 7    1  0.1380166E-013  0.7246149E+02  0.7816164E-02  0.1226708E+00
        -11   -1    0    0    0    0  0.00000000000E+00  0.00000000000E+00  0.45593999997E+02  0.45594000000E+02  0.51100000000E-03 0. -1.
         11   -1    0    0    0    0 -0.00000000000E+00 -0.00000000000E+00 -0.45593999997E+02  0.45594000000E+02  0.51100000000E-03 0.  1.
    9900012    2    1    2    0    0 -0.76263035636E+01 -0.75941834494E+01  0.15324812414E+02  0.72461494618E+02  0.69999901417E+02 0.  0.
        -12    1    1    2    0    0  0.76263035636E+01  0.75941834494E+01 -0.15324812414E+02  0.18726505382E+02  0.00000000000E+00 0.  1.
         11    1    3    3    0    0 -0.18515690615E+02  0.89957883755E+01  0.13934673438E+02  0.24858200489E+02  0.51100000000E-03 0. -1.
        -11    1    3    3    0    0  0.19531089310E+01  0.10283355279E+02 -0.12297336984E+02  0.16148886260E+02  0.51100000000E-03 0.  1.
        -12    1    3    3    0    0  0.89362781203E+01 -0.26873327104E+02  0.13687475959E+02  0.31454407869E+02  0.00000000000E+00 0.  1.
</event>
<event>
 7    1  0.1358622E-013  0.7246156E+02  0.7816164E-02  0.1226708E+00
        -11   -1    0    0    0    0  0.00000000000E+00  0.00000000000E+00  0.45593999997E+02  0.45594000000E+02  0.51100000000E-03 0.  1.
         11   -1    0    0    0    0 -0.00000000000E+00 -0.00000000000E+00 -0.45593999997E+02  0.45594000000E+02  0.51100000000E-03 0. -1.
    9900012    2    1    2    0    0  0.30839997217E+01  0.14740277210E+02 -0.11130710511E+02  0.72461560323E+02  0.69999987010E+02 0.  0.
        -12    1    1    2    0    0 -0.30839997217E+01 -0.14740277210E+02  0.11130710511E+02  0.18726439677E+02  0.00000000000E+00 0.  1.
         11    1    3    3    0    0 -0.77939887097E+00  0.25750281782E+02 -0.13893991706E+02  0.29269907418E+02  0.51100000000E-03 0. -1.
        -11    1    3    3    0    0  0.57216277609E+01  0.77563124790E+01  0.17014146799E+02  0.19554503294E+02  0.51100000000E-03 0.  1.
         12    1    3    3    0    0 -0.18582291682E+01 -0.18766317051E+02 -0.14250865604E+02  0.23637149612E+02  0.00000000000E+00 0. -1.
</event>
<event>
 7    1  0.1358622E-013  0.7246158E+02  0.7816164E-02  0.1226708E+00
        -11   -1    0    0    0    0  0.00000000000E+00  0.00000000000E+00  0.45593999997E+02  0.45594000000E+02  0.51100000000E-03 0.  1.
         11   -1    0    0    0    0 -0.00000000000E+00 -0.00000000000E+00 -0.45593999997E+02  0.45594000000E+02  0.51100000000E-03 0. -1.
    9900012    2    1    2    0    0 -0.55625078842E+01  0.17839959833E+02 -0.12136653279E+01  0.72461584317E+02  0.70000018267E+02 0.  0.
        -12    1    1    2    0    0  0.55625078842E+01 -0.17839959833E+02  0.12136653279E+01  0.18726415683E+02  0.00000000000E+00 0.  1.
         11    1    3    3    0    0  0.17045976131E+01 -0.17918610228E+02 -0.70807080400E+01  0.19342147558E+02  0.51100000000E-03 0. -1.
        -11    1    3    3    0    0  0.12180584526E+02  0.62991382988E+00  0.43121472709E+01  0.12936693750E+02  0.51100000000E-03 0.  1.
        -12    1    3    3    0    0 -0.19447690023E+02  0.35128656232E+02  0.15548954412E+01  0.40182743009E+02  0.00000000000E+00 0.  1.
</event>
<event>
 7    1  0.1358622E-013  0.7246157E+02  0.7816164E-02  0.1226708E+00
        -11   -1    0    0    0    0  0.00000000000E+00  0.00000000000E+00  0.45593999997E+02  0.45594000000E+02  0.51100000000E-03 0. -1.
         11   -1    0    0    0    0 -0.00000000000E+00 -0.00000000000E+00 -0.45593999997E+02  0.45594000000E+02  0.51100000000E-03 0.  1.
    9900012    2    1    2    0    0  0.86684109801E+01 -0.16576449909E+02  0.87119994081E+00  0.72461574023E+02  0.70000004858E+02 0.  0.
        -12    1    1    2    0    0 -0.86684109801E+01  0.16576449909E+02 -0.87119994081E+00  0.18726425977E+02  0.00000000000E+00 0.  1.
         11    1    3    3    0    0 -0.93607679008E+00 -0.47930653317E+01 -0.65630472296E+01  0.81806664906E+01  0.51100000000E-03 0. -1.
        -11    1    3    3    0    0  0.27903985375E+02 -0.89749055860E+01 -0.16799326006E+02  0.33784592415E+02  0.51100000000E-03 0.  1.
         12    1    3    3    0    0 -0.18299497605E+02 -0.28084789918E+01  0.24233573177E+02  0.30496315118E+02  0.00000000000E+00 0. -1.
</event>
<event>
 7    1  0.1358622E-013  0.7246156E+02  0.7816164E-02  0.1226708E+00
        -11   -1    0    0    0    0  0.00000000000E+00  0.00000000000E+00  0.45593999997E+02  0.45594000000E+02  0.51100000000E-03 0.  1.
         11   -1    0    0    0    0 -0.00000000000E+00 -0.00000000000E+00 -0.45593999997E+02  0.45594000000E+02  0.51100000000E-03 0. -1.
    9900012    2    1    2    0    0  0.17648780085E+02  0.52145198921E+01 -0.34653876217E+01  0.72461559666E+02  0.69999986155E+02 0.  0.
        -12    1    1    2    0    0 -0.17648780085E+02 -0.52145198921E+01  0.34653876217E+01  0.18726440334E+02  0.00000000000E+00 0.  1.
         11    1    3    3    0    0 -0.61177238598E+01  0.47431863219E+01 -0.26284089868E+01  0.81751388840E+01  0.51100000000E-03 0. -1.
        -11    1    3    3    0    0 -0.58872240946E+01  0.24484867961E+02 -0.57016596214E+01  0.25820090808E+02  0.51100000000E-03 0.  1.
        -12    1    3    3    0    0  0.29653728040E+02 -0.24013534391E+02  0.48646809866E+01  0.38466329974E+02  0.00000000000E+00 0.  1.
</event>
<event>
 7    1  0.1358622E-013  0.7246150E+02  0.7816164E-02  0.1226708E+00
        -11   -1    0    0    0    0  0.00000000000E+00  0.00000000000E+00  0.45593999997E+02  0.45594000000E+02  0.51100000000E-03 0.  1.
         11   -1    0    0    0    0 -0.00000000000E+00 -0.00000000000E+00 -0.45593999997E+02  0.45594000000E+02  0.51100000000E-03 0. -1.
    9900012    2    1    2    0    0 -0.26502965997E+01 -0.16372708135E+02 -0.86943707224E+01  0.72461502036E+02  0.69999911081E+02 0.  0.
        -12    1    1    2    0    0  0.26502965997E+01  0.16372708135E+02  0.86943707224E+01  0.18726497964E+02  0.00000000000E+00 0.  1.
         11    1    3    3    0    0  0.17897487402E+02 -0.26947794930E+02 -0.18691383470E+01  0.32403663146E+02  0.51100000000E-03 0. -1.
        -11    1    3    3    0    0 -0.15068881727E+02 -0.99425195998E+01 -0.12228856485E+01  0.18094760072E+02  0.51100000000E-03 0.  1.
        -12    1    3    3    0    0 -0.54789022752E+01  0.20517606395E+02 -0.56023467269E+01  0.21963078818E+02  0.00000000000E+00 0.  1.
</event>
<event>
 7    1  0.1358622E-013  0.7246156E+02  0.7816164E-02  0.1226708E+00
        -11   -1    0    0    0    0  0.00000000000E+00  0.00000000000E+00  0.45593999997E+02  0.45594000000E+02  0.51100000000E-03 0. -1.
         11   -1    0    0    0    0 -0.00000000000E+00 -0.00000000000E+00 -0.45593999997E+02  0.45594000000E+02  0.51100000000E-03 0.  1.
    9900012    2    1    2    0    0 -0.12376240745E+02  0.10210387558E+02  0.96569335665E+01  0.72461555731E+02  0.69999981028E+02 0.  0.
        -12    1    1    2    0    0  0.12376240745E+02 -0.10210387558E+02 -0.96569335665E+01  0.18726444269E+02  0.00000000000E+00 0.  1.
         11    1    3    3    0    0  0.12103461132E+00 -0.11220364951E+02  0.16585677661E+02  0.20024883089E+02  0.51100000000E-03 0. -1.
        -11    1    3    3    0    0  0.15621652429E+02  0.42216941854E+01  0.56665280306E+01  0.17145502810E+02  0.51100000000E-03 0.  1.
        -12    1    3    3    0    0 -0.28118927786E+02  0.17209058324E+02 -0.12595272125E+02  0.35291169832E+02  0.00000000000E+00 0.  1.
</event>
<event>
 7    1  0.1358622E-013  0.7246156E+02  0.7816164E-02  0.1226708E+00
        -11   -1    0    0    0    0  0.00000000000E+00  0.00000000000E+00  0.45593999997E+02  0.45594000000E+02  0.51100000000E-03 0.  1.
         11   -1    0    0    0    0 -0.00000000000E+00 -0.00000000000E+00 -0.45593999997E+02  0.45594000000E+02  0.51100000000E-03 0. -1.
    9900012    2    1    2    0    0  0.17345962895E+02 -0.47066145438E+01 -0.52578378159E+01  0.72461561264E+02  0.69999988237E+02 0.  0.
        -12    1    1    2    0    0 -0.17345962895E+02  0.47066145438E+01  0.52578378159E+01  0.18726438736E+02  0.00000000000E+00 0.  1.
         11    1    3    3    0    0  0.79232513371E+01 -0.17825850826E+01 -0.16153980472E+02  0.18080558804E+02  0.51100000000E-03 0. -1.
        -11    1    3    3    0    0 -0.10429317680E+02 -0.10805882373E+02 -0.14719457569E+02  0.21028556596E+02  0.51100000000E-03 0.  1.
         12    1    3    3    0    0  0.19852029238E+02  0.78818529122E+01  0.25615600225E+02  0.33352445864E+02  0.00000000000E+00 0. -1.
</event>
<event>
 7    1  0.1358622E-013  0.7246149E+02  0.7816164E-02  0.1226708E+00
        -11   -1    0    0    0    0  0.00000000000E+00  0.00000000000E+00  0.45593999997E+02  0.45594000000E+02  0.51100000000E-03 0. -1.
         11   -1    0    0    0    0 -0.00000000000E+00 -0.00000000000E+00 -0.45593999997E+02  0.45594000000E+02  0.51100000000E-03 0.  1.
    9900012    2    1    2    0    0 -0.11064641007E+02  0.14192077437E+02  0.51808216943E+01  0.72461487884E+02  0.69999892646E+02 0.  0.
        -12    1    1    2    0    0  0.11064641007E+02 -0.14192077437E+02 -0.51808216943E+01  0.18726512116E+02  0.00000000000E+00 0.  1.
         11    1    3    3    0    0  0.14508331448E+02  0.16493521418E+02 -0.17969423864E+02  0.28380065618E+02  0.51100000000E-03 0. -1.
        -11    1    3    3    0    0 -0.13785520254E+01  0.43580257842E+01 -0.47254879163E+01  0.65744224636E+01  0.51100000000E-03 0.  1.
        -12    1    3    3    0    0 -0.24194420430E+02 -0.66594697657E+01  0.27875733475E+02  0.37506999803E+02  0.00000000000E+00 0.  1.
</event>
<event>
 7    1  0.1358622E-013  0.7246156E+02  0.7816164E-02  0.1226708E+00
        -11   -1    0    0    0    0  0.00000000000E+00  0.00000000000E+00  0.45593999997E+02  0.45594000000E+02  0.51100000000E-03 0. -1.
         11   -1    0    0    0    0 -0.00000000000E+00 -0.00000000000E+00 -0.45593999997E+02  0.45594000000E+02  0.51100000000E-03 0.  1.
    9900012    2    1    2    0    0 -0.14624506916E+02  0.28021178608E+01  0.11355672817E+02  0.72461564884E+02  0.69999992951E+02 0.  0.
        -12    1    1    2    0    0  0.14624506916E+02 -0.28021178608E+01 -0.11355672817E+02  0.18726435116E+02  0.00000000000E+00 0.  1.
         11    1    3    3    0    0  0.58491659754E+01 -0.64554671203E+01 -0.87015353384E+01  0.12312697343E+02  0.51100000000E-03 0. -1.
        -11    1    3    3    0    0  0.37399172860E+01  0.16644581700E+02 -0.10834561317E+02  0.20209324592E+02  0.51100000000E-03 0.  1.
         12    1    3    3    0    0 -0.24213590177E+02 -0.73869967190E+01  0.30891769473E+02  0.39939542949E+02  0.00000000000E+00 0. -1.
</event>
<event>
 7    1  0.1358622E-013  0.7246155E+02  0.7816164E-02  0.1226708E+00
        -11   -1    0    0    0    0  0.00000000000E+00  0.00000000000E+00  0.45593999997E+02  0.45594000000E+02  0.51100000000E-03 0. -1.
         11   -1    0    0    0    0 -0.00000000000E+00 -0.00000000000E+00 -0.45593999997E+02  0.45594000000E+02  0.51100000000E-03 0.  1.
    9900012    2    1    2    0    0  0.46528294062E+01 -0.14570625596E+02  0.10804072181E+02  0.72461550058E+02  0.69999973639E+02 0.  0.
        -12    1    1    2    0    0 -0.46528294062E+01  0.14570625596E+02 -0.10804072181E+02  0.18726449942E+02  0.00000000000E+00 0.  1.
         11    1    3    3    0    0  0.15622137901E+02  0.30246531642E+01  0.83339172387E+01  0.17962569308E+02  0.51100000000E-03 0. -1.
        -11    1    3    3    0    0 -0.11993788505E+01  0.81819746099E+01  0.20128938132E+02  0.21761373319E+02  0.51100000000E-03 0.  1.
        -12    1    3    3    0    0 -0.97699296439E+01 -0.25777253370E+02 -0.17658783190E+02  0.32737607431E+02  0.00000000000E+00 0.  1.
</event>
<event>
 7    1  0.1358622E-013  0.7246152E+02  0.7816164E-02  0.1226708E+00
        -11   -1    0    0    0    0  0.00000000000E+00  0.00000000000E+00  0.45593999997E+02  0.45594000000E+02  0.51100000000E-03 0. -1.
         11   -1    0    0    0    0 -0.00000000000E+00 -0.00000000000E+00 -0.45593999997E+02  0.45594000000E+02  0.51100000000E-03 0.  1.
    9900012    2    1    2    0    0 -0.14683851952E+02 -0.88151120372E+01  0.75735932170E+01  0.72461520817E+02  0.69999935546E+02 0.  0.
        -12    1    1    2    0    0  0.14683851952E+02  0.88151120372E+01 -0.75735932170E+01  0.18726479183E+02  0.00000000000E+00 0.  1.
         11    1    3    3    0    0  0.12123924280E+02 -0.12043552499E+02  0.29366971316E+02  0.33977282135E+02  0.51100000000E-03 0. -1.
        -11    1    3    3    0    0 -0.23140078784E+00  0.49846467118E+01 -0.45680871564E+01  0.67651806846E+01  0.51100000000E-03 0.  1.
        -12    1    3    3    0    0 -0.26576375445E+02 -0.17562062501E+01 -0.17225290943E+02  0.31719057997E+02  0.00000000000E+00 0.  1.
</event>
<event>
 7    1  0.1358622E-013  0.7246154E+02  0.7816164E-02  0.1226708E+00
        -11   -1    0    0    0    0  0.00000000000E+00  0.00000000000E+00  0.45593999997E+02  0.45594000000E+02  0.51100000000E-03 0.  1.
         11   -1    0    0    0    0 -0.00000000000E+00 -0.00000000000E+00 -0.45593999997E+02  0.45594000000E+02  0.51100000000E-03 0. -1.
    9900012    2    1    2    0    0  0.11450247818E+02  0.77617377477E+01 -0.12622509114E+02  0.72461535190E+02  0.69999954270E+02 0.  0.
        -12    1    1    2    0    0 -0.11450247818E+02 -0.77617377477E+01  0.12622509114E+02  0.18726464810E+02  0.00000000000E+00 0.  1.
         11    1    3    3    0    0  0.76393052484E+01  0.23604142762E+02 -0.14393476330E+02  0.28682515603E+02  0.51100000000E-03 0. -1.
        -11    1    3    3    0    0  0.14487226747E+02  0.82730867198E+00 -0.12679702268E+02  0.19270159011E+02  0.51100000000E-03 0.  1.
        -12    1    3    3    0    0 -0.10676284178E+02 -0.16669713686E+02  0.14450669484E+02  0.24508860576E+02  0.00000000000E+00 0.  1.
</event>
<event>
 7    1  0.1358622E-013  0.7246158E+02  0.7816164E-02  0.1226708E+00
        -11   -1    0    0    0    0  0.00000000000E+00  0.00000000000E+00  0.45593999997E+02  0.45594000000E+02  0.51100000000E-03 0.  1.
         11   -1    0    0    0    0 -0.00000000000E+00 -0.00000000000E+00 -0.45593999997E+02  0.45594000000E+02  0.51100000000E-03 0. -1.
    9900012    2    1    2    0    0  0.81423149046E+01 -0.40912930342E+01 -0.16359794526E+02  0.72461578889E+02  0.70000011196E+02 0.  0.
        -12    1    1    2    0    0 -0.81423149046E+01  0.40912930342E+01  0.16359794526E+02  0.18726421111E+02  0.00000000000E+00 0.  1.
         11    1    3    3    0    0  0.87639726574E+01 -0.18721987652E+01  0.23528119605E+00  0.89648035371E+01  0.51100000000E-03 0. -1.
        -11    1    3    3    0    0 -0.15817125897E+01 -0.17414424994E+02  0.18369201290E+02  0.25361221755E+02  0.51100000000E-03 0.  1.
         12    1    3    3    0    0  0.96005483696E+00  0.15195330725E+02 -0.34964277012E+02  0.38135553597E+02  0.00000000000E+00 0. -1.
</event>
<event>
 7    1  0.1358622E-013  0.7246176E+02  0.7816164E-02  0.1226707E+00
        -11   -1    0    0    0    0  0.00000000000E+00  0.00000000000E+00  0.45593999997E+02  0.45594000000E+02  0.51100000000E-03 0.  1.
         11   -1    0    0    0    0 -0.00000000000E+00 -0.00000000000E+00 -0.45593999997E+02  0.45594000000E+02  0.51100000000E-03 0. -1.
    9900012    2    1    2    0    0 -0.96685140635E+01 -0.15531283525E+02 -0.39963677851E+01  0.72461764724E+02  0.70000253281E+02 0.  0.
        -12    1    1    2    0    0  0.96685140635E+01  0.15531283525E+02  0.39963677851E+01  0.18726235276E+02  0.00000000000E+00 0.  1.
         11    1    3    3    0    0 -0.78353194502E+01  0.33545866593E+01 -0.33065776471E+01  0.91421517456E+01  0.51100000000E-03 0. -1.
        -11    1    3    3    0    0 -0.27110408687E+02 -0.24926704424E+02 -0.43105415225E+01  0.37079584964E+02  0.51100000000E-03 0.  1.
         12    1    3    3    0    0  0.25277214074E+02  0.60408342393E+01  0.36207513845E+01  0.26240028015E+02  0.00000000000E+00 0. -1.
</event>
<event>
 7    1  0.1358622E-013  0.7246160E+02  0.7816164E-02  0.1226708E+00
        -11   -1    0    0    0    0  0.00000000000E+00  0.00000000000E+00  0.45593999997E+02  0.45594000000E+02  0.51100000000E-03 0.  1.
         11   -1    0    0    0    0 -0.00000000000E+00 -0.00000000000E+00 -0.45593999997E+02  0.45594000000E+02  0.51100000000E-03 0. -1.
    9900012    2    1    2    0    0 -0.35621565354E+01  0.97900545451E+01 -0.15560969315E+02  0.72461604373E+02  0.70000044393E+02 0.  0.
        -12    1    1    2    0    0  0.35621565354E+01 -0.97900545451E+01  0.15560969315E+02  0.18726395627E+02  0.00000000000E+00 0.  1.
         11    1    3    3    0    0 -0.20435358272E+02  0.56982804048E+01 -0.22936947586E+02  0.31243844707E+02  0.51100000000E-03 0. -1.
        -11    1    3    3    0    0  0.10616947352E+02 -0.11011286435E+02 -0.92708667457E+01  0.17886222924E+02  0.51100000000E-03 0.  1.
         12    1    3    3    0    0  0.62562543849E+01  0.15103060575E+02  0.16646845017E+02  0.23331536741E+02  0.00000000000E+00 0. -1.
</event>
<event>
 7    1  0.1358622E-013  0.7246142E+02  0.7816164E-02  0.1226708E+00
        -11   -1    0    0    0    0  0.00000000000E+00  0.00000000000E+00  0.45593999997E+02  0.45594000000E+02  0.51100000000E-03 0. -1.
         11   -1    0    0    0    0 -0.00000000000E+00 -0.00000000000E+00 -0.45593999997E+02  0.45594000000E+02  0.51100000000E-03 0.  1.
    9900012    2    1    2    0    0 -0.38440400558E+01 -0.15650712020E+02  0.95374771247E+01  0.72461417274E+02  0.69999800662E+02 0.  0.
        -12    1    1    2    0    0  0.38440400558E+01  0.15650712020E+02 -0.95374771247E+01  0.18726582726E+02  0.00000000000E+00 0.  1.
         11    1    3    3    0    0  0.52608666384E+01  0.25961647649E+01  0.94317702362E+01  0.11107433517E+02  0.51100000000E-03 0. -1.
        -11    1    3    3    0    0  0.10269505138E+02 -0.21368091290E+02 -0.21614270809E+02  0.32081688921E+02  0.51100000000E-03 0.  1.
         12    1    3    3    0    0 -0.19374411832E+02  0.31212145046E+01  0.21719977697E+02  0.29272294837E+02  0.00000000000E+00 0. -1.
</event>
<event>
 7    1  0.1358622E-013  0.7246158E+02  0.7816164E-02  0.1226708E+00
        -11   -1    0    0    0    0  0.00000000000E+00  0.00000000000E+00  0.45593999997E+02  0.45594000000E+02  0.51100000000E-03 0. -1.
         11   -1    0    0    0    0 -0.00000000000E+00 -0.00000000000E+00 -0.45593999997E+02  0.45594000000E+02  0.51100000000E-03 0.  1.
    9900012    2    1    2    0    0 -0.83937009635E+01  0.37028622401E+01  0.16325243541E+02  0.72461575320E+02  0.70000006547E+02 0.  0.
        -12    1    1    2    0    0  0.83937009635E+01 -0.37028622401E+01 -0.16325243541E+02  0.18726424680E+02  0.00000000000E+00 0.  1.
         11    1    3    3    0    0 -0.40663361622E+01 -0.66097034103E+01  0.18657464576E+01  0.79814960416E+01  0.51100000000E-03 0. -1.
        -11    1    3    3    0    0  0.22381431158E+02  0.60520622164E+01 -0.12459180219E+02  0.26320848956E+02  0.51100000000E-03 0.  1.
         12    1    3    3    0    0 -0.26708795959E+02  0.42605034341E+01  0.26918677302E+02  0.38159230323E+02  0.00000000000E+00 0. -1.
</event>
<event>
 7    1  0.1776935E-013  0.7246158E+02  0.7816164E-02  0.1226708E+00
        -11   -1    0    0    0    0  0.00000000000E+00  0.00000000000E+00  0.45593999997E+02  0.45594000000E+02  0.51100000000E-03 0.  1.
         11   -1    0    0    0    0 -0.00000000000E+00 -0.00000000000E+00 -0.45593999997E+02  0.45594000000E+02  0.51100000000E-03 0. -1.
    9900012    2    1    2    0    0  0.16534420649E+02 -0.48077657450E+01 -0.73605120669E+01  0.72461579745E+02  0.70000012312E+02 0.  0.
        -12    1    1    2    0    0 -0.16534420649E+02  0.48077657450E+01  0.73605120669E+01  0.18726420255E+02  0.00000000000E+00 0.  1.
         11    1    3    3    0    0  0.23282330997E+02  0.23707766937E+01 -0.25316016994E+02  0.34475908044E+02  0.51100000000E-03 0.  1.
        -11    1    3    3    0    0 -0.12544171601E+02  0.84774142516E+01  0.27165621894E+01  0.15381888828E+02  0.51100000000E-03 0. -1.
        -12    1    3    3    0    0  0.57962612527E+01 -0.15655956690E+02  0.15238942737E+02  0.22603782873E+02  0.00000000000E+00 0.  1.
</event>
<event>
 7    1  0.1358622E-013  0.7246173E+02  0.7816164E-02  0.1226708E+00
        -11   -1    0    0    0    0  0.00000000000E+00  0.00000000000E+00  0.45593999997E+02  0.45594000000E+02  0.51100000000E-03 0.  1.
         11   -1    0    0    0    0 -0.00000000000E+00 -0.00000000000E+00 -0.45593999997E+02  0.45594000000E+02  0.51100000000E-03 0. -1.
    9900012    2    1    2    0    0  0.12028152778E+02 -0.69436483871E+01 -0.12561149084E+02  0.72461730257E+02  0.70000208380E+02 0.  0.
        -12    1    1    2    0    0 -0.12028152778E+02  0.69436483871E+01  0.12561149084E+02  0.18726269743E+02  0.00000000000E+00 0.  1.
         11    1    3    3    0    0 -0.78696658612E+00 -0.65967648267E+01 -0.16307540876E+02  0.17608875952E+02  0.51100000000E-03 0. -1.
        -11    1    3    3    0    0  0.26976662714E+02 -0.11057234122E+02 -0.11606412663E+02  0.31380114289E+02  0.51100000000E-03 0.  1.
        -12    1    3    3    0    0 -0.14161543350E+02  0.10710350562E+02  0.15352804455E+02  0.23472740016E+02  0.00000000000E+00 0.  1.
</event>
<event>
 7    1  0.1358622E-013  0.7246145E+02  0.7816164E-02  0.1226708E+00
        -11   -1    0    0    0    0  0.00000000000E+00  0.00000000000E+00  0.45593999997E+02  0.45594000000E+02  0.51100000000E-03 0.  1.
         11   -1    0    0    0    0 -0.00000000000E+00 -0.00000000000E+00 -0.45593999997E+02  0.45594000000E+02  0.51100000000E-03 0. -1.
    9900012    2    1    2    0    0  0.12532527680E+02  0.13553519808E+02  0.31498611969E+01  0.72461447333E+02  0.69999839819E+02 0.  0.
        -12    1    1    2    0    0 -0.12532527680E+02 -0.13553519808E+02 -0.31498611969E+01  0.18726552667E+02  0.00000000000E+00 0.  1.
         11    1    3    3    0    0 -0.56373801176E+01 -0.43099631640E+01 -0.95871518160E+01  0.11927670236E+02  0.51100000000E-03 0. -1.
        -11    1    3    3    0    0 -0.17833428070E+02  0.14408707200E+02  0.33836126096E+01  0.23175220268E+02  0.51100000000E-03 0.  1.
        -12    1    3    3    0    0  0.36003335867E+02  0.34547757720E+01  0.93534004032E+01  0.37358556829E+02  0.00000000000E+00 0.  1.
</event>
<event>
 7    1  0.1358622E-013  0.7246147E+02  0.7816164E-02  0.1226708E+00
        -11   -1    0    0    0    0  0.00000000000E+00  0.00000000000E+00  0.45593999997E+02  0.45594000000E+02  0.51100000000E-03 0. -1.
         11   -1    0    0    0    0 -0.00000000000E+00 -0.00000000000E+00 -0.45593999997E+02  0.45594000000E+02  0.51100000000E-03 0.  1.
    9900012    2    1    2    0    0 -0.29655540340E+01  0.71752495134E+01  0.17041247844E+02  0.72461472175E+02  0.69999872181E+02 0.  0.
        -12    1    1    2    0    0  0.29655540340E+01 -0.71752495134E+01 -0.17041247844E+02  0.18726527825E+02  0.00000000000E+00 0.  1.
         11    1    3    3    0    0 -0.70237628211E+01 -0.10953077920E+02 -0.13838260868E+02  0.18994752543E+02  0.51100000000E-03 0. -1.
        -11    1    3    3    0    0  0.14704685755E+02 -0.38388382879E+01  0.15033944096E+01  0.15271694652E+02  0.51100000000E-03 0.  1.
         12    1    3    3    0    0 -0.10646476968E+02  0.21967165721E+02  0.29376114302E+02  0.38195024979E+02  0.00000000000E+00 0. -1.
</event>
<event>
 7    1  0.1358622E-013  0.7246155E+02  0.7816164E-02  0.1226708E+00
        -11   -1    0    0    0    0  0.00000000000E+00  0.00000000000E+00  0.45593999997E+02  0.45594000000E+02  0.51100000000E-03 0.  1.
         11   -1    0    0    0    0 -0.00000000000E+00 -0.00000000000E+00 -0.45593999997E+02  0.45594000000E+02  0.51100000000E-03 0. -1.
    9900012    2    1    2    0    0 -0.18604445188E+02  0.49336859835E+00  0.20763126270E+01  0.72461551659E+02  0.69999975725E+02 0.  0.
        -12    1    1    2    0    0  0.18604445188E+02 -0.49336859835E+00 -0.20763126270E+01  0.18726448341E+02  0.00000000000E+00 0.  1.
         11    1    3    3    0    0 -0.43621139647E-01 -0.17054183242E+02 -0.19218881851E+02  0.25694600381E+02  0.51100000000E-03 0. -1.
        -11    1    3    3    0    0 -0.60484503665E+01 -0.33303988961E+01  0.21337279134E+02  0.22426653556E+02  0.51100000000E-03 0.  1.
        -12    1    3    3    0    0 -0.12512373682E+02  0.20877950737E+02 -0.42084655887E-01  0.24340297723E+02  0.00000000000E+00 0.  1.
</event>
<event>
 7    1  0.1358622E-013  0.7246149E+02  0.7816164E-02  0.1226708E+00
        -11   -1    0    0    0    0  0.00000000000E+00  0.00000000000E+00  0.45593999997E+02  0.45594000000E+02  0.51100000000E-03 0.  1.
         11   -1    0    0    0    0 -0.00000000000E+00 -0.00000000000E+00 -0.45593999997E+02  0.45594000000E+02  0.51100000000E-03 0. -1.
    9900012    2    1    2    0    0 -0.12640540664E+02  0.36305302891E+01 -0.13331099107E+02  0.72461488796E+02  0.69999893834E+02 0.  0.
        -12    1    1    2    0    0  0.12640540664E+02 -0.36305302891E+01  0.13331099107E+02  0.18726511204E+02  0.00000000000E+00 0.  1.
         11    1    3    3    0    0  0.55560738893E-02  0.46006648781E+01 -0.13630031394E+01  0.47983253339E+01  0.51100000000E-03 0. -1.
        -11    1    3    3    0    0  0.22424132829E+02  0.16032902145E+02 -0.63195797870E+01  0.28281314914E+02  0.51100000000E-03 0.  1.
         12    1    3    3    0    0 -0.35070229567E+02 -0.17003036734E+02 -0.56485161804E+01  0.39381848548E+02  0.00000000000E+00 0. -1.
</event>
<event>
 7    1  0.1358622E-013  0.7246171E+02  0.7816164E-02  0.1226708E+00
        -11   -1    0    0    0    0  0.00000000000E+00  0.00000000000E+00  0.45593999997E+02  0.45594000000E+02  0.51100000000E-03 0. -1.
         11   -1    0    0    0    0 -0.00000000000E+00 -0.00000000000E+00 -0.45593999997E+02  0.45594000000E+02  0.51100000000E-03 0.  1.
    9900012    2    1    2    0    0  0.37664756127E+01 -0.66038526362E+01  0.17113646991E+02  0.72461705078E+02  0.70000175580E+02 0.  0.
        -12    1    1    2    0    0 -0.37664756127E+01  0.66038526362E+01 -0.17113646991E+02  0.18726294922E+02  0.00000000000E+00 0.  1.
         11    1    3    3    0    0  0.14166485446E+02 -0.28109412272E+01  0.20110563036E+02  0.24759350685E+02  0.51100000000E-03 0. -1.
        -11    1    3    3    0    0  0.12721029365E+02 -0.61326236092E+01  0.13235923688E+02  0.19355188880E+02  0.51100000000E-03 0.  1.
        -12    1    3    3    0    0 -0.23121039199E+02  0.23397122002E+01 -0.16232839733E+02  0.28347165513E+02  0.00000000000E+00 0.  1.
</event>
<event>
 7    1  0.1458761E-013  0.7246157E+02  0.7816164E-02  0.1226708E+00
        -11   -1    0    0    0    0  0.00000000000E+00  0.00000000000E+00  0.45593999997E+02  0.45594000000E+02  0.51100000000E-03 0. -1.
         11   -1    0    0    0    0 -0.00000000000E+00 -0.00000000000E+00 -0.45593999997E+02  0.45594000000E+02  0.51100000000E-03 0.  1.
    9900012    2    1    2    0    0 -0.55627248853E+01  0.49822639742E+01  0.17173009463E+02  0.72461571711E+02  0.70000001845E+02 0.  0.
        -12    1    1    2    0    0  0.55627248853E+01 -0.49822639742E+01 -0.17173009463E+02  0.18726428289E+02  0.00000000000E+00 0.  1.
         11    1    3    3    0    0  0.20380989352E+02  0.21989630662E+01  0.31320665540E+02  0.37432662952E+02  0.51100000000E-03 0. -1.
        -11    1    3    3    0    0  0.24155627989E+01 -0.14978954174E+01  0.39906547913E+00  0.28701720915E+01  0.51100000000E-03 0.  1.
        -12    1    3    3    0    0 -0.28359277036E+02  0.42811963254E+01 -0.14546721556E+02  0.32158736667E+02  0.00000000000E+00 0.  1.
</event>
<event>
 7    1  0.1358622E-013  0.7246153E+02  0.7816164E-02  0.1226708E+00
        -11   -1    0    0    0    0  0.00000000000E+00  0.00000000000E+00  0.45593999997E+02  0.45594000000E+02  0.51100000000E-03 0. -1.
         11   -1    0    0    0    0 -0.00000000000E+00 -0.00000000000E+00 -0.45593999997E+02  0.45594000000E+02  0.51100000000E-03 0.  1.
    9900012    2    1    2    0    0  0.57542544243E+01  0.65303549688E+01  0.16580821140E+02  0.72461531842E+02  0.69999949908E+02 0.  0.
        -12    1    1    2    0    0 -0.57542544243E+01 -0.65303549688E+01 -0.16580821140E+02  0.18726468158E+02  0.00000000000E+00 0.  1.
         11    1    3    3    0    0  0.43533945593E+01 -0.36903934245E+01 -0.37128786209E+01  0.68085619430E+01  0.51100000000E-03 0. -1.
        -11    1    3    3    0    0 -0.25039131095E+02 -0.92243435022E+01  0.19091353688E+02  0.32810461516E+02  0.51100000000E-03 0.  1.
         12    1    3    3    0    0  0.26439990960E+02  0.19445091896E+02  0.12023460734E+01  0.32842508383E+02  0.00000000000E+00 0. -1.
</event>
<event>
 7    1  0.1358622E-013  0.7246178E+02  0.7816164E-02  0.1226707E+00
        -11   -1    0    0    0    0  0.00000000000E+00  0.00000000000E+00  0.45593999997E+02  0.45594000000E+02  0.51100000000E-03 0. -1.
         11   -1    0    0    0    0 -0.00000000000E+00 -0.00000000000E+00 -0.45593999997E+02  0.45594000000E+02  0.51100000000E-03 0.  1.
    9900012    2    1    2    0    0  0.46632549554E+01  0.35435317459E+01  0.17786759581E+02  0.72461778266E+02  0.70000270922E+02 0.  0.
        -12    1    1    2    0    0 -0.46632549554E+01 -0.35435317459E+01 -0.17786759581E+02  0.18726221734E+02  0.00000000000E+00 0.  1.
         11    1    3    3    0    0 -0.22425280095E+01  0.13519182612E+02  0.13298945911E+02  0.19096051764E+02  0.51100000000E-03 0. -1.
        -11    1    3    3    0    0  0.66862311062E+01  0.19586600334E+02 -0.67040083400E+01  0.21755098876E+02  0.51100000000E-03 0.  1.
         12    1    3    3    0    0  0.21955185867E+00 -0.29562251200E+02  0.11191822010E+02  0.31610627626E+02  0.00000000000E+00 0. -1.
</event>
<event>
 7    1  0.1358622E-013  0.7246158E+02  0.7816164E-02  0.1226708E+00
        -11   -1    0    0    0    0  0.00000000000E+00  0.00000000000E+00  0.45593999997E+02  0.45594000000E+02  0.51100000000E-03 0. -1.
         11   -1    0    0    0    0 -0.00000000000E+00 -0.00000000000E+00 -0.45593999997E+02  0.45594000000E+02  0.51100000000E-03 0.  1.
    9900012    2    1    2    0    0  0.36644842714E+01 -0.18152695894E+02  0.27802710031E+01  0.72461582296E+02  0.70000015634E+02 0.  0.
        -12    1    1    2    0    0 -0.36644842714E+01  0.18152695894E+02 -0.27802710031E+01  0.18726417704E+02  0.00000000000E+00 0.  1.
         11    1    3    3    0    0  0.28521413922E+02  0.11225235124E+02  0.52954665146E+01  0.31104966188E+02  0.51100000000E-03 0. -1.
        -11    1    3    3    0    0 -0.27820816177E+01 -0.14084753675E+02  0.25635544776E+00  0.14359177643E+02  0.51100000000E-03 0.  1.
        -12    1    3    3    0    0 -0.22074848033E+02 -0.15293177343E+02 -0.27715509593E+01  0.26997438464E+02  0.00000000000E+00 0.  1.
</event>
<event>
 7    1  0.1358622E-013  0.7246163E+02  0.7816164E-02  0.1226708E+00
        -11   -1    0    0    0    0  0.00000000000E+00  0.00000000000E+00  0.45593999997E+02  0.45594000000E+02  0.51100000000E-03 0. -1.
         11   -1    0    0    0    0 -0.00000000000E+00 -0.00000000000E+00 -0.45593999997E+02  0.45594000000E+02  0.51100000000E-03 0.  1.
    9900012    2    1    2    0    0  0.80529229767E+01 -0.28354923651E+01  0.16666956507E+02  0.72461627564E+02  0.70000074604E+02 0.  0.
        -12    1    1    2    0    0 -0.80529229767E+01  0.28354923651E+01 -0.16666956507E+02  0.18726372436E+02  0.00000000000E+00 0.  1.
         11    1    3    3    0    0  0.33271497361E+01 -0.44720046629E+01 -0.74835173667E+01  0.93312262598E+01  0.51100000000E-03 0. -1.
        -11    1    3    3    0    0  0.19087005042E+02 -0.29429785588E+01 -0.12836725018E+02  0.23189575108E+02  0.51100000000E-03 0.  1.
         12    1    3    3    0    0 -0.14361231801E+02  0.45794908566E+01  0.36987198892E+02  0.39940826196E+02  0.00000000000E+00 0. -1.
</event>
<event>
 7    1  0.1358622E-013  0.7246157E+02  0.7816164E-02  0.1226708E+00
        -11   -1    0    0    0    0  0.00000000000E+00  0.00000000000E+00  0.45593999997E+02  0.45594000000E+02  0.51100000000E-03 0.  1.
         11   -1    0    0    0    0 -0.00000000000E+00 -0.00000000000E+00 -0.45593999997E+02  0.45594000000E+02  0.51100000000E-03 0. -1.
    9900012    2    1    2    0    0  0.96847914806E+01 -0.99611727051E+01 -0.12556234383E+02  0.72461570293E+02  0.69999999998E+02 0.  0.
        -12    1    1    2    0    0 -0.96847914806E+01  0.99611727051E+01  0.12556234383E+02  0.18726429707E+02  0.00000000000E+00 0.  1.
         11    1    3    3    0    0  0.25008132996E+02 -0.17464886906E+02 -0.43066248369E+01  0.30805454198E+02  0.51100000000E-03 0. -1.
        -11    1    3    3    0    0 -0.69153473558E+01  0.16557948213E+02  0.92860972040E+01  0.20204437127E+02  0.51100000000E-03 0.  1.
         12    1    3    3    0    0 -0.84079941594E+01 -0.90542340118E+01 -0.17535706750E+02  0.21451678968E+02  0.00000000000E+00 0. -1.
</event>
<event>
 7    1  0.1358622E-013  0.7246160E+02  0.7816164E-02  0.1226708E+00
        -11   -1    0    0    0    0  0.00000000000E+00  0.00000000000E+00  0.45593999997E+02  0.45594000000E+02  0.51100000000E-03 0.  1.
         11   -1    0    0    0    0 -0.00000000000E+00 -0.00000000000E+00 -0.45593999997E+02  0.45594000000E+02  0.51100000000E-03 0. -1.
    9900012    2    1    2    0    0 -0.17532522957E+02 -0.44113011295E+01 -0.48815206619E+01  0.72461596639E+02  0.70000034318E+02 0.  0.
        -12    1    1    2    0    0  0.17532522957E+02  0.44113011295E+01  0.48815206619E+01  0.18726403361E+02  0.00000000000E+00 0.  1.
         11    1    3    3    0    0 -0.21159422631E+02  0.82225195870E+00 -0.34817135131E+01  0.21459720259E+02  0.51100000000E-03 0. -1.
        -11    1    3    3    0    0  0.24261795883E+02  0.54222244066E+01 -0.91926766691E+01  0.26505481728E+02  0.51100000000E-03 0.  1.
         12    1    3    3    0    0 -0.20634896209E+02 -0.10655777495E+02  0.77928695203E+01  0.24496394652E+02  0.00000000000E+00 0. -1.
</event>
<event>
 7    1  0.1426068E-013  0.7246158E+02  0.7816164E-02  0.1226708E+00
        -11   -1    0    0    0    0  0.00000000000E+00  0.00000000000E+00  0.45593999997E+02  0.45594000000E+02  0.51100000000E-03 0.  1.
         11   -1    0    0    0    0 -0.00000000000E+00 -0.00000000000E+00 -0.45593999997E+02  0.45594000000E+02  0.51100000000E-03 0. -1.
    9900012    2    1    2    0    0 -0.10078636574E+02 -0.16976811079E+01  0.15691322576E+02  0.72461584419E+02  0.70000018400E+02 0.  0.
        -12    1    1    2    0    0  0.10078636574E+02  0.16976811079E+01 -0.15691322576E+02  0.18726415581E+02  0.00000000000E+00 0.  1.
         11    1    3    3    0    0  0.14885367348E+02  0.16486389204E+02  0.22308554129E+02  0.31480895439E+02  0.51100000000E-03 0. -1.
        -11    1    3    3    0    0 -0.19450773426E+02  0.16046322142E+01 -0.41057558798E+00  0.19521168100E+02  0.51100000000E-03 0.  1.
        -12    1    3    3    0    0 -0.55132304953E+01 -0.19788702526E+02 -0.62066559645E+01  0.21459520880E+02  0.00000000000E+00 0.  1.
</event>
<event>
 7    1  0.1358622E-013  0.7246138E+02  0.7816164E-02  0.1226709E+00
        -11   -1    0    0    0    0  0.00000000000E+00  0.00000000000E+00  0.45593999997E+02  0.45594000000E+02  0.51100000000E-03 0. -1.
         11   -1    0    0    0    0 -0.00000000000E+00 -0.00000000000E+00 -0.45593999997E+02  0.45594000000E+02  0.51100000000E-03 0.  1.
    9900012    2    1    2    0    0  0.15804984958E+02  0.91794303759E+01  0.40776194730E+01  0.72461375314E+02  0.69999746002E+02 0.  0.
        -12    1    1    2    0    0 -0.15804984958E+02 -0.91794303759E+01 -0.40776194730E+01  0.18726624686E+02  0.00000000000E+00 0.  1.
         11    1    3    3    0    0  0.10696756687E+01  0.57700704078E+00  0.63403884059E+01  0.64558243904E+01  0.51100000000E-03 0. -1.
        -11    1    3    3    0    0 -0.10959093508E+02 -0.11760894761E+01  0.24978824265E+02  0.27302501330E+02  0.51100000000E-03 0.  1.
         12    1    3    3    0    0  0.25694402797E+02  0.97785128112E+01 -0.27241593198E+02  0.38703049594E+02  0.00000000000E+00 0. -1.
</event>
<event>
 7    1  0.1358622E-013  0.7246158E+02  0.7816164E-02  0.1226708E+00
        -11   -1    0    0    0    0  0.00000000000E+00  0.00000000000E+00  0.45593999997E+02  0.45594000000E+02  0.51100000000E-03 0. -1.
         11   -1    0    0    0    0 -0.00000000000E+00 -0.00000000000E+00 -0.45593999997E+02  0.45594000000E+02  0.51100000000E-03 0.  1.
    9900012    2    1    2    0    0 -0.14682433242E+02 -0.61825228967E+01  0.98428406735E+01  0.72461576214E+02  0.70000007712E+02 0.  0.
        -12    1    1    2    0    0  0.14682433242E+02  0.61825228967E+01 -0.98428406735E+01  0.18726423786E+02  0.00000000000E+00 0.  1.
         11    1    3    3    0    0 -0.30943866010E+01 -0.16872432861E+02  0.11295037200E+02  0.20538551183E+02  0.51100000000E-03 0. -1.
        -11    1    3    3    0    0 -0.27164792729E+01 -0.19494473696E+02 -0.48712919155E+01  0.20276667614E+02  0.51100000000E-03 0.  1.
        -12    1    3    3    0    0 -0.88715673683E+01  0.30184383660E+02  0.34190953894E+01  0.31646357418E+02  0.00000000000E+00 0.  1.
</event>
<event>
 7    1  0.1358622E-013  0.7246167E+02  0.7816164E-02  0.1226708E+00
        -11   -1    0    0    0    0  0.00000000000E+00  0.00000000000E+00  0.45593999997E+02  0.45594000000E+02  0.51100000000E-03 0. -1.
         11   -1    0    0    0    0 -0.00000000000E+00 -0.00000000000E+00 -0.45593999997E+02  0.45594000000E+02  0.51100000000E-03 0.  1.
    9900012    2    1    2    0    0  0.52160271684E+01  0.15537722143E+02 -0.90580262723E+01  0.72461665901E+02  0.70000124546E+02 0.  0.
        -12    1    1    2    0    0 -0.52160271684E+01 -0.15537722143E+02  0.90580262723E+01  0.18726334099E+02  0.00000000000E+00 0.  1.
         11    1    3    3    0    0  0.22900812235E+01 -0.46291587145E+01  0.20743912311E+02  0.21377171952E+02  0.51100000000E-03 0. -1.
        -11    1    3    3    0    0 -0.29810408932E+01 -0.10083946873E+02 -0.95465844790E+01  0.14202459816E+02  0.51100000000E-03 0.  1.
        -12    1    3    3    0    0  0.59069868381E+01  0.30250827731E+02 -0.20255354105E+02  0.36882034134E+02  0.00000000000E+00 0.  1.
</event>
<event>
 7    1  0.1358622E-013  0.7246154E+02  0.7816164E-02  0.1226708E+00
        -11   -1    0    0    0    0  0.00000000000E+00  0.00000000000E+00  0.45593999997E+02  0.45594000000E+02  0.51100000000E-03 0.  1.
         11   -1    0    0    0    0 -0.00000000000E+00 -0.00000000000E+00 -0.45593999997E+02  0.45594000000E+02  0.51100000000E-03 0. -1.
    9900012    2    1    2    0    0 -0.17453983684E+02 -0.65569466306E+01  0.17450055027E+01  0.72461544389E+02  0.69999966253E+02 0.  0.
        -12    1    1    2    0    0  0.17453983684E+02  0.65569466306E+01 -0.17450055027E+01  0.18726455611E+02  0.00000000000E+00 0.  1.
         11    1    3    3    0    0 -0.32868289344E+02 -0.21997551650E+02 -0.47978460555E+01  0.39840131150E+02  0.51100000000E-03 0. -1.
        -11    1    3    3    0    0 -0.48737111367E+01 -0.18116796801E+01  0.72754895383E-02  0.51995477401E+01  0.51100000000E-03 0.  1.
        -12    1    3    3    0    0  0.20288016797E+02  0.17252284700E+02  0.65355760686E+01  0.27421865499E+02  0.00000000000E+00 0.  1.
</event>
<event>
 7    1  0.1358622E-013  0.7246155E+02  0.7816164E-02  0.1226708E+00
        -11   -1    0    0    0    0  0.00000000000E+00  0.00000000000E+00  0.45593999997E+02  0.45594000000E+02  0.51100000000E-03 0.  1.
         11   -1    0    0    0    0 -0.00000000000E+00 -0.00000000000E+00 -0.45593999997E+02  0.45594000000E+02  0.51100000000E-03 0. -1.
    9900012    2    1    2    0    0  0.17624534701E+02 -0.41135948981E+01  0.48097953122E+01  0.72461547657E+02  0.69999970511E+02 0.  0.
        -12    1    1    2    0    0 -0.17624534701E+02  0.41135948981E+01 -0.48097953122E+01  0.18726452343E+02  0.00000000000E+00 0.  1.
         11    1    3    3    0    0  0.23005031097E+02  0.95895766937E+01 -0.23514873566E+02  0.34265736765E+02  0.51100000000E-03 0. -1.
        -11    1    3    3    0    0 -0.18945026076E+01  0.55517929976E+01  0.46805549080E+01  0.75046079263E+01  0.51100000000E-03 0.  1.
        -12    1    3    3    0    0 -0.34859937885E+01 -0.19254964589E+02  0.23644113971E+02  0.30691202966E+02  0.00000000000E+00 0.  1.
</event>
<event>
 7    1  0.1358622E-013  0.7246160E+02  0.7816164E-02  0.1226708E+00
        -11   -1    0    0    0    0  0.00000000000E+00  0.00000000000E+00  0.45593999997E+02  0.45594000000E+02  0.51100000000E-03 0.  1.
         11   -1    0    0    0    0 -0.00000000000E+00 -0.00000000000E+00 -0.45593999997E+02  0.45594000000E+02  0.51100000000E-03 0. -1.
    9900012    2    1    2    0    0  0.73291063061E+00  0.10448562759E+02 -0.15523162816E+02  0.72461596033E+02  0.70000033529E+02 0.  0.
        -12    1    1    2    0    0 -0.73291063061E+00 -0.10448562759E+02  0.15523162816E+02  0.18726403967E+02  0.00000000000E+00 0.  1.
         11    1    3    3    0    0  0.10506106969E+02  0.94557849599E+01 -0.32334505201E+02  0.35288955492E+02  0.51100000000E-03 0. -1.
        -11    1    3    3    0    0  0.80880331691E+01 -0.87985022037E+01  0.23185648668E+01  0.12173974900E+02  0.51100000000E-03 0.  1.
        -12    1    3    3    0    0 -0.17861229507E+02  0.97912800029E+01  0.14492777518E+02  0.24998665640E+02  0.00000000000E+00 0.  1.
</event>
<event>
 7    1  0.1358622E-013  0.7246153E+02  0.7816164E-02  0.1226708E+00
        -11   -1    0    0    0    0  0.00000000000E+00  0.00000000000E+00  0.45593999997E+02  0.45594000000E+02  0.51100000000E-03 0.  1.
         11   -1    0    0    0    0 -0.00000000000E+00 -0.00000000000E+00 -0.45593999997E+02  0.45594000000E+02  0.51100000000E-03 0. -1.
    9900012    2    1    2    0    0 -0.94721276481E+01  0.15476977932E+02 -0.46284516046E+01  0.72461531770E+02  0.69999949815E+02 0.  0.
        -12    1    1    2    0    0  0.94721276481E+01 -0.15476977932E+02  0.46284516046E+01  0.18726468230E+02  0.00000000000E+00 0.  1.
         11    1    3    3    0    0  0.98436382472E+01  0.92557419901E+01  0.12732265099E+02  0.18565466559E+02  0.51100000000E-03 0. -1.
        -11    1    3    3    0    0 -0.15711922747E+02 -0.11079311640E+01  0.14254211184E+02  0.21243223969E+02  0.51100000000E-03 0.  1.
         12    1    3    3    0    0 -0.36038431486E+01  0.73291671061E+01 -0.31614927887E+02  0.32652841243E+02  0.00000000000E+00 0. -1.
</event>
<event>
 7    1  0.1358622E-013  0.7246133E+02  0.7816164E-02  0.1226709E+00
        -11   -1    0    0    0    0  0.00000000000E+00  0.00000000000E+00  0.45593999997E+02  0.45594000000E+02  0.51100000000E-03 0. -1.
         11   -1    0    0    0    0 -0.00000000000E+00 -0.00000000000E+00 -0.45593999997E+02  0.45594000000E+02  0.51100000000E-03 0.  1.
    9900012    2    1    2    0    0 -0.10426709186E+02  0.15198675804E+02  0.33124526132E+01  0.72461325096E+02  0.69999680583E+02 0.  0.
        -12    1    1    2    0    0  0.10426709186E+02 -0.15198675804E+02 -0.33124526132E+01  0.18726674904E+02  0.00000000000E+00 0.  1.
         11    1    3    3    0    0  0.48074006595E+01  0.50393122108E+01  0.11275910659E+02  0.13253374292E+02  0.51100000000E-03 0. -1.
        -11    1    3    3    0    0  0.80353916081E+01 -0.19126296924E+02  0.90787566089E+00  0.20765524092E+02  0.51100000000E-03 0.  1.
        -12    1    3    3    0    0 -0.23269501454E+02  0.29285660517E+02 -0.88713337072E+01  0.38442426713E+02  0.00000000000E+00 0.  1.
</event>
<event>
 7    1  0.1358622E-013  0.7246160E+02  0.7816164E-02  0.1226708E+00
        -11   -1    0    0    0    0  0.00000000000E+00  0.00000000000E+00  0.45593999997E+02  0.45594000000E+02  0.51100000000E-03 0.  1.
         11   -1    0    0    0    0 -0.00000000000E+00 -0.00000000000E+00 -0.45593999997E+02  0.45594000000E+02  0.51100000000E-03 0. -1.
    9900012    2    1    2    0    0 -0.18536374041E+02 -0.69881589057E-01 -0.26600753928E+01  0.72461600262E+02  0.70000039039E+02 0.  0.
        -12    1    1    2    0    0  0.18536374041E+02  0.69881589057E-01  0.26600753928E+01  0.18726399738E+02  0.00000000000E+00 0.  1.
         11    1    3    3    0    0 -0.32273288455E+02 -0.29201959372E+01  0.22002563185E+01  0.32479744767E+02  0.51100000000E-03 0. -1.
        -11    1    3    3    0    0 -0.11293352016E+02  0.42751921426E+01 -0.83331373708E+01  0.14671681782E+02  0.51100000000E-03 0.  1.
        -12    1    3    3    0    0  0.25030266429E+02 -0.14248777945E+01  0.34728056596E+01  0.25310173713E+02  0.00000000000E+00 0.  1.
</event>
<event>
 7    1  0.1358622E-013  0.7246152E+02  0.7816164E-02  0.1226708E+00
        -11   -1    0    0    0    0  0.00000000000E+00  0.00000000000E+00  0.45593999997E+02  0.45594000000E+02  0.51100000000E-03 0. -1.
         11   -1    0    0    0    0 -0.00000000000E+00 -0.00000000000E+00 -0.45593999997E+02  0.45594000000E+02  0.51100000000E-03 0.  1.
    9900012    2    1    2    0    0 -0.99955684626E+01 -0.65000955980E+01  0.14440167002E+02  0.72461519959E+02  0.69999934429E+02 0.  0.
        -12    1    1    2    0    0  0.99955684626E+01  0.65000955980E+01 -0.14440167002E+02  0.18726480041E+02  0.00000000000E+00 0.  1.
         11    1    3    3    0    0  0.15437121828E+02 -0.13262908419E+02  0.87896177868E+01  0.22169051652E+02  0.51100000000E-03 0. -1.
        -11    1    3    3    0    0  0.18488238290E+01  0.16008986749E+00 -0.15208551072E+02  0.15321351255E+02  0.51100000000E-03 0.  1.
        -12    1    3    3    0    0 -0.27281514119E+02  0.66027229534E+01  0.20859100287E+02  0.34971117052E+02  0.00000000000E+00 0.  1.
</event>
<event>
 7    1  0.1358622E-013  0.7246162E+02  0.7816164E-02  0.1226708E+00
        -11   -1    0    0    0    0  0.00000000000E+00  0.00000000000E+00  0.45593999997E+02  0.45594000000E+02  0.51100000000E-03 0. -1.
         11   -1    0    0    0    0 -0.00000000000E+00 -0.00000000000E+00 -0.45593999997E+02  0.45594000000E+02  0.51100000000E-03 0.  1.
    9900012    2    1    2    0    0 -0.39904827381E+01 -0.18224820573E+02  0.16152919010E+01  0.72461622739E+02  0.70000068319E+02 0.  0.
        -12    1    1    2    0    0  0.39904827381E+01  0.18224820573E+02 -0.16152919010E+01  0.18726377261E+02  0.00000000000E+00 0.  1.
         11    1    3    3    0    0  0.77170330162E+01 -0.21815047115E+02  0.22505873537E+00  0.23140862795E+02  0.51100000000E-03 0. -1.
        -11    1    3    3    0    0 -0.10231464559E+02 -0.21658612968E+02 -0.49354929566E+00  0.23958755683E+02  0.51100000000E-03 0.  1.
        -12    1    3    3    0    0 -0.14760511951E+01  0.25248839510E+02  0.18837824613E+01  0.25362004261E+02  0.00000000000E+00 0.  1.
</event>
<event>
 7    1  0.1358622E-013  0.7246186E+02  0.7816164E-02  0.1226707E+00
        -11   -1    0    0    0    0  0.00000000000E+00  0.00000000000E+00  0.45593999997E+02  0.45594000000E+02  0.51100000000E-03 0. -1.
         11   -1    0    0    0    0 -0.00000000000E+00 -0.00000000000E+00 -0.45593999997E+02  0.45594000000E+02  0.51100000000E-03 0.  1.
    9900012    2    1    2    0    0 -0.47626193708E+01  0.12919315966E+01  0.18064242239E+02  0.72461855758E+02  0.70000371868E+02 0.  0.
        -12    1    1    2    0    0  0.47626193708E+01 -0.12919315966E+01 -0.18064242239E+02  0.18726144242E+02  0.00000000000E+00 0.  1.
         11    1    3    3    0    0 -0.18799536127E+01  0.49078648477E+01  0.86909824066E+01  0.10156502272E+02  0.51100000000E-03 0. -1.
        -11    1    3    3    0    0 -0.58134253960E+00  0.28651307123E+02  0.11521104372E+00  0.28657435909E+02  0.51100000000E-03 0.  1.
         12    1    3    3    0    0 -0.23013232185E+01 -0.32267240374E+02  0.92580487883E+01  0.33647917577E+02  0.00000000000E+00 0. -1.
</event>
<event>
 7    1  0.1358622E-013  0.7246147E+02  0.7816164E-02  0.1226708E+00
        -11   -1    0    0    0    0  0.00000000000E+00  0.00000000000E+00  0.45593999997E+02  0.45594000000E+02  0.51100000000E-03 0. -1.
         11   -1    0    0    0    0 -0.00000000000E+00 -0.00000000000E+00 -0.45593999997E+02  0.45594000000E+02  0.51100000000E-03 0.  1.
    9900012    2    1    2    0    0  0.90849936315E+01 -0.14860355295E+02  0.68786383314E+01  0.72461469780E+02  0.69999869061E+02 0.  0.
        -12    1    1    2    0    0 -0.90849936315E+01  0.14860355295E+02 -0.68786383314E+01  0.18726530220E+02  0.00000000000E+00 0.  1.
         11    1    3    3    0    0  0.36521190160E+02 -0.19128327504E+02  0.87799788005E+01  0.42151847786E+02  0.51100000000E-03 0. -1.
        -11    1    3    3    0    0 -0.10165663766E+02 -0.91101005788E+00 -0.59723837856E+01  0.11825397561E+02  0.51100000000E-03 0.  1.
        -12    1    3    3    0    0 -0.17270532763E+02  0.51789822662E+01  0.40710433164E+01  0.18484224433E+02  0.00000000000E+00 0.  1.
</event>
<event>
 7    1  0.1358622E-013  0.7246148E+02  0.7816164E-02  0.1226708E+00
        -11   -1    0    0    0    0  0.00000000000E+00  0.00000000000E+00  0.45593999997E+02  0.45594000000E+02  0.51100000000E-03 0.  1.
         11   -1    0    0    0    0 -0.00000000000E+00 -0.00000000000E+00 -0.45593999997E+02  0.45594000000E+02  0.51100000000E-03 0. -1.
    9900012    2    1    2    0    0  0.15925395819E+02  0.53874694889E+01 -0.82486094009E+01  0.72461478258E+02  0.69999880106E+02 0.  0.
        -12    1    1    2    0    0 -0.15925395819E+02 -0.53874694889E+01  0.82486094009E+01  0.18726521742E+02  0.00000000000E+00 0.  1.
         11    1    3    3    0    0 -0.46846558945E+01  0.15780652978E+02 -0.14395449843E+02  0.21867875656E+02  0.51100000000E-03 0. -1.
        -11    1    3    3    0    0  0.98627465377E+00 -0.99622150442E+01  0.22768948261E+02  0.24872544532E+02  0.51100000000E-03 0.  1.
         12    1    3    3    0    0  0.19623777060E+02 -0.43096844495E+00 -0.16622107819E+02  0.25721058070E+02  0.00000000000E+00 0. -1.
</event>
<event>
 7    1  0.1358622E-013  0.7246160E+02  0.7816164E-02  0.1226708E+00
        -11   -1    0    0    0    0  0.00000000000E+00  0.00000000000E+00  0.45593999997E+02  0.45594000000E+02  0.51100000000E-03 0. -1.
         11   -1    0    0    0    0 -0.00000000000E+00 -0.00000000000E+00 -0.45593999997E+02  0.45594000000E+02  0.51100000000E-03 0.  1.
    9900012    2    1    2    0    0  0.27720750759E+00 -0.17378936922E+02  0.69694901337E+01  0.72461599244E+02  0.70000037712E+02 0.  0.
        -12    1    1    2    0    0 -0.27720750759E+00  0.17378936922E+02 -0.69694901337E+01  0.18726400756E+02  0.00000000000E+00 0.  1.
         11    1    3    3    0    0 -0.20143228981E+02 -0.21540960995E+02 -0.10730292456E+02  0.31383145967E+02  0.51100000000E-03 0. -1.
        -11    1    3    3    0    0  0.26930936584E+01 -0.12569045195E+00 -0.86341937302E+01  0.90453221708E+01  0.51100000000E-03 0.  1.
        -12    1    3    3    0    0  0.17727342830E+02  0.42877145245E+01  0.26333976320E+02  0.32033131106E+02  0.00000000000E+00 0.  1.
</event>
<event>
 7    1  0.1358622E-013  0.7246154E+02  0.7816164E-02  0.1226708E+00
        -11   -1    0    0    0    0  0.00000000000E+00  0.00000000000E+00  0.45593999997E+02  0.45594000000E+02  0.51100000000E-03 0. -1.
         11   -1    0    0    0    0 -0.00000000000E+00 -0.00000000000E+00 -0.45593999997E+02  0.45594000000E+02  0.51100000000E-03 0.  1.
    9900012    2    1    2    0    0 -0.94102515940E+01 -0.15331520213E+02 -0.52030889826E+01  0.72461535249E+02  0.69999954347E+02 0.  0.
        -12    1    1    2    0    0  0.94102515940E+01  0.15331520213E+02  0.52030889826E+01  0.18726464751E+02  0.00000000000E+00 0.  1.
         11    1    3    3    0    0  0.10847201956E+02 -0.17098024748E+01 -0.18998071024E+02  0.21943379814E+02  0.51100000000E-03 0. -1.
        -11    1    3    3    0    0 -0.12437911405E+02  0.10660105742E+00 -0.13888175216E+02  0.18643884117E+02  0.51100000000E-03 0.  1.
         12    1    3    3    0    0 -0.78195421456E+01 -0.13728318796E+02  0.27683157257E+02  0.31874271318E+02  0.00000000000E+00 0. -1.
</event>
<event>
 7    1  0.1358622E-013  0.7246155E+02  0.7816164E-02  0.1226708E+00
        -11   -1    0    0    0    0  0.00000000000E+00  0.00000000000E+00  0.45593999997E+02  0.45594000000E+02  0.51100000000E-03 0. -1.
         11   -1    0    0    0    0 -0.00000000000E+00 -0.00000000000E+00 -0.45593999997E+02  0.45594000000E+02  0.51100000000E-03 0.  1.
    9900012    2    1    2    0    0  0.30126588650E+01 -0.14619978097E+02  0.11307523087E+02  0.72461549419E+02  0.69999972806E+02 0.  0.
        -12    1    1    2    0    0 -0.30126588650E+01  0.14619978097E+02 -0.11307523087E+02  0.18726450581E+02  0.00000000000E+00 0.  1.
         11    1    3    3    0    0 -0.13170731866E+02 -0.11605824948E+02  0.13143548445E+01  0.17603717776E+02  0.51100000000E-03 0. -1.
        -11    1    3    3    0    0  0.47672190772E+01 -0.15152495281E+02 -0.16917253261E+02  0.23205989510E+02  0.51100000000E-03 0.  1.
         12    1    3    3    0    0  0.11416171654E+02  0.12138342132E+02  0.26910421504E+02  0.31651842133E+02  0.00000000000E+00 0. -1.
</event>
<event>
 7    1  0.1358622E-013  0.7246156E+02  0.7816164E-02  0.1226708E+00
        -11   -1    0    0    0    0  0.00000000000E+00  0.00000000000E+00  0.45593999997E+02  0.45594000000E+02  0.51100000000E-03 0. -1.
         11   -1    0    0    0    0 -0.00000000000E+00 -0.00000000000E+00 -0.45593999997E+02  0.45594000000E+02  0.51100000000E-03 0.  1.
    9900012    2    1    2    0    0 -0.39685305774E+01 -0.87926291884E+01  0.16050540138E+02  0.72461564095E+02  0.69999991924E+02 0.  0.
        -12    1    1    2    0    0  0.39685305774E+01  0.87926291884E+01 -0.16050540138E+02  0.18726435905E+02  0.00000000000E+00 0.  1.
         11    1    3    3    0    0  0.98938337111E+01 -0.24507077300E+01  0.10014274666E+01  0.10241912473E+02  0.51100000000E-03 0. -1.
        -11    1    3    3    0    0 -0.48485615271E+01 -0.28664047796E+01 -0.22630711101E+02  0.23321104400E+02  0.51100000000E-03 0.  1.
         12    1    3    3    0    0 -0.90138027614E+01 -0.34755166788E+01  0.37679823772E+02  0.38898547221E+02  0.00000000000E+00 0. -1.
</event>
<event>
 7    1  0.1358622E-013  0.7246160E+02  0.7816164E-02  0.1226708E+00
        -11   -1    0    0    0    0  0.00000000000E+00  0.00000000000E+00  0.45593999997E+02  0.45594000000E+02  0.51100000000E-03 0.  1.
         11   -1    0    0    0    0 -0.00000000000E+00 -0.00000000000E+00 -0.45593999997E+02  0.45594000000E+02  0.51100000000E-03 0. -1.
    9900012    2    1    2    0    0 -0.47694974827E+01  0.13488165201E+02 -0.12083013537E+02  0.72461603580E+02  0.70000043361E+02 0.  0.
        -12    1    1    2    0    0  0.47694974827E+01 -0.13488165201E+02  0.12083013537E+02  0.18726396420E+02  0.00000000000E+00 0.  1.
         11    1    3    3    0    0 -0.54861683623E+01  0.10911184805E+02 -0.10633367758E+02  0.16193224117E+02  0.51100000000E-03 0. -1.
        -11    1    3    3    0    0 -0.10437703149E+02  0.26119046012E+02 -0.83100700694E+01  0.29329293828E+02  0.51100000000E-03 0.  1.
        -12    1    3    3    0    0  0.11154374028E+02 -0.23542065616E+02  0.68604242899E+01  0.26939085635E+02  0.00000000000E+00 0.  1.
</event>
<event>
 7    1  0.1358622E-013  0.7246189E+02  0.7816164E-02  0.1226707E+00
        -11   -1    0    0    0    0  0.00000000000E+00  0.00000000000E+00  0.45593999997E+02  0.45594000000E+02  0.51100000000E-03 0.  1.
         11   -1    0    0    0    0 -0.00000000000E+00 -0.00000000000E+00 -0.45593999997E+02  0.45594000000E+02  0.51100000000E-03 0. -1.
    9900012    2    1    2    0    0 -0.18319591956E+02 -0.11305468617E+01 -0.37123503171E+01  0.72461891741E+02  0.70000418743E+02 0.  0.
        -12    1    1    2    0    0  0.18319591956E+02  0.11305468617E+01  0.37123503171E+01  0.18726108259E+02  0.00000000000E+00 0.  1.
         11    1    3    3    0    0  0.45961451291E+01 -0.62371045284E+01  0.53563305918E+01  0.94189330933E+01  0.51100000000E-03 0. -1.
        -11    1    3    3    0    0 -0.26016211078E+02 -0.10904730690E+02  0.16526336381E+02  0.32693671937E+02  0.51100000000E-03 0.  1.
         12    1    3    3    0    0  0.31004739933E+01  0.16011288357E+02 -0.25595017290E+02  0.30349286711E+02  0.00000000000E+00 0. -1.
</event>
<event>
 7    1  0.1358622E-013  0.7246157E+02  0.7816164E-02  0.1226708E+00
        -11   -1    0    0    0    0  0.00000000000E+00  0.00000000000E+00  0.45593999997E+02  0.45594000000E+02  0.51100000000E-03 0.  1.
         11   -1    0    0    0    0 -0.00000000000E+00 -0.00000000000E+00 -0.45593999997E+02  0.45594000000E+02  0.51100000000E-03 0. -1.
    9900012    2    1    2    0    0 -0.67077906352E+01 -0.15131835260E+02  0.87585535890E+01  0.72461570695E+02  0.70000000523E+02 0.  0.
        -12    1    1    2    0    0  0.67077906352E+01  0.15131835260E+02 -0.87585535890E+01  0.18726429305E+02  0.00000000000E+00 0.  1.
         11    1    3    3    0    0  0.67630604196E+01 -0.39510615284E+01  0.16169353045E+02  0.17966575956E+02  0.51100000000E-03 0. -1.
        -11    1    3    3    0    0 -0.90173273050E+01 -0.31104457392E+02  0.10347127442E+01  0.32401698907E+02  0.51100000000E-03 0.  1.
         12    1    3    3    0    0 -0.44535237497E+01  0.19923683661E+02 -0.84455122001E+01  0.22093295832E+02  0.00000000000E+00 0. -1.
</event>
<event>
 7    1  0.1358622E-013  0.7246157E+02  0.7816164E-02  0.1226708E+00
        -11   -1    0    0    0    0  0.00000000000E+00  0.00000000000E+00  0.45593999997E+02  0.45594000000E+02  0.51100000000E-03 0.  1.
         11   -1    0    0    0    0 -0.00000000000E+00 -0.00000000000E+00 -0.45593999997E+02  0.45594000000E+02  0.51100000000E-03 0. -1.
    9900012    2    1    2    0    0  0.17106098980E+02  0.88229506034E+00 -0.75684924525E+01  0.72461570952E+02  0.70000000856E+02 0.  0.
        -12    1    1    2    0    0 -0.17106098980E+02 -0.88229506034E+00  0.75684924525E+01  0.18726429048E+02  0.00000000000E+00 0.  1.
         11    1    3    3    0    0 -0.81965385514E+00 -0.81286319388E+01  0.94104199121E+01  0.12462042081E+02  0.51100000000E-03 0. -1.
        -11    1    3    3    0    0  0.36369462462E+02 -0.28338120039E+00 -0.69041308339E+01  0.37020063851E+02  0.51100000000E-03 0.  1.
         12    1    3    3    0    0 -0.18443709627E+02  0.92943081995E+01 -0.10074781531E+02  0.22979465020E+02  0.00000000000E+00 0. -1.
</event>
<event>
 7    1  0.1358622E-013  0.7246180E+02  0.7816164E-02  0.1226707E+00
        -11   -1    0    0    0    0  0.00000000000E+00  0.00000000000E+00  0.45593999997E+02  0.45594000000E+02  0.51100000000E-03 0.  1.
         11   -1    0    0    0    0 -0.00000000000E+00 -0.00000000000E+00 -0.45593999997E+02  0.45594000000E+02  0.51100000000E-03 0. -1.
    9900012    2    1    2    0    0  0.10300369560E+02  0.82123178562E+01 -0.13309046406E+02  0.72461801937E+02  0.70000301757E+02 0.  0.
        -12    1    1    2    0    0 -0.10300369560E+02 -0.82123178562E+01  0.13309046406E+02  0.18726198063E+02  0.00000000000E+00 0.  1.
         11    1    3    3    0    0  0.64563139470E+00 -0.18226318539E+02 -0.44921704838E+01  0.18782841194E+02  0.51100000000E-03 0. -1.
        -11    1    3    3    0    0  0.23093049933E+02  0.42840597897E+00  0.22463291830E-01  0.23097034263E+02  0.51100000000E-03 0.  1.
        -12    1    3    3    0    0 -0.13438311768E+02  0.26010230416E+02 -0.88393392142E+01  0.30581926480E+02  0.00000000000E+00 0.  1.
</event>
<event>
 7    1  0.1358622E-013  0.7246179E+02  0.7816164E-02  0.1226707E+00
        -11   -1    0    0    0    0  0.00000000000E+00  0.00000000000E+00  0.45593999997E+02  0.45594000000E+02  0.51100000000E-03 0.  1.
         11   -1    0    0    0    0 -0.00000000000E+00 -0.00000000000E+00 -0.45593999997E+02  0.45594000000E+02  0.51100000000E-03 0. -1.
    9900012    2    1    2    0    0 -0.15472976024E+02 -0.87908221202E+01 -0.58291963119E+01  0.72461786548E+02  0.70000281710E+02 0.  0.
        -12    1    1    2    0    0  0.15472976024E+02  0.87908221202E+01  0.58291963119E+01  0.18726213452E+02  0.00000000000E+00 0.  1.
         11    1    3    3    0    0  0.37206117398E+01  0.99564729619E+01 -0.36353297432E+01  0.11233429047E+02  0.51100000000E-03 0.  1.
        -11    1    3    3    0    0 -0.80424369286E+01  0.68488111676E+01 -0.23725220906E+02  0.25970620198E+02  0.51100000000E-03 0. -1.
        -12    1    3    3    0    0 -0.11151150835E+02 -0.25596106250E+02  0.21531354338E+02  0.35257737303E+02  0.00000000000E+00 0.  1.
</event>
<event>
 7    1  0.1358622E-013  0.7246156E+02  0.7816164E-02  0.1226708E+00
        -11   -1    0    0    0    0  0.00000000000E+00  0.00000000000E+00  0.45593999997E+02  0.45594000000E+02  0.51100000000E-03 0. -1.
         11   -1    0    0    0    0 -0.00000000000E+00 -0.00000000000E+00 -0.45593999997E+02  0.45594000000E+02  0.51100000000E-03 0.  1.
    9900012    2    1    2    0    0  0.77309719872E+00  0.12866646574E+02  0.13584223237E+02  0.72461564293E+02  0.69999992183E+02 0.  0.
        -12    1    1    2    0    0 -0.77309719872E+00 -0.12866646574E+02 -0.13584223237E+02  0.18726435707E+02  0.00000000000E+00 0.  1.
         11    1    3    3    0    0  0.16506802954E+02  0.52368615775E+01 -0.19601456026E+01  0.17428179308E+02  0.51100000000E-03 0. -1.
        -11    1    3    3    0    0 -0.39021652276E+01 -0.20983152708E+02  0.27027690094E+01  0.21513357516E+02  0.51100000000E-03 0.  1.
         12    1    3    3    0    0 -0.11831540528E+02  0.28612937705E+02  0.12841599830E+02  0.33520027469E+02  0.00000000000E+00 0. -1.
</event>
<event>
 7    1  0.1358622E-013  0.7246156E+02  0.7816164E-02  0.1226708E+00
        -11   -1    0    0    0    0  0.00000000000E+00  0.00000000000E+00  0.45593999997E+02  0.45594000000E+02  0.51100000000E-03 0.  1.
         11   -1    0    0    0    0 -0.00000000000E+00 -0.00000000000E+00 -0.45593999997E+02  0.45594000000E+02  0.51100000000E-03 0. -1.
    9900012    2    1    2    0    0  0.63365589362E+01  0.17309629211E+02 -0.33021624896E+01  0.72461560945E+02  0.69999987821E+02 0.  0.
        -12    1    1    2    0    0 -0.63365589362E+01 -0.17309629211E+02  0.33021624896E+01  0.18726439055E+02  0.00000000000E+00 0.  1.
         11    1    3    3    0    0 -0.24930121759E+02  0.47090219646E+01 -0.11557011544E+02  0.27879210442E+02  0.51100000000E-03 0. -1.
        -11    1    3    3    0    0  0.56839265128E+01 -0.87349780848E+01  0.31089039352E+01  0.10875299843E+02  0.51100000000E-03 0.  1.
        -12    1    3    3    0    0  0.25582754183E+02  0.21335585331E+02  0.51459451194E+01  0.33707050659E+02  0.00000000000E+00 0.  1.
</event>
<event>
 7    1  0.1401417E-013  0.7246156E+02  0.7816164E-02  0.1226708E+00
        -11   -1    0    0    0    0  0.00000000000E+00  0.00000000000E+00  0.45593999997E+02  0.45594000000E+02  0.51100000000E-03 0. -1.
         11   -1    0    0    0    0 -0.00000000000E+00 -0.00000000000E+00 -0.45593999997E+02  0.45594000000E+02  0.51100000000E-03 0.  1.
    9900012    2    1    2    0    0  0.75841625241E+01 -0.12880124520E+02  0.11281060203E+02  0.72461562855E+02  0.69999990309E+02 0.  0.
        -12    1    1    2    0    0 -0.75841625241E+01  0.12880124520E+02 -0.11281060203E+02  0.18726437145E+02  0.00000000000E+00 0.  1.
         11    1    3    3    0    0  0.12539420180E+01  0.51567720918E-01  0.28161133068E+02  0.28189083805E+02  0.51100000000E-03 0. -1.
        -11    1    3    3    0    0 -0.25993529460E+01 -0.20132980337E+02  0.37726628737E+01  0.20647675860E+02  0.51100000000E-03 0.  1.
        -12    1    3    3    0    0  0.89295734522E+01  0.72012880961E+01 -0.20652735739E+02  0.23624803190E+02  0.00000000000E+00 0.  1.
</event>
<event>
 7    1  0.1358622E-013  0.7246157E+02  0.7816164E-02  0.1226708E+00
        -11   -1    0    0    0    0  0.00000000000E+00  0.00000000000E+00  0.45593999997E+02  0.45594000000E+02  0.51100000000E-03 0.  1.
         11   -1    0    0    0    0 -0.00000000000E+00 -0.00000000000E+00 -0.45593999997E+02  0.45594000000E+02  0.51100000000E-03 0. -1.
    9900012    2    1    2    0    0  0.41878080717E+01 -0.13693888606E+02 -0.12067265403E+02  0.72461569056E+02  0.69999998387E+02 0.  0.
        -12    1    1    2    0    0 -0.41878080717E+01  0.13693888606E+02  0.12067265403E+02  0.18726430944E+02  0.00000000000E+00 0.  1.
         11    1    3    3    0    0  0.77583028075E+01  0.69389213081E+01  0.79568018315E+01  0.13101549031E+02  0.51100000000E-03 0. -1.
        -11    1    3    3    0    0  0.22626143163E+02 -0.83479353408E+01 -0.18482739909E+02  0.30384898448E+02  0.51100000000E-03 0.  1.
         12    1    3    3    0    0 -0.26196637899E+02 -0.12284874573E+02 -0.15413273258E+01  0.28975121577E+02  0.00000000000E+00 0. -1.
</event>
<event>
 7    1  0.1358622E-013  0.7246157E+02  0.7816164E-02  0.1226708E+00
        -11   -1    0    0    0    0  0.00000000000E+00  0.00000000000E+00  0.45593999997E+02  0.45594000000E+02  0.51100000000E-03 0.  1.
         11   -1    0    0    0    0 -0.00000000000E+00 -0.00000000000E+00 -0.45593999997E+02  0.45594000000E+02  0.51100000000E-03 0. -1.
    9900012    2    1    2    0    0 -0.23544796580E+01 -0.34928289763E+01 -0.18246522908E+02  0.72461574101E+02  0.70000004959E+02 0.  0.
        -12    1    1    2    0    0  0.23544796580E+01  0.34928289763E+01  0.18246522908E+02  0.18726425899E+02  0.00000000000E+00 0.  1.
         11    1    3    3    0    0 -0.59325339478E+01 -0.30982805024E+01  0.12781062710E+02  0.14427399813E+02  0.51100000000E-03 0.  1.
        -11    1    3    3    0    0  0.21218388141E+02  0.53301484287E+01  0.10171208544E-01  0.21877627414E+02  0.51100000000E-03 0. -1.
        -12    1    3    3    0    0 -0.17640333851E+02 -0.57246969026E+01 -0.31037756826E+02  0.36156546874E+02  0.00000000000E+00 0.  1.
</event>
<event>
 7    1  0.1358622E-013  0.7246163E+02  0.7816164E-02  0.1226708E+00
        -11   -1    0    0    0    0  0.00000000000E+00  0.00000000000E+00  0.45593999997E+02  0.45594000000E+02  0.51100000000E-03 0.  1.
         11   -1    0    0    0    0 -0.00000000000E+00 -0.00000000000E+00 -0.45593999997E+02  0.45594000000E+02  0.51100000000E-03 0. -1.
    9900012    2    1    2    0    0  0.25280294515E+01 -0.60815351768E+01 -0.17530002926E+02  0.72461628071E+02  0.70000075265E+02 0.  0.
        -12    1    1    2    0    0 -0.25280294515E+01  0.60815351768E+01  0.17530002926E+02  0.18726371929E+02  0.00000000000E+00 0.  1.
         11    1    3    3    0    0  0.54156264655E+01 -0.18824897952E+02  0.96332497830E+01  0.21829001226E+02  0.51100000000E-03 0. -1.
        -11    1    3    3    0    0  0.94613495353E+01  0.72609824813E+01  0.70457109750E+01  0.13852113378E+02  0.51100000000E-03 0.  1.
         12    1    3    3    0    0 -0.12348946549E+02  0.54823802936E+01 -0.34208963684E+02  0.36780513467E+02  0.00000000000E+00 0. -1.
</event>
<event>
 7    1  0.1358622E-013  0.7246159E+02  0.7816164E-02  0.1226708E+00
        -11   -1    0    0    0    0  0.00000000000E+00  0.00000000000E+00  0.45593999997E+02  0.45594000000E+02  0.51100000000E-03 0.  1.
         11   -1    0    0    0    0 -0.00000000000E+00 -0.00000000000E+00 -0.45593999997E+02  0.45594000000E+02  0.51100000000E-03 0. -1.
    9900012    2    1    2    0    0  0.11347473076E+02  0.14786903560E+01 -0.14823188081E+02  0.72461586161E+02  0.70000020670E+02 0.  0.
        -12    1    1    2    0    0 -0.11347473076E+02 -0.14786903560E+01  0.14823188081E+02  0.18726413839E+02  0.00000000000E+00 0.  1.
         11    1    3    3    0    0 -0.81587161918E+01  0.62002037945E+01 -0.18144838758E+02  0.20838482449E+02  0.51100000000E-03 0. -1.
        -11    1    3    3    0    0 -0.45403303931E+01 -0.14352498313E+01 -0.18428137937E+02  0.19033412995E+02  0.51100000000E-03 0.  1.
        -12    1    3    3    0    0  0.24046519661E+02 -0.32862636073E+01  0.21749788614E+02  0.32589690717E+02  0.00000000000E+00 0.  1.
</event>
<event>
 7    1  0.1358622E-013  0.7246156E+02  0.7816164E-02  0.1226708E+00
        -11   -1    0    0    0    0  0.00000000000E+00  0.00000000000E+00  0.45593999997E+02  0.45594000000E+02  0.51100000000E-03 0.  1.
         11   -1    0    0    0    0 -0.00000000000E+00 -0.00000000000E+00 -0.45593999997E+02  0.45594000000E+02  0.51100000000E-03 0. -1.
    9900012    2    1    2    0    0  0.11956626486E+02 -0.18446323480E+01 -0.14293914408E+02  0.72461559481E+02  0.69999985913E+02 0.  0.
        -12    1    1    2    0    0 -0.11956626486E+02  0.18446323480E+01  0.14293914408E+02  0.18726440519E+02  0.00000000000E+00 0.  1.
         11    1    3    3    0    0  0.18865529750E+02  0.21571664187E+02 -0.26995035117E+02  0.39369745107E+02  0.51100000000E-03 0. -1.
        -11    1    3    3    0    0  0.41750941164E+01  0.20069873639E-01  0.39002514827E+01  0.57134731618E+01  0.51100000000E-03 0.  1.
        -12    1    3    3    0    0 -0.11083997381E+02 -0.23436366409E+02  0.88008692261E+01  0.27378341212E+02  0.00000000000E+00 0.  1.
</event>
<event>
 7    1  0.1358622E-013  0.7246155E+02  0.7816164E-02  0.1226708E+00
        -11   -1    0    0    0    0  0.00000000000E+00  0.00000000000E+00  0.45593999997E+02  0.45594000000E+02  0.51100000000E-03 0.  1.
         11   -1    0    0    0    0 -0.00000000000E+00 -0.00000000000E+00 -0.45593999997E+02  0.45594000000E+02  0.51100000000E-03 0. -1.
    9900012    2    1    2    0    0 -0.33674795828E+01  0.49125270725E+01 -0.17754074059E+02  0.72461548477E+02  0.69999971578E+02 0.  0.
        -12    1    1    2    0    0  0.33674795828E+01 -0.49125270725E+01  0.17754074059E+02  0.18726451523E+02  0.00000000000E+00 0.  1.
         11    1    3    3    0    0  0.23230308174E+02  0.12635141570E+02 -0.99775143857E+01  0.28263842872E+02  0.51100000000E-03 0. -1.
        -11    1    3    3    0    0  0.35621965081E+01 -0.50440096989E+01  0.79595705506E+01  0.10074028063E+02  0.51100000000E-03 0.  1.
         12    1    3    3    0    0 -0.30159984265E+02 -0.26786047982E+01 -0.15736130224E+02  0.34123677541E+02  0.00000000000E+00 0. -1.
</event>
<event>
 7    1  0.1358622E-013  0.7246153E+02  0.7816164E-02  0.1226708E+00
        -11   -1    0    0    0    0  0.00000000000E+00  0.00000000000E+00  0.45593999997E+02  0.45594000000E+02  0.51100000000E-03 0. -1.
         11   -1    0    0    0    0 -0.00000000000E+00 -0.00000000000E+00 -0.45593999997E+02  0.45594000000E+02  0.51100000000E-03 0.  1.
    9900012    2    1    2    0    0  0.60986806741E+01  0.16592528942E+02  0.61785802892E+01  0.72461527373E+02  0.69999944087E+02 0.  0.
        -12    1    1    2    0    0 -0.60986806741E+01 -0.16592528942E+02 -0.61785802892E+01  0.18726472627E+02  0.00000000000E+00 0.  1.
         11    1    3    3    0    0 -0.14249335084E+02 -0.45543878943E+01  0.53991728636E+01  0.15903995325E+02  0.51100000000E-03 0. -1.
        -11    1    3    3    0    0 -0.10001397545E+02  0.20472031155E+02 -0.92444984760E+01  0.24588468126E+02  0.51100000000E-03 0.  1.
         12    1    3    3    0    0  0.30349413303E+02  0.67488568125E+00  0.10023905902E+02  0.31969063922E+02  0.00000000000E+00 0. -1.
</event>
<event>
 7    1  0.1358622E-013  0.7246160E+02  0.7816164E-02  0.1226708E+00
        -11   -1    0    0    0    0  0.00000000000E+00  0.00000000000E+00  0.45593999997E+02  0.45594000000E+02  0.51100000000E-03 0.  1.
         11   -1    0    0    0    0 -0.00000000000E+00 -0.00000000000E+00 -0.45593999997E+02  0.45594000000E+02  0.51100000000E-03 0. -1.
    9900012    2    1    2    0    0 -0.24119958219E+01 -0.14374744600E+02  0.11756993951E+02  0.72461603846E+02  0.70000043707E+02 0.  0.
        -12    1    1    2    0    0  0.24119958219E+01  0.14374744600E+02 -0.11756993951E+02  0.18726396154E+02  0.00000000000E+00 0.  1.
         11    1    3    3    0    0  0.20047365488E+01  0.15076187078E+02  0.70845988606E+01  0.16778019154E+02  0.51100000000E-03 0. -1.
        -11    1    3    3    0    0  0.79370673392E+01  0.10132802122E+02  0.59879792155E+01  0.14196006908E+02  0.51100000000E-03 0.  1.
        -12    1    3    3    0    0 -0.12353799710E+02 -0.39583733800E+02 -0.13155841251E+01  0.41487577784E+02  0.00000000000E+00 0.  1.
</event>
<event>
 7    1  0.1358622E-013  0.7246104E+02  0.7816164E-02  0.1226709E+00
        -11   -1    0    0    0    0  0.00000000000E+00  0.00000000000E+00  0.45593999997E+02  0.45594000000E+02  0.51100000000E-03 0. -1.
         11   -1    0    0    0    0 -0.00000000000E+00 -0.00000000000E+00 -0.45593999997E+02  0.45594000000E+02  0.51100000000E-03 0.  1.
    9900012    2    1    2    0    0 -0.64565199706E+01  0.16865287697E+02  0.49572794778E+01  0.72461035509E+02  0.69999303339E+02 0.  0.
        -12    1    1    2    0    0  0.64565199706E+01 -0.16865287697E+02 -0.49572794778E+01  0.18726964491E+02  0.00000000000E+00 0.  1.
         11    1    3    3    0    0  0.21057214981E+00  0.83977159780E+00  0.20621577736E+01  0.22365267517E+01  0.51100000000E-03 0. -1.
        -11    1    3    3    0    0  0.29301044841E+02  0.17540253234E+02  0.68498013934E+00  0.34156711059E+02  0.51100000000E-03 0.  1.
        -12    1    3    3    0    0 -0.35968136962E+02 -0.15147371346E+01  0.22101415649E+01  0.36067797699E+02  0.00000000000E+00 0.  1.
</event>
<event>
 7    1  0.1358622E-013  0.7246156E+02  0.7816164E-02  0.1226708E+00
        -11   -1    0    0    0    0  0.00000000000E+00  0.00000000000E+00  0.45593999997E+02  0.45594000000E+02  0.51100000000E-03 0.  1.
         11   -1    0    0    0    0 -0.00000000000E+00 -0.00000000000E+00 -0.45593999997E+02  0.45594000000E+02  0.51100000000E-03 0. -1.
    9900012    2    1    2    0    0 -0.10044174628E+02  0.47003563346E+01 -0.15089762076E+02  0.72461555780E+02  0.69999981092E+02 0.  0.
        -12    1    1    2    0    0  0.10044174628E+02 -0.47003563346E+01  0.15089762076E+02  0.18726444220E+02  0.00000000000E+00 0.  1.
         11    1    3    3    0    0  0.42727064039E+01 -0.11381544138E+02  0.44561921429E+01  0.12948096990E+02  0.51100000000E-03 0. -1.
        -11    1    3    3    0    0  0.58822571748E+01 -0.16696018299E+02 -0.66332560927E+01  0.18903916609E+02  0.51100000000E-03 0.  1.
         12    1    3    3    0    0 -0.20199138206E+02  0.32777918772E+02 -0.12912698126E+02  0.40609542181E+02  0.00000000000E+00 0. -1.
</event>
<event>
 7    1  0.1358622E-013  0.7246158E+02  0.7816164E-02  0.1226708E+00
        -11   -1    0    0    0    0  0.00000000000E+00  0.00000000000E+00  0.45593999997E+02  0.45594000000E+02  0.51100000000E-03 0.  1.
         11   -1    0    0    0    0 -0.00000000000E+00 -0.00000000000E+00 -0.45593999997E+02  0.45594000000E+02  0.51100000000E-03 0. -1.
    9900012    2    1    2    0    0  0.14762281990E+02 -0.11521023071E+02 -0.14148960758E+00  0.72461575849E+02  0.70000007237E+02 0.  0.
        -12    1    1    2    0    0 -0.14762281990E+02  0.11521023071E+02  0.14148960758E+00  0.18726424151E+02  0.00000000000E+00 0.  1.
         11    1    3    3    0    0 -0.92765825067E+00  0.64012606879E+00  0.17548573874E+02  0.17584730777E+02  0.51100000000E-03 0.  1.
        -11    1    3    3    0    0 -0.44304928450E+01  0.16398758529E+02 -0.65891036029E+01  0.18219902159E+02  0.51100000000E-03 0. -1.
         12    1    3    3    0    0  0.20120433086E+02 -0.28559907668E+02 -0.11100959879E+02  0.36656942914E+02  0.00000000000E+00 0. -1.
</event>
<event>
 7    1  0.1358622E-013  0.7246153E+02  0.7816164E-02  0.1226708E+00
        -11   -1    0    0    0    0  0.00000000000E+00  0.00000000000E+00  0.45593999997E+02  0.45594000000E+02  0.51100000000E-03 0.  1.
         11   -1    0    0    0    0 -0.00000000000E+00 -0.00000000000E+00 -0.45593999997E+02  0.45594000000E+02  0.51100000000E-03 0. -1.
    9900012    2    1    2    0    0  0.15175788093E+02  0.24012798524E+01 -0.10705608286E+02  0.72461528417E+02  0.69999945448E+02 0.  0.
        -12    1    1    2    0    0 -0.15175788093E+02 -0.24012798524E+01  0.10705608286E+02  0.18726471583E+02  0.00000000000E+00 0.  1.
         11    1    3    3    0    0  0.57431466627E+00  0.19564385829E+01  0.23642066315E+01  0.31220125756E+01  0.51100000000E-03 0. -1.
        -11    1    3    3    0    0  0.30104497955E+02  0.97181496039E+01  0.15740586946E+02  0.35333968169E+02  0.51100000000E-03 0.  1.
         12    1    3    3    0    0 -0.15503024529E+02 -0.92733083345E+01 -0.28810401864E+02  0.34005547673E+02  0.00000000000E+00 0. -1.
</event>
<event>
 7    1  0.1358622E-013  0.7246193E+02  0.7816164E-02  0.1226707E+00
        -11   -1    0    0    0    0  0.00000000000E+00  0.00000000000E+00  0.45593999997E+02  0.45594000000E+02  0.51100000000E-03 0.  1.
         11   -1    0    0    0    0 -0.00000000000E+00 -0.00000000000E+00 -0.45593999997E+02  0.45594000000E+02  0.51100000000E-03 0. -1.
    9900012    2    1    2    0    0 -0.65923659024E+00 -0.11117133354E+02 -0.15054588152E+02  0.72461925363E+02  0.70000462542E+02 0.  0.
        -12    1    1    2    0    0  0.65923659024E+00  0.11117133354E+02  0.15054588152E+02  0.18726074637E+02  0.00000000000E+00 0.  1.
         11    1    3    3    0    0  0.67014404011E+01  0.69909440901E+00  0.10490644952E+02  0.12468025835E+02  0.51100000000E-03 0. -1.
        -11    1    3    3    0    0 -0.25874839413E+02  0.22429849122E+01 -0.71808613775E+00  0.25981800244E+02  0.51100000000E-03 0.  1.
         12    1    3    3    0    0  0.18514162422E+02 -0.14059212675E+02 -0.24827146966E+02  0.34012099284E+02  0.00000000000E+00 0. -1.
</event>
<event>
 7    1  0.1358622E-013  0.7246154E+02  0.7816164E-02  0.1226708E+00
        -11   -1    0    0    0    0  0.00000000000E+00  0.00000000000E+00  0.45593999997E+02  0.45594000000E+02  0.51100000000E-03 0.  1.
         11   -1    0    0    0    0 -0.00000000000E+00 -0.00000000000E+00 -0.45593999997E+02  0.45594000000E+02  0.51100000000E-03 0. -1.
    9900012    2    1    2    0    0  0.56051324170E+01 -0.14459841283E+02 -0.10496461831E+02  0.72461541971E+02  0.69999963103E+02 0.  0.
        -12    1    1    2    0    0 -0.56051324170E+01  0.14459841283E+02  0.10496461831E+02  0.18726458029E+02  0.00000000000E+00 0.  1.
         11    1    3    3    0    0  0.45822131734E+01 -0.93638153989E+01  0.21916663071E+02  0.24269689673E+02  0.51100000000E-03 0. -1.
        -11    1    3    3    0    0 -0.15881319612E+02  0.37278994022E+01 -0.11952986250E+02  0.20223437570E+02  0.51100000000E-03 0.  1.
         12    1    3    3    0    0  0.16904238856E+02 -0.88239252867E+01 -0.20460138652E+02  0.27968414728E+02  0.00000000000E+00 0. -1.
</event>
<event>
 7    1  0.1358622E-013  0.7246161E+02  0.7816164E-02  0.1226708E+00
        -11   -1    0    0    0    0  0.00000000000E+00  0.00000000000E+00  0.45593999997E+02  0.45594000000E+02  0.51100000000E-03 0.  1.
         11   -1    0    0    0    0 -0.00000000000E+00 -0.00000000000E+00 -0.45593999997E+02  0.45594000000E+02  0.51100000000E-03 0. -1.
    9900012    2    1    2    0    0  0.16159361874E+02  0.84480564749E+01  0.42641724521E+01  0.72461606832E+02  0.70000047598E+02 0.  0.
        -12    1    1    2    0    0 -0.16159361874E+02 -0.84480564749E+01 -0.42641724521E+01  0.18726393168E+02  0.00000000000E+00 0.  1.
         11    1    3    3    0    0  0.23323164308E+02 -0.10898121545E+02 -0.38029272967E+01  0.26023091723E+02  0.51100000000E-03 0. -1.
        -11    1    3    3    0    0  0.12455331831E+02 -0.58176614289E+01  0.36729671421E+01  0.14229236221E+02  0.51100000000E-03 0.  1.
        -12    1    3    3    0    0 -0.19619134266E+02  0.25163839449E+02  0.43941326067E+01  0.32209278889E+02  0.00000000000E+00 0.  1.
</event>
<event>
 7    1  0.1358622E-013  0.7246151E+02  0.7816164E-02  0.1226708E+00
        -11   -1    0    0    0    0  0.00000000000E+00  0.00000000000E+00  0.45593999997E+02  0.45594000000E+02  0.51100000000E-03 0. -1.
         11   -1    0    0    0    0 -0.00000000000E+00 -0.00000000000E+00 -0.45593999997E+02  0.45594000000E+02  0.51100000000E-03 0.  1.
    9900012    2    1    2    0    0  0.11626165343E+02 -0.82792145092E+01 -0.12123051078E+02  0.72461508579E+02  0.69999919605E+02 0.  0.
        -12    1    1    2    0    0 -0.11626165343E+02  0.82792145092E+01  0.12123051078E+02  0.18726491421E+02  0.00000000000E+00 0.  1.
         11    1    3    3    0    0 -0.96566437206E+01 -0.12252325087E+02  0.11627920201E+02  0.19457100669E+02  0.51100000000E-03 0. -1.
        -11    1    3    3    0    0  0.24278644734E+02  0.10974867051E+02  0.14445147891E+01  0.26683083033E+02  0.51100000000E-03 0.  1.
         12    1    3    3    0    0 -0.29958356699E+01 -0.70017564734E+01 -0.25195486069E+02  0.26321324877E+02  0.00000000000E+00 0. -1.
</event>
<event>
 7    1  0.1358622E-013  0.7246152E+02  0.7816164E-02  0.1226708E+00
        -11   -1    0    0    0    0  0.00000000000E+00  0.00000000000E+00  0.45593999997E+02  0.45594000000E+02  0.51100000000E-03 0. -1.
         11   -1    0    0    0    0 -0.00000000000E+00 -0.00000000000E+00 -0.45593999997E+02  0.45594000000E+02  0.51100000000E-03 0.  1.
    9900012    2    1    2    0    0 -0.70641971723E+00  0.54233690230E+01  0.17910029647E+02  0.72461518154E+02  0.69999932077E+02 0.  0.
        -12    1    1    2    0    0  0.70641971723E+00 -0.54233690230E+01 -0.17910029647E+02  0.18726481846E+02  0.00000000000E+00 0.  1.
         11    1    3    3    0    0  0.63402249060E+01 -0.15341750375E+02 -0.33051118467E+01  0.16926060410E+02  0.51100000000E-03 0. -1.
        -11    1    3    3    0    0 -0.21492340905E+02 -0.42176493467E+01  0.13248302541E+02  0.25597398385E+02  0.51100000000E-03 0.  1.
         12    1    3    3    0    0  0.14445696282E+02  0.24982768745E+02  0.79668389535E+01  0.29938059358E+02  0.00000000000E+00 0. -1.
</event>
<event>
 7    1  0.1358622E-013  0.7246159E+02  0.7816164E-02  0.1226708E+00
        -11   -1    0    0    0    0  0.00000000000E+00  0.00000000000E+00  0.45593999997E+02  0.45594000000E+02  0.51100000000E-03 0. -1.
         11   -1    0    0    0    0 -0.00000000000E+00 -0.00000000000E+00 -0.45593999997E+02  0.45594000000E+02  0.51100000000E-03 0.  1.
    9900012    2    1    2    0    0  0.27318905317E+01 -0.11682769051E+02  0.14378046657E+02  0.72461586990E+02  0.70000021749E+02 0.  0.
        -12    1    1    2    0    0 -0.27318905317E+01  0.11682769051E+02 -0.14378046657E+02  0.18726413010E+02  0.00000000000E+00 0.  1.
         11    1    3    3    0    0  0.15440318618E+02  0.86043573878E+01  0.10969039011E+02  0.20802841684E+02  0.51100000000E-03 0. -1.
        -11    1    3    3    0    0 -0.20132789673E+02  0.15398067321E+01 -0.12408237884E+02  0.23699463970E+02  0.51100000000E-03 0.  1.
         12    1    3    3    0    0  0.74243615875E+01 -0.21826933171E+02  0.15817245530E+02  0.27959281335E+02  0.00000000000E+00 0. -1.
</event>
<event>
 7    1  0.1358622E-013  0.7246171E+02  0.7816164E-02  0.1226708E+00
        -11   -1    0    0    0    0  0.00000000000E+00  0.00000000000E+00  0.45593999997E+02  0.45594000000E+02  0.51100000000E-03 0.  1.
         11   -1    0    0    0    0 -0.00000000000E+00 -0.00000000000E+00 -0.45593999997E+02  0.45594000000E+02  0.51100000000E-03 0. -1.
    9900012    2    1    2    0    0 -0.11611815699E+02  0.14687568656E+02 -0.33896494620E+00  0.72461712752E+02  0.70000185577E+02 0.  0.
        -12    1    1    2    0    0  0.11611815699E+02 -0.14687568656E+02  0.33896494620E+00  0.18726287248E+02  0.00000000000E+00 0.  1.
         11    1    3    3    0    0 -0.27453680057E+02  0.21048522418E+02  0.46818644266E+01  0.34909378388E+02  0.51100000000E-03 0. -1.
        -11    1    3    3    0    0 -0.74140311019E+01 -0.21390899599E+01  0.75377461908E+01  0.10787083987E+02  0.51100000000E-03 0.  1.
        -12    1    3    3    0    0  0.23255895459E+02 -0.42218638023E+01 -0.12558575564E+02  0.26765250378E+02  0.00000000000E+00 0.  1.
</event>
<event>
 7    1  0.1358622E-013  0.7246152E+02  0.7816164E-02  0.1226708E+00
        -11   -1    0    0    0    0  0.00000000000E+00  0.00000000000E+00  0.45593999997E+02  0.45594000000E+02  0.51100000000E-03 0. -1.
         11   -1    0    0    0    0 -0.00000000000E+00 -0.00000000000E+00 -0.45593999997E+02  0.45594000000E+02  0.51100000000E-03 0.  1.
    9900012    2    1    2    0    0 -0.17674295505E+02 -0.19982068318E+01 -0.58572454413E+01  0.72461524723E+02  0.69999940635E+02 0.  0.
        -12    1    1    2    0    0  0.17674295505E+02  0.19982068318E+01  0.58572454413E+01  0.18726475277E+02  0.00000000000E+00 0.  1.
         11    1    3    3    0    0 -0.18180789102E+02  0.63727790809E+01  0.25412327167E+02  0.31889493221E+02  0.51100000000E-03 0. -1.
        -11    1    3    3    0    0 -0.38273890514E+01  0.42775416850E+00  0.30283367192E+01  0.48992554664E+01  0.51100000000E-03 0.  1.
        -12    1    3    3    0    0  0.43338826486E+01 -0.87987400812E+01 -0.34297909328E+02  0.35672776036E+02  0.00000000000E+00 0.  1.
</event>
<event>
 7    1  0.1358622E-013  0.7246163E+02  0.7816164E-02  0.1226708E+00
        -11   -1    0    0    0    0  0.00000000000E+00  0.00000000000E+00  0.45593999997E+02  0.45594000000E+02  0.51100000000E-03 0. -1.
         11   -1    0    0    0    0 -0.00000000000E+00 -0.00000000000E+00 -0.45593999997E+02  0.45594000000E+02  0.51100000000E-03 0.  1.
    9900012    2    1    2    0    0  0.31927285261E+00  0.12020864748E+01  0.18685023642E+02  0.72461626738E+02  0.70000073528E+02 0.  0.
        -12    1    1    2    0    0 -0.31927285261E+00 -0.12020864748E+01 -0.18685023642E+02  0.18726373262E+02  0.00000000000E+00 0.  1.
         11    1    3    3    0    0  0.15089806225E+02 -0.10471137011E+02  0.32840525203E+02  0.37627743197E+02  0.51100000000E-03 0. -1.
        -11    1    3    3    0    0  0.41493074889E+01 -0.48686737620E+01 -0.10237735363E+01  0.64783369280E+01  0.51100000000E-03 0.  1.
        -12    1    3    3    0    0 -0.18919840862E+02  0.16541897248E+02 -0.13131728025E+02  0.28355546613E+02  0.00000000000E+00 0.  1.
</event>
<event>
 7    1  0.1358622E-013  0.7246158E+02  0.7816164E-02  0.1226708E+00
        -11   -1    0    0    0    0  0.00000000000E+00  0.00000000000E+00  0.45593999997E+02  0.45594000000E+02  0.51100000000E-03 0.  1.
         11   -1    0    0    0    0 -0.00000000000E+00 -0.00000000000E+00 -0.45593999997E+02  0.45594000000E+02  0.51100000000E-03 0. -1.
    9900012    2    1    2    0    0  0.20470301820E+01  0.17859448263E+02 -0.52467782635E+01  0.72461577304E+02  0.70000009132E+02 0.  0.
        -12    1    1    2    0    0 -0.20470301820E+01 -0.17859448263E+02  0.52467782635E+01  0.18726422696E+02  0.00000000000E+00 0.  1.
         11    1    3    3    0    0 -0.12865764197E+02  0.57645777408E+00 -0.22361182348E+02  0.25804702444E+02  0.51100000000E-03 0. -1.
        -11    1    3    3    0    0 -0.12330364599E+02  0.32102831240E+01  0.50051094874E+01  0.13689226790E+02  0.51100000000E-03 0.  1.
        -12    1    3    3    0    0  0.27243158978E+02  0.14072707365E+02  0.12109294597E+02  0.32967648071E+02  0.00000000000E+00 0.  1.
</event>
<event>
 7    1  0.1358622E-013  0.7246156E+02  0.7816164E-02  0.1226708E+00
        -11   -1    0    0    0    0  0.00000000000E+00  0.00000000000E+00  0.45593999997E+02  0.45594000000E+02  0.51100000000E-03 0.  1.
         11   -1    0    0    0    0 -0.00000000000E+00 -0.00000000000E+00 -0.45593999997E+02  0.45594000000E+02  0.51100000000E-03 0. -1.
    9900012    2    1    2    0    0 -0.92033539837E+01 -0.71972848991E+01 -0.14634778730E+02  0.72461564596E+02  0.69999992577E+02 0.  0.
        -12    1    1    2    0    0  0.92033539837E+01  0.71972848991E+01  0.14634778730E+02  0.18726435404E+02  0.00000000000E+00 0.  1.
         11    1    3    3    0    0 -0.18492378234E+02 -0.19395769157E+02  0.31703220432E+01  0.26985456380E+02  0.51100000000E-03 0. -1.
        -11    1    3    3    0    0 -0.60548349015E+01  0.47585568429E+01  0.10143778814E+02  0.12735821049E+02  0.51100000000E-03 0.  1.
         12    1    3    3    0    0  0.15343859152E+02  0.74399274146E+01 -0.27948879587E+02  0.32740287167E+02  0.00000000000E+00 0. -1.
</event>
<event>
 7    1  0.1358622E-013  0.7246155E+02  0.7816164E-02  0.1226708E+00
        -11   -1    0    0    0    0  0.00000000000E+00  0.00000000000E+00  0.45593999997E+02  0.45594000000E+02  0.51100000000E-03 0.  1.
         11   -1    0    0    0    0 -0.00000000000E+00 -0.00000000000E+00 -0.45593999997E+02  0.45594000000E+02  0.51100000000E-03 0. -1.
    9900012    2    1    2    0    0 -0.78715704628E+01 -0.16884927559E+02 -0.19019429185E+01  0.72461553805E+02  0.69999978519E+02 0.  0.
        -12    1    1    2    0    0  0.78715704628E+01  0.16884927559E+02  0.19019429185E+01  0.18726446195E+02  0.00000000000E+00 0.  1.
         11    1    3    3    0    0 -0.10345108107E+02 -0.38371128903E+01 -0.44553533935E+01  0.11899364319E+02  0.51100000000E-03 0. -1.
        -11    1    3    3    0    0  0.20944508639E+02  0.15451104298E+02 -0.28165220131E+01  0.26179034792E+02  0.51100000000E-03 0.  1.
         12    1    3    3    0    0 -0.18470970995E+02 -0.28498918967E+02  0.53699324881E+01  0.34383154694E+02  0.00000000000E+00 0. -1.
</event>
<event>
 7    1  0.1358622E-013  0.7246161E+02  0.7816164E-02  0.1226708E+00
        -11   -1    0    0    0    0  0.00000000000E+00  0.00000000000E+00  0.45593999997E+02  0.45594000000E+02  0.51100000000E-03 0.  1.
         11   -1    0    0    0    0 -0.00000000000E+00 -0.00000000000E+00 -0.45593999997E+02  0.45594000000E+02  0.51100000000E-03 0. -1.
    9900012    2    1    2    0    0 -0.16922210071E+02  0.81794195744E+00  0.79779423539E+01  0.72461607209E+02  0.70000048089E+02 0.  0.
        -12    1    1    2    0    0  0.16922210071E+02 -0.81794195744E+00 -0.79779423539E+01  0.18726392791E+02  0.00000000000E+00 0.  1.
         11    1    3    3    0    0 -0.32548733290E+02 -0.64561832853E+01  0.12838438355E+02  0.35579879723E+02  0.51100000000E-03 0. -1.
        -11    1    3    3    0    0 -0.83340399913E+01 -0.47859911148E+01  0.54362339233E-01  0.96106653804E+01  0.51100000000E-03 0.  1.
        -12    1    3    3    0    0  0.23960563210E+02  0.12060116358E+02 -0.49148583399E+01  0.27271062106E+02  0.00000000000E+00 0.  1.
</event>
<event>
 7    1  0.1358622E-013  0.7246191E+02  0.7816164E-02  0.1226707E+00
        -11   -1    0    0    0    0  0.00000000000E+00  0.00000000000E+00  0.45593999997E+02  0.45594000000E+02  0.51100000000E-03 0.  1.
         11   -1    0    0    0    0 -0.00000000000E+00 -0.00000000000E+00 -0.45593999997E+02  0.45594000000E+02  0.51100000000E-03 0. -1.
    9900012    2    1    2    0    0  0.74002291322E+01 -0.16825033847E+02  0.35806738946E+01  0.72461911762E+02  0.70000444824E+02 0.  0.
        -12    1    1    2    0    0 -0.74002291322E+01  0.16825033847E+02 -0.35806738946E+01  0.18726088238E+02  0.00000000000E+00 0.  1.
         11    1    3    3    0    0  0.31009893738E+02 -0.89460199897E-01 -0.12928217454E+02  0.33597028433E+02  0.51100000000E-03 0. -1.
        -11    1    3    3    0    0 -0.63705078940E+00  0.28194852638E+01 -0.19596160086E+01  0.34921950151E+01  0.51100000000E-03 0.  1.
        -12    1    3    3    0    0 -0.22972613816E+02 -0.19555058911E+02  0.18468507357E+02  0.35372688314E+02  0.00000000000E+00 0.  1.
</event>
<event>
 7    1  0.1358622E-013  0.7246155E+02  0.7816164E-02  0.1226708E+00
        -11   -1    0    0    0    0  0.00000000000E+00  0.00000000000E+00  0.45593999997E+02  0.45594000000E+02  0.51100000000E-03 0. -1.
         11   -1    0    0    0    0 -0.00000000000E+00 -0.00000000000E+00 -0.45593999997E+02  0.45594000000E+02  0.51100000000E-03 0.  1.
    9900012    2    1    2    0    0 -0.65982360352E+01  0.28915856936E+00  0.17523116259E+02  0.72461549859E+02  0.69999973379E+02 0.  0.
        -12    1    1    2    0    0  0.65982360352E+01 -0.28915856936E+00 -0.17523116259E+02  0.18726450141E+02  0.00000000000E+00 0.  1.
         11    1    3    3    0    0 -0.43318889802E+01  0.65750990319E+01  0.39921749129E+01  0.88280603879E+01  0.51100000000E-03 0. -1.
        -11    1    3    3    0    0  0.60781767019E+01  0.23131628875E+02 -0.91021466392E+01  0.25590341149E+02  0.51100000000E-03 0.  1.
         12    1    3    3    0    0 -0.83445237569E+01 -0.29417569338E+02  0.22633087985E+02  0.38043148322E+02  0.00000000000E+00 0. -1.
</event>
<event>
 7    1  0.1358622E-013  0.7246152E+02  0.7816164E-02  0.1226708E+00
        -11   -1    0    0    0    0  0.00000000000E+00  0.00000000000E+00  0.45593999997E+02  0.45594000000E+02  0.51100000000E-03 0.  1.
         11   -1    0    0    0    0 -0.00000000000E+00 -0.00000000000E+00 -0.45593999997E+02  0.45594000000E+02  0.51100000000E-03 0. -1.
    9900012    2    1    2    0    0 -0.48533956514E+00 -0.17675574137E+02 -0.61659921825E+01  0.72461523152E+02  0.69999938588E+02 0.  0.
        -12    1    1    2    0    0  0.48533956514E+00  0.17675574137E+02  0.61659921825E+01  0.18726476848E+02  0.00000000000E+00 0.  1.
         11    1    3    3    0    0 -0.12317105526E+02  0.72099569204E+01  0.97002845821E+00  0.14305087305E+02  0.51100000000E-03 0. -1.
        -11    1    3    3    0    0  0.12262558559E+01  0.11353460982E+02 -0.15723935203E+02  0.19433139691E+02  0.51100000000E-03 0.  1.
         12    1    3    3    0    0  0.10605510105E+02 -0.36238992039E+02  0.85879145625E+01  0.38723296156E+02  0.00000000000E+00 0. -1.
</event>
<event>
 7    1  0.1358622E-013  0.7246159E+02  0.7816164E-02  0.1226708E+00
        -11   -1    0    0    0    0  0.00000000000E+00  0.00000000000E+00  0.45593999997E+02  0.45594000000E+02  0.51100000000E-03 0. -1.
         11   -1    0    0    0    0 -0.00000000000E+00 -0.00000000000E+00 -0.45593999997E+02  0.45594000000E+02  0.51100000000E-03 0.  1.
    9900012    2    1    2    0    0 -0.31459474095E+01  0.10439281561E+02  0.15225070738E+02  0.72461591813E+02  0.70000028032E+02 0.  0.
        -12    1    1    2    0    0  0.31459474095E+01 -0.10439281561E+02 -0.15225070738E+02  0.18726408187E+02  0.00000000000E+00 0.  1.
         11    1    3    3    0    0 -0.81212481278E+01  0.21661522328E+01  0.61379052697E+00  0.84275515852E+01  0.51100000000E-03 0. -1.
        -11    1    3    3    0    0  0.14555879396E+02  0.16063736340E+02  0.34428397149E+02  0.40684539824E+02  0.51100000000E-03 0.  1.
         12    1    3    3    0    0 -0.95805786772E+01 -0.77906070119E+01 -0.19817116938E+02  0.23349500404E+02  0.00000000000E+00 0. -1.
</event>
<event>
 7    1  0.1358622E-013  0.7246165E+02  0.7816164E-02  0.1226708E+00
        -11   -1    0    0    0    0  0.00000000000E+00  0.00000000000E+00  0.45593999997E+02  0.45594000000E+02  0.51100000000E-03 0.  1.
         11   -1    0    0    0    0 -0.00000000000E+00 -0.00000000000E+00 -0.45593999997E+02  0.45594000000E+02  0.51100000000E-03 0. -1.
    9900012    2    1    2    0    0  0.11803283773E+02  0.87717050872E+01 -0.11593789567E+02  0.72461647592E+02  0.70000100695E+02 0.  0.
        -12    1    1    2    0    0 -0.11803283773E+02 -0.87717050872E+01  0.11593789567E+02  0.18726352408E+02  0.00000000000E+00 0.  1.
         11    1    3    3    0    0  0.15586506248E+02  0.30644644316E+01 -0.24599630342E+02  0.29282621681E+02  0.51100000000E-03 0. -1.
        -11    1    3    3    0    0 -0.10103395972E+02 -0.13198804712E+02 -0.38631788485E+01  0.17064911576E+02  0.51100000000E-03 0.  1.
         12    1    3    3    0    0  0.63201734969E+01  0.18906045368E+02  0.16869019624E+02  0.26114114336E+02  0.00000000000E+00 0. -1.
</event>
<event>
 7    1  0.1358622E-013  0.7246153E+02  0.7816164E-02  0.1226708E+00
        -11   -1    0    0    0    0  0.00000000000E+00  0.00000000000E+00  0.45593999997E+02  0.45594000000E+02  0.51100000000E-03 0.  1.
         11   -1    0    0    0    0 -0.00000000000E+00 -0.00000000000E+00 -0.45593999997E+02  0.45594000000E+02  0.51100000000E-03 0. -1.
    9900012    2    1    2    0    0 -0.11518862034E+02 -0.85357699239E+00 -0.14740014169E+02  0.72461526921E+02  0.69999943499E+02 0.  0.
        -12    1    1    2    0    0  0.11518862034E+02  0.85357699239E+00  0.14740014169E+02  0.18726473079E+02  0.00000000000E+00 0.  1.
         11    1    3    3    0    0 -0.25510762729E+02  0.13256023989E+02 -0.50611204702E+01  0.29191370775E+02  0.51100000000E-03 0. -1.
        -11    1    3    3    0    0 -0.56256417900E+01 -0.10650775818E+02  0.97102452196E+01  0.15471772153E+02  0.51100000000E-03 0.  1.
         12    1    3    3    0    0  0.19617542485E+02 -0.34588251640E+01 -0.19389138919E+02  0.27798383994E+02  0.00000000000E+00 0. -1.
</event>
<event>
 7    1  0.1358622E-013  0.7246164E+02  0.7816164E-02  0.1226708E+00
        -11   -1    0    0    0    0  0.00000000000E+00  0.00000000000E+00  0.45593999997E+02  0.45594000000E+02  0.51100000000E-03 0. -1.
         11   -1    0    0    0    0 -0.00000000000E+00 -0.00000000000E+00 -0.45593999997E+02  0.45594000000E+02  0.51100000000E-03 0.  1.
    9900012    2    1    2    0    0  0.70975163368E+01 -0.55220238869E+01 -0.16425866470E+02  0.72461639562E+02  0.70000090234E+02 0.  0.
        -12    1    1    2    0    0 -0.70975163368E+01  0.55220238869E+01  0.16425866470E+02  0.18726360438E+02  0.00000000000E+00 0.  1.
         11    1    3    3    0    0  0.29247665369E+02 -0.99756431945E+01 -0.63227838807E+01  0.31542304655E+02  0.51100000000E-03 0. -1.
        -11    1    3    3    0    0 -0.39994361570E+01 -0.11951400230E+02 -0.10570800895E+02  0.16449112099E+02  0.51100000000E-03 0.  1.
        -12    1    3    3    0    0 -0.18150712875E+02  0.16405019537E+02  0.46771830594E+00  0.24470222808E+02  0.00000000000E+00 0.  1.
</event>
<event>
 7    1  0.1358622E-013  0.7246140E+02  0.7816164E-02  0.1226708E+00
        -11   -1    0    0    0    0  0.00000000000E+00  0.00000000000E+00  0.45593999997E+02  0.45594000000E+02  0.51100000000E-03 0.  1.
         11   -1    0    0    0    0 -0.00000000000E+00 -0.00000000000E+00 -0.45593999997E+02  0.45594000000E+02  0.51100000000E-03 0. -1.
    9900012    2    1    2    0    0  0.87954998547E+01  0.16303847281E+02 -0.27403153523E+01  0.72461399078E+02  0.69999776959E+02 0.  0.
        -12    1    1    2    0    0 -0.87954998547E+01 -0.16303847281E+02  0.27403153523E+01  0.18726600922E+02  0.00000000000E+00 0.  1.
         11    1    3    3    0    0  0.21515999777E+02  0.12785687642E+02 -0.13014911956E+02  0.28209927124E+02  0.51100000000E-03 0. -1.
        -11    1    3    3    0    0  0.11894689811E+02  0.60907754142E+01  0.13849315469E+02  0.19245382046E+02  0.51100000000E-03 0.  1.
         12    1    3    3    0    0 -0.24615189733E+02 -0.25726157755E+01 -0.35747188654E+01  0.25006089908E+02  0.00000000000E+00 0. -1.
</event>
<event>
 7    1  0.1358622E-013  0.7246156E+02  0.7816164E-02  0.1226708E+00
        -11   -1    0    0    0    0  0.00000000000E+00  0.00000000000E+00  0.45593999997E+02  0.45594000000E+02  0.51100000000E-03 0. -1.
         11   -1    0    0    0    0 -0.00000000000E+00 -0.00000000000E+00 -0.45593999997E+02  0.45594000000E+02  0.51100000000E-03 0.  1.
    9900012    2    1    2    0    0  0.17681366152E+02  0.51103643822E+01 -0.34544229348E+01  0.72461559577E+02  0.69999986038E+02 0.  0.
        -12    1    1    2    0    0 -0.17681366152E+02 -0.51103643822E+01  0.34544229348E+01  0.18726440423E+02  0.00000000000E+00 0.  1.
         11    1    3    3    0    0  0.61826372249E+01 -0.11992899310E+02  0.37128678120E+01  0.13994285425E+02  0.51100000000E-03 0. -1.
        -11    1    3    3    0    0  0.11535538624E+02  0.94235743776E+01 -0.30478499474E+02  0.33923610301E+02  0.51100000000E-03 0.  1.
         12    1    3    3    0    0 -0.36809696934E-01  0.76796893145E+01  0.23311208727E+02  0.24543663851E+02  0.00000000000E+00 0. -1.
</event>
<event>
 7    1  0.1358622E-013  0.7246165E+02  0.7816164E-02  0.1226708E+00
        -11   -1    0    0    0    0  0.00000000000E+00  0.00000000000E+00  0.45593999997E+02  0.45594000000E+02  0.51100000000E-03 0. -1.
         11   -1    0    0    0    0 -0.00000000000E+00 -0.00000000000E+00 -0.45593999997E+02  0.45594000000E+02  0.51100000000E-03 0.  1.
    9900012    2    1    2    0    0  0.50748397777E+01 -0.13982078373E+02  0.11376460387E+02  0.72461645167E+02  0.70000097536E+02 0.  0.
        -12    1    1    2    0    0 -0.50748397777E+01  0.13982078373E+02 -0.11376460387E+02  0.18726354833E+02  0.00000000000E+00 0.  1.
         11    1    3    3    0    0 -0.48001713510E+01  0.18989772393E+01 -0.51368043119E+00  0.51876417958E+01  0.51100000000E-03 0. -1.
        -11    1    3    3    0    0 -0.33586495264E+01 -0.70998852259E+01 -0.25483162033E+02  0.26666091658E+02  0.51100000000E-03 0.  1.
         12    1    3    3    0    0  0.13233660655E+02 -0.87811703861E+01  0.37373302851E+02  0.40607911713E+02  0.00000000000E+00 0. -1.
</event>
<event>
 7    1  0.1358622E-013  0.7246159E+02  0.7816164E-02  0.1226708E+00
        -11   -1    0    0    0    0  0.00000000000E+00  0.00000000000E+00  0.45593999997E+02  0.45594000000E+02  0.51100000000E-03 0. -1.
         11   -1    0    0    0    0 -0.00000000000E+00 -0.00000000000E+00 -0.45593999997E+02  0.45594000000E+02  0.51100000000E-03 0.  1.
    9900012    2    1    2    0    0  0.63302795370E+01  0.16318678840E+02  0.66563334318E+01  0.72461588361E+02  0.70000023535E+02 0.  0.
        -12    1    1    2    0    0 -0.63302795370E+01 -0.16318678840E+02 -0.66563334318E+01  0.18726411639E+02  0.00000000000E+00 0.  1.
         11    1    3    3    0    0  0.48507717466E+01  0.39868952120E+02  0.17007634135E+01  0.40198954292E+02  0.51100000000E-03 0. -1.
        -11    1    3    3    0    0  0.34757641384E+01  0.33092661465E+01  0.18788217079E+01  0.51538480813E+01  0.51100000000E-03 0.  1.
        -12    1    3    3    0    0 -0.19962563480E+01 -0.26859539426E+02  0.30767483105E+01  0.27108785988E+02  0.00000000000E+00 0.  1.
</event>
<event>
 7    1  0.1358622E-013  0.7246157E+02  0.7816164E-02  0.1226708E+00
        -11   -1    0    0    0    0  0.00000000000E+00  0.00000000000E+00  0.45593999997E+02  0.45594000000E+02  0.51100000000E-03 0.  1.
         11   -1    0    0    0    0 -0.00000000000E+00 -0.00000000000E+00 -0.45593999997E+02  0.45594000000E+02  0.51100000000E-03 0. -1.
    9900012    2    1    2    0    0  0.11963887071E+02 -0.10174009202E+02 -0.10199703398E+02  0.72461574647E+02  0.70000005670E+02 0.  0.
        -12    1    1    2    0    0 -0.11963887071E+02  0.10174009202E+02  0.10199703398E+02  0.18726425353E+02  0.00000000000E+00 0.  1.
         11    1    3    3    0    0 -0.46254043259E+01  0.23517167131E+00  0.48887472548E+01  0.67342052890E+01  0.51100000000E-03 0. -1.
        -11    1    3    3    0    0  0.17220052299E+01 -0.12923352105E+02  0.22066031724E+02  0.25629828091E+02  0.51100000000E-03 0.  1.
         12    1    3    3    0    0  0.14867286167E+02  0.25141712316E+01 -0.37154482377E+02  0.40097541267E+02  0.00000000000E+00 0. -1.
</event>
<event>
 7    1  0.1358622E-013  0.7246153E+02  0.7816164E-02  0.1226708E+00
        -11   -1    0    0    0    0  0.00000000000E+00  0.00000000000E+00  0.45593999997E+02  0.45594000000E+02  0.51100000000E-03 0. -1.
         11   -1    0    0    0    0 -0.00000000000E+00 -0.00000000000E+00 -0.45593999997E+02  0.45594000000E+02  0.51100000000E-03 0.  1.
    9900012    2    1    2    0    0 -0.69313464058E+01 -0.73132109115E+01 -0.15784609796E+02  0.72461534149E+02  0.69999952915E+02 0.  0.
        -12    1    1    2    0    0  0.69313464058E+01  0.73132109115E+01  0.15784609796E+02  0.18726465851E+02  0.00000000000E+00 0.  1.
         11    1    3    3    0    0 -0.98229560008E+00 -0.36649761598E+01  0.30194972418E+01  0.48491564990E+01  0.51100000000E-03 0. -1.
        -11    1    3    3    0    0  0.14597036978E+01  0.21367561667E-01  0.23986238881E+02  0.24030623116E+02  0.51100000000E-03 0.  1.
        -12    1    3    3    0    0 -0.74087545035E+01 -0.36696023134E+01 -0.42790345919E+02  0.43581754534E+02  0.00000000000E+00 0.  1.
</event>
<event>
 7    1  0.1358622E-013  0.7246152E+02  0.7816164E-02  0.1226708E+00
        -11   -1    0    0    0    0  0.00000000000E+00  0.00000000000E+00  0.45593999997E+02  0.45594000000E+02  0.51100000000E-03 0.  1.
         11   -1    0    0    0    0 -0.00000000000E+00 -0.00000000000E+00 -0.45593999997E+02  0.45594000000E+02  0.51100000000E-03 0. -1.
    9900012    2    1    2    0    0  0.76562944512E+01  0.49379412972E+01 -0.16360894689E+02  0.72461521848E+02  0.69999936889E+02 0.  0.
        -12    1    1    2    0    0 -0.76562944512E+01 -0.49379412972E+01  0.16360894689E+02  0.18726478152E+02  0.00000000000E+00 0.  1.
         11    1    3    3    0    0  0.11164531181E+02  0.10750061082E+02 -0.12391158507E+02  0.19843169584E+02  0.51100000000E-03 0. -1.
        -11    1    3    3    0    0  0.16587128804E+02  0.15480323654E+02 -0.53396641915E+01  0.23308480782E+02  0.51100000000E-03 0.  1.
        -12    1    3    3    0    0 -0.20095365534E+02 -0.21292443439E+02  0.13699280097E+01  0.29309871482E+02  0.00000000000E+00 0.  1.
</event>
<event>
 7    1  0.1358622E-013  0.7246183E+02  0.7816164E-02  0.1226707E+00
        -11   -1    0    0    0    0  0.00000000000E+00  0.00000000000E+00  0.45593999997E+02  0.45594000000E+02  0.51100000000E-03 0.  1.
         11   -1    0    0    0    0 -0.00000000000E+00 -0.00000000000E+00 -0.45593999997E+02  0.45594000000E+02  0.51100000000E-03 0. -1.
    9900012    2    1    2    0    0 -0.50729421990E+01 -0.24425628068E+01 -0.17859692453E+02  0.72461829272E+02  0.70000337366E+02 0.  0.
        -12    1    1    2    0    0  0.50729421990E+01  0.24425628068E+01  0.17859692453E+02  0.18726170728E+02  0.00000000000E+00 0.  1.
         11    1    3    3    0    0 -0.45419989501E+00 -0.23046735174E+01 -0.23550047019E+02  0.23666907961E+02  0.51100000000E-03 0. -1.
        -11    1    3    3    0    0 -0.87625943725E+01 -0.11058165871E+02 -0.17709053283E+02  0.22642364298E+02  0.51100000000E-03 0.  1.
        -12    1    3    3    0    0  0.41438520685E+01  0.10920276582E+02  0.23399407850E+02  0.26152557013E+02  0.00000000000E+00 0.  1.
</event>
<event>
 7    1  0.1358622E-013  0.7246149E+02  0.7816164E-02  0.1226708E+00
        -11   -1    0    0    0    0  0.00000000000E+00  0.00000000000E+00  0.45593999997E+02  0.45594000000E+02  0.51100000000E-03 0. -1.
         11   -1    0    0    0    0 -0.00000000000E+00 -0.00000000000E+00 -0.45593999997E+02  0.45594000000E+02  0.51100000000E-03 0.  1.
    9900012    2    1    2    0    0  0.18054806591E+02  0.28767990849E+01 -0.40534307769E+01  0.72461486307E+02  0.69999890591E+02 0.  0.
        -12    1    1    2    0    0 -0.18054806591E+02 -0.28767990849E+01  0.40534307769E+01  0.18726513693E+02  0.00000000000E+00 0.  1.
         11    1    3    3    0    0 -0.39368455420E+01 -0.33500356589E+01 -0.44831575467E+01  0.68425283036E+01  0.51100000000E-03 0. -1.
        -11    1    3    3    0    0  0.23568609545E+02 -0.56938533385E+01 -0.26625869581E+02  0.36011612751E+02  0.51100000000E-03 0.  1.
         12    1    3    3    0    0 -0.15769574121E+01  0.11920688082E+02  0.27055596350E+02  0.29607345253E+02  0.00000000000E+00 0. -1.
</event>
<event>
 7    1  0.1358622E-013  0.7246155E+02  0.7816164E-02  0.1226708E+00
        -11   -1    0    0    0    0  0.00000000000E+00  0.00000000000E+00  0.45593999997E+02  0.45594000000E+02  0.51100000000E-03 0. -1.
         11   -1    0    0    0    0 -0.00000000000E+00 -0.00000000000E+00 -0.45593999997E+02  0.45594000000E+02  0.51100000000E-03 0.  1.
    9900012    2    1    2    0    0  0.92233386061E+01  0.16140722004E+02  0.22554483637E+01  0.72461550011E+02  0.69999973577E+02 0.  0.
        -12    1    1    2    0    0 -0.92233386061E+01 -0.16140722004E+02 -0.22554483637E+01  0.18726449989E+02  0.00000000000E+00 0.  1.
         11    1    3    3    0    0 -0.73589073419E+01  0.15147299355E+02  0.98617689784E-01  0.16840543956E+02  0.51100000000E-03 0. -1.
        -11    1    3    3    0    0  0.27933854717E+01  0.24045211919E+02 -0.99316690745E+01  0.26165115507E+02  0.51100000000E-03 0.  1.
         12    1    3    3    0    0  0.13788860476E+02 -0.23051789270E+02  0.12088499748E+02  0.29455890548E+02  0.00000000000E+00 0. -1.
</event>
<event>
 7    1  0.1358622E-013  0.7246138E+02  0.7816164E-02  0.1226709E+00
        -11   -1    0    0    0    0  0.00000000000E+00  0.00000000000E+00  0.45593999997E+02  0.45594000000E+02  0.51100000000E-03 0. -1.
         11   -1    0    0    0    0 -0.00000000000E+00 -0.00000000000E+00 -0.45593999997E+02  0.45594000000E+02  0.51100000000E-03 0.  1.
    9900012    2    1    2    0    0 -0.72579336270E+01  0.32551097456E+00  0.17259860500E+02  0.72461378778E+02  0.69999750514E+02 0.  0.
        -12    1    1    2    0    0  0.72579336270E+01 -0.32551097456E+00 -0.17259860500E+02  0.18726621222E+02  0.00000000000E+00 0.  1.
         11    1    3    3    0    0 -0.16446582864E+01 -0.14300216372E+01  0.23313207503E+02  0.23414856546E+02  0.51100000000E-03 0. -1.
        -11    1    3    3    0    0  0.75626949897E+01 -0.11720146836E+02  0.15207048516E+02  0.20635176815E+02  0.51100000000E-03 0.  1.
         12    1    3    3    0    0 -0.13175970330E+02  0.13475679448E+02 -0.21260395519E+02  0.28411345416E+02  0.00000000000E+00 0. -1.
</event>
<event>
 7    1  0.1358622E-013  0.7246156E+02  0.7816164E-02  0.1226708E+00
        -11   -1    0    0    0    0  0.00000000000E+00  0.00000000000E+00  0.45593999997E+02  0.45594000000E+02  0.51100000000E-03 0.  1.
         11   -1    0    0    0    0 -0.00000000000E+00 -0.00000000000E+00 -0.45593999997E+02  0.45594000000E+02  0.51100000000E-03 0. -1.
    9900012    2    1    2    0    0 -0.14361926445E+02 -0.11957404349E+02 -0.11979109827E+01  0.72461563053E+02  0.69999990567E+02 0.  0.
        -12    1    1    2    0    0  0.14361926445E+02  0.11957404349E+02  0.11979109827E+01  0.18726436947E+02  0.00000000000E+00 0.  1.
         11    1    3    3    0    0 -0.22943002004E+02 -0.21813296011E+02  0.14658199970E+00  0.31657901231E+02  0.51100000000E-03 0. -1.
        -11    1    3    3    0    0 -0.78002704513E+01 -0.10634368627E+02 -0.54138615967E+01  0.14256363942E+02  0.51100000000E-03 0.  1.
        -12    1    3    3    0    0  0.16381346011E+02  0.20490260288E+02  0.40693686142E+01  0.26547297880E+02  0.00000000000E+00 0.  1.
</event>
<event>
 7    1  0.1358622E-013  0.7246156E+02  0.7816164E-02  0.1226708E+00
        -11   -1    0    0    0    0  0.00000000000E+00  0.00000000000E+00  0.45593999997E+02  0.45594000000E+02  0.51100000000E-03 0.  1.
         11   -1    0    0    0    0 -0.00000000000E+00 -0.00000000000E+00 -0.45593999997E+02  0.45594000000E+02  0.51100000000E-03 0. -1.
    9900012    2    1    2    0    0  0.44909850667E+01 -0.86757354166E+01 -0.15976303792E+02  0.72461558407E+02  0.69999984515E+02 0.  0.
        -12    1    1    2    0    0 -0.44909850667E+01  0.86757354166E+01  0.15976303792E+02  0.18726441593E+02  0.00000000000E+00 0.  1.
         11    1    3    3    0    0  0.16786616155E+02 -0.89845891111E+01 -0.21911291235E+02  0.29027883272E+02  0.51100000000E-03 0. -1.
        -11    1    3    3    0    0 -0.34223721321E+01  0.10739092383E+02 -0.14788710879E+02  0.18594265405E+02  0.51100000000E-03 0.  1.
        -12    1    3    3    0    0 -0.88732589561E+01 -0.10430238688E+02  0.20723698322E+02  0.24839409730E+02  0.00000000000E+00 0.  1.
</event>
<event>
 7    1  0.1358622E-013  0.7246153E+02  0.7816164E-02  0.1226708E+00
        -11   -1    0    0    0    0  0.00000000000E+00  0.00000000000E+00  0.45593999997E+02  0.45594000000E+02  0.51100000000E-03 0.  1.
         11   -1    0    0    0    0 -0.00000000000E+00 -0.00000000000E+00 -0.45593999997E+02  0.45594000000E+02  0.51100000000E-03 0. -1.
    9900012    2    1    2    0    0 -0.19460032019E+01  0.16077394095E+02  0.94027256575E+01  0.72461527317E+02  0.69999944014E+02 0.  0.
        -12    1    1    2    0    0  0.19460032019E+01 -0.16077394095E+02 -0.94027256575E+01  0.18726472683E+02  0.00000000000E+00 0.  1.
         11    1    3    3    0    0  0.18643052075E+01  0.43818646066E-01  0.24848708409E+01  0.31067889110E+01  0.51100000000E-03 0. -1.
        -11    1    3    3    0    0 -0.83774241631E+01 -0.13340479294E+02  0.28538037347E+02  0.32597073477E+02  0.51100000000E-03 0.  1.
         12    1    3    3    0    0  0.45671157537E+01  0.29374054743E+02 -0.21620182531E+02  0.36757664929E+02  0.00000000000E+00 0. -1.
</event>
<event>
 7    1  0.1358622E-013  0.7246158E+02  0.7816164E-02  0.1226708E+00
        -11   -1    0    0    0    0  0.00000000000E+00  0.00000000000E+00  0.45593999997E+02  0.45594000000E+02  0.51100000000E-03 0. -1.
         11   -1    0    0    0    0 -0.00000000000E+00 -0.00000000000E+00 -0.45593999997E+02  0.45594000000E+02  0.51100000000E-03 0.  1.
    9900012    2    1    2    0    0 -0.15118393069E+02 -0.10214010884E+02 -0.42174566493E+01  0.72461581017E+02  0.70000013969E+02 0.  0.
        -12    1    1    2    0    0  0.15118393069E+02  0.10214010884E+02  0.42174566493E+01  0.18726418983E+02  0.00000000000E+00 0.  1.
         11    1    3    3    0    0 -0.16403218717E+02 -0.10226017976E+01 -0.26427720020E+01  0.16646187036E+02  0.51100000000E-03 0. -1.
        -11    1    3    3    0    0  0.45253308853E+01  0.93866762273E+01 -0.24207684973E+02  0.26355271242E+02  0.51100000000E-03 0.  1.
         12    1    3    3    0    0 -0.32405052372E+01 -0.18578085314E+02  0.22633000325E+02  0.29460122740E+02  0.00000000000E+00 0. -1.
</event>
<event>
 7    1  0.1358622E-013  0.7246159E+02  0.7816164E-02  0.1226708E+00
        -11   -1    0    0    0    0  0.00000000000E+00  0.00000000000E+00  0.45593999997E+02  0.45594000000E+02  0.51100000000E-03 0. -1.
         11   -1    0    0    0    0 -0.00000000000E+00 -0.00000000000E+00 -0.45593999997E+02  0.45594000000E+02  0.51100000000E-03 0.  1.
    9900012    2    1    2    0    0  0.90441040656E+01 -0.11729029405E+02  0.11459168913E+02  0.72461588135E+02  0.70000023241E+02 0.  0.
        -12    1    1    2    0    0 -0.90441040656E+01  0.11729029405E+02 -0.11459168913E+02  0.18726411865E+02  0.00000000000E+00 0.  1.
         11    1    3    3    0    0 -0.12525405792E+02 -0.93714242825E+01  0.20244640341E+02  0.25584269505E+02  0.51100000000E-03 0. -1.
        -11    1    3    3    0    0 -0.35283768892E+01  0.71006128618E+01  0.10991779628E+02  0.13553131230E+02  0.51100000000E-03 0.  1.
        -12    1    3    3    0    0  0.25097886746E+02 -0.94582179846E+01 -0.19777251055E+02  0.33324187400E+02  0.00000000000E+00 0.  1.
</event>
<event>
 7    1  0.1358622E-013  0.7246160E+02  0.7816164E-02  0.1226708E+00
        -11   -1    0    0    0    0  0.00000000000E+00  0.00000000000E+00  0.45593999997E+02  0.45594000000E+02  0.51100000000E-03 0.  1.
         11   -1    0    0    0    0 -0.00000000000E+00 -0.00000000000E+00 -0.45593999997E+02  0.45594000000E+02  0.51100000000E-03 0. -1.
    9900012    2    1    2    0    0  0.13991689137E+02 -0.12445605965E+02 -0.13236104028E+00  0.72461601730E+02  0.70000040950E+02 0.  0.
        -12    1    1    2    0    0 -0.13991689137E+02  0.12445605965E+02  0.13236104028E+00  0.18726398270E+02  0.00000000000E+00 0.  1.
         11    1    3    3    0    0 -0.14996334151E+02 -0.16306411368E+01 -0.24987772973E+02  0.29187974012E+02  0.51100000000E-03 0. -1.
        -11    1    3    3    0    0  0.11330231067E+02  0.37236361950E+01  0.48093724508E+01  0.12859613765E+02  0.51100000000E-03 0.  1.
        -12    1    3    3    0    0  0.17657792220E+02 -0.14538601024E+02  0.20046039482E+02  0.30414013953E+02  0.00000000000E+00 0.  1.
</event>
<event>
 7    1  0.1358622E-013  0.7246153E+02  0.7816164E-02  0.1226708E+00
        -11   -1    0    0    0    0  0.00000000000E+00  0.00000000000E+00  0.45593999997E+02  0.45594000000E+02  0.51100000000E-03 0.  1.
         11   -1    0    0    0    0 -0.00000000000E+00 -0.00000000000E+00 -0.45593999997E+02  0.45594000000E+02  0.51100000000E-03 0. -1.
    9900012    2    1    2    0    0 -0.62766891607E+01 -0.75134176593E+01 -0.15963468316E+02  0.72461532302E+02  0.69999950508E+02 0.  0.
        -12    1    1    2    0    0  0.62766891607E+01  0.75134176593E+01  0.15963468316E+02  0.18726467698E+02  0.00000000000E+00 0.  1.
         11    1    3    3    0    0 -0.28655110958E+02 -0.11231361392E+02 -0.27076338153E+02  0.40992523108E+02  0.51100000000E-03 0. -1.
        -11    1    3    3    0    0 -0.29397287289E+00  0.70394726546E+00 -0.39889393117E+01  0.40612312044E+01  0.51100000000E-03 0.  1.
        -12    1    3    3    0    0  0.22672394670E+02  0.30139964672E+01  0.15101809149E+02  0.27407777990E+02  0.00000000000E+00 0.  1.
</event>
<event>
 7    1  0.1358622E-013  0.7246155E+02  0.7816164E-02  0.1226708E+00
        -11   -1    0    0    0    0  0.00000000000E+00  0.00000000000E+00  0.45593999997E+02  0.45594000000E+02  0.51100000000E-03 0.  1.
         11   -1    0    0    0    0 -0.00000000000E+00 -0.00000000000E+00 -0.45593999997E+02  0.45594000000E+02  0.51100000000E-03 0. -1.
    9900012    2    1    2    0    0  0.16023761719E+02 -0.35962564314E+01 -0.89992232445E+01  0.72461547614E+02  0.69999970455E+02 0.  0.
        -12    1    1    2    0    0 -0.16023761719E+02  0.35962564314E+01  0.89992232445E+01  0.18726452386E+02  0.00000000000E+00 0.  1.
         11    1    3    3    0    0 -0.39967296786E+01  0.27939941144E+01 -0.57033049058E+01  0.75038615622E+01  0.51100000000E-03 0. -1.
        -11    1    3    3    0    0  0.21668074490E+02  0.22386001467E+02 -0.14072130696E+02  0.34185718895E+02  0.51100000000E-03 0.  1.
        -12    1    3    3    0    0 -0.16475830925E+01 -0.28776252013E+02  0.10776212357E+02  0.30771967157E+02  0.00000000000E+00 0.  1.
</event>
<event>
 7    1  0.1358622E-013  0.7246153E+02  0.7816164E-02  0.1226708E+00
        -11   -1    0    0    0    0  0.00000000000E+00  0.00000000000E+00  0.45593999997E+02  0.45594000000E+02  0.51100000000E-03 0.  1.
         11   -1    0    0    0    0 -0.00000000000E+00 -0.00000000000E+00 -0.45593999997E+02  0.45594000000E+02  0.51100000000E-03 0. -1.
    9900012    2    1    2    0    0 -0.15187680368E+02  0.10653578875E+02 -0.25527033171E+01  0.72461530177E+02  0.69999947740E+02 0.  0.
        -12    1    1    2    0    0  0.15187680368E+02 -0.10653578875E+02  0.25527033171E+01  0.18726469823E+02  0.00000000000E+00 0.  1.
         11    1    3    3    0    0  0.20825461631E+02  0.58970838051E+01 -0.23082390956E+01  0.21767025923E+02  0.51100000000E-03 0. -1.
        -11    1    3    3    0    0 -0.15143266510E+01  0.12474975542E+02 -0.74598760190E+01  0.14613964228E+02  0.51100000000E-03 0.  1.
        -12    1    3    3    0    0 -0.34498815348E+02 -0.77184804719E+01  0.72154117976E+01  0.36080540027E+02  0.00000000000E+00 0.  1.
</event>
<event>
 7    1  0.1358622E-013  0.7246162E+02  0.7816164E-02  0.1226708E+00
        -11   -1    0    0    0    0  0.00000000000E+00  0.00000000000E+00  0.45593999997E+02  0.45594000000E+02  0.51100000000E-03 0.  1.
         11   -1    0    0    0    0 -0.00000000000E+00 -0.00000000000E+00 -0.45593999997E+02  0.45594000000E+02  0.51100000000E-03 0. -1.
    9900012    2    1    2    0    0 -0.72818429360E+01 -0.13083814800E+02 -0.11245709983E+02  0.72461616492E+02  0.70000060182E+02 0.  0.
        -12    1    1    2    0    0  0.72818429360E+01  0.13083814800E+02  0.11245709983E+02  0.18726383508E+02  0.00000000000E+00 0.  1.
         11    1    3    3    0    0  0.39345092577E+01 -0.39881290037E+01 -0.39909374764E+01  0.68784531874E+01  0.51100000000E-03 0. -1.
        -11    1    3    3    0    0  0.21372052496E+02  0.28012499795E+01 -0.19226291922E+02  0.28883592760E+02  0.51100000000E-03 0.  1.
         12    1    3    3    0    0 -0.32588404690E+02 -0.11896935776E+02  0.11971519416E+02  0.36699570545E+02  0.00000000000E+00 0. -1.
</event>
<event>
 7    1  0.1557455E-013  0.7246158E+02  0.7816164E-02  0.1226708E+00
        -11   -1    0    0    0    0  0.00000000000E+00  0.00000000000E+00  0.45593999997E+02  0.45594000000E+02  0.51100000000E-03 0. -1.
         11   -1    0    0    0    0 -0.00000000000E+00 -0.00000000000E+00 -0.45593999997E+02  0.45594000000E+02  0.51100000000E-03 0.  1.
    9900012    2    1    2    0    0  0.88262742959E+01 -0.51577422513E+00  0.16507867708E+02  0.72461579166E+02  0.70000011556E+02 0.  0.
        -12    1    1    2    0    0 -0.88262742959E+01  0.51577422513E+00 -0.16507867708E+02  0.18726420834E+02  0.00000000000E+00 0.  1.
         11    1    3    3    0    0  0.24402097325E+02 -0.13112894274E+02  0.20422632656E+02  0.34416482606E+02  0.51100000000E-03 0. -1.
        -11    1    3    3    0    0 -0.65072653186E+01 -0.10615476396E+02  0.15037400112E+01  0.12541693479E+02  0.51100000000E-03 0.  1.
        -12    1    3    3    0    0 -0.90685577106E+01  0.23212596445E+02 -0.54185049592E+01  0.25503403080E+02  0.00000000000E+00 0.  1.
</event>
<event>
 7    1  0.1358622E-013  0.7246147E+02  0.7816164E-02  0.1226708E+00
        -11   -1    0    0    0    0  0.00000000000E+00  0.00000000000E+00  0.45593999997E+02  0.45594000000E+02  0.51100000000E-03 0.  1.
         11   -1    0    0    0    0 -0.00000000000E+00 -0.00000000000E+00 -0.45593999997E+02  0.45594000000E+02  0.51100000000E-03 0. -1.
    9900012    2    1    2    0    0 -0.14502886387E+02  0.35843106919E+01 -0.11291672713E+02  0.72461471508E+02  0.69999871313E+02 0.  0.
        -12    1    1    2    0    0  0.14502886387E+02 -0.35843106919E+01  0.11291672713E+02  0.18726528492E+02  0.00000000000E+00 0.  1.
         11    1    3    3    0    0 -0.22545924153E+02 -0.13281986402E+02 -0.98665095723E+01  0.27965655188E+02  0.51100000000E-03 0. -1.
        -11    1    3    3    0    0 -0.15290582031E+02  0.23912976102E+01  0.50581485127E+01  0.16282047468E+02  0.51100000000E-03 0.  1.
        -12    1    3    3    0    0  0.23333619797E+02  0.14474999483E+02 -0.64833116537E+01  0.28213768853E+02  0.00000000000E+00 0.  1.
</event>
<event>
 7    1  0.1358622E-013  0.7246158E+02  0.7816164E-02  0.1226708E+00
        -11   -1    0    0    0    0  0.00000000000E+00  0.00000000000E+00  0.45593999997E+02  0.45594000000E+02  0.51100000000E-03 0. -1.
         11   -1    0    0    0    0 -0.00000000000E+00 -0.00000000000E+00 -0.45593999997E+02  0.45594000000E+02  0.51100000000E-03 0.  1.
    9900012    2    1    2    0    0  0.93434605228E+01  0.25923568785E+01  0.16020558226E+02  0.72461578703E+02  0.70000010954E+02 0.  0.
        -12    1    1    2    0    0 -0.93434605228E+01 -0.25923568785E+01 -0.16020558226E+02  0.18726421297E+02  0.00000000000E+00 0.  1.
         11    1    3    3    0    0 -0.51172853503E+01 -0.36789577525E+01  0.19586665035E+02  0.20575684362E+02  0.51100000000E-03 0. -1.
        -11    1    3    3    0    0 -0.16494858407E+02 -0.62049782016E+01 -0.54803474633E+01  0.18455793587E+02  0.51100000000E-03 0.  1.
         12    1    3    3    0    0  0.30955604280E+02  0.12476292832E+02  0.19142406543E+01  0.33430100754E+02  0.00000000000E+00 0. -1.
</event>
<event>
 7    1  0.1358622E-013  0.7246152E+02  0.7816164E-02  0.1226708E+00
        -11   -1    0    0    0    0  0.00000000000E+00  0.00000000000E+00  0.45593999997E+02  0.45594000000E+02  0.51100000000E-03 0. -1.
         11   -1    0    0    0    0 -0.00000000000E+00 -0.00000000000E+00 -0.45593999997E+02  0.45594000000E+02  0.51100000000E-03 0.  1.
    9900012    2    1    2    0    0  0.46879723845E+01  0.17812910173E+02  0.33770067695E+01  0.72461520655E+02  0.69999935336E+02 0.  0.
        -12    1    1    2    0    0 -0.46879723845E+01 -0.17812910173E+02 -0.33770067695E+01  0.18726479345E+02  0.00000000000E+00 0.  1.
         11    1    3    3    0    0  0.10375223252E+02  0.20276131975E+01  0.16478945798E+02  0.19578358657E+02  0.51100000000E-03 0. -1.
        -11    1    3    3    0    0  0.10391782033E+02  0.24183788041E+01  0.14657664851E+02  0.18129667096E+02  0.51100000000E-03 0.  1.
        -12    1    3    3    0    0 -0.16079032901E+02  0.13366918172E+02 -0.27759603879E+02  0.34753494903E+02  0.00000000000E+00 0.  1.
</event>
<event>
 7    1  0.1358622E-013  0.7246216E+02  0.7816164E-02  0.1226706E+00
        -11   -1    0    0    0    0  0.00000000000E+00  0.00000000000E+00  0.45593999997E+02  0.45594000000E+02  0.51100000000E-03 0.  1.
         11   -1    0    0    0    0 -0.00000000000E+00 -0.00000000000E+00 -0.45593999997E+02  0.45594000000E+02  0.51100000000E-03 0. -1.
    9900012    2    1    2    0    0 -0.36584322305E+00  0.50492630723E+00 -0.18715454519E+02  0.72462161443E+02  0.70000770076E+02 0.  0.
        -12    1    1    2    0    0  0.36584322305E+00 -0.50492630723E+00  0.18715454519E+02  0.18725838557E+02  0.00000000000E+00 0.  1.
         11    1    3    3    0    0  0.46666128937E+00  0.14493158966E+02 -0.23307495910E+02  0.27450114670E+02  0.51100000000E-03 0. -1.
        -11    1    3    3    0    0 -0.16196772685E+02 -0.17648613487E+02 -0.75214339465E+01  0.25107388799E+02  0.51100000000E-03 0.  1.
        -12    1    3    3    0    0  0.15364268173E+02  0.36603808284E+01  0.12113475338E+02  0.19904657974E+02  0.00000000000E+00 0.  1.
</event>
<event>
 7    1  0.1358622E-013  0.7246160E+02  0.7816164E-02  0.1226708E+00
        -11   -1    0    0    0    0  0.00000000000E+00  0.00000000000E+00  0.45593999997E+02  0.45594000000E+02  0.51100000000E-03 0. -1.
         11   -1    0    0    0    0 -0.00000000000E+00 -0.00000000000E+00 -0.45593999997E+02  0.45594000000E+02  0.51100000000E-03 0.  1.
    9900012    2    1    2    0    0  0.78060419789E+00 -0.11791689607E+00  0.18709753077E+02  0.72461598650E+02  0.70000036939E+02 0.  0.
        -12    1    1    2    0    0 -0.78060419789E+00  0.11791689607E+00 -0.18709753077E+02  0.18726401350E+02  0.00000000000E+00 0.  1.
         11    1    3    3    0    0  0.19137296218E+02  0.12598357899E+01  0.10623374514E+02  0.21924401453E+02  0.51100000000E-03 0. -1.
        -11    1    3    3    0    0  0.32324539212E+01  0.18679284420E+02 -0.27179123737E+01  0.19150756453E+02  0.51100000000E-03 0.  1.
        -12    1    3    3    0    0 -0.21589145941E+02 -0.20057037106E+02  0.10804290937E+02  0.31386440744E+02  0.00000000000E+00 0.  1.
</event>
<event>
 7    1  0.1358622E-013  0.7246148E+02  0.7816164E-02  0.1226708E+00
        -11   -1    0    0    0    0  0.00000000000E+00  0.00000000000E+00  0.45593999997E+02  0.45594000000E+02  0.51100000000E-03 0.  1.
         11   -1    0    0    0    0 -0.00000000000E+00 -0.00000000000E+00 -0.45593999997E+02  0.45594000000E+02  0.51100000000E-03 0. -1.
    9900012    2    1    2    0    0  0.14809287527E+02  0.10087526941E+02 -0.54414486573E+01  0.72461479759E+02  0.69999882061E+02 0.  0.
        -12    1    1    2    0    0 -0.14809287527E+02 -0.10087526941E+02  0.54414486573E+01  0.18726520241E+02  0.00000000000E+00 0.  1.
         11    1    3    3    0    0 -0.73087498863E+01  0.53713708023E+01 -0.14236951936E+02  0.16880765678E+02  0.51100000000E-03 0. -1.
        -11    1    3    3    0    0  0.57263969434E+01  0.11784879995E+02 -0.18679099188E+02  0.22816304810E+02  0.51100000000E-03 0.  1.
        -12    1    3    3    0    0  0.16391640470E+02 -0.70687238554E+01  0.27474602466E+02  0.32764409271E+02  0.00000000000E+00 0.  1.
</event>
<event>
 7    1  0.1358622E-013  0.7246176E+02  0.7816164E-02  0.1226707E+00
        -11   -1    0    0    0    0  0.00000000000E+00  0.00000000000E+00  0.45593999997E+02  0.45594000000E+02  0.51100000000E-03 0.  1.
         11   -1    0    0    0    0 -0.00000000000E+00 -0.00000000000E+00 -0.45593999997E+02  0.45594000000E+02  0.51100000000E-03 0. -1.
    9900012    2    1    2    0    0  0.28880888102E+01  0.30731985566E+00 -0.18499633321E+02  0.72461763446E+02  0.70000251616E+02 0.  0.
        -12    1    1    2    0    0 -0.28880888102E+01 -0.30731985566E+00  0.18499633321E+02  0.18726236554E+02  0.00000000000E+00 0.  1.
         11    1    3    3    0    0  0.10832695938E+01 -0.38840657778E+01  0.35423418542E+01  0.53672736145E+01  0.51100000000E-03 0.  1.
        -11    1    3    3    0    0 -0.14280280678E+02  0.29717844251E+02 -0.86657489762E+01  0.34090642246E+02  0.51100000000E-03 0. -1.
         12    1    3    3    0    0  0.16085099894E+02 -0.25526458618E+02 -0.13376226199E+02  0.33003847586E+02  0.00000000000E+00 0. -1.
</event>
<event>
 7    1  0.1358622E-013  0.7246151E+02  0.7816164E-02  0.1226708E+00
        -11   -1    0    0    0    0  0.00000000000E+00  0.00000000000E+00  0.45593999997E+02  0.45594000000E+02  0.51100000000E-03 0.  1.
         11   -1    0    0    0    0 -0.00000000000E+00 -0.00000000000E+00 -0.45593999997E+02  0.45594000000E+02  0.51100000000E-03 0. -1.
    9900012    2    1    2    0    0 -0.12389865934E+02 -0.65424610454E+01 -0.12424524400E+02  0.72461511249E+02  0.69999923082E+02 0.  0.
        -12    1    1    2    0    0  0.12389865934E+02  0.65424610454E+01  0.12424524400E+02  0.18726488751E+02  0.00000000000E+00 0.  1.
         11    1    3    3    0    0 -0.83179811130E+01 -0.76871742607E+01 -0.48386392016E+01  0.12316407248E+02  0.51100000000E-03 0. -1.
        -11    1    3    3    0    0 -0.14266497709E+02  0.24279778580E+02 -0.17312470525E+02  0.33056954498E+02  0.51100000000E-03 0.  1.
         12    1    3    3    0    0  0.10194612888E+02 -0.23135065364E+02  0.97265853266E+01  0.27088149502E+02  0.00000000000E+00 0. -1.
</event>
<event>
 7    1  0.1358622E-013  0.7246155E+02  0.7816164E-02  0.1226708E+00
        -11   -1    0    0    0    0  0.00000000000E+00  0.00000000000E+00  0.45593999997E+02  0.45594000000E+02  0.51100000000E-03 0.  1.
         11   -1    0    0    0    0 -0.00000000000E+00 -0.00000000000E+00 -0.45593999997E+02  0.45594000000E+02  0.51100000000E-03 0. -1.
    9900012    2    1    2    0    0 -0.36017166406E+01  0.36130765590E+01 -0.18018134849E+02  0.72461551634E+02  0.69999975691E+02 0.  0.
        -12    1    1    2    0    0  0.36017166406E+01 -0.36130765590E+01  0.18018134849E+02  0.18726448366E+02  0.00000000000E+00 0.  1.
         11    1    3    3    0    0  0.10047220032E+02  0.21799538163E+01 -0.10512000424E+02  0.14703774420E+02  0.51100000000E-03 0. -1.
        -11    1    3    3    0    0  0.40608567799E-01  0.15607117215E+02 -0.26264350437E+02  0.30551593428E+02  0.51100000000E-03 0.  1.
        -12    1    3    3    0    0 -0.13689545241E+02 -0.14173994472E+02  0.18758216013E+02  0.27206183786E+02  0.00000000000E+00 0.  1.
</event>
<event>
 7    1  0.1358622E-013  0.7246145E+02  0.7816164E-02  0.1226708E+00
        -11   -1    0    0    0    0  0.00000000000E+00  0.00000000000E+00  0.45593999997E+02  0.45594000000E+02  0.51100000000E-03 0.  1.
         11   -1    0    0    0    0 -0.00000000000E+00 -0.00000000000E+00 -0.45593999997E+02  0.45594000000E+02  0.51100000000E-03 0. -1.
    9900012    2    1    2    0    0 -0.15848131229E+02  0.12494360234E+01 -0.98974371526E+01  0.72461451572E+02  0.69999845342E+02 0.  0.
        -12    1    1    2    0    0  0.15848131229E+02 -0.12494360234E+01  0.98974371526E+01  0.18726548428E+02  0.00000000000E+00 0.  1.
         11    1    3    3    0    0 -0.18012848381E+02  0.18329087190E+02 -0.21277419971E+02  0.33363853868E+02  0.51100000000E-03 0. -1.
        -11    1    3    3    0    0 -0.67962907569E+01  0.50143214890E+01 -0.53262015475E+01  0.99850594006E+01  0.51100000000E-03 0.  1.
        -12    1    3    3    0    0  0.89610079089E+01 -0.22093972655E+02  0.16706184366E+02  0.29112538304E+02  0.00000000000E+00 0.  1.
</event>
<event>
 7    1  0.1358622E-013  0.7246153E+02  0.7816164E-02  0.1226708E+00
        -11   -1    0    0    0    0  0.00000000000E+00  0.00000000000E+00  0.45593999997E+02  0.45594000000E+02  0.51100000000E-03 0.  1.
         11   -1    0    0    0    0 -0.00000000000E+00 -0.00000000000E+00 -0.45593999997E+02  0.45594000000E+02  0.51100000000E-03 0. -1.
    9900012    2    1    2    0    0  0.18299577123E+02  0.39735313850E+01  0.13114880815E+00  0.72461530109E+02  0.69999947652E+02 0.  0.
        -12    1    1    2    0    0 -0.18299577123E+02 -0.39735313850E+01 -0.13114880815E+00  0.18726469891E+02  0.00000000000E+00 0.  1.
         11    1    3    3    0    0 -0.17029144120E+01  0.58398977553E+01 -0.10532806940E+02  0.12163237463E+02  0.51100000000E-03 0. -1.
        -11    1    3    3    0    0 -0.14282087073E+00  0.25311137827E+02  0.20821526744E+01  0.25397036361E+02  0.51100000000E-03 0.  1.
        -12    1    3    3    0    0  0.20145312406E+02 -0.27177504197E+02  0.85818030742E+01  0.34901256285E+02  0.00000000000E+00 0.  1.
</event>
<event>
 7    1  0.1358622E-013  0.7246154E+02  0.7816164E-02  0.1226708E+00
        -11   -1    0    0    0    0  0.00000000000E+00  0.00000000000E+00  0.45593999997E+02  0.45594000000E+02  0.51100000000E-03 0.  1.
         11   -1    0    0    0    0 -0.00000000000E+00 -0.00000000000E+00 -0.45593999997E+02  0.45594000000E+02  0.51100000000E-03 0. -1.
    9900012    2    1    2    0    0  0.16760199516E+02  0.70213098349E+01 -0.45251782623E+01  0.72461539632E+02  0.69999960056E+02 0.  0.
        -12    1    1    2    0    0 -0.16760199516E+02 -0.70213098349E+01  0.45251782623E+01  0.18726460368E+02  0.00000000000E+00 0.  1.
         11    1    3    3    0    0  0.31990677550E+02 -0.36982250477E+00 -0.35639259369E+01  0.32190709641E+02  0.51100000000E-03 0. -1.
        -11    1    3    3    0    0 -0.77610502671E+00 -0.53478281320E+01 -0.15317986987E+02  0.16243224137E+02  0.51100000000E-03 0.  1.
         12    1    3    3    0    0 -0.14454373007E+02  0.12738960472E+02  0.14356734662E+02  0.24027605854E+02  0.00000000000E+00 0. -1.
</event>
<event>
 7    1  0.1358622E-013  0.7246147E+02  0.7816164E-02  0.1226708E+00
        -11   -1    0    0    0    0  0.00000000000E+00  0.00000000000E+00  0.45593999997E+02  0.45594000000E+02  0.51100000000E-03 0.  1.
         11   -1    0    0    0    0 -0.00000000000E+00 -0.00000000000E+00 -0.45593999997E+02  0.45594000000E+02  0.51100000000E-03 0. -1.
    9900012    2    1    2    0    0  0.13356590765E+02  0.44041921211E+01  0.12364775116E+02  0.72461465650E+02  0.69999863681E+02 0.  0.
        -12    1    1    2    0    0 -0.13356590765E+02 -0.44041921211E+01 -0.12364775116E+02  0.18726534350E+02  0.00000000000E+00 0.  1.
         11    1    3    3    0    0 -0.15903620072E+02  0.11747061735E+02  0.89007431383E+01  0.21682753965E+02  0.51100000000E-03 0. -1.
        -11    1    3    3    0    0 -0.17572503987E+01  0.12337920692E+02  0.62442352437E+01  0.13939249980E+02  0.51100000000E-03 0.  1.
        -12    1    3    3    0    0  0.31017461236E+02 -0.19680790306E+02 -0.27802032662E+01  0.36839461706E+02  0.00000000000E+00 0.  1.
</event>
<event>
 7    1  0.1358622E-013  0.7246161E+02  0.7816164E-02  0.1226708E+00
        -11   -1    0    0    0    0  0.00000000000E+00  0.00000000000E+00  0.45593999997E+02  0.45594000000E+02  0.51100000000E-03 0. -1.
         11   -1    0    0    0    0 -0.00000000000E+00 -0.00000000000E+00 -0.45593999997E+02  0.45594000000E+02  0.51100000000E-03 0.  1.
    9900012    2    1    2    0    0  0.82327844331E+01  0.35883664265E+01  0.16432363443E+02  0.72461610026E+02  0.70000051758E+02 0.  0.
        -12    1    1    2    0    0 -0.82327844331E+01 -0.35883664265E+01 -0.16432363443E+02  0.18726389974E+02  0.00000000000E+00 0.  1.
         11    1    3    3    0    0  0.21131655716E+01 -0.27918112224E+02  0.22774083246E+01  0.28090444066E+02  0.51100000000E-03 0. -1.
        -11    1    3    3    0    0 -0.28800534588E+00 -0.25281244329E+01  0.90052978189E+01  0.93578709809E+01  0.51100000000E-03 0.  1.
         12    1    3    3    0    0  0.64076242074E+01  0.34034603083E+02  0.51496572994E+01  0.35013294979E+02  0.00000000000E+00 0. -1.
</event>
<event>
 7    1  0.1358622E-013  0.7246157E+02  0.7816164E-02  0.1226708E+00
        -11   -1    0    0    0    0  0.00000000000E+00  0.00000000000E+00  0.45593999997E+02  0.45594000000E+02  0.51100000000E-03 0.  1.
         11   -1    0    0    0    0 -0.00000000000E+00 -0.00000000000E+00 -0.45593999997E+02  0.45594000000E+02  0.51100000000E-03 0. -1.
    9900012    2    1    2    0    0  0.43098661096E+01 -0.17575708460E+02  0.48164978865E+01  0.72461571466E+02  0.70000001526E+02 0.  0.
        -12    1    1    2    0    0 -0.43098661096E+01  0.17575708460E+02 -0.48164978865E+01  0.18726428534E+02  0.00000000000E+00 0.  1.
         11    1    3    3    0    0  0.28211261741E+01 -0.79564056264E+01 -0.10381049496E+02  0.13380184315E+02  0.51100000000E-03 0. -1.
        -11    1    3    3    0    0 -0.14418502756E+02  0.17344055312E+02 -0.31834791516E+01  0.22778147777E+02  0.51100000000E-03 0.  1.
        -12    1    3    3    0    0  0.15907242692E+02 -0.26963358146E+02  0.18381026535E+02  0.36303239374E+02  0.00000000000E+00 0.  1.
</event>
<event>
 7    1  0.1358622E-013  0.7246160E+02  0.7816164E-02  0.1226708E+00
        -11   -1    0    0    0    0  0.00000000000E+00  0.00000000000E+00  0.45593999997E+02  0.45594000000E+02  0.51100000000E-03 0. -1.
         11   -1    0    0    0    0 -0.00000000000E+00 -0.00000000000E+00 -0.45593999997E+02  0.45594000000E+02  0.51100000000E-03 0.  1.
    9900012    2    1    2    0    0 -0.39109207489E+01 -0.97323793964E+01  0.15513330984E+02  0.72461602909E+02  0.70000042486E+02 0.  0.
        -12    1    1    2    0    0  0.39109207489E+01  0.97323793964E+01 -0.15513330984E+02  0.18726397091E+02  0.00000000000E+00 0.  1.
         11    1    3    3    0    0  0.41770963592E+01  0.67028089484E+01 -0.39102511827E+01  0.88128228375E+01  0.51100000000E-03 0. -1.
        -11    1    3    3    0    0 -0.21659630809E+02  0.14971500858E+02  0.99525170895E+01  0.28148499807E+02  0.51100000000E-03 0.  1.
         12    1    3    3    0    0  0.13571613701E+02 -0.31406689203E+02  0.94710650768E+01  0.35500280264E+02  0.00000000000E+00 0. -1.
</event>
<event>
 7    1  0.1358622E-013  0.7246151E+02  0.7816164E-02  0.1226708E+00
        -11   -1    0    0    0    0  0.00000000000E+00  0.00000000000E+00  0.45593999997E+02  0.45594000000E+02  0.51100000000E-03 0. -1.
         11   -1    0    0    0    0 -0.00000000000E+00 -0.00000000000E+00 -0.45593999997E+02  0.45594000000E+02  0.51100000000E-03 0.  1.
    9900012    2    1    2    0    0  0.80593590474E+01 -0.11302814312E+02  0.12568790138E+02  0.72461511671E+02  0.69999923632E+02 0.  0.
        -12    1    1    2    0    0 -0.80593590474E+01  0.11302814312E+02 -0.12568790138E+02  0.18726488329E+02  0.00000000000E+00 0.  1.
         11    1    3    3    0    0  0.59766640478E+01  0.11152286797E+01 -0.12323467706E+02  0.13741619436E+02  0.51100000000E-03 0. -1.
        -11    1    3    3    0    0 -0.12038724878E+02  0.51376487073E+01 -0.10489500981E+02  0.16773668711E+02  0.51100000000E-03 0.  1.
         12    1    3    3    0    0  0.14121419877E+02 -0.17555691699E+02  0.35381758825E+02  0.41946223524E+02  0.00000000000E+00 0. -1.
</event>
<event>
 7    1  0.1358622E-013  0.7246164E+02  0.7816164E-02  0.1226708E+00
        -11   -1    0    0    0    0  0.00000000000E+00  0.00000000000E+00  0.45593999997E+02  0.45594000000E+02  0.51100000000E-03 0.  1.
         11   -1    0    0    0    0 -0.00000000000E+00 -0.00000000000E+00 -0.45593999997E+02  0.45594000000E+02  0.51100000000E-03 0. -1.
    9900012    2    1    2    0    0  0.15728200154E+01  0.18610895831E+02 -0.13555255212E+01  0.72461637409E+02  0.70000087429E+02 0.  0.
        -12    1    1    2    0    0 -0.15728200154E+01 -0.18610895831E+02  0.13555255212E+01  0.18726362591E+02  0.00000000000E+00 0.  1.
         11    1    3    3    0    0  0.22477868320E+02  0.61922892044E+00 -0.75558011684E+01  0.23721891582E+02  0.51100000000E-03 0. -1.
        -11    1    3    3    0    0  0.89236462428E+01  0.94858728467E+01  0.11376942427E+02  0.17293006251E+02  0.51100000000E-03 0.  1.
        -12    1    3    3    0    0 -0.29828694547E+02  0.85057940642E+01 -0.51766667799E+01  0.31446739577E+02  0.00000000000E+00 0.  1.
</event>
<event>
 7    1  0.1358622E-013  0.7246142E+02  0.7816164E-02  0.1226708E+00
        -11   -1    0    0    0    0  0.00000000000E+00  0.00000000000E+00  0.45593999997E+02  0.45594000000E+02  0.51100000000E-03 0.  1.
         11   -1    0    0    0    0 -0.00000000000E+00 -0.00000000000E+00 -0.45593999997E+02  0.45594000000E+02  0.51100000000E-03 0. -1.
    9900012    2    1    2    0    0 -0.16189728767E+02  0.26013489462E+01  0.90449210921E+01  0.72461416451E+02  0.69999799590E+02 0.  0.
        -12    1    1    2    0    0  0.16189728767E+02 -0.26013489462E+01 -0.90449210921E+01  0.18726583549E+02  0.00000000000E+00 0.  1.
         11    1    3    3    0    0  0.10064765494E+01  0.55208929336E+01  0.52060130033E+01  0.76547910148E+01  0.51100000000E-03 0. -1.
        -11    1    3    3    0    0 -0.29471127493E+02  0.16754404883E+02 -0.12830838801E+02  0.36247591138E+02  0.51100000000E-03 0.  1.
         12    1    3    3    0    0  0.12274922177E+02 -0.19673948871E+02  0.16669746890E+02  0.28559034298E+02  0.00000000000E+00 0. -1.
</event>
<event>
 7    1  0.1358622E-013  0.7246155E+02  0.7816164E-02  0.1226708E+00
        -11   -1    0    0    0    0  0.00000000000E+00  0.00000000000E+00  0.45593999997E+02  0.45594000000E+02  0.51100000000E-03 0.  1.
         11   -1    0    0    0    0 -0.00000000000E+00 -0.00000000000E+00 -0.45593999997E+02  0.45594000000E+02  0.51100000000E-03 0. -1.
    9900012    2    1    2    0    0  0.68610303352E+01 -0.64136584604E+01 -0.16200962256E+02  0.72461549986E+02  0.69999973544E+02 0.  0.
        -12    1    1    2    0    0 -0.68610303352E+01  0.64136584604E+01  0.16200962256E+02  0.18726450014E+02  0.00000000000E+00 0.  1.
         11    1    3    3    0    0  0.16275880361E+02 -0.11313873907E+02 -0.20956638648E+02  0.28845948207E+02  0.51100000000E-03 0. -1.
        -11    1    3    3    0    0 -0.14311915773E+02  0.11954639939E+02 -0.13780228693E+02  0.23187044924E+02  0.51100000000E-03 0.  1.
        -12    1    3    3    0    0  0.48970657477E+01 -0.70544244928E+01  0.18535905085E+02  0.20428556855E+02  0.00000000000E+00 0.  1.
</event>
<event>
 7    1  0.1358622E-013  0.7246157E+02  0.7816164E-02  0.1226708E+00
        -11   -1    0    0    0    0  0.00000000000E+00  0.00000000000E+00  0.45593999997E+02  0.45594000000E+02  0.51100000000E-03 0.  1.
         11   -1    0    0    0    0 -0.00000000000E+00 -0.00000000000E+00 -0.45593999997E+02  0.45594000000E+02  0.51100000000E-03 0. -1.
    9900012    2    1    2    0    0  0.70403455364E+01 -0.55818808793E+01 -0.16430320486E+02  0.72461567059E+02  0.69999995785E+02 0.  0.
        -12    1    1    2    0    0 -0.70403455364E+01  0.55818808793E+01  0.16430320486E+02  0.18726432941E+02  0.00000000000E+00 0.  1.
         11    1    3    3    0    0  0.30548953502E+00 -0.79110361663E+01 -0.63720052921E+01  0.10162690037E+02  0.51100000000E-03 0. -1.
        -11    1    3    3    0    0  0.10370355684E+02  0.87884987505E+01  0.23924769128E+02  0.27516841486E+02  0.51100000000E-03 0.  1.
         12    1    3    3    0    0 -0.36354996825E+01 -0.64593434634E+01 -0.33983084322E+02  0.34782035535E+02  0.00000000000E+00 0. -1.
</event>
<event>
 7    1  0.1358622E-013  0.7246156E+02  0.7816164E-02  0.1226708E+00
        -11   -1    0    0    0    0  0.00000000000E+00  0.00000000000E+00  0.45593999997E+02  0.45594000000E+02  0.51100000000E-03 0.  1.
         11   -1    0    0    0    0 -0.00000000000E+00 -0.00000000000E+00 -0.45593999997E+02  0.45594000000E+02  0.51100000000E-03 0. -1.
    9900012    2    1    2    0    0  0.18461745352E+02 -0.27691948729E+01 -0.14748015161E+01  0.72461560904E+02  0.69999987768E+02 0.  0.
        -12    1    1    2    0    0 -0.18461745352E+02  0.27691948729E+01  0.14748015161E+01  0.18726439096E+02  0.00000000000E+00 0.  1.
         11    1    3    3    0    0 -0.24795019531E+01  0.67667500894E+01 -0.23075983634E+02  0.24175149589E+02  0.51100000000E-03 0. -1.
        -11    1    3    3    0    0  0.17016188603E+01  0.12479474167E+02  0.12365152759E+01  0.12655502855E+02  0.51100000000E-03 0.  1.
         12    1    3    3    0    0  0.19239628445E+02 -0.22015419129E+02  0.20364666842E+02  0.35630908460E+02  0.00000000000E+00 0. -1.
</event>
<event>
 7    1  0.1358622E-013  0.7246159E+02  0.7816164E-02  0.1226708E+00
        -11   -1    0    0    0    0  0.00000000000E+00  0.00000000000E+00  0.45593999997E+02  0.45594000000E+02  0.51100000000E-03 0. -1.
         11   -1    0    0    0    0 -0.00000000000E+00 -0.00000000000E+00 -0.45593999997E+02  0.45594000000E+02  0.51100000000E-03 0.  1.
    9900012    2    1    2    0    0  0.21816363737E+01  0.69030224265E+01  0.17270416775E+02  0.72461586796E+02  0.70000021497E+02 0.  0.
        -12    1    1    2    0    0 -0.21816363737E+01 -0.69030224265E+01 -0.17270416775E+02  0.18726413204E+02  0.00000000000E+00 0.  1.
         11    1    3    3    0    0 -0.16658681011E+02  0.24513692343E+02  0.10258886196E+02  0.31363633584E+02  0.51100000000E-03 0. -1.
        -11    1    3    3    0    0 -0.48361799619E+01  0.37316265169E+01 -0.40819919534E+01  0.73468586249E+01  0.51100000000E-03 0.  1.
        -12    1    3    3    0    0  0.23676497347E+02 -0.21342296434E+02  0.11093522532E+02  0.33751094588E+02  0.00000000000E+00 0.  1.
</event>
<event>
 7    1  0.1358622E-013  0.7246153E+02  0.7816164E-02  0.1226708E+00
        -11   -1    0    0    0    0  0.00000000000E+00  0.00000000000E+00  0.45593999997E+02  0.45594000000E+02  0.51100000000E-03 0. -1.
         11   -1    0    0    0    0 -0.00000000000E+00 -0.00000000000E+00 -0.45593999997E+02  0.45594000000E+02  0.51100000000E-03 0.  1.
    9900012    2    1    2    0    0  0.78538330850E+01  0.10040695881E+02  0.13717957704E+02  0.72461531260E+02  0.69999949151E+02 0.  0.
        -12    1    1    2    0    0 -0.78538330850E+01 -0.10040695881E+02 -0.13717957704E+02  0.18726468740E+02  0.00000000000E+00 0.  1.
         11    1    3    3    0    0 -0.73160356203E+00 -0.47085230210E+01  0.91751087098E+00  0.48525518308E+01  0.51100000000E-03 0. -1.
        -11    1    3    3    0    0 -0.11865088659E+02 -0.20794213699E+02 -0.19724990630E+01  0.24022289755E+02  0.51100000000E-03 0.  1.
         12    1    3    3    0    0  0.20450525306E+02  0.35543432601E+02  0.14772945896E+02  0.43586689675E+02  0.00000000000E+00 0. -1.
</event>
<event>
 7    1  0.1358622E-013  0.7246157E+02  0.7816164E-02  0.1226708E+00
        -11   -1    0    0    0    0  0.00000000000E+00  0.00000000000E+00  0.45593999997E+02  0.45594000000E+02  0.51100000000E-03 0.  1.
         11   -1    0    0    0    0 -0.00000000000E+00 -0.00000000000E+00 -0.45593999997E+02  0.45594000000E+02  0.51100000000E-03 0. -1.
    9900012    2    1    2    0    0  0.58619519997E+01  0.59970924242E+01 -0.16743701829E+02  0.72461570822E+02  0.70000000688E+02 0.  0.
        -12    1    1    2    0    0 -0.58619519997E+01 -0.59970924242E+01  0.16743701829E+02  0.18726429178E+02  0.00000000000E+00 0.  1.
         11    1    3    3    0    0  0.18757824245E+01  0.12561604151E+02 -0.13832853851E+02  0.18779251968E+02  0.51100000000E-03 0. -1.
        -11    1    3    3    0    0 -0.93697415304E+01  0.20725506799E+02  0.22801382025E+01  0.22859083948E+02  0.51100000000E-03 0.  1.
        -12    1    3    3    0    0  0.13355911106E+02 -0.27290018526E+02 -0.51909861803E+01  0.30823234907E+02  0.00000000000E+00 0.  1.
</event>
<event>
 7    1  0.1358622E-013  0.7246153E+02  0.7816164E-02  0.1226708E+00
        -11   -1    0    0    0    0  0.00000000000E+00  0.00000000000E+00  0.45593999997E+02  0.45594000000E+02  0.51100000000E-03 0.  1.
         11   -1    0    0    0    0 -0.00000000000E+00 -0.00000000000E+00 -0.45593999997E+02  0.45594000000E+02  0.51100000000E-03 0. -1.
    9900012    2    1    2    0    0  0.41598767162E+01  0.39735643957E+01 -0.17820966592E+02  0.72461531070E+02  0.69999948904E+02 0.  0.
        -12    1    1    2    0    0 -0.41598767162E+01 -0.39735643957E+01  0.17820966592E+02  0.18726468930E+02  0.00000000000E+00 0.  1.
         11    1    3    3    0    0  0.56280050570E+01  0.19214027368E+02 -0.26483366753E+02  0.33199728967E+02  0.51100000000E-03 0. -1.
        -11    1    3    3    0    0 -0.24680670539E+01 -0.16117796529E+02 -0.10926284459E+02  0.19628000720E+02  0.51100000000E-03 0.  1.
        -12    1    3    3    0    0  0.99993871321E+00  0.87733355704E+00  0.19588684621E+02  0.19633801383E+02  0.00000000000E+00 0.  1.
</event>
<event>
 7    1  0.1358622E-013  0.7246147E+02  0.7816164E-02  0.1226708E+00
        -11   -1    0    0    0    0  0.00000000000E+00  0.00000000000E+00  0.45593999997E+02  0.45594000000E+02  0.51100000000E-03 0.  1.
         11   -1    0    0    0    0 -0.00000000000E+00 -0.00000000000E+00 -0.45593999997E+02  0.45594000000E+02  0.51100000000E-03 0. -1.
    9900012    2    1    2    0    0  0.49212591571E+01  0.13042529922E+02 -0.12504266922E+02  0.72461466158E+02  0.69999864343E+02 0.  0.
        -12    1    1    2    0    0 -0.49212591571E+01 -0.13042529922E+02  0.12504266922E+02  0.18726533842E+02  0.00000000000E+00 0.  1.
         11    1    3    3    0    0  0.72863265150E+01  0.11927007512E+02 -0.16173527210E+02  0.21375851912E+02  0.51100000000E-03 0. -1.
        -11    1    3    3    0    0 -0.14851383709E+02  0.17542089251E+02  0.15096669281E+02  0.27499053020E+02  0.51100000000E-03 0.  1.
        -12    1    3    3    0    0  0.12486316351E+02 -0.16426566841E+02 -0.11427408993E+02  0.23586561226E+02  0.00000000000E+00 0.  1.
</event>
<event>
 7    1  0.1358622E-013  0.7246155E+02  0.7816164E-02  0.1226708E+00
        -11   -1    0    0    0    0  0.00000000000E+00  0.00000000000E+00  0.45593999997E+02  0.45594000000E+02  0.51100000000E-03 0.  1.
         11   -1    0    0    0    0 -0.00000000000E+00 -0.00000000000E+00 -0.45593999997E+02  0.45594000000E+02  0.51100000000E-03 0. -1.
    9900012    2    1    2    0    0  0.99939567035E+01  0.75526222101E+00 -0.15818674075E+02  0.72461547023E+02  0.69999969685E+02 0.  0.
        -12    1    1    2    0    0 -0.99939567035E+01 -0.75526222101E+00  0.15818674075E+02  0.18726452977E+02  0.00000000000E+00 0.  1.
         11    1    3    3    0    0 -0.20770810258E+02 -0.17965793558E+02 -0.24893616823E+01  0.27575228354E+02  0.51100000000E-03 0. -1.
        -11    1    3    3    0    0  0.23517484416E+01 -0.26728824325E+01 -0.82154804710E+01  0.89537221791E+01  0.51100000000E-03 0.  1.
        -12    1    3    3    0    0  0.28413018520E+02  0.21393938211E+02 -0.51138319215E+01  0.35932596490E+02  0.00000000000E+00 0.  1.
</event>
<event>
 7    1  0.1358622E-013  0.7246163E+02  0.7816164E-02  0.1226708E+00
        -11   -1    0    0    0    0  0.00000000000E+00  0.00000000000E+00  0.45593999997E+02  0.45594000000E+02  0.51100000000E-03 0. -1.
         11   -1    0    0    0    0 -0.00000000000E+00 -0.00000000000E+00 -0.45593999997E+02  0.45594000000E+02  0.51100000000E-03 0.  1.
    9900012    2    1    2    0    0  0.83784446868E+01  0.13969791220E+02 -0.92370742365E+01  0.72461629755E+02  0.70000077458E+02 0.  0.
        -12    1    1    2    0    0 -0.83784446868E+01 -0.13969791220E+02  0.92370742365E+01  0.18726370245E+02  0.00000000000E+00 0.  1.
         11    1    3    3    0    0  0.28646220860E+02  0.20906382314E+02  0.56456882902E+00  0.35468317260E+02  0.51100000000E-03 0. -1.
        -11    1    3    3    0    0  0.57958926551E+00  0.42486759993E+01 -0.12468284468E+02  0.13185040360E+02  0.51100000000E-03 0.  1.
        -12    1    3    3    0    0 -0.20847365439E+02 -0.11185267093E+02  0.26666414021E+01  0.23808272135E+02  0.00000000000E+00 0.  1.
</event>
<event>
 7    1  0.1358622E-013  0.7246158E+02  0.7816164E-02  0.1226708E+00
        -11   -1    0    0    0    0  0.00000000000E+00  0.00000000000E+00  0.45593999997E+02  0.45594000000E+02  0.51100000000E-03 0. -1.
         11   -1    0    0    0    0 -0.00000000000E+00 -0.00000000000E+00 -0.45593999997E+02  0.45594000000E+02  0.51100000000E-03 0.  1.
    9900012    2    1    2    0    0 -0.48676260750E-01 -0.63374666338E+01  0.17621374999E+02  0.72461582575E+02  0.70000015998E+02 0.  0.
        -12    1    1    2    0    0  0.48676260750E-01  0.63374666338E+01 -0.17621374999E+02  0.18726417425E+02  0.00000000000E+00 0.  1.
         11    1    3    3    0    0  0.66997697171E+00  0.26554825298E+02  0.35506123432E+00  0.26565648580E+02  0.51100000000E-03 0. -1.
        -11    1    3    3    0    0 -0.79082370035E+01 -0.24177400290E+01 -0.27719113466E+01  0.87217642783E+01  0.51100000000E-03 0.  1.
         12    1    3    3    0    0  0.71895837711E+01 -0.30474551903E+02  0.20038225112E+02  0.37174169716E+02  0.00000000000E+00 0. -1.
</event>
<event>
 7    1  0.1358622E-013  0.7246157E+02  0.7816164E-02  0.1226708E+00
        -11   -1    0    0    0    0  0.00000000000E+00  0.00000000000E+00  0.45593999997E+02  0.45594000000E+02  0.51100000000E-03 0.  1.
         11   -1    0    0    0    0 -0.00000000000E+00 -0.00000000000E+00 -0.45593999997E+02  0.45594000000E+02  0.51100000000E-03 0. -1.
    9900012    2    1    2    0    0 -0.17314261483E+02 -0.53129541921E+01 -0.47611125668E+01  0.72461566121E+02  0.69999994564E+02 0.  0.
        -12    1    1    2    0    0  0.17314261483E+02  0.53129541921E+01  0.47611125668E+01  0.18726433879E+02  0.00000000000E+00 0.  1.
         11    1    3    3    0    0 -0.37587462655E+01 -0.12797196524E+02  0.17087351986E+02  0.21676577463E+02  0.51100000000E-03 0. -1.
        -11    1    3    3    0    0 -0.10889850965E+02  0.17871480120E+02  0.53056544368E+01  0.21590012158E+02  0.51100000000E-03 0.  1.
        -12    1    3    3    0    0 -0.26656642527E+01 -0.10387237788E+02 -0.27154118989E+02  0.29194976500E+02  0.00000000000E+00 0.  1.
</event>
<event>
 7    1  0.1358622E-013  0.7246160E+02  0.7816164E-02  0.1226708E+00
        -11   -1    0    0    0    0  0.00000000000E+00  0.00000000000E+00  0.45593999997E+02  0.45594000000E+02  0.51100000000E-03 0.  1.
         11   -1    0    0    0    0 -0.00000000000E+00 -0.00000000000E+00 -0.45593999997E+02  0.45594000000E+02  0.51100000000E-03 0. -1.
    9900012    2    1    2    0    0 -0.89929634558E+01  0.15996769757E+02 -0.37293389615E+01  0.72461601428E+02  0.70000040557E+02 0.  0.
        -12    1    1    2    0    0  0.89929634558E+01 -0.15996769757E+02  0.37293389615E+01  0.18726398572E+02  0.00000000000E+00 0.  1.
         11    1    3    3    0    0  0.96493699160E+01  0.27395996999E+02  0.67036529433E+01  0.29809225994E+02  0.51100000000E-03 0. -1.
        -11    1    3    3    0    0  0.12318890653E+01  0.40168868298E+01  0.96116471321E+01  0.10489837526E+02  0.51100000000E-03 0.  1.
        -12    1    3    3    0    0 -0.19874222437E+02 -0.15416114071E+02 -0.20044639037E+02  0.32162537908E+02  0.00000000000E+00 0.  1.
</event>
<event>
 7    1  0.1358622E-013  0.7246153E+02  0.7816164E-02  0.1226708E+00
        -11   -1    0    0    0    0  0.00000000000E+00  0.00000000000E+00  0.45593999997E+02  0.45594000000E+02  0.51100000000E-03 0.  1.
         11   -1    0    0    0    0 -0.00000000000E+00 -0.00000000000E+00 -0.45593999997E+02  0.45594000000E+02  0.51100000000E-03 0. -1.
    9900012    2    1    2    0    0 -0.17842927781E+02  0.51520119468E+01 -0.24015338811E+01  0.72461530395E+02  0.69999948024E+02 0.  0.
        -12    1    1    2    0    0  0.17842927781E+02 -0.51520119468E+01  0.24015338811E+01  0.18726469605E+02  0.00000000000E+00 0.  1.
         11    1    3    3    0    0 -0.13143377865E+02 -0.11598223066E+01 -0.13156724578E+02  0.18633114914E+02  0.51100000000E-03 0. -1.
        -11    1    3    3    0    0 -0.99091562515E+01 -0.18579640817E+02  0.17654175406E+02  0.27478434090E+02  0.51100000000E-03 0.  1.
         12    1    3    3    0    0  0.52096063362E+01  0.24891475070E+02 -0.68989847091E+01  0.26349981392E+02  0.00000000000E+00 0. -1.
</event>
<event>
 7    1  0.1358622E-013  0.7246091E+02  0.7816164E-02  0.1226710E+00
        -11   -1    0    0    0    0  0.00000000000E+00  0.00000000000E+00  0.45593999997E+02  0.45594000000E+02  0.51100000000E-03 0.  1.
         11   -1    0    0    0    0 -0.00000000000E+00 -0.00000000000E+00 -0.45593999997E+02  0.45594000000E+02  0.51100000000E-03 0. -1.
    9900012    2    1    2    0    0 -0.83318752176E+00 -0.12356839213E+02 -0.14047006063E+02  0.72460905829E+02  0.69999134405E+02 0.  0.
        -12    1    1    2    0    0  0.83318752176E+00  0.12356839213E+02  0.14047006063E+02  0.18727094171E+02  0.00000000000E+00 0.  1.
         11    1    3    3    0    0  0.15743499083E+02  0.11365786320E+02  0.55762746775E+01  0.20202319213E+02  0.51100000000E-03 0.  1.
        -11    1    3    3    0    0 -0.44050270968E+00  0.16593380395E+01 -0.22019544613E+02  0.22086371151E+02  0.51100000000E-03 0. -1.
         12    1    3    3    0    0 -0.16136183895E+02 -0.25381963572E+02  0.23962638733E+01  0.30172215465E+02  0.00000000000E+00 0. -1.
</event>
<event>
 7    1  0.1358622E-013  0.7246158E+02  0.7816164E-02  0.1226708E+00
        -11   -1    0    0    0    0  0.00000000000E+00  0.00000000000E+00  0.45593999997E+02  0.45594000000E+02  0.51100000000E-03 0.  1.
         11   -1    0    0    0    0 -0.00000000000E+00 -0.00000000000E+00 -0.45593999997E+02  0.45594000000E+02  0.51100000000E-03 0. -1.
    9900012    2    1    2    0    0 -0.85270461079E+01 -0.10509024097E+02 -0.12943286046E+02  0.72461581323E+02  0.70000014367E+02 0.  0.
        -12    1    1    2    0    0  0.85270461079E+01  0.10509024097E+02  0.12943286046E+02  0.18726418677E+02  0.00000000000E+00 0.  1.
         11    1    3    3    0    0  0.53240124976E+01  0.23559296516E+01 -0.17117950014E+01  0.60684228582E+01  0.51100000000E-03 0. -1.
        -11    1    3    3    0    0 -0.12972121017E+02 -0.33218889477E+02  0.99300307420E+01  0.37018590634E+02  0.51100000000E-03 0.  1.
         12    1    3    3    0    0 -0.87893758877E+00  0.20353935728E+02 -0.21161521787E+02  0.29374567831E+02  0.00000000000E+00 0. -1.
</event>
<event>
 7    1  0.1358622E-013  0.7246159E+02  0.7816164E-02  0.1226708E+00
        -11   -1    0    0    0    0  0.00000000000E+00  0.00000000000E+00  0.45593999997E+02  0.45594000000E+02  0.51100000000E-03 0.  1.
         11   -1    0    0    0    0 -0.00000000000E+00 -0.00000000000E+00 -0.45593999997E+02  0.45594000000E+02  0.51100000000E-03 0. -1.
    9900012    2    1    2    0    0 -0.16648525777E+02  0.78112794614E+01 -0.35339789022E+01  0.72461588057E+02  0.70000023139E+02 0.  0.
        -12    1    1    2    0    0  0.16648525777E+02 -0.78112794614E+01  0.35339789022E+01  0.18726411943E+02  0.00000000000E+00 0.  1.
         11    1    3    3    0    0 -0.13991735683E+02 -0.11237398130E+01  0.14139094309E+02  0.19923489823E+02  0.51100000000E-03 0. -1.
        -11    1    3    3    0    0  0.14911271484E+02  0.11616963220E+02  0.86419464223E+01  0.20784202894E+02  0.51100000000E-03 0.  1.
         12    1    3    3    0    0 -0.17568061577E+02 -0.26819439454E+01 -0.26315019634E+02  0.31753895339E+02  0.00000000000E+00 0. -1.
</event>
<event>
 7    1  0.1358622E-013  0.7246152E+02  0.7816164E-02  0.1226708E+00
        -11   -1    0    0    0    0  0.00000000000E+00  0.00000000000E+00  0.45593999997E+02  0.45594000000E+02  0.51100000000E-03 0.  1.
         11   -1    0    0    0    0 -0.00000000000E+00 -0.00000000000E+00 -0.45593999997E+02  0.45594000000E+02  0.51100000000E-03 0. -1.
    9900012    2    1    2    0    0 -0.16253983691E+01 -0.72330550216E+01 -0.17196567014E+02  0.72461523507E+02  0.69999939050E+02 0.  0.
        -12    1    1    2    0    0  0.16253983691E+01  0.72330550216E+01  0.17196567014E+02  0.18726476493E+02  0.00000000000E+00 0.  1.
         11    1    3    3    0    0  0.64209430744E+01 -0.43418749638E+01 -0.18434115995E+02  0.19997425358E+02  0.51100000000E-03 0. -1.
        -11    1    3    3    0    0  0.33148524355E+01 -0.25118935264E+02 -0.68100908606E+01  0.26235977079E+02  0.51100000000E-03 0.  1.
         12    1    3    3    0    0 -0.11361193879E+02  0.22227755206E+02  0.80476398415E+01  0.26228121070E+02  0.00000000000E+00 0. -1.
</event>
<event>
 7    1  0.1358622E-013  0.7246154E+02  0.7816164E-02  0.1226708E+00
        -11   -1    0    0    0    0  0.00000000000E+00  0.00000000000E+00  0.45593999997E+02  0.45594000000E+02  0.51100000000E-03 0.  1.
         11   -1    0    0    0    0 -0.00000000000E+00 -0.00000000000E+00 -0.45593999997E+02  0.45594000000E+02  0.51100000000E-03 0. -1.
    9900012    2    1    2    0    0 -0.10002221548E+02 -0.14564938894E+01 -0.15764347377E+02  0.72461535876E+02  0.69999955164E+02 0.  0.
        -12    1    1    2    0    0  0.10002221548E+02  0.14564938894E+01  0.15764347377E+02  0.18726464124E+02  0.00000000000E+00 0.  1.
         11    1    3    3    0    0 -0.37151003125E+01 -0.30367227672E+01  0.16068488216E+01  0.50601994914E+01  0.51100000000E-03 0. -1.
        -11    1    3    3    0    0 -0.26650342957E+02 -0.11852072076E+02  0.99096590902E+01  0.30804443442E+02  0.51100000000E-03 0.  1.
         12    1    3    3    0    0  0.20363221721E+02  0.13432300954E+02 -0.27280855289E+02  0.36596892943E+02  0.00000000000E+00 0. -1.
</event>
<event>
 7    1  0.1358622E-013  0.7246163E+02  0.7816164E-02  0.1226708E+00
        -11   -1    0    0    0    0  0.00000000000E+00  0.00000000000E+00  0.45593999997E+02  0.45594000000E+02  0.51100000000E-03 0. -1.
         11   -1    0    0    0    0 -0.00000000000E+00 -0.00000000000E+00 -0.45593999997E+02  0.45594000000E+02  0.51100000000E-03 0.  1.
    9900012    2    1    2    0    0  0.32752667412E+01  0.87987372876E+01  0.16202833705E+02  0.72461629018E+02  0.70000076498E+02 0.  0.
        -12    1    1    2    0    0 -0.32752667412E+01 -0.87987372876E+01 -0.16202833705E+02  0.18726370982E+02  0.00000000000E+00 0.  1.
         11    1    3    3    0    0  0.77062926324E+01 -0.29248431151E+01  0.20596177339E+02  0.22184322721E+02  0.51100000000E-03 0. -1.
        -11    1    3    3    0    0 -0.13516976166E+02  0.81130841098E+01  0.19138367797E+02  0.24795320136E+02  0.51100000000E-03 0.  1.
        -12    1    3    3    0    0  0.90859502744E+01  0.36104962928E+01 -0.23531711430E+02  0.25481986161E+02  0.00000000000E+00 0.  1.
</event>
<event>
 7    1  0.1358622E-013  0.7246157E+02  0.7816164E-02  0.1226708E+00
        -11   -1    0    0    0    0  0.00000000000E+00  0.00000000000E+00  0.45593999997E+02  0.45594000000E+02  0.51100000000E-03 0.  1.
         11   -1    0    0    0    0 -0.00000000000E+00 -0.00000000000E+00 -0.45593999997E+02  0.45594000000E+02  0.51100000000E-03 0. -1.
    9900012    2    1    2    0    0 -0.84230670923E+01 -0.16238721540E+02  0.40043789566E+01  0.72461569819E+02  0.69999999381E+02 0.  0.
        -12    1    1    2    0    0  0.84230670923E+01  0.16238721540E+02 -0.40043789566E+01  0.18726430181E+02  0.00000000000E+00 0.  1.
         11    1    3    3    0    0  0.21586185732E+02 -0.13133472307E+02 -0.14333674332E+01  0.25308221031E+02  0.51100000000E-03 0. -1.
        -11    1    3    3    0    0  0.54048866066E+01 -0.16730135638E+01  0.99279308108E+01  0.11426967404E+02  0.51100000000E-03 0.  1.
        -12    1    3    3    0    0 -0.35414139431E+02 -0.14322356688E+01 -0.44901844211E+01  0.35726381384E+02  0.00000000000E+00 0.  1.
</event>
<event>
 7    1  0.1358622E-013  0.7246138E+02  0.7816164E-02  0.1226709E+00
        -11   -1    0    0    0    0  0.00000000000E+00  0.00000000000E+00  0.45593999997E+02  0.45594000000E+02  0.51100000000E-03 0. -1.
         11   -1    0    0    0    0 -0.00000000000E+00 -0.00000000000E+00 -0.45593999997E+02  0.45594000000E+02  0.51100000000E-03 0.  1.
    9900012    2    1    2    0    0  0.44839602864E+01  0.24945338257E+00  0.18180162385E+02  0.72461376407E+02  0.69999747425E+02 0.  0.
        -12    1    1    2    0    0 -0.44839602864E+01 -0.24945338257E+00 -0.18180162385E+02  0.18726623593E+02  0.00000000000E+00 0.  1.
         11    1    3    3    0    0  0.22591146785E+02 -0.54076990944E+01  0.20045045965E+02  0.30682356340E+02  0.51100000000E-03 0. -1.
        -11    1    3    3    0    0  0.10613590380E+02  0.67880428391E+01 -0.32214832413E+01  0.13003990959E+02  0.51100000000E-03 0.  1.
         12    1    3    3    0    0 -0.28720776878E+02 -0.11308903622E+01  0.13565996613E+01  0.28775029108E+02  0.00000000000E+00 0. -1.
</event>
<event>
 7    1  0.1358622E-013  0.7246158E+02  0.7816164E-02  0.1226708E+00
        -11   -1    0    0    0    0  0.00000000000E+00  0.00000000000E+00  0.45593999997E+02  0.45594000000E+02  0.51100000000E-03 0.  1.
         11   -1    0    0    0    0 -0.00000000000E+00 -0.00000000000E+00 -0.45593999997E+02  0.45594000000E+02  0.51100000000E-03 0. -1.
    9900012    2    1    2    0    0 -0.46614009243E+00  0.12868597864E+02 -0.13596353703E+02  0.72461576647E+02  0.70000008276E+02 0.  0.
        -12    1    1    2    0    0  0.46614009243E+00 -0.12868597864E+02  0.13596353703E+02  0.18726423353E+02  0.00000000000E+00 0.  1.
         11    1    3    3    0    0  0.49605814610E+01 -0.92741605135E+01 -0.28920019089E+01  0.10907845661E+02  0.51100000000E-03 0. -1.
        -11    1    3    3    0    0  0.24200628670E+02  0.92650006652E+01  0.37117945850E+01  0.26178007653E+02  0.51100000000E-03 0.  1.
         12    1    3    3    0    0 -0.29627350224E+02  0.12877757712E+02 -0.14416146379E+02  0.35375723334E+02  0.00000000000E+00 0. -1.
</event>
<event>
 7    1  0.1358622E-013  0.7246154E+02  0.7816164E-02  0.1226708E+00
        -11   -1    0    0    0    0  0.00000000000E+00  0.00000000000E+00  0.45593999997E+02  0.45594000000E+02  0.51100000000E-03 0. -1.
         11   -1    0    0    0    0 -0.00000000000E+00 -0.00000000000E+00 -0.45593999997E+02  0.45594000000E+02  0.51100000000E-03 0.  1.
    9900012    2    1    2    0    0 -0.16829262898E+01  0.11386102763E+02  0.14771754321E+02  0.72461540036E+02  0.69999960583E+02 0.  0.
        -12    1    1    2    0    0  0.16829262898E+01 -0.11386102763E+02 -0.14771754321E+02  0.18726459964E+02  0.00000000000E+00 0.  1.
         11    1    3    3    0    0 -0.26293551652E+02  0.19864969576E+02  0.55318756476E+01  0.33415109205E+02  0.51100000000E-03 0. -1.
        -11    1    3    3    0    0 -0.23584227435E+01 -0.71169807760E+01 -0.45042234105E+01  0.87465194218E+01  0.51100000000E-03 0.  1.
        -12    1    3    3    0    0  0.26969048106E+02 -0.13618860369E+01  0.13744102084E+02  0.30299911409E+02  0.00000000000E+00 0.  1.
</event>
<event>
 7    1  0.1358622E-013  0.7246159E+02  0.7816164E-02  0.1226708E+00
        -11   -1    0    0    0    0  0.00000000000E+00  0.00000000000E+00  0.45593999997E+02  0.45594000000E+02  0.51100000000E-03 0. -1.
         11   -1    0    0    0    0 -0.00000000000E+00 -0.00000000000E+00 -0.45593999997E+02  0.45594000000E+02  0.51100000000E-03 0.  1.
    9900012    2    1    2    0    0 -0.92210570896E+01  0.15785010358E+02  0.40600649239E+01  0.72461586221E+02  0.70000020747E+02 0.  0.
        -12    1    1    2    0    0  0.92210570896E+01 -0.15785010358E+02 -0.40600649239E+01  0.18726413779E+02  0.00000000000E+00 0.  1.
         11    1    3    3    0    0  0.10620245587E+02 -0.32944898314E+01  0.13097300579E+02  0.17180877809E+02  0.51100000000E-03 0. -1.
        -11    1    3    3    0    0 -0.16124541243E+01 -0.11262685128E+02 -0.15572054393E+02  0.19285667291E+02  0.51100000000E-03 0.  1.
         12    1    3    3    0    0 -0.18228848552E+02  0.30342185317E+02  0.65348187374E+01  0.35995041121E+02  0.00000000000E+00 0. -1.
</event>
<event>
 7    1  0.1358622E-013  0.7246147E+02  0.7816164E-02  0.1226708E+00
        -11   -1    0    0    0    0  0.00000000000E+00  0.00000000000E+00  0.45593999997E+02  0.45594000000E+02  0.51100000000E-03 0. -1.
         11   -1    0    0    0    0 -0.00000000000E+00 -0.00000000000E+00 -0.45593999997E+02  0.45594000000E+02  0.51100000000E-03 0.  1.
    9900012    2    1    2    0    0 -0.32092456790E+01 -0.18211296216E+02 -0.29550365095E+01  0.72461473134E+02  0.69999873430E+02 0.  0.
        -12    1    1    2    0    0  0.32092456790E+01  0.18211296216E+02  0.29550365095E+01  0.18726526866E+02  0.00000000000E+00 0.  1.
         11    1    3    3    0    0  0.57343533272E+01 -0.10151419051E+01  0.95170180131E+01  0.11157372150E+02  0.51100000000E-03 0. -1.
        -11    1    3    3    0    0 -0.99072467623E-01 -0.24461592133E+01  0.22340882561E+02  0.22474620000E+02  0.51100000000E-03 0.  1.
        -12    1    3    3    0    0 -0.88445265386E+01 -0.14749995098E+02 -0.34812937084E+02  0.38829480984E+02  0.00000000000E+00 0.  1.
</event>
<event>
 7    1  0.1358622E-013  0.7246128E+02  0.7816164E-02  0.1226709E+00
        -11   -1    0    0    0    0  0.00000000000E+00  0.00000000000E+00  0.45593999997E+02  0.45594000000E+02  0.51100000000E-03 0. -1.
         11   -1    0    0    0    0 -0.00000000000E+00 -0.00000000000E+00 -0.45593999997E+02  0.45594000000E+02  0.51100000000E-03 0.  1.
    9900012    2    1    2    0    0  0.16420155089E+02 -0.98539712293E+00  0.89497312989E+01  0.72461276022E+02  0.69999616654E+02 0.  0.
        -12    1    1    2    0    0 -0.16420155089E+02  0.98539712293E+00 -0.89497312989E+01  0.18726723978E+02  0.00000000000E+00 0.  1.
         11    1    3    3    0    0  0.22090035053E+02  0.17627437791E+02  0.10248311592E+02  0.30062004299E+02  0.51100000000E-03 0. -1.
        -11    1    3    3    0    0  0.87864514681E+01  0.52903289725E+01  0.79465416321E+01  0.12974468552E+02  0.51100000000E-03 0.  1.
        -12    1    3    3    0    0 -0.14456331432E+02 -0.23903163886E+02 -0.92451219253E+01  0.29424803171E+02  0.00000000000E+00 0.  1.
</event>
<event>
 7    1  0.1358622E-013  0.7246204E+02  0.7816164E-02  0.1226707E+00
        -11   -1    0    0    0    0  0.00000000000E+00  0.00000000000E+00  0.45593999997E+02  0.45594000000E+02  0.51100000000E-03 0.  1.
         11   -1    0    0    0    0 -0.00000000000E+00 -0.00000000000E+00 -0.45593999997E+02  0.45594000000E+02  0.51100000000E-03 0. -1.
    9900012    2    1    2    0    0 -0.10387602525E+02  0.70990729407E+01 -0.13869475617E+02  0.72462042702E+02  0.70000615396E+02 0.  0.
        -12    1    1    2    0    0  0.10387602525E+02 -0.70990729407E+01  0.13869475617E+02  0.18725957298E+02  0.00000000000E+00 0.  1.
         11    1    3    3    0    0 -0.31050482511E+02 -0.10071305821E+02 -0.47135365219E+01  0.32981526525E+02  0.51100000000E-03 0. -1.
        -11    1    3    3    0    0 -0.41113865069E+01 -0.40388288071E+01 -0.19191956232E+01  0.60744505302E+01  0.51100000000E-03 0.  1.
        -12    1    3    3    0    0  0.24774266493E+02  0.21209207568E+02 -0.72367434723E+01  0.33406065647E+02  0.00000000000E+00 0.  1.
</event>
<event>
 7    1  0.1358622E-013  0.7246158E+02  0.7816164E-02  0.1226708E+00
        -11   -1    0    0    0    0  0.00000000000E+00  0.00000000000E+00  0.45593999997E+02  0.45594000000E+02  0.51100000000E-03 0. -1.
         11   -1    0    0    0    0 -0.00000000000E+00 -0.00000000000E+00 -0.45593999997E+02  0.45594000000E+02  0.51100000000E-03 0.  1.
    9900012    2    1    2    0    0  0.15862942160E+02 -0.98865472813E+01  0.11410054422E+01  0.72461584312E+02  0.70000018261E+02 0.  0.
        -12    1    1    2    0    0 -0.15862942160E+02  0.98865472813E+01 -0.11410054422E+01  0.18726415688E+02  0.00000000000E+00 0.  1.
         11    1    3    3    0    0  0.52055779007E+01 -0.78347421842E+01  0.17678714139E+02  0.20025437829E+02  0.51100000000E-03 0. -1.
        -11    1    3    3    0    0  0.24932610482E+02  0.82647624475E+01  0.26384057344E+01  0.26398911888E+02  0.51100000000E-03 0.  1.
        -12    1    3    3    0    0 -0.14275246224E+02 -0.10316567545E+02 -0.19176114432E+02  0.26037234595E+02  0.00000000000E+00 0.  1.
</event>
<event>
 7    1  0.1358622E-013  0.7246151E+02  0.7816164E-02  0.1226708E+00
        -11   -1    0    0    0    0  0.00000000000E+00  0.00000000000E+00  0.45593999997E+02  0.45594000000E+02  0.51100000000E-03 0. -1.
         11   -1    0    0    0    0 -0.00000000000E+00 -0.00000000000E+00 -0.45593999997E+02  0.45594000000E+02  0.51100000000E-03 0.  1.
    9900012    2    1    2    0    0  0.84611393845E+00  0.18669526204E+02  0.11893049175E+01  0.72461506370E+02  0.69999916727E+02 0.  0.
        -12    1    1    2    0    0 -0.84611393845E+00 -0.18669526204E+02 -0.11893049175E+01  0.18726493630E+02  0.00000000000E+00 0.  1.
         11    1    3    3    0    0  0.15828334212E+01 -0.43034306603E+01 -0.17924798015E+01  0.49231962369E+01  0.51100000000E-03 0. -1.
        -11    1    3    3    0    0 -0.95895927558E+01 -0.16218895708E+02 -0.14445803335E+02  0.23742242975E+02  0.51100000000E-03 0.  1.
         12    1    3    3    0    0  0.88528732730E+01  0.39191852572E+02  0.17427588054E+02  0.43796067159E+02  0.00000000000E+00 0. -1.
</event>
<event>
 7    1  0.1358622E-013  0.7246155E+02  0.7816164E-02  0.1226708E+00
        -11   -1    0    0    0    0  0.00000000000E+00  0.00000000000E+00  0.45593999997E+02  0.45594000000E+02  0.51100000000E-03 0.  1.
         11   -1    0    0    0    0 -0.00000000000E+00 -0.00000000000E+00 -0.45593999997E+02  0.45594000000E+02  0.51100000000E-03 0. -1.
    9900012    2    1    2    0    0 -0.11002382136E+01 -0.17911228592E+02 -0.53532339866E+01  0.72461554851E+02  0.69999979882E+02 0.  0.
        -12    1    1    2    0    0  0.11002382136E+01  0.17911228592E+02  0.53532339866E+01  0.18726445149E+02  0.00000000000E+00 0.  1.
         11    1    3    3    0    0 -0.16332924419E+02 -0.18577426012E+02 -0.24733047967E+02  0.34980120630E+02  0.51100000000E-03 0. -1.
        -11    1    3    3    0    0 -0.41259494924E+00 -0.48142687172E+01 -0.56659131108E+01  0.74464749724E+01  0.51100000000E-03 0.  1.
        -12    1    3    3    0    0  0.15645281155E+02  0.54804661366E+01  0.25045727092E+02  0.30034959248E+02  0.00000000000E+00 0.  1.
</event>
<event>
 7    1  0.1358622E-013  0.7246161E+02  0.7816164E-02  0.1226708E+00
        -11   -1    0    0    0    0  0.00000000000E+00  0.00000000000E+00  0.45593999997E+02  0.45594000000E+02  0.51100000000E-03 0. -1.
         11   -1    0    0    0    0 -0.00000000000E+00 -0.00000000000E+00 -0.45593999997E+02  0.45594000000E+02  0.51100000000E-03 0.  1.
    9900012    2    1    2    0    0 -0.93881372390E+01 -0.13816794114E+02  0.84638534871E+01  0.72461608563E+02  0.70000049852E+02 0.  0.
        -12    1    1    2    0    0  0.93881372390E+01  0.13816794114E+02 -0.84638534871E+01  0.18726391437E+02  0.00000000000E+00 0.  1.
         11    1    3    3    0    0  0.46165450209E+01  0.12860401772E+02  0.16147701896E+02  0.21153030479E+02  0.51100000000E-03 0. -1.
        -11    1    3    3    0    0 -0.10348273993E+02  0.38051352036E+01 -0.16064702027E+02  0.19484365014E+02  0.51100000000E-03 0.  1.
        -12    1    3    3    0    0 -0.36564082670E+01 -0.30482331090E+02  0.83808536177E+01  0.31824213069E+02  0.00000000000E+00 0.  1.
</event>
<event>
 7    1  0.1358622E-013  0.7246156E+02  0.7816164E-02  0.1226708E+00
        -11   -1    0    0    0    0  0.00000000000E+00  0.00000000000E+00  0.45593999997E+02  0.45594000000E+02  0.51100000000E-03 0.  1.
         11   -1    0    0    0    0 -0.00000000000E+00 -0.00000000000E+00 -0.45593999997E+02  0.45594000000E+02  0.51100000000E-03 0. -1.
    9900012    2    1    2    0    0 -0.84578309714E+01  0.70302101020E+01 -0.15156549068E+02  0.72461555103E+02  0.69999980211E+02 0.  0.
        -12    1    1    2    0    0  0.84578309714E+01 -0.70302101020E+01  0.15156549068E+02  0.18726444897E+02  0.00000000000E+00 0.  1.
         11    1    3    3    0    0  0.15374257548E+02  0.67768338344E+01  0.21414799191E+02  0.27219237620E+02  0.51100000000E-03 0. -1.
        -11    1    3    3    0    0 -0.83337478233E-01  0.88324308943E-01  0.88394075560E+00  0.89224315036E+00  0.51100000000E-03 0.  1.
        -12    1    3    3    0    0 -0.23748751041E+02  0.16505195861E+00 -0.37455289015E+02  0.44350074333E+02  0.00000000000E+00 0.  1.
</event>
<event>
 7    1  0.1358622E-013  0.7246161E+02  0.7816164E-02  0.1226708E+00
        -11   -1    0    0    0    0  0.00000000000E+00  0.00000000000E+00  0.45593999997E+02  0.45594000000E+02  0.51100000000E-03 0. -1.
         11   -1    0    0    0    0 -0.00000000000E+00 -0.00000000000E+00 -0.45593999997E+02  0.45594000000E+02  0.51100000000E-03 0.  1.
    9900012    2    1    2    0    0  0.27454060866E+01 -0.35280505483E+01  0.18184972868E+02  0.72461611308E+02  0.70000053428E+02 0.  0.
        -12    1    1    2    0    0 -0.27454060866E+01  0.35280505483E+01 -0.18184972868E+02  0.18726388692E+02  0.00000000000E+00 0.  1.
         11    1    3    3    0    0  0.20697119550E+02  0.21119222446E+02  0.17307949168E+02  0.34263062021E+02  0.51100000000E-03 0. -1.
        -11    1    3    3    0    0  0.32428924055E+01  0.22415348464E+01 -0.15612722305E+00  0.39452763645E+01  0.51100000000E-03 0.  1.
        -12    1    3    3    0    0 -0.21194605869E+02 -0.26888807841E+02  0.10331509223E+01  0.34253272922E+02  0.00000000000E+00 0.  1.
</event>
<event>
 7    1  0.1358622E-013  0.7246155E+02  0.7816164E-02  0.1226708E+00
        -11   -1    0    0    0    0  0.00000000000E+00  0.00000000000E+00  0.45593999997E+02  0.45594000000E+02  0.51100000000E-03 0. -1.
         11   -1    0    0    0    0 -0.00000000000E+00 -0.00000000000E+00 -0.45593999997E+02  0.45594000000E+02  0.51100000000E-03 0.  1.
    9900012    2    1    2    0    0  0.86904618792E+00  0.17601031826E+02  0.63346833303E+01  0.72461554114E+02  0.69999978922E+02 0.  0.
        -12    1    1    2    0    0 -0.86904618792E+00 -0.17601031826E+02 -0.63346833303E+01  0.18726445886E+02  0.00000000000E+00 0.  1.
         11    1    3    3    0    0 -0.11571818570E+02 -0.22086065346E+01 -0.14008537815E+02  0.18303662470E+02  0.51100000000E-03 0. -1.
        -11    1    3    3    0    0  0.66615422034E+01 -0.14611955021E+01 -0.12712996817E+02  0.14426764195E+02  0.51100000000E-03 0.  1.
         12    1    3    3    0    0  0.57793225544E+01  0.21270833863E+02  0.33056217962E+02  0.39731127449E+02  0.00000000000E+00 0. -1.
</event>
<event>
 7    1  0.1358622E-013  0.7246150E+02  0.7816164E-02  0.1226708E+00
        -11   -1    0    0    0    0  0.00000000000E+00  0.00000000000E+00  0.45593999997E+02  0.45594000000E+02  0.51100000000E-03 0. -1.
         11   -1    0    0    0    0 -0.00000000000E+00 -0.00000000000E+00 -0.45593999997E+02  0.45594000000E+02  0.51100000000E-03 0.  1.
    9900012    2    1    2    0    0  0.97972240902E+01  0.15838842278E+02  0.19563596032E+01  0.72461498259E+02  0.69999906160E+02 0.  0.
        -12    1    1    2    0    0 -0.97972240902E+01 -0.15838842278E+02 -0.19563596032E+01  0.18726501741E+02  0.00000000000E+00 0.  1.
         11    1    3    3    0    0  0.53431385859E+01  0.69005846141E+01 -0.30218998388E+01  0.92357499350E+01  0.51100000000E-03 0. -1.
        -11    1    3    3    0    0  0.29233065830E+02  0.12742544002E+02  0.16189500087E+02  0.35763731331E+02  0.51100000000E-03 0.  1.
        -12    1    3    3    0    0 -0.24778980325E+02 -0.38042863382E+01 -0.11211240645E+02  0.27462016992E+02  0.00000000000E+00 0.  1.
</event>
<event>
 7    1  0.1358622E-013  0.7246162E+02  0.7816164E-02  0.1226708E+00
        -11   -1    0    0    0    0  0.00000000000E+00  0.00000000000E+00  0.45593999997E+02  0.45594000000E+02  0.51100000000E-03 0. -1.
         11   -1    0    0    0    0 -0.00000000000E+00 -0.00000000000E+00 -0.45593999997E+02  0.45594000000E+02  0.51100000000E-03 0.  1.
    9900012    2    1    2    0    0  0.18391984353E+02 -0.26350913087E+01  0.23384798785E+01  0.72461620670E+02  0.70000065624E+02 0.  0.
        -12    1    1    2    0    0 -0.18391984353E+02  0.26350913087E+01 -0.23384798785E+01  0.18726379330E+02  0.00000000000E+00 0.  1.
         11    1    3    3    0    0  0.21203682941E+02 -0.70994015573E+01 -0.15012899026E+02  0.26932968833E+02  0.51100000000E-03 0. -1.
        -11    1    3    3    0    0  0.11660252171E+02 -0.12075626430E+01 -0.91055433537E+01  0.14843537593E+02  0.51100000000E-03 0.  1.
         12    1    3    3    0    0 -0.14471950759E+02  0.56718728915E+01  0.26456922258E+02  0.30685114245E+02  0.00000000000E+00 0. -1.
</event>
<event>
 7    1  0.1358622E-013  0.7246160E+02  0.7816164E-02  0.1226708E+00
        -11   -1    0    0    0    0  0.00000000000E+00  0.00000000000E+00  0.45593999997E+02  0.45594000000E+02  0.51100000000E-03 0. -1.
         11   -1    0    0    0    0 -0.00000000000E+00 -0.00000000000E+00 -0.45593999997E+02  0.45594000000E+02  0.51100000000E-03 0.  1.
    9900012    2    1    2    0    0  0.75040253945E+01  0.89355141413E+01  0.14646645870E+02  0.72461600311E+02  0.70000039102E+02 0.  0.
        -12    1    1    2    0    0 -0.75040253945E+01 -0.89355141413E+01 -0.14646645870E+02  0.18726399689E+02  0.00000000000E+00 0.  1.
         11    1    3    3    0    0 -0.15338983353E+02 -0.20252249506E+02  0.65944812846E+01  0.26247384708E+02  0.51100000000E-03 0. -1.
        -11    1    3    3    0    0 -0.21555019918E+01  0.15284594210E+01 -0.58541676377E+01  0.64229009046E+01  0.51100000000E-03 0.  1.
        -12    1    3    3    0    0  0.24998510739E+02  0.27659304226E+02  0.13906332223E+02  0.39791314698E+02  0.00000000000E+00 0.  1.
</event>
<event>
 7    1  0.1358622E-013  0.7246166E+02  0.7816164E-02  0.1226708E+00
        -11   -1    0    0    0    0  0.00000000000E+00  0.00000000000E+00  0.45593999997E+02  0.45594000000E+02  0.51100000000E-03 0.  1.
         11   -1    0    0    0    0 -0.00000000000E+00 -0.00000000000E+00 -0.45593999997E+02  0.45594000000E+02  0.51100000000E-03 0. -1.
    9900012    2    1    2    0    0 -0.64041818685E+01  0.17375901507E+02 -0.27821416890E+01  0.72461659969E+02  0.70000116818E+02 0.  0.
        -12    1    1    2    0    0  0.64041818685E+01 -0.17375901507E+02  0.27821416890E+01  0.18726340031E+02  0.00000000000E+00 0.  1.
         11    1    3    3    0    0 -0.31940959245E+02  0.24602221522E+02 -0.66604924154E+01  0.40863875744E+02  0.51100000000E-03 0. -1.
        -11    1    3    3    0    0  0.11599884467E+02  0.44833347304E+01 -0.17170333952E+01  0.12554115417E+02  0.51100000000E-03 0.  1.
        -12    1    3    3    0    0  0.13936892909E+02 -0.11709654746E+02  0.55953841216E+01  0.19043668809E+02  0.00000000000E+00 0.  1.
</event>
<event>
 7    1  0.1358622E-013  0.7246155E+02  0.7816164E-02  0.1226708E+00
        -11   -1    0    0    0    0  0.00000000000E+00  0.00000000000E+00  0.45593999997E+02  0.45594000000E+02  0.51100000000E-03 0. -1.
         11   -1    0    0    0    0 -0.00000000000E+00 -0.00000000000E+00 -0.45593999997E+02  0.45594000000E+02  0.51100000000E-03 0.  1.
    9900012    2    1    2    0    0  0.14593011820E+02  0.66400677063E+01  0.96764414191E+01  0.72461547809E+02  0.69999970709E+02 0.  0.
        -12    1    1    2    0    0 -0.14593011820E+02 -0.66400677063E+01 -0.96764414191E+01  0.18726452191E+02  0.00000000000E+00 0.  1.
         11    1    3    3    0    0  0.75154220463E+01  0.78025345851E+01  0.18586804327E+02  0.21513493669E+02  0.51100000000E-03 0. -1.
        -11    1    3    3    0    0  0.15150592088E+02  0.73876565573E+01  0.16101125039E+02  0.23310172411E+02  0.51100000000E-03 0.  1.
        -12    1    3    3    0    0 -0.80730023147E+01 -0.85501234362E+01 -0.25011487947E+02  0.27637881729E+02  0.00000000000E+00 0.  1.
</event>
<event>
 7    1  0.1358622E-013  0.7246150E+02  0.7816164E-02  0.1226708E+00
        -11   -1    0    0    0    0  0.00000000000E+00  0.00000000000E+00  0.45593999997E+02  0.45594000000E+02  0.51100000000E-03 0.  1.
         11   -1    0    0    0    0 -0.00000000000E+00 -0.00000000000E+00 -0.45593999997E+02  0.45594000000E+02  0.51100000000E-03 0. -1.
    9900012    2    1    2    0    0  0.22114542147E+01  0.12392261320E+02 -0.13864454697E+02  0.72461500743E+02  0.69999909397E+02 0.  0.
        -12    1    1    2    0    0 -0.22114542147E+01 -0.12392261320E+02  0.13864454697E+02  0.18726499257E+02  0.00000000000E+00 0.  1.
         11    1    3    3    0    0  0.41539596855E+00 -0.72092968673E+01  0.15241463399E+02  0.16865607666E+02  0.51100000000E-03 0. -1.
        -11    1    3    3    0    0  0.18954044639E+02  0.21694231887E+02 -0.24211968005E+02  0.37631302134E+02  0.51100000000E-03 0.  1.
         12    1    3    3    0    0 -0.17157986393E+02 -0.20926736996E+01 -0.48939500915E+01  0.17964590944E+02  0.00000000000E+00 0. -1.
</event>
<event>
 7    1  0.1358622E-013  0.7246157E+02  0.7816164E-02  0.1226708E+00
        -11   -1    0    0    0    0  0.00000000000E+00  0.00000000000E+00  0.45593999997E+02  0.45594000000E+02  0.51100000000E-03 0. -1.
         11   -1    0    0    0    0 -0.00000000000E+00 -0.00000000000E+00 -0.45593999997E+02  0.45594000000E+02  0.51100000000E-03 0.  1.
    9900012    2    1    2    0    0 -0.16395283758E+02 -0.87282505648E+01 -0.23856794007E+01  0.72461570718E+02  0.70000000552E+02 0.  0.
        -12    1    1    2    0    0  0.16395283758E+02  0.87282505648E+01  0.23856794007E+01  0.18726429282E+02  0.00000000000E+00 0.  1.
         11    1    3    3    0    0  0.20697584294E+00 -0.17960610117E+01 -0.61983638580E+00  0.19112486923E+01  0.51100000000E-03 0. -1.
        -11    1    3    3    0    0 -0.33555306291E+02 -0.82451337150E+01 -0.24356803191E+02  0.42275225277E+02  0.51100000000E-03 0.  1.
         12    1    3    3    0    0  0.16953046690E+02  0.13129441619E+01  0.22590960176E+02  0.28275096749E+02  0.00000000000E+00 0. -1.
</event>
<event>
 7    1  0.1358622E-013  0.7246156E+02  0.7816164E-02  0.1226708E+00
        -11   -1    0    0    0    0  0.00000000000E+00  0.00000000000E+00  0.45593999997E+02  0.45594000000E+02  0.51100000000E-03 0. -1.
         11   -1    0    0    0    0 -0.00000000000E+00 -0.00000000000E+00 -0.45593999997E+02  0.45594000000E+02  0.51100000000E-03 0.  1.
    9900012    2    1    2    0    0  0.53558306513E+01 -0.14861875286E+02  0.10055814688E+02  0.72461556984E+02  0.69999982661E+02 0.  0.
        -12    1    1    2    0    0 -0.53558306513E+01  0.14861875286E+02 -0.10055814688E+02  0.18726443016E+02  0.00000000000E+00 0.  1.
         11    1    3    3    0    0 -0.14774595937E+01  0.12250240970E+00  0.90696189983E+01  0.91899881788E+01  0.51100000000E-03 0. -1.
        -11    1    3    3    0    0 -0.23560774585E+02  0.10576366964E+01  0.12919067997E+02  0.26891095414E+02  0.51100000000E-03 0.  1.
         12    1    3    3    0    0  0.30394064830E+02 -0.16042014392E+02 -0.11932872307E+02  0.36380473391E+02  0.00000000000E+00 0. -1.
</event>
<event>
 7    1  0.1358622E-013  0.7246163E+02  0.7816164E-02  0.1226708E+00
        -11   -1    0    0    0    0  0.00000000000E+00  0.00000000000E+00  0.45593999997E+02  0.45594000000E+02  0.51100000000E-03 0.  1.
         11   -1    0    0    0    0 -0.00000000000E+00 -0.00000000000E+00 -0.45593999997E+02  0.45594000000E+02  0.51100000000E-03 0. -1.
    9900012    2    1    2    0    0 -0.13861018803E+02 -0.93610526971E+01  0.84213883793E+01  0.72461630034E+02  0.70000077822E+02 0.  0.
        -12    1    1    2    0    0  0.13861018803E+02  0.93610526971E+01 -0.84213883793E+01  0.18726369966E+02  0.00000000000E+00 0.  1.
         11    1    3    3    0    0 -0.23450784498E+01  0.12086005011E+02  0.91594095233E+01  0.15344891435E+02  0.51100000000E-03 0. -1.
        -11    1    3    3    0    0 -0.21400267936E+02 -0.78804866409E+00  0.17646436910E+02  0.27748679685E+02  0.51100000000E-03 0.  1.
         12    1    3    3    0    0  0.98843275824E+01 -0.20659009044E+02 -0.18384458054E+02  0.29368058914E+02  0.00000000000E+00 0. -1.
</event>
<event>
 7    1  0.1358622E-013  0.7246148E+02  0.7816164E-02  0.1226708E+00
        -11   -1    0    0    0    0  0.00000000000E+00  0.00000000000E+00  0.45593999997E+02  0.45594000000E+02  0.51100000000E-03 0.  1.
         11   -1    0    0    0    0 -0.00000000000E+00 -0.00000000000E+00 -0.45593999997E+02  0.45594000000E+02  0.51100000000E-03 0. -1.
    9900012    2    1    2    0    0  0.11260312360E+02  0.11059567392E+02 -0.10078388744E+02  0.72461479100E+02  0.69999881203E+02 0.  0.
        -12    1    1    2    0    0 -0.11260312360E+02 -0.11059567392E+02  0.10078388744E+02  0.18726520900E+02  0.00000000000E+00 0.  1.
         11    1    3    3    0    0  0.57022830594E+00  0.25499199237E+02  0.24575508165E+00  0.25506758278E+02  0.51100000000E-03 0. -1.
        -11    1    3    3    0    0 -0.64851166570E+01 -0.11915282361E+01  0.13323383149E+02  0.14865699324E+02  0.51100000000E-03 0.  1.
         12    1    3    3    0    0  0.17175200711E+02 -0.13248103609E+02 -0.23647526975E+02  0.32089021498E+02  0.00000000000E+00 0. -1.
</event>
<event>
 7    1  0.1358622E-013  0.7246154E+02  0.7816164E-02  0.1226708E+00
        -11   -1    0    0    0    0  0.00000000000E+00  0.00000000000E+00  0.45593999997E+02  0.45594000000E+02  0.51100000000E-03 0. -1.
         11   -1    0    0    0    0 -0.00000000000E+00 -0.00000000000E+00 -0.45593999997E+02  0.45594000000E+02  0.51100000000E-03 0.  1.
    9900012    2    1    2    0    0 -0.14920043366E+02 -0.40734372049E+01 -0.10558388780E+02  0.72461543893E+02  0.69999965607E+02 0.  0.
        -12    1    1    2    0    0  0.14920043366E+02  0.40734372049E+01  0.10558388780E+02  0.18726456107E+02  0.00000000000E+00 0.  1.
         11    1    3    3    0    0 -0.90069879960E+01  0.14170214093E+02  0.80353551721E+01  0.18614180970E+02  0.51100000000E-03 0. -1.
        -11    1    3    3    0    0 -0.15382226806E+02 -0.28940088335E+02 -0.21596136486E+02  0.39249646186E+02  0.51100000000E-03 0.  1.
         12    1    3    3    0    0  0.94691714352E+01  0.10696437038E+02  0.30023925342E+01  0.14597716736E+02  0.00000000000E+00 0. -1.
</event>
<event>
 7    1  0.1358622E-013  0.7246158E+02  0.7816164E-02  0.1226708E+00
        -11   -1    0    0    0    0  0.00000000000E+00  0.00000000000E+00  0.45593999997E+02  0.45594000000E+02  0.51100000000E-03 0. -1.
         11   -1    0    0    0    0 -0.00000000000E+00 -0.00000000000E+00 -0.45593999997E+02  0.45594000000E+02  0.51100000000E-03 0.  1.
    9900012    2    1    2    0    0  0.34287564756E+01 -0.17601317133E+02  0.53959256689E+01  0.72461581506E+02  0.70000014605E+02 0.  0.
        -12    1    1    2    0    0 -0.34287564756E+01  0.17601317133E+02 -0.53959256689E+01  0.18726418494E+02  0.00000000000E+00 0.  1.
         11    1    3    3    0    0 -0.60719911977E+01 -0.23966861934E+02 -0.62261674480E+01  0.25495974377E+02  0.51100000000E-03 0. -1.
        -11    1    3    3    0    0 -0.63212195077E+01 -0.12135529317E+02 -0.78652193255E+01  0.15782603181E+02  0.51100000000E-03 0.  1.
         12    1    3    3    0    0  0.15821967181E+02  0.18501074118E+02  0.19487312442E+02  0.31183003948E+02  0.00000000000E+00 0. -1.
</event>
<event>
 7    1  0.1358622E-013  0.7246148E+02  0.7816164E-02  0.1226708E+00
        -11   -1    0    0    0    0  0.00000000000E+00  0.00000000000E+00  0.45593999997E+02  0.45594000000E+02  0.51100000000E-03 0.  1.
         11   -1    0    0    0    0 -0.00000000000E+00 -0.00000000000E+00 -0.45593999997E+02  0.45594000000E+02  0.51100000000E-03 0. -1.
    9900012    2    1    2    0    0 -0.54501125086E+01 -0.11033116748E+02 -0.14115561506E+02  0.72461482220E+02  0.69999885267E+02 0.  0.
        -12    1    1    2    0    0  0.54501125086E+01  0.11033116748E+02  0.14115561506E+02  0.18726517780E+02  0.00000000000E+00 0.  1.
         11    1    3    3    0    0 -0.77846928630E+00 -0.29742559269E+02 -0.32610855162E+02  0.44144011156E+02  0.51100000000E-03 0. -1.
        -11    1    3    3    0    0 -0.17977176344E+01  0.26097460428E+01  0.86883290146E+01  0.92482227713E+01  0.51100000000E-03 0.  1.
        -12    1    3    3    0    0 -0.28739255879E+01  0.16099696478E+02  0.98069646412E+01  0.19069248293E+02  0.00000000000E+00 0.  1.
</event>
<event>
 7    1  0.1358622E-013  0.7246139E+02  0.7816164E-02  0.1226709E+00
        -11   -1    0    0    0    0  0.00000000000E+00  0.00000000000E+00  0.45593999997E+02  0.45594000000E+02  0.51100000000E-03 0.  1.
         11   -1    0    0    0    0 -0.00000000000E+00 -0.00000000000E+00 -0.45593999997E+02  0.45594000000E+02  0.51100000000E-03 0. -1.
    9900012    2    1    2    0    0  0.14641717340E+02 -0.11574338092E+02  0.15299988324E+01  0.72461385641E+02  0.69999759454E+02 0.  0.
        -12    1    1    2    0    0 -0.14641717340E+02  0.11574338092E+02 -0.15299988324E+01  0.18726614359E+02  0.00000000000E+00 0.  1.
         11    1    3    3    0    0 -0.13010913981E+01 -0.14881453561E+02 -0.40996353768E+01  0.15490561946E+02  0.51100000000E-03 0. -1.
        -11    1    3    3    0    0 -0.72959914206E+00 -0.13484873340E+02 -0.18677135527E+02  0.23047982898E+02  0.51100000000E-03 0.  1.
        -12    1    3    3    0    0  0.16672407880E+02  0.16791988809E+02  0.24306769736E+02  0.33922840796E+02  0.00000000000E+00 0.  1.
</event>
<event>
 7    1  0.1358622E-013  0.7246156E+02  0.7816164E-02  0.1226708E+00
        -11   -1    0    0    0    0  0.00000000000E+00  0.00000000000E+00  0.45593999997E+02  0.45594000000E+02  0.51100000000E-03 0.  1.
         11   -1    0    0    0    0 -0.00000000000E+00 -0.00000000000E+00 -0.45593999997E+02  0.45594000000E+02  0.51100000000E-03 0. -1.
    9900012    2    1    2    0    0  0.18307015273E+02  0.34398435706E+01 -0.19236071015E+01  0.72461558900E+02  0.69999985156E+02 0.  0.
        -12    1    1    2    0    0 -0.18307015273E+02 -0.34398435706E+01  0.19236071015E+01  0.18726441100E+02  0.00000000000E+00 0.  1.
         11    1    3    3    0    0  0.88976308845E+01 -0.17119976615E+02  0.16158565039E+00  0.19294754335E+02  0.51100000000E-03 0. -1.
        -11    1    3    3    0    0  0.48961625433E+00 -0.11801799176E+02  0.11931669788E+02  0.16789488738E+02  0.51100000000E-03 0.  1.
         12    1    3    3    0    0  0.89197681343E+01  0.32361619362E+02 -0.14016862540E+02  0.36377315827E+02  0.00000000000E+00 0. -1.
</event>
<event>
 7    1  0.1358622E-013  0.7246160E+02  0.7816164E-02  0.1226708E+00
        -11   -1    0    0    0    0  0.00000000000E+00  0.00000000000E+00  0.45593999997E+02  0.45594000000E+02  0.51100000000E-03 0. -1.
         11   -1    0    0    0    0 -0.00000000000E+00 -0.00000000000E+00 -0.45593999997E+02  0.45594000000E+02  0.51100000000E-03 0.  1.
    9900012    2    1    2    0    0 -0.10882328536E+02  0.62413499534E+01  0.13903182488E+02  0.72461601336E+02  0.70000040438E+02 0.  0.
        -12    1    1    2    0    0  0.10882328536E+02 -0.62413499534E+01 -0.13903182488E+02  0.18726398664E+02  0.00000000000E+00 0.  1.
         11    1    3    3    0    0  0.45010347751E+01  0.18543805871E+02 -0.14228512055E+02  0.23802995731E+02  0.51100000000E-03 0.  1.
        -11    1    3    3    0    0  0.69114320248E+01 -0.10024179026E+02 -0.63517937986E+00  0.12192436627E+02  0.51100000000E-03 0. -1.
        -12    1    3    3    0    0 -0.22294795336E+02 -0.22782768909E+01  0.28766873923E+02  0.36466168979E+02  0.00000000000E+00 0.  1.
</event>
<event>
 7    1  0.1358622E-013  0.7246176E+02  0.7816164E-02  0.1226707E+00
        -11   -1    0    0    0    0  0.00000000000E+00  0.00000000000E+00  0.45593999997E+02  0.45594000000E+02  0.51100000000E-03 0. -1.
         11   -1    0    0    0    0 -0.00000000000E+00 -0.00000000000E+00 -0.45593999997E+02  0.45594000000E+02  0.51100000000E-03 0.  1.
    9900012    2    1    2    0    0  0.15183524575E+02 -0.41539624796E+01 -0.10142834757E+02  0.72461763867E+02  0.70000252163E+02 0.  0.
        -12    1    1    2    0    0 -0.15183524575E+02  0.41539624796E+01  0.10142834757E+02  0.18726236133E+02  0.00000000000E+00 0.  1.
         11    1    3    3    0    0  0.21760451596E+02  0.12505615509E+01  0.69945663632E+01  0.22891158047E+02  0.51100000000E-03 0. -1.
        -11    1    3    3    0    0  0.12683757506E+02 -0.13304567911E+02  0.51332825710E+01  0.19085068038E+02  0.51100000000E-03 0.  1.
        -12    1    3    3    0    0 -0.19260684527E+02  0.79000438808E+01 -0.22270683691E+02  0.30485537782E+02  0.00000000000E+00 0.  1.
</event>
<event>
 7    1  0.1358622E-013  0.7246155E+02  0.7816164E-02  0.1226708E+00
        -11   -1    0    0    0    0  0.00000000000E+00  0.00000000000E+00  0.45593999997E+02  0.45594000000E+02  0.51100000000E-03 0. -1.
         11   -1    0    0    0    0 -0.00000000000E+00 -0.00000000000E+00 -0.45593999997E+02  0.45594000000E+02  0.51100000000E-03 0.  1.
    9900012    2    1    2    0    0  0.16874177250E+01 -0.18306793940E+02  0.35628431578E+01  0.72461549874E+02  0.69999973399E+02 0.  0.
        -12    1    1    2    0    0 -0.16874177250E+01  0.18306793940E+02 -0.35628431578E+01  0.18726450126E+02  0.00000000000E+00 0.  1.
         11    1    3    3    0    0  0.28621176062E+01  0.85865181721E+00 -0.55318161741E+01  0.62872880147E+01  0.51100000000E-03 0. -1.
        -11    1    3    3    0    0  0.18844942089E+02 -0.15212845513E+02 -0.19466272322E+02  0.31072468027E+02  0.51100000000E-03 0.  1.
         12    1    3    3    0    0 -0.20019641970E+02 -0.39526002447E+01  0.28560931654E+02  0.35101793832E+02  0.00000000000E+00 0. -1.
</event>
<event>
 7    1  0.1358622E-013  0.7246155E+02  0.7816164E-02  0.1226708E+00
        -11   -1    0    0    0    0  0.00000000000E+00  0.00000000000E+00  0.45593999997E+02  0.45594000000E+02  0.51100000000E-03 0. -1.
         11   -1    0    0    0    0 -0.00000000000E+00 -0.00000000000E+00 -0.45593999997E+02  0.45594000000E+02  0.51100000000E-03 0.  1.
    9900012    2    1    2    0    0 -0.17077603970E+02 -0.34602450538E+01  0.68601922344E+01  0.72461545699E+02  0.69999967960E+02 0.  0.
        -12    1    1    2    0    0  0.17077603970E+02  0.34602450538E+01 -0.68601922344E+01  0.18726454301E+02  0.00000000000E+00 0.  1.
         11    1    3    3    0    0 -0.18062676955E+01 -0.83777434620E+01  0.14480509458E+02  0.16826596297E+02  0.51100000000E-03 0. -1.
        -11    1    3    3    0    0 -0.68152044225E+01 -0.16714605604E+02  0.14808013939E+02  0.23347426601E+02  0.51100000000E-03 0.  1.
         12    1    3    3    0    0 -0.84561318519E+01  0.21632104012E+02 -0.22428331163E+02  0.32287522801E+02  0.00000000000E+00 0. -1.
</event>
<event>
 7    1  0.1358622E-013  0.7246169E+02  0.7816164E-02  0.1226708E+00
        -11   -1    0    0    0    0  0.00000000000E+00  0.00000000000E+00  0.45593999997E+02  0.45594000000E+02  0.51100000000E-03 0.  1.
         11   -1    0    0    0    0 -0.00000000000E+00 -0.00000000000E+00 -0.45593999997E+02  0.45594000000E+02  0.51100000000E-03 0. -1.
    9900012    2    1    2    0    0  0.12454634834E+02  0.16394710796E+01 -0.13887722570E+02  0.72461691435E+02  0.70000157809E+02 0.  0.
        -12    1    1    2    0    0 -0.12454634834E+02 -0.16394710796E+01  0.13887722570E+02  0.18726308565E+02  0.00000000000E+00 0.  1.
         11    1    3    3    0    0  0.17703696261E+02  0.41084985822E+01 -0.19392984026E+02  0.26577969291E+02  0.51100000000E-03 0. -1.
        -11    1    3    3    0    0  0.87450369232E+01  0.16354650285E+02  0.11307409330E+02  0.21721136314E+02  0.51100000000E-03 0.  1.
        -12    1    3    3    0    0 -0.13994098350E+02 -0.18823677788E+02 -0.58021478736E+01  0.24162585831E+02  0.00000000000E+00 0.  1.
</event>
<event>
 7    1  0.1358622E-013  0.7246139E+02  0.7816164E-02  0.1226708E+00
        -11   -1    0    0    0    0  0.00000000000E+00  0.00000000000E+00  0.45593999997E+02  0.45594000000E+02  0.51100000000E-03 0. -1.
         11   -1    0    0    0    0 -0.00000000000E+00 -0.00000000000E+00 -0.45593999997E+02  0.45594000000E+02  0.51100000000E-03 0.  1.
    9900012    2    1    2    0    0 -0.16987947967E+02  0.68410572363E+01 -0.39109206853E+01  0.72461394839E+02  0.69999771437E+02 0.  0.
        -12    1    1    2    0    0  0.16987947967E+02 -0.68410572363E+01  0.39109206853E+01  0.18726605161E+02  0.00000000000E+00 0.  1.
         11    1    3    3    0    0  0.24844336532E+02  0.68104571323E+01  0.54086464983E+01  0.26322553852E+02  0.51100000000E-03 0. -1.
        -11    1    3    3    0    0  0.36442883325E+00  0.80624815322E+00 -0.34104207718E+01  0.35233243622E+01  0.51100000000E-03 0.  1.
        -12    1    3    3    0    0 -0.42196713332E+02 -0.77564804926E+00 -0.59091464118E+01  0.42615516625E+02  0.00000000000E+00 0.  1.
</event>
<event>
 7    1  0.1358622E-013  0.7246155E+02  0.7816164E-02  0.1226708E+00
        -11   -1    0    0    0    0  0.00000000000E+00  0.00000000000E+00  0.45593999997E+02  0.45594000000E+02  0.51100000000E-03 0. -1.
         11   -1    0    0    0    0 -0.00000000000E+00 -0.00000000000E+00 -0.45593999997E+02  0.45594000000E+02  0.51100000000E-03 0.  1.
    9900012    2    1    2    0    0  0.48237419977E+01  0.67609485942E+01  0.16783946643E+02  0.72461554056E+02  0.69999978847E+02 0.  0.
        -12    1    1    2    0    0 -0.48237419977E+01 -0.67609485942E+01 -0.16783946643E+02  0.18726445944E+02  0.00000000000E+00 0.  1.
         11    1    3    3    0    0 -0.36642846630E+01 -0.45948365846E+01  0.62238139298E+01  0.85601031200E+01  0.51100000000E-03 0. -1.
        -11    1    3    3    0    0 -0.18497484529E+02  0.45434859895E+01 -0.16413164903E+02  0.25143432169E+02  0.51100000000E-03 0.  1.
         12    1    3    3    0    0  0.26985511190E+02  0.68122991893E+01  0.26973297617E+02  0.38758018767E+02  0.00000000000E+00 0. -1.
</event>
<event>
 7    1  0.1358622E-013  0.7246149E+02  0.7816164E-02  0.1226708E+00
        -11   -1    0    0    0    0  0.00000000000E+00  0.00000000000E+00  0.45593999997E+02  0.45594000000E+02  0.51100000000E-03 0.  1.
         11   -1    0    0    0    0 -0.00000000000E+00 -0.00000000000E+00 -0.45593999997E+02  0.45594000000E+02  0.51100000000E-03 0. -1.
    9900012    2    1    2    0    0 -0.75061635279E+01 -0.11327911411E+02 -0.12884796757E+02  0.72461493243E+02  0.69999899627E+02 0.  0.
        -12    1    1    2    0    0  0.75061635279E+01  0.11327911411E+02  0.12884796757E+02  0.18726506757E+02  0.00000000000E+00 0.  1.
         11    1    3    3    0    0  0.15370115436E+02  0.10194447192E+02 -0.73783788920E+01  0.19864734516E+02  0.51100000000E-03 0. -1.
        -11    1    3    3    0    0  0.63807517211E+01  0.59925495471E+01  0.62418017394E+01  0.10751033988E+02  0.51100000000E-03 0.  1.
        -12    1    3    3    0    0 -0.29257030685E+02 -0.27514908150E+02 -0.11748219604E+02  0.41845724739E+02  0.00000000000E+00 0.  1.
</event>
<event>
 7    1  0.1358622E-013  0.7246154E+02  0.7816164E-02  0.1226708E+00
        -11   -1    0    0    0    0  0.00000000000E+00  0.00000000000E+00  0.45593999997E+02  0.45594000000E+02  0.51100000000E-03 0. -1.
         11   -1    0    0    0    0 -0.00000000000E+00 -0.00000000000E+00 -0.45593999997E+02  0.45594000000E+02  0.51100000000E-03 0.  1.
    9900012    2    1    2    0    0  0.48701825615E+01 -0.27568009286E+01  0.17870688925E+02  0.72461544057E+02  0.69999965821E+02 0.  0.
        -12    1    1    2    0    0 -0.48701825615E+01  0.27568009286E+01 -0.17870688925E+02  0.18726455943E+02  0.00000000000E+00 0.  1.
         11    1    3    3    0    0 -0.19938639136E+02  0.80093577042E+01  0.13735564157E+02  0.25502252143E+02  0.51100000000E-03 0. -1.
        -11    1    3    3    0    0 -0.46817834571E+00  0.10836585284E+02  0.80098646269E+01  0.13483645768E+02  0.51100000000E-03 0.  1.
        -12    1    3    3    0    0  0.25277000043E+02 -0.21602743917E+02 -0.38747398588E+01  0.33475646146E+02  0.00000000000E+00 0.  1.
</event>
<event>
 7    1  0.1358622E-013  0.7246162E+02  0.7816164E-02  0.1226708E+00
        -11   -1    0    0    0    0  0.00000000000E+00  0.00000000000E+00  0.45593999997E+02  0.45594000000E+02  0.51100000000E-03 0.  1.
         11   -1    0    0    0    0 -0.00000000000E+00 -0.00000000000E+00 -0.45593999997E+02  0.45594000000E+02  0.51100000000E-03 0. -1.
    9900012    2    1    2    0    0  0.10453314993E+02 -0.57791183797E+01 -0.14422455845E+02  0.72461621915E+02  0.70000067246E+02 0.  0.
        -12    1    1    2    0    0 -0.10453314993E+02  0.57791183797E+01  0.14422455845E+02  0.18726378085E+02  0.00000000000E+00 0.  1.
         11    1    3    3    0    0  0.63805793571E+01 -0.13248514486E+02 -0.39662042932E+01  0.15230420407E+02  0.51100000000E-03 0. -1.
        -11    1    3    3    0    0  0.18343220808E+02  0.84482855170E+01  0.16917943276E+02  0.26345095991E+02  0.51100000000E-03 0.  1.
         12    1    3    3    0    0 -0.14270485173E+02 -0.97888941023E+00 -0.27374194828E+02  0.30886105517E+02  0.00000000000E+00 0. -1.
</event>
<event>
 7    1  0.1358622E-013  0.7246150E+02  0.7816164E-02  0.1226708E+00
        -11   -1    0    0    0    0  0.00000000000E+00  0.00000000000E+00  0.45593999997E+02  0.45594000000E+02  0.51100000000E-03 0.  1.
         11   -1    0    0    0    0 -0.00000000000E+00 -0.00000000000E+00 -0.45593999997E+02  0.45594000000E+02  0.51100000000E-03 0. -1.
    9900012    2    1    2    0    0 -0.95614087883E+01 -0.13924972957E+02 -0.80843385344E+01  0.72461496338E+02  0.69999903657E+02 0.  0.
        -12    1    1    2    0    0  0.95614087883E+01  0.13924972957E+02  0.80843385344E+01  0.18726503662E+02  0.00000000000E+00 0.  1.
         11    1    3    3    0    0  0.27527674358E+00 -0.90383313774E+01  0.10549206212E+02  0.13894350051E+02  0.51100000000E-03 0. -1.
        -11    1    3    3    0    0 -0.10508611278E+02  0.68620184864E+01  0.16948534238E+02  0.21089595107E+02  0.51100000000E-03 0.  1.
         12    1    3    3    0    0  0.67192574626E+00 -0.11748660066E+02 -0.35582078984E+02  0.37477551180E+02  0.00000000000E+00 0. -1.
</event>
<event>
 7    1  0.1358622E-013  0.7246148E+02  0.7816164E-02  0.1226708E+00
        -11   -1    0    0    0    0  0.00000000000E+00  0.00000000000E+00  0.45593999997E+02  0.45594000000E+02  0.51100000000E-03 0.  1.
         11   -1    0    0    0    0 -0.00000000000E+00 -0.00000000000E+00 -0.45593999997E+02  0.45594000000E+02  0.51100000000E-03 0. -1.
    9900012    2    1    2    0    0 -0.15356658985E+02  0.12379429439E+01 -0.10645322372E+02  0.72461484939E+02  0.69999888809E+02 0.  0.
        -12    1    1    2    0    0  0.15356658985E+02 -0.12379429439E+01  0.10645322372E+02  0.18726515061E+02  0.00000000000E+00 0.  1.
         11    1    3    3    0    0 -0.73335006588E+01  0.14032378146E+02  0.69816766197E+01  0.17304094227E+02  0.51100000000E-03 0. -1.
        -11    1    3    3    0    0 -0.67342773078E+01  0.17747447295E+02  0.15918310900E+01  0.19048787437E+02  0.51100000000E-03 0.  1.
         12    1    3    3    0    0 -0.12888810188E+01 -0.30541882497E+02 -0.19218830082E+02  0.36108603275E+02  0.00000000000E+00 0. -1.
</event>
<event>
 7    1  0.1358622E-013  0.7246161E+02  0.7816164E-02  0.1226708E+00
        -11   -1    0    0    0    0  0.00000000000E+00  0.00000000000E+00  0.45593999997E+02  0.45594000000E+02  0.51100000000E-03 0.  1.
         11   -1    0    0    0    0 -0.00000000000E+00 -0.00000000000E+00 -0.45593999997E+02  0.45594000000E+02  0.51100000000E-03 0. -1.
    9900012    2    1    2    0    0  0.18038443568E+02  0.12397743576E+01 -0.48739313700E+01  0.72461609696E+02  0.70000051328E+02 0.  0.
        -12    1    1    2    0    0 -0.18038443568E+02 -0.12397743576E+01  0.48739313700E+01  0.18726390304E+02  0.00000000000E+00 0.  1.
         11    1    3    3    0    0  0.82053105242E+00 -0.36277697089E+01  0.16696736891E+02  0.17105993316E+02  0.51100000000E-03 0. -1.
        -11    1    3    3    0    0  0.23310917120E+02  0.19746089967E+02 -0.28563182924E+01  0.30683309476E+02  0.51100000000E-03 0.  1.
         12    1    3    3    0    0 -0.60930046049E+01 -0.14878545900E+02 -0.18714349968E+02  0.24672306904E+02  0.00000000000E+00 0. -1.
</event>
<event>
 7    1  0.1358622E-013  0.7246159E+02  0.7816164E-02  0.1226708E+00
        -11   -1    0    0    0    0  0.00000000000E+00  0.00000000000E+00  0.45593999997E+02  0.45594000000E+02  0.51100000000E-03 0.  1.
         11   -1    0    0    0    0 -0.00000000000E+00 -0.00000000000E+00 -0.45593999997E+02  0.45594000000E+02  0.51100000000E-03 0. -1.
    9900012    2    1    2    0    0 -0.14494972040E+02  0.98695399592E+01  0.65701011307E+01  0.72461594517E+02  0.70000031554E+02 0.  0.
        -12    1    1    2    0    0  0.14494972040E+02 -0.98695399592E+01 -0.65701011307E+01  0.18726405483E+02  0.00000000000E+00 0.  1.
         11    1    3    3    0    0 -0.86730438822E+01  0.94493859931E+01 -0.10613548545E+02  0.16648122982E+02  0.51100000000E-03 0. -1.
        -11    1    3    3    0    0  0.21956209074E+02  0.80559565313E+01  0.26223083099E+01  0.23534019072E+02  0.51100000000E-03 0.  1.
         12    1    3    3    0    0 -0.27778137233E+02 -0.76358025653E+01  0.14561341366E+02  0.32279452463E+02  0.00000000000E+00 0. -1.
</event>
<event>
 7    1  0.1358622E-013  0.7246158E+02  0.7816164E-02  0.1226708E+00
        -11   -1    0    0    0    0  0.00000000000E+00  0.00000000000E+00  0.45593999997E+02  0.45594000000E+02  0.51100000000E-03 0.  1.
         11   -1    0    0    0    0 -0.00000000000E+00 -0.00000000000E+00 -0.45593999997E+02  0.45594000000E+02  0.51100000000E-03 0. -1.
    9900012    2    1    2    0    0 -0.18316730003E+02 -0.19050428322E+01  0.33981027282E+01  0.72461577802E+02  0.70000009780E+02 0.  0.
        -12    1    1    2    0    0  0.18316730003E+02  0.19050428322E+01 -0.33981027282E+01  0.18726422198E+02  0.00000000000E+00 0.  1.
         11    1    3    3    0    0 -0.70084187729E+00  0.38716837111E+01 -0.22664341755E+02  0.23003336749E+02  0.51100000000E-03 0. -1.
        -11    1    3    3    0    0 -0.67837797756E+01 -0.19615106475E+02  0.38077190991E+01  0.21101440592E+02  0.51100000000E-03 0.  1.
         12    1    3    3    0    0 -0.10832108350E+02  0.13838379932E+02  0.22254725385E+02  0.28356800461E+02  0.00000000000E+00 0. -1.
</event>
<event>
 7    1  0.1358622E-013  0.7246161E+02  0.7816164E-02  0.1226708E+00
        -11   -1    0    0    0    0  0.00000000000E+00  0.00000000000E+00  0.45593999997E+02  0.45594000000E+02  0.51100000000E-03 0.  1.
         11   -1    0    0    0    0 -0.00000000000E+00 -0.00000000000E+00 -0.45593999997E+02  0.45594000000E+02  0.51100000000E-03 0. -1.
    9900012    2    1    2    0    0  0.92344657258E+01  0.16276506561E+02 -0.69113249721E+00  0.72461609873E+02  0.70000051558E+02 0.  0.
        -12    1    1    2    0    0 -0.92344657258E+01 -0.16276506561E+02  0.69113249721E+00  0.18726390127E+02  0.00000000000E+00 0.  1.
         11    1    3    3    0    0  0.78735968568E+00  0.10841408289E+02 -0.34482705206E+01  0.11403799315E+02  0.51100000000E-03 0.  1.
        -11    1    3    3    0    0 -0.20567189926E+02  0.16655514637E+02 -0.87728376789E+01  0.27881501940E+02  0.51100000000E-03 0. -1.
        -12    1    3    3    0    0  0.29014295966E+02 -0.11220416365E+02  0.11529975702E+02  0.33176308618E+02  0.00000000000E+00 0.  1.
</event>
<event>
 7    1  0.1358622E-013  0.7246154E+02  0.7816164E-02  0.1226708E+00
        -11   -1    0    0    0    0  0.00000000000E+00  0.00000000000E+00  0.45593999997E+02  0.45594000000E+02  0.51100000000E-03 0.  1.
         11   -1    0    0    0    0 -0.00000000000E+00 -0.00000000000E+00 -0.45593999997E+02  0.45594000000E+02  0.51100000000E-03 0. -1.
    9900012    2    1    2    0    0  0.67391481843E+01  0.41541298324E+01 -0.16970776639E+02  0.72461543511E+02  0.69999965109E+02 0.  0.
        -12    1    1    2    0    0 -0.67391481843E+01 -0.41541298324E+01  0.16970776639E+02  0.18726456489E+02  0.00000000000E+00 0.  1.
         11    1    3    3    0    0  0.38498693828E+01 -0.78923621700E+00  0.13288743701E+01  0.41485293085E+01  0.51100000000E-03 0. -1.
        -11    1    3    3    0    0  0.22172138984E+02 -0.22911292346E+02 -0.10272960405E+02  0.33497235406E+02  0.51100000000E-03 0.  1.
         12    1    3    3    0    0 -0.19282860182E+02  0.27854658395E+02 -0.80266906043E+01  0.34815778796E+02  0.00000000000E+00 0. -1.
</event>
<event>
 7    1  0.1358622E-013  0.7246156E+02  0.7816164E-02  0.1226708E+00
        -11   -1    0    0    0    0  0.00000000000E+00  0.00000000000E+00  0.45593999997E+02  0.45594000000E+02  0.51100000000E-03 0. -1.
         11   -1    0    0    0    0 -0.00000000000E+00 -0.00000000000E+00 -0.45593999997E+02  0.45594000000E+02  0.51100000000E-03 0.  1.
    9900012    2    1    2    0    0  0.12052462792E+02 -0.58351603230E+01 -0.13090782204E+02  0.72461560561E+02  0.69999987321E+02 0.  0.
        -12    1    1    2    0    0 -0.12052462792E+02  0.58351603230E+01  0.13090782204E+02  0.18726439439E+02  0.00000000000E+00 0.  1.
         11    1    3    3    0    0 -0.17873662764E+02  0.44472738942E+01  0.73666358309E+01  0.19837171911E+02  0.51100000000E-03 0. -1.
        -11    1    3    3    0    0  0.46637462328E+01  0.12094707207E+02  0.36823478771E+00  0.12967963158E+02  0.51100000000E-03 0.  1.
         12    1    3    3    0    0  0.25262379323E+02 -0.22377141424E+02 -0.20825652822E+02  0.39656425493E+02  0.00000000000E+00 0. -1.
</event>
<event>
 7    1  0.1358622E-013  0.7246147E+02  0.7816164E-02  0.1226708E+00
        -11   -1    0    0    0    0  0.00000000000E+00  0.00000000000E+00  0.45593999997E+02  0.45594000000E+02  0.51100000000E-03 0.  1.
         11   -1    0    0    0    0 -0.00000000000E+00 -0.00000000000E+00 -0.45593999997E+02  0.45594000000E+02  0.51100000000E-03 0. -1.
    9900012    2    1    2    0    0 -0.16443045079E+02 -0.45039210896E+01 -0.77475113035E+01  0.72461468873E+02  0.69999867880E+02 0.  0.
        -12    1    1    2    0    0  0.16443045079E+02  0.45039210896E+01  0.77475113035E+01  0.18726531127E+02  0.00000000000E+00 0.  1.
         11    1    3    3    0    0  0.29846720648E+01 -0.12471101178E+02  0.98580150068E+01  0.16174581666E+02  0.51100000000E-03 0. -1.
        -11    1    3    3    0    0  0.13922748763E+01 -0.69918049871E+01  0.13928254902E+02  0.15646726532E+02  0.51100000000E-03 0.  1.
         12    1    3    3    0    0 -0.20819992020E+02  0.14958985075E+02 -0.31533781212E+02  0.40640160675E+02  0.00000000000E+00 0. -1.
</event>
<event>
 7    1  0.1358622E-013  0.7246147E+02  0.7816164E-02  0.1226708E+00
        -11   -1    0    0    0    0  0.00000000000E+00  0.00000000000E+00  0.45593999997E+02  0.45594000000E+02  0.51100000000E-03 0.  1.
         11   -1    0    0    0    0 -0.00000000000E+00 -0.00000000000E+00 -0.45593999997E+02  0.45594000000E+02  0.51100000000E-03 0. -1.
    9900012    2    1    2    0    0  0.63121901647E+01  0.13492836185E+02 -0.11348242991E+02  0.72461468234E+02  0.69999867047E+02 0.  0.
        -12    1    1    2    0    0 -0.63121901647E+01 -0.13492836185E+02  0.11348242991E+02  0.18726531766E+02  0.00000000000E+00 0.  1.
         11    1    3    3    0    0  0.21613560522E+02  0.46991479258E+01  0.83391234020E+01  0.23638294546E+02  0.51100000000E-03 0. -1.
        -11    1    3    3    0    0  0.33937563102E+01 -0.96582870691E+01 -0.20095128664E+02  0.22552478517E+02  0.51100000000E-03 0.  1.
        -12    1    3    3    0    0 -0.18695126668E+02  0.18451975329E+02  0.40776227027E+00  0.26270695170E+02  0.00000000000E+00 0.  1.
</event>
<event>
 7    1  0.1358622E-013  0.7246161E+02  0.7816164E-02  0.1226708E+00
        -11   -1    0    0    0    0  0.00000000000E+00  0.00000000000E+00  0.45593999997E+02  0.45594000000E+02  0.51100000000E-03 0.  1.
         11   -1    0    0    0    0 -0.00000000000E+00 -0.00000000000E+00 -0.45593999997E+02  0.45594000000E+02  0.51100000000E-03 0. -1.
    9900012    2    1    2    0    0 -0.18232170958E+02  0.15943704624E+01  0.39652840204E+01  0.72461613473E+02  0.70000056248E+02 0.  0.
        -12    1    1    2    0    0  0.18232170958E+02 -0.15943704624E+01 -0.39652840204E+01  0.18726386527E+02  0.00000000000E+00 0.  1.
         11    1    3    3    0    0  0.58993715064E+01 -0.24840704111E+01 -0.18506007512E+02  0.19581764585E+02  0.51100000000E-03 0. -1.
        -11    1    3    3    0    0  0.92097488772E+01  0.94136134414E+01  0.11184310701E+02  0.17277858621E+02  0.51100000000E-03 0.  1.
         12    1    3    3    0    0 -0.33341291341E+02 -0.53351725679E+01  0.11286980831E+02  0.35601990266E+02  0.00000000000E+00 0. -1.
</event>
<event>
 7    1  0.1358622E-013  0.7246175E+02  0.7816164E-02  0.1226708E+00
        -11   -1    0    0    0    0  0.00000000000E+00  0.00000000000E+00  0.45593999997E+02  0.45594000000E+02  0.51100000000E-03 0.  1.
         11   -1    0    0    0    0 -0.00000000000E+00 -0.00000000000E+00 -0.45593999997E+02  0.45594000000E+02  0.51100000000E-03 0. -1.
    9900012    2    1    2    0    0 -0.12461378476E+01 -0.11040349160E+02 -0.15074162892E+02  0.72461746877E+02  0.70000230032E+02 0.  0.
        -12    1    1    2    0    0  0.12461378476E+01  0.11040349160E+02  0.15074162892E+02  0.18726253123E+02  0.00000000000E+00 0.  1.
         11    1    3    3    0    0 -0.21438294859E+01  0.19646004084E+02 -0.26561434553E+02  0.33106967350E+02  0.51100000000E-03 0. -1.
        -11    1    3    3    0    0  0.11191412462E+01 -0.10112426121E+02 -0.64602159484E+01  0.12051889044E+02  0.51100000000E-03 0.  1.
        -12    1    3    3    0    0 -0.22144960788E+00 -0.20573927124E+02  0.17947487609E+02  0.27302890483E+02  0.00000000000E+00 0.  1.
</event>
<event>
 7    1  0.1358622E-013  0.7246157E+02  0.7816164E-02  0.1226708E+00
        -11   -1    0    0    0    0  0.00000000000E+00  0.00000000000E+00  0.45593999997E+02  0.45594000000E+02  0.51100000000E-03 0. -1.
         11   -1    0    0    0    0 -0.00000000000E+00 -0.00000000000E+00 -0.45593999997E+02  0.45594000000E+02  0.51100000000E-03 0.  1.
    9900012    2    1    2    0    0 -0.14614065305E+02  0.96640177409E+01 -0.66117439942E+01  0.72461566749E+02  0.69999995382E+02 0.  0.
        -12    1    1    2    0    0  0.14614065305E+02 -0.96640177409E+01  0.66117439942E+01  0.18726433251E+02  0.00000000000E+00 0.  1.
         11    1    3    3    0    0 -0.68552042356E+01  0.44510892545E+01 -0.94464045940E+01  0.12491620418E+02  0.51100000000E-03 0. -1.
        -11    1    3    3    0    0  0.25493670542E+02  0.61231440075E+01 -0.22649097654E+01  0.26316343719E+02  0.51100000000E-03 0.  1.
         12    1    3    3    0    0 -0.33252531611E+02 -0.91021552101E+00  0.50995703652E+01  0.33653602612E+02  0.00000000000E+00 0. -1.
</event>
<event>
 7    1  0.1358622E-013  0.7246163E+02  0.7816164E-02  0.1226708E+00
        -11   -1    0    0    0    0  0.00000000000E+00  0.00000000000E+00  0.45593999997E+02  0.45594000000E+02  0.51100000000E-03 0. -1.
         11   -1    0    0    0    0 -0.00000000000E+00 -0.00000000000E+00 -0.45593999997E+02  0.45594000000E+02  0.51100000000E-03 0.  1.
    9900012    2    1    2    0    0 -0.12711946870E+02 -0.46866458139E+01  0.12927442829E+02  0.72461627679E+02  0.70000074754E+02 0.  0.
        -12    1    1    2    0    0  0.12711946870E+02  0.46866458139E+01 -0.12927442829E+02  0.18726372321E+02  0.00000000000E+00 0.  1.
         11    1    3    3    0    0 -0.54910525373E+01  0.20977543123E+02  0.15323488086E+01  0.21738377736E+02  0.51100000000E-03 0. -1.
        -11    1    3    3    0    0 -0.37077556145E+01  0.11258062474E+02 -0.22969455704E+00  0.11855133159E+02  0.51100000000E-03 0.  1.
        -12    1    3    3    0    0 -0.35131387181E+01 -0.36922251411E+02  0.11624788578E+02  0.38868116784E+02  0.00000000000E+00 0.  1.
</event>
<event>
 7    1  0.1358622E-013  0.7246152E+02  0.7816164E-02  0.1226708E+00
        -11   -1    0    0    0    0  0.00000000000E+00  0.00000000000E+00  0.45593999997E+02  0.45594000000E+02  0.51100000000E-03 0. -1.
         11   -1    0    0    0    0 -0.00000000000E+00 -0.00000000000E+00 -0.45593999997E+02  0.45594000000E+02  0.51100000000E-03 0.  1.
    9900012    2    1    2    0    0 -0.85901463117E+01  0.52501150650E+01  0.15790085798E+02  0.72461517913E+02  0.69999931764E+02 0.  0.
        -12    1    1    2    0    0  0.85901463117E+01 -0.52501150650E+01 -0.15790085798E+02  0.18726482087E+02  0.00000000000E+00 0.  1.
         11    1    3    3    0    0 -0.25075920975E+02  0.77805878420E+01  0.11987034703E+02  0.28862230702E+02  0.51100000000E-03 0. -1.
        -11    1    3    3    0    0 -0.55564479826E+01  0.94959393837E+01  0.12843642590E+02  0.16911715886E+02  0.51100000000E-03 0.  1.
        -12    1    3    3    0    0  0.22042222646E+02 -0.12026412161E+02 -0.90405914954E+01  0.26687571325E+02  0.00000000000E+00 0.  1.
</event>
<event>
 7    1  0.1358622E-013  0.7246153E+02  0.7816164E-02  0.1226708E+00
        -11   -1    0    0    0    0  0.00000000000E+00  0.00000000000E+00  0.45593999997E+02  0.45594000000E+02  0.51100000000E-03 0.  1.
         11   -1    0    0    0    0 -0.00000000000E+00 -0.00000000000E+00 -0.45593999997E+02  0.45594000000E+02  0.51100000000E-03 0. -1.
    9900012    2    1    2    0    0  0.67089837412E+01  0.64573552024E+01 -0.16247233890E+02  0.72461534553E+02  0.69999953441E+02 0.  0.
        -12    1    1    2    0    0 -0.67089837412E+01 -0.64573552024E+01  0.16247233890E+02  0.18726465447E+02  0.00000000000E+00 0.  1.
         11    1    3    3    0    0  0.15401950880E+02 -0.12477945879E+02  0.18375565824E+00  0.19823041912E+02  0.51100000000E-03 0. -1.
        -11    1    3    3    0    0  0.78002885321E+01  0.11974021120E+02  0.12254334645E+02  0.18825259648E+02  0.51100000000E-03 0.  1.
         12    1    3    3    0    0 -0.16493255671E+02  0.69612799609E+01 -0.28685324193E+02  0.33813232992E+02  0.00000000000E+00 0. -1.
</event>
<event>
 7    1  0.1358622E-013  0.7246169E+02  0.7816164E-02  0.1226708E+00
        -11   -1    0    0    0    0  0.00000000000E+00  0.00000000000E+00  0.45593999997E+02  0.45594000000E+02  0.51100000000E-03 0. -1.
         11   -1    0    0    0    0 -0.00000000000E+00 -0.00000000000E+00 -0.45593999997E+02  0.45594000000E+02  0.51100000000E-03 0.  1.
    9900012    2    1    2    0    0  0.41670315197E+01  0.11005819209E+02  0.14566487386E+02  0.72461687952E+02  0.70000153271E+02 0.  0.
        -12    1    1    2    0    0 -0.41670315197E+01 -0.11005819209E+02 -0.14566487386E+02  0.18726312048E+02  0.00000000000E+00 0.  1.
         11    1    3    3    0    0 -0.53484880459E+01 -0.40351361173E+01  0.24752826139E+01  0.71425256137E+01  0.51100000000E-03 0. -1.
        -11    1    3    3    0    0 -0.14746342461E+02  0.14507543700E+02 -0.17467525460E+02  0.27074672410E+02  0.51100000000E-03 0.  1.
         12    1    3    3    0    0  0.24261862026E+02  0.53341162629E+00  0.29558730232E+02  0.38244489928E+02  0.00000000000E+00 0. -1.
</event>
<event>
 7    1  0.1358622E-013  0.7246157E+02  0.7816164E-02  0.1226708E+00
        -11   -1    0    0    0    0  0.00000000000E+00  0.00000000000E+00  0.45593999997E+02  0.45594000000E+02  0.51100000000E-03 0.  1.
         11   -1    0    0    0    0 -0.00000000000E+00 -0.00000000000E+00 -0.45593999997E+02  0.45594000000E+02  0.51100000000E-03 0. -1.
    9900012    2    1    2    0    0 -0.70761616064E+01 -0.46560042478E+01 -0.16701158831E+02  0.72461570951E+02  0.70000000855E+02 0.  0.
        -12    1    1    2    0    0  0.70761616064E+01  0.46560042478E+01  0.16701158831E+02  0.18726429049E+02  0.00000000000E+00 0.  1.
         11    1    3    3    0    0  0.18540217327E+02 -0.70528618659E+01  0.14951167516E+02  0.24839885857E+02  0.51100000000E-03 0. -1.
        -11    1    3    3    0    0 -0.15296632545E+02 -0.77176475787E+01 -0.59520146208E+01  0.18137682589E+02  0.51100000000E-03 0.  1.
        -12    1    3    3    0    0 -0.10319746388E+02  0.10114505197E+02 -0.25700311726E+02  0.29484002505E+02  0.00000000000E+00 0.  1.
</event>
<event>
 7    1  0.1358622E-013  0.7246162E+02  0.7816164E-02  0.1226708E+00
        -11   -1    0    0    0    0  0.00000000000E+00  0.00000000000E+00  0.45593999997E+02  0.45594000000E+02  0.51100000000E-03 0. -1.
         11   -1    0    0    0    0 -0.00000000000E+00 -0.00000000000E+00 -0.45593999997E+02  0.45594000000E+02  0.51100000000E-03 0.  1.
    9900012    2    1    2    0    0  0.47074708359E+00 -0.15136938193E+02  0.11014935584E+02  0.72461620036E+02  0.70000064797E+02 0.  0.
        -12    1    1    2    0    0 -0.47074708359E+00  0.15136938193E+02 -0.11014935584E+02  0.18726379964E+02  0.00000000000E+00 0.  1.
         11    1    3    3    0    0 -0.19405575120E+01  0.16022408758E+01 -0.13884663056E+01  0.28741569589E+01  0.51100000000E-03 0. -1.
        -11    1    3    3    0    0 -0.49614318725E+01  0.11774174365E+02 -0.21294500407E+02  0.24833500278E+02  0.51100000000E-03 0.  1.
         12    1    3    3    0    0  0.73727364681E+01 -0.28513353433E+02  0.33697902296E+02  0.44753962799E+02  0.00000000000E+00 0. -1.
</event>
<event>
 7    1  0.1358622E-013  0.7246158E+02  0.7816164E-02  0.1226708E+00
        -11   -1    0    0    0    0  0.00000000000E+00  0.00000000000E+00  0.45593999997E+02  0.45594000000E+02  0.51100000000E-03 0.  1.
         11   -1    0    0    0    0 -0.00000000000E+00 -0.00000000000E+00 -0.45593999997E+02  0.45594000000E+02  0.51100000000E-03 0. -1.
    9900012    2    1    2    0    0 -0.12896434008E+02  0.13330079071E+02  0.25826000324E+01  0.72461579064E+02  0.70000011424E+02 0.  0.
        -12    1    1    2    0    0  0.12896434008E+02 -0.13330079071E+02 -0.25826000324E+01  0.18726420936E+02  0.00000000000E+00 0.  1.
         11    1    3    3    0    0 -0.13750115521E+02 -0.98881312449E+00  0.80133339043E+01  0.15945436613E+02  0.51100000000E-03 0. -1.
        -11    1    3    3    0    0 -0.16668678921E+02 -0.14747449949E+01  0.17078648066E+02  0.23910247798E+02  0.51100000000E-03 0.  1.
         12    1    3    3    0    0  0.17522360434E+02  0.15793637191E+02 -0.22509381937E+02  0.32605894653E+02  0.00000000000E+00 0. -1.
</event>
<event>
 7    1  0.1358622E-013  0.7246162E+02  0.7816164E-02  0.1226708E+00
        -11   -1    0    0    0    0  0.00000000000E+00  0.00000000000E+00  0.45593999997E+02  0.45594000000E+02  0.51100000000E-03 0.  1.
         11   -1    0    0    0    0 -0.00000000000E+00 -0.00000000000E+00 -0.45593999997E+02  0.45594000000E+02  0.51100000000E-03 0. -1.
    9900012    2    1    2    0    0 -0.16410052192E+02 -0.20850992967E+01  0.87772346746E+01  0.72461620196E+02  0.70000065006E+02 0.  0.
        -12    1    1    2    0    0  0.16410052192E+02  0.20850992967E+01 -0.87772346746E+01  0.18726379804E+02  0.00000000000E+00 0.  1.
         11    1    3    3    0    0 -0.10424381853E+02 -0.97869347787E+01  0.66781167189E+01  0.15781288685E+02  0.51100000000E-03 0. -1.
        -11    1    3    3    0    0 -0.17138474398E+02 -0.94929493175E+01  0.21056973747E+02  0.28761772113E+02  0.51100000000E-03 0.  1.
         12    1    3    3    0    0  0.11152804059E+02  0.17194784800E+02 -0.18957855791E+02  0.27918559398E+02  0.00000000000E+00 0. -1.
</event>
<event>
 7    1  0.1358622E-013  0.7246160E+02  0.7816164E-02  0.1226708E+00
        -11   -1    0    0    0    0  0.00000000000E+00  0.00000000000E+00  0.45593999997E+02  0.45594000000E+02  0.51100000000E-03 0.  1.
         11   -1    0    0    0    0 -0.00000000000E+00 -0.00000000000E+00 -0.45593999997E+02  0.45594000000E+02  0.51100000000E-03 0. -1.
    9900012    2    1    2    0    0  0.38619706774E+01  0.16551437444E+02  0.78621397157E+01  0.72461597786E+02  0.70000035813E+02 0.  0.
        -12    1    1    2    0    0 -0.38619706774E+01 -0.16551437444E+02 -0.78621397157E+01  0.18726402214E+02  0.00000000000E+00 0.  1.
         11    1    3    3    0    0 -0.10435203997E+02  0.26809739931E+02 -0.97486812038E+01  0.30375852632E+02  0.51100000000E-03 0. -1.
        -11    1    3    3    0    0 -0.77328233592E+01 -0.12445147426E+02  0.12744184518E+02  0.19418869454E+02  0.51100000000E-03 0.  1.
        -12    1    3    3    0    0  0.22029998034E+02  0.21868449390E+01  0.48666364013E+01  0.22666875701E+02  0.00000000000E+00 0.  1.
</event>
<event>
 7    1  0.1358622E-013  0.7246156E+02  0.7816164E-02  0.1226708E+00
        -11   -1    0    0    0    0  0.00000000000E+00  0.00000000000E+00  0.45593999997E+02  0.45594000000E+02  0.51100000000E-03 0.  1.
         11   -1    0    0    0    0 -0.00000000000E+00 -0.00000000000E+00 -0.45593999997E+02  0.45594000000E+02  0.51100000000E-03 0. -1.
    9900012    2    1    2    0    0 -0.16702483366E+02 -0.44023747674E+01 -0.72336447859E+01  0.72461562242E+02  0.69999989511E+02 0.  0.
        -12    1    1    2    0    0  0.16702483366E+02  0.44023747674E+01  0.72336447859E+01  0.18726437758E+02  0.00000000000E+00 0.  1.
         11    1    3    3    0    0  0.16974454367E+02 -0.33078848572E+01 -0.12557777907E+02  0.21372224720E+02  0.51100000000E-03 0. -1.
        -11    1    3    3    0    0 -0.18886752201E+02  0.17645216862E+01 -0.16112930202E+02  0.24888741741E+02  0.51100000000E-03 0.  1.
        -12    1    3    3    0    0 -0.14790185532E+02 -0.28590115965E+01  0.21437063323E+02  0.26200595781E+02  0.00000000000E+00 0.  1.
</event>
<event>
 7    1  0.1358622E-013  0.7246154E+02  0.7816164E-02  0.1226708E+00
        -11   -1    0    0    0    0  0.00000000000E+00  0.00000000000E+00  0.45593999997E+02  0.45594000000E+02  0.51100000000E-03 0.  1.
         11   -1    0    0    0    0 -0.00000000000E+00 -0.00000000000E+00 -0.45593999997E+02  0.45594000000E+02  0.51100000000E-03 0. -1.
    9900012    2    1    2    0    0 -0.10198849443E+02  0.10421940071E+02 -0.11749340478E+02  0.72461538336E+02  0.69999958368E+02 0.  0.
        -12    1    1    2    0    0  0.10198849443E+02 -0.10421940071E+02  0.11749340478E+02  0.18726461664E+02  0.00000000000E+00 0.  1.
         11    1    3    3    0    0 -0.34916684310E+01 -0.17508952157E+02 -0.27030457363E+02  0.32394456001E+02  0.51100000000E-03 0. -1.
        -11    1    3    3    0    0 -0.66246076153E+00  0.35850976667E+01 -0.60999404267E+01  0.71064092910E+01  0.51100000000E-03 0.  1.
        -12    1    3    3    0    0 -0.60447202501E+01  0.24345794561E+02  0.21381057312E+02  0.32960673044E+02  0.00000000000E+00 0.  1.
</event>
<event>
 7    1  0.1358622E-013  0.7246152E+02  0.7816164E-02  0.1226708E+00
        -11   -1    0    0    0    0  0.00000000000E+00  0.00000000000E+00  0.45593999997E+02  0.45594000000E+02  0.51100000000E-03 0.  1.
         11   -1    0    0    0    0 -0.00000000000E+00 -0.00000000000E+00 -0.45593999997E+02  0.45594000000E+02  0.51100000000E-03 0. -1.
    9900012    2    1    2    0    0  0.43646346113E+01  0.67702979914E+01 -0.16905450587E+02  0.72461515286E+02  0.69999928341E+02 0.  0.
        -12    1    1    2    0    0 -0.43646346113E+01 -0.67702979914E+01  0.16905450587E+02  0.18726484714E+02  0.00000000000E+00 0.  1.
         11    1    3    3    0    0  0.12503110421E+02 -0.17014148118E+02  0.14632156504E+02  0.25688694217E+02  0.51100000000E-03 0. -1.
        -11    1    3    3    0    0 -0.26100492551E+01  0.35998585775E+01  0.37029779900E+01  0.57864829687E+01  0.51100000000E-03 0.  1.
        -12    1    3    3    0    0 -0.55284265543E+01  0.20184587532E+02 -0.35240585081E+02  0.40986338100E+02  0.00000000000E+00 0.  1.
</event>
<event>
 7    1  0.1358622E-013  0.7246155E+02  0.7816164E-02  0.1226708E+00
        -11   -1    0    0    0    0  0.00000000000E+00  0.00000000000E+00  0.45593999997E+02  0.45594000000E+02  0.51100000000E-03 0.  1.
         11   -1    0    0    0    0 -0.00000000000E+00 -0.00000000000E+00 -0.45593999997E+02  0.45594000000E+02  0.51100000000E-03 0. -1.
    9900012    2    1    2    0    0  0.15131755719E+02  0.38079627600E+01 -0.10354186116E+02  0.72461553950E+02  0.69999978709E+02 0.  0.
        -12    1    1    2    0    0 -0.15131755719E+02 -0.38079627600E+01  0.10354186116E+02  0.18726446050E+02  0.00000000000E+00 0.  1.
         11    1    3    3    0    0  0.57884426942E+01  0.55566137860E+01  0.13547300409E+02  0.15745201625E+02  0.51100000000E-03 0. -1.
        -11    1    3    3    0    0 -0.10246168388E+02 -0.15971175970E+02  0.43950348778E+01  0.19477647711E+02  0.51100000000E-03 0.  1.
         12    1    3    3    0    0  0.19589481413E+02  0.14222524944E+02 -0.28296521403E+02  0.37238704614E+02  0.00000000000E+00 0. -1.
</event>
<event>
 7    1  0.1358622E-013  0.7246160E+02  0.7816164E-02  0.1226708E+00
        -11   -1    0    0    0    0  0.00000000000E+00  0.00000000000E+00  0.45593999997E+02  0.45594000000E+02  0.51100000000E-03 0.  1.
         11   -1    0    0    0    0 -0.00000000000E+00 -0.00000000000E+00 -0.45593999997E+02  0.45594000000E+02  0.51100000000E-03 0. -1.
    9900012    2    1    2    0    0 -0.57264132584E+00 -0.15866748856E+02 -0.99295765295E+01  0.72461598120E+02  0.70000036247E+02 0.  0.
        -12    1    1    2    0    0  0.57264132584E+00  0.15866748856E+02  0.99295765295E+01  0.18726401880E+02  0.00000000000E+00 0.  1.
         11    1    3    3    0    0 -0.24545945594E+01 -0.25764738410E+02 -0.21318982486E+02  0.33531265921E+02  0.51100000000E-03 0. -1.
        -11    1    3    3    0    0  0.85915756773E+01 -0.11372351871E+02  0.80763671962E+01  0.16382102034E+02  0.51100000000E-03 0.  1.
        -12    1    3    3    0    0 -0.67096224438E+01  0.21270341426E+02  0.33130387605E+01  0.22548230164E+02  0.00000000000E+00 0.  1.
</event>
<event>
 7    1  0.1358622E-013  0.7246157E+02  0.7816164E-02  0.1226708E+00
        -11   -1    0    0    0    0  0.00000000000E+00  0.00000000000E+00  0.45593999997E+02  0.45594000000E+02  0.51100000000E-03 0.  1.
         11   -1    0    0    0    0 -0.00000000000E+00 -0.00000000000E+00 -0.45593999997E+02  0.45594000000E+02  0.51100000000E-03 0. -1.
    9900012    2    1    2    0    0 -0.17101468076E+02  0.60211905889E+01 -0.46866182386E+01  0.72461565823E+02  0.69999994175E+02 0.  0.
        -12    1    1    2    0    0  0.17101468076E+02 -0.60211905889E+01  0.46866182386E+01  0.18726434177E+02  0.00000000000E+00 0.  1.
         11    1    3    3    0    0 -0.25499736130E+02  0.10209816120E+02  0.12443862738E+02  0.30155042829E+02  0.51100000000E-03 0. -1.
        -11    1    3    3    0    0 -0.59927894397E+01  0.54958471875E+01  0.82376839239E+01  0.11574856296E+02  0.51100000000E-03 0.  1.
        -12    1    3    3    0    0  0.14391057493E+02 -0.96844727187E+01 -0.25368164901E+02  0.30731666698E+02  0.00000000000E+00 0.  1.
</event>
<event>
 7    1  0.1358622E-013  0.7246173E+02  0.7816164E-02  0.1226708E+00
        -11   -1    0    0    0    0  0.00000000000E+00  0.00000000000E+00  0.45593999997E+02  0.45594000000E+02  0.51100000000E-03 0.  1.
         11   -1    0    0    0    0 -0.00000000000E+00 -0.00000000000E+00 -0.45593999997E+02  0.45594000000E+02  0.51100000000E-03 0. -1.
    9900012    2    1    2    0    0 -0.10596024470E+02 -0.49642519434E+01 -0.14620316160E+02  0.72461730309E+02  0.70000208448E+02 0.  0.
        -12    1    1    2    0    0  0.10596024470E+02  0.49642519434E+01  0.14620316160E+02  0.18726269691E+02  0.00000000000E+00 0.  1.
         11    1    3    3    0    0 -0.25766552337E+02 -0.38467591764E+01 -0.30453424217E+01  0.26229504117E+02  0.51100000000E-03 0. -1.
        -11    1    3    3    0    0  0.41385845207E+01 -0.20975567102E+02 -0.16545131447E+01  0.21443873510E+02  0.51100000000E-03 0.  1.
        -12    1    3    3    0    0  0.11031943346E+02  0.19858074335E+02 -0.99204605937E+01  0.24788352682E+02  0.00000000000E+00 0.  1.
</event>
<event>
 7    1  0.1358622E-013  0.7246156E+02  0.7816164E-02  0.1226708E+00
        -11   -1    0    0    0    0  0.00000000000E+00  0.00000000000E+00  0.45593999997E+02  0.45594000000E+02  0.51100000000E-03 0.  1.
         11   -1    0    0    0    0 -0.00000000000E+00 -0.00000000000E+00 -0.45593999997E+02  0.45594000000E+02  0.51100000000E-03 0. -1.
    9900012    2    1    2    0    0 -0.53489268090E+01  0.17859660101E+02 -0.17609532975E+01  0.72461563248E+02  0.69999990820E+02 0.  0.
        -12    1    1    2    0    0  0.53489268090E+01 -0.17859660101E+02  0.17609532975E+01  0.18726436752E+02  0.00000000000E+00 0.  1.
         11    1    3    3    0    0 -0.42166012231E+01  0.46015907962E+01 -0.85369062790E+01  0.10575118572E+02  0.51100000000E-03 0. -1.
        -11    1    3    3    0    0 -0.39781375464E+01 -0.23701831955E+02 -0.81808595672E+00  0.24047280121E+02  0.51100000000E-03 0.  1.
         12    1    3    3    0    0  0.28458119606E+01  0.36959901259E+02  0.75940389382E+01  0.37839164555E+02  0.00000000000E+00 0. -1.
</event>
<event>
 7    1  0.1358622E-013  0.7246159E+02  0.7816164E-02  0.1226708E+00
        -11   -1    0    0    0    0  0.00000000000E+00  0.00000000000E+00  0.45593999997E+02  0.45594000000E+02  0.51100000000E-03 0. -1.
         11   -1    0    0    0    0 -0.00000000000E+00 -0.00000000000E+00 -0.45593999997E+02  0.45594000000E+02  0.51100000000E-03 0.  1.
    9900012    2    1    2    0    0  0.13421099203E+02  0.19073051315E+01  0.12919554575E+02  0.72461585311E+02  0.70000019562E+02 0.  0.
        -12    1    1    2    0    0 -0.13421099203E+02 -0.19073051315E+01 -0.12919554575E+02  0.18726414689E+02  0.00000000000E+00 0.  1.
         11    1    3    3    0    0  0.33980013577E+01 -0.81056688263E+01 -0.90395475421E+00  0.88354634744E+01  0.51100000000E-03 0. -1.
        -11    1    3    3    0    0  0.51244060592E+01  0.18665253478E+02 -0.20320583028E+02  0.28063808005E+02  0.51100000000E-03 0.  1.
         12    1    3    3    0    0  0.48986917864E+01 -0.86522795206E+01  0.34144092358E+02  0.35562313831E+02  0.00000000000E+00 0. -1.
</event>
<event>
 7    1  0.1358622E-013  0.7246172E+02  0.7816164E-02  0.1226708E+00
        -11   -1    0    0    0    0  0.00000000000E+00  0.00000000000E+00  0.45593999997E+02  0.45594000000E+02  0.51100000000E-03 0. -1.
         11   -1    0    0    0    0 -0.00000000000E+00 -0.00000000000E+00 -0.45593999997E+02  0.45594000000E+02  0.51100000000E-03 0.  1.
    9900012    2    1    2    0    0 -0.58213801156E+01 -0.17491933410E+02  0.32889919980E+01  0.72461717154E+02  0.70000191312E+02 0.  0.
        -12    1    1    2    0    0  0.58213801156E+01  0.17491933410E+02 -0.32889919980E+01  0.18726282846E+02  0.00000000000E+00 0.  1.
         11    1    3    3    0    0 -0.12017877705E+02  0.37258045710E+01 -0.58683328248E+01  0.13883383400E+02  0.51100000000E-03 0. -1.
        -11    1    3    3    0    0  0.12789022287E+02  0.12031092934E+02  0.16276995066E+02  0.23942574149E+02  0.51100000000E-03 0.  1.
         12    1    3    3    0    0 -0.65925246974E+01 -0.33248830914E+02 -0.71196702428E+01  0.34635759605E+02  0.00000000000E+00 0. -1.
</event>
<event>
 7    1  0.1358622E-013  0.7246157E+02  0.7816164E-02  0.1226708E+00
        -11   -1    0    0    0    0  0.00000000000E+00  0.00000000000E+00  0.45593999997E+02  0.45594000000E+02  0.51100000000E-03 0. -1.
         11   -1    0    0    0    0 -0.00000000000E+00 -0.00000000000E+00 -0.45593999997E+02  0.45594000000E+02  0.51100000000E-03 0.  1.
    9900012    2    1    2    0    0 -0.89837702117E+01  0.92615379243E+00  0.16404670961E+02  0.72461571686E+02  0.70000001813E+02 0.  0.
        -12    1    1    2    0    0  0.89837702117E+01 -0.92615379243E+00 -0.16404670961E+02  0.18726428314E+02  0.00000000000E+00 0.  1.
         11    1    3    3    0    0 -0.21346381479E+01  0.17396749254E+02  0.40531885958E+01  0.17989772169E+02  0.51100000000E-03 0. -1.
        -11    1    3    3    0    0  0.37565604485E+01 -0.44429384926E+01 -0.18667400517E+02  0.19553089045E+02  0.51100000000E-03 0.  1.
         12    1    3    3    0    0 -0.10605692512E+02 -0.12027656969E+02  0.31018882882E+02  0.34918710473E+02  0.00000000000E+00 0. -1.
</event>
<event>
 7    1  0.1358622E-013  0.7246156E+02  0.7816164E-02  0.1226708E+00
        -11   -1    0    0    0    0  0.00000000000E+00  0.00000000000E+00  0.45593999997E+02  0.45594000000E+02  0.51100000000E-03 0.  1.
         11   -1    0    0    0    0 -0.00000000000E+00 -0.00000000000E+00 -0.45593999997E+02  0.45594000000E+02  0.51100000000E-03 0. -1.
    9900012    2    1    2    0    0  0.56201543415E+01 -0.13084798274E+02 -0.12160649691E+02  0.72461561961E+02  0.69999989144E+02 0.  0.
        -12    1    1    2    0    0 -0.56201543415E+01  0.13084798274E+02  0.12160649691E+02  0.18726438039E+02  0.00000000000E+00 0.  1.
         11    1    3    3    0    0 -0.44631471575E+01 -0.33829054288E+01  0.99842140958E+01  0.11447631330E+02  0.51100000000E-03 0. -1.
        -11    1    3    3    0    0 -0.18655854693E+02 -0.10011646812E+02  0.46979750442E+01  0.21687437746E+02  0.51100000000E-03 0.  1.
        -12    1    3    3    0    0  0.28739156192E+02  0.30975396596E+00 -0.26842838831E+02  0.39326492886E+02  0.00000000000E+00 0.  1.
</event>
<event>
 7    1  0.1358622E-013  0.7246149E+02  0.7816164E-02  0.1226708E+00
        -11   -1    0    0    0    0  0.00000000000E+00  0.00000000000E+00  0.45593999997E+02  0.45594000000E+02  0.51100000000E-03 0.  1.
         11   -1    0    0    0    0 -0.00000000000E+00 -0.00000000000E+00 -0.45593999997E+02  0.45594000000E+02  0.51100000000E-03 0. -1.
    9900012    2    1    2    0    0 -0.11154906191E+02  0.94132320025E+01 -0.11732062370E+02  0.72461490546E+02  0.69999896113E+02 0.  0.
        -12    1    1    2    0    0  0.11154906191E+02 -0.94132320025E+01  0.11732062370E+02  0.18726509454E+02  0.00000000000E+00 0.  1.
         11    1    3    3    0    0 -0.35647567961E+01  0.19119351994E+02  0.58251496532E+01  0.20302450109E+02  0.51100000000E-03 0. -1.
        -11    1    3    3    0    0  0.52459590169E+01  0.86521116056E+01  0.11598426874E+02  0.15391641481E+02  0.51100000000E-03 0.  1.
         12    1    3    3    0    0 -0.12836108412E+02 -0.18358231597E+02 -0.29155638898E+02  0.36767398957E+02  0.00000000000E+00 0. -1.
</event>
<event>
 7    1  0.1358622E-013  0.7246158E+02  0.7816164E-02  0.1226708E+00
        -11   -1    0    0    0    0  0.00000000000E+00  0.00000000000E+00  0.45593999997E+02  0.45594000000E+02  0.51100000000E-03 0.  1.
         11   -1    0    0    0    0 -0.00000000000E+00 -0.00000000000E+00 -0.45593999997E+02  0.45594000000E+02  0.51100000000E-03 0. -1.
    9900012    2    1    2    0    0 -0.12119046127E+02  0.13532435955E+02 -0.45476168744E+01  0.72461576926E+02  0.70000008639E+02 0.  0.
        -12    1    1    2    0    0  0.12119046127E+02 -0.13532435955E+02  0.45476168744E+01  0.18726423074E+02  0.00000000000E+00 0.  1.
         11    1    3    3    0    0 -0.87088308152E+01 -0.97270508379E+01 -0.25310417379E+02  0.28479404494E+02  0.51100000000E-03 0. -1.
        -11    1    3    3    0    0  0.35628420556E+01 -0.39484961901E+01 -0.39069097143E+01  0.65991218698E+01  0.51100000000E-03 0.  1.
        -12    1    3    3    0    0 -0.69730573675E+01  0.27207982983E+02  0.24669710219E+02  0.37383050562E+02  0.00000000000E+00 0.  1.
</event>
<event>
 7    1  0.1358622E-013  0.7246158E+02  0.7816164E-02  0.1226708E+00
        -11   -1    0    0    0    0  0.00000000000E+00  0.00000000000E+00  0.45593999997E+02  0.45594000000E+02  0.51100000000E-03 0.  1.
         11   -1    0    0    0    0 -0.00000000000E+00 -0.00000000000E+00 -0.45593999997E+02  0.45594000000E+02  0.51100000000E-03 0. -1.
    9900012    2    1    2    0    0 -0.18260797029E+02  0.12468243702E+01 -0.39582427589E+01  0.72461575758E+02  0.70000007118E+02 0.  0.
        -12    1    1    2    0    0  0.18260797029E+02 -0.12468243702E+01  0.39582427589E+01  0.18726424242E+02  0.00000000000E+00 0.  1.
         11    1    3    3    0    0 -0.15622076797E+01 -0.23955590161E+02  0.12576407599E+02  0.27101232834E+02  0.51100000000E-03 0. -1.
        -11    1    3    3    0    0  0.28216759375E+00 -0.58591168949E+01  0.84095985437E+00  0.59258824724E+01  0.51100000000E-03 0.  1.
        -12    1    3    3    0    0 -0.16980756943E+02  0.31061531426E+02 -0.17375610212E+02  0.39434460452E+02  0.00000000000E+00 0.  1.
</event>
<event>
 7    1  0.1358622E-013  0.7246151E+02  0.7816164E-02  0.1226708E+00
        -11   -1    0    0    0    0  0.00000000000E+00  0.00000000000E+00  0.45593999997E+02  0.45594000000E+02  0.51100000000E-03 0. -1.
         11   -1    0    0    0    0 -0.00000000000E+00 -0.00000000000E+00 -0.45593999997E+02  0.45594000000E+02  0.51100000000E-03 0.  1.
    9900012    2    1    2    0    0 -0.11038276091E+02  0.77755598153E+01  0.12976076763E+02  0.72461509735E+02  0.69999921110E+02 0.  0.
        -12    1    1    2    0    0  0.11038276091E+02 -0.77755598153E+01 -0.12976076763E+02  0.18726490265E+02  0.00000000000E+00 0.  1.
         11    1    3    3    0    0 -0.19253317293E+02  0.24914398621E+02  0.29487795576E+02  0.43138701575E+02  0.51100000000E-03 0. -1.
        -11    1    3    3    0    0 -0.20658828101E+01  0.15368231002E+01 -0.41094596894E+00  0.26074075012E+01  0.51100000000E-03 0.  1.
        -12    1    3    3    0    0  0.10280924012E+02 -0.18675661905E+02 -0.16100772845E+02  0.26715400659E+02  0.00000000000E+00 0.  1.
</event>
<event>
 7    1  0.1358622E-013  0.7246173E+02  0.7816164E-02  0.1226708E+00
        -11   -1    0    0    0    0  0.00000000000E+00  0.00000000000E+00  0.45593999997E+02  0.45594000000E+02  0.51100000000E-03 0.  1.
         11   -1    0    0    0    0 -0.00000000000E+00 -0.00000000000E+00 -0.45593999997E+02  0.45594000000E+02  0.51100000000E-03 0. -1.
    9900012    2    1    2    0    0 -0.95194963389E+01  0.64898998826E+01  0.14762578243E+02  0.72461726281E+02  0.70000203201E+02 0.  0.
        -12    1    1    2    0    0  0.95194963389E+01 -0.64898998826E+01 -0.14762578243E+02  0.18726273719E+02  0.00000000000E+00 0.  1.
         11    1    3    3    0    0 -0.16454012789E+02 -0.20918630559E+01  0.65270355334E+00  0.16599290650E+02  0.51100000000E-03 0. -1.
        -11    1    3    3    0    0 -0.77237444384E+01 -0.15341000934E+02  0.20844362609E+02  0.27009072377E+02  0.51100000000E-03 0.  1.
         12    1    3    3    0    0  0.14658260888E+02  0.23922763872E+02 -0.67344879198E+01  0.28853363254E+02  0.00000000000E+00 0. -1.
</event>
<event>
 7    1  0.1393566E-013  0.7246161E+02  0.7816164E-02  0.1226708E+00
        -11   -1    0    0    0    0  0.00000000000E+00  0.00000000000E+00  0.45593999997E+02  0.45594000000E+02  0.51100000000E-03 0. -1.
         11   -1    0    0    0    0 -0.00000000000E+00 -0.00000000000E+00 -0.45593999997E+02  0.45594000000E+02  0.51100000000E-03 0.  1.
    9900012    2    1    2    0    0 -0.14590970254E+02  0.16253350776E+01  0.11624951274E+02  0.72461611689E+02  0.70000053924E+02 0.  0.
        -12    1    1    2    0    0  0.14590970254E+02 -0.16253350776E+01 -0.11624951274E+02  0.18726388311E+02  0.00000000000E+00 0.  1.
         11    1    3    3    0    0  0.12473231654E+02  0.48153973932E+01  0.17205532735E+02  0.21789904013E+02  0.51100000000E-03 0.  1.
        -11    1    3    3    0    0  0.73100249834E+01  0.85231876203E+01  0.57696240465E+01  0.12624173413E+02  0.51100000000E-03 0. -1.
        -12    1    3    3    0    0 -0.34374226891E+02 -0.11713249936E+02 -0.11350205508E+02  0.38047534263E+02  0.00000000000E+00 0.  1.
</event>
<event>
 7    1  0.1358622E-013  0.7246155E+02  0.7816164E-02  0.1226708E+00
        -11   -1    0    0    0    0  0.00000000000E+00  0.00000000000E+00  0.45593999997E+02  0.45594000000E+02  0.51100000000E-03 0.  1.
         11   -1    0    0    0    0 -0.00000000000E+00 -0.00000000000E+00 -0.45593999997E+02  0.45594000000E+02  0.51100000000E-03 0. -1.
    9900012    2    1    2    0    0 -0.10796521291E+02  0.14124190907E+02 -0.58840604940E+01  0.72461553229E+02  0.69999977769E+02 0.  0.
        -12    1    1    2    0    0  0.10796521291E+02 -0.14124190907E+02  0.58840604940E+01  0.18726446771E+02  0.00000000000E+00 0.  1.
         11    1    3    3    0    0 -0.79642663119E+01 -0.18579385656E+01 -0.24729889747E+02  0.26047052055E+02  0.51100000000E-03 0. -1.
        -11    1    3    3    0    0 -0.19870293006E+02  0.53149772339E+01  0.16111187798E+02  0.26127531450E+02  0.51100000000E-03 0.  1.
         12    1    3    3    0    0  0.17038038027E+02  0.10667152239E+02  0.27346414547E+01  0.20286969724E+02  0.00000000000E+00 0. -1.
</event>
<event>
 7    1  0.1358622E-013  0.7246159E+02  0.7816164E-02  0.1226708E+00
        -11   -1    0    0    0    0  0.00000000000E+00  0.00000000000E+00  0.45593999997E+02  0.45594000000E+02  0.51100000000E-03 0.  1.
         11   -1    0    0    0    0 -0.00000000000E+00 -0.00000000000E+00 -0.45593999997E+02  0.45594000000E+02  0.51100000000E-03 0. -1.
    9900012    2    1    2    0    0 -0.10836369878E+02 -0.97433197342E+01 -0.11760916356E+02  0.72461592306E+02  0.70000028674E+02 0.  0.
        -12    1    1    2    0    0  0.10836369878E+02  0.97433197342E+01  0.11760916356E+02  0.18726407694E+02  0.00000000000E+00 0.  1.
         11    1    3    3    0    0  0.79242275166E+01 -0.15563193356E+02 -0.53425957589E+01  0.18263343037E+02  0.51100000000E-03 0. -1.
        -11    1    3    3    0    0  0.13502833108E+02 -0.13802761404E+01 -0.14813723376E+02  0.20091741206E+02  0.51100000000E-03 0.  1.
        -12    1    3    3    0    0 -0.32263430503E+02  0.72001497625E+01  0.83954027786E+01  0.34106508063E+02  0.00000000000E+00 0.  1.
</event>
<event>
 7    1  0.1358622E-013  0.7246152E+02  0.7816164E-02  0.1226708E+00
        -11   -1    0    0    0    0  0.00000000000E+00  0.00000000000E+00  0.45593999997E+02  0.45594000000E+02  0.51100000000E-03 0. -1.
         11   -1    0    0    0    0 -0.00000000000E+00 -0.00000000000E+00 -0.45593999997E+02  0.45594000000E+02  0.51100000000E-03 0.  1.
    9900012    2    1    2    0    0 -0.13260671300E+02 -0.99289669536E+01  0.87321912689E+01  0.72461522690E+02  0.69999937986E+02 0.  0.
        -12    1    1    2    0    0  0.13260671300E+02  0.99289669536E+01 -0.87321912689E+01  0.18726477310E+02  0.00000000000E+00 0.  1.
         11    1    3    3    0    0 -0.54037465836E+01 -0.14080467702E+02  0.86070198065E-01  0.15082024274E+02  0.51100000000E-03 0. -1.
        -11    1    3    3    0    0  0.17910275523E+02  0.11650390943E+02  0.19022513562E+02  0.28607090046E+02  0.51100000000E-03 0.  1.
         12    1    3    3    0    0 -0.25767200239E+02 -0.74988901939E+01 -0.10376392491E+02  0.28772408370E+02  0.00000000000E+00 0. -1.
</event>
<event>
 7    1  0.1358622E-013  0.7246157E+02  0.7816164E-02  0.1226708E+00
        -11   -1    0    0    0    0  0.00000000000E+00  0.00000000000E+00  0.45593999997E+02  0.45594000000E+02  0.51100000000E-03 0. -1.
         11   -1    0    0    0    0 -0.00000000000E+00 -0.00000000000E+00 -0.45593999997E+02  0.45594000000E+02  0.51100000000E-03 0.  1.
    9900012    2    1    2    0    0 -0.58183828003E+01  0.14702407428E+02 -0.10033186648E+02  0.72461569563E+02  0.69999999047E+02 0.  0.
        -12    1    1    2    0    0  0.58183828003E+01 -0.14702407428E+02  0.10033186648E+02  0.18726430437E+02  0.00000000000E+00 0.  1.
         11    1    3    3    0    0  0.70775365924E+01  0.89752343211E+01  0.17624242366E+02  0.21006196099E+02  0.51100000000E-03 0. -1.
        -11    1    3    3    0    0  0.62473940327E+01  0.18849024160E+02 -0.96390803585E+01  0.22073230720E+02  0.51100000000E-03 0.  1.
        -12    1    3    3    0    0 -0.19143313425E+02 -0.13121851053E+02 -0.18018348656E+02  0.29382142744E+02  0.00000000000E+00 0.  1.
</event>
<event>
 7    1  0.1358622E-013  0.7246194E+02  0.7816164E-02  0.1226707E+00
        -11   -1    0    0    0    0  0.00000000000E+00  0.00000000000E+00  0.45593999997E+02  0.45594000000E+02  0.51100000000E-03 0. -1.
         11   -1    0    0    0    0 -0.00000000000E+00 -0.00000000000E+00 -0.45593999997E+02  0.45594000000E+02  0.51100000000E-03 0.  1.
    9900012    2    1    2    0    0 -0.15309872955E+02  0.18582949321E+01  0.10621670365E+02  0.72461939248E+02  0.70000480629E+02 0.  0.
        -12    1    1    2    0    0  0.15309872955E+02 -0.18582949321E+01 -0.10621670365E+02  0.18726060752E+02  0.00000000000E+00 0.  1.
         11    1    3    3    0    0  0.13041456107E+02 -0.18740145300E+01  0.43759108511E+01  0.13883086973E+02  0.51100000000E-03 0. -1.
        -11    1    3    3    0    0  0.29408044296E+01 -0.85763561385E+01 -0.15908588635E+02  0.18310800308E+02  0.51100000000E-03 0.  1.
         12    1    3    3    0    0 -0.31292133492E+02  0.12308665601E+02  0.22154348149E+02  0.40268051967E+02  0.00000000000E+00 0. -1.
</event>
<event>
 7    1  0.1358622E-013  0.7246155E+02  0.7816164E-02  0.1226708E+00
        -11   -1    0    0    0    0  0.00000000000E+00  0.00000000000E+00  0.45593999997E+02  0.45594000000E+02  0.51100000000E-03 0.  1.
         11   -1    0    0    0    0 -0.00000000000E+00 -0.00000000000E+00 -0.45593999997E+02  0.45594000000E+02  0.51100000000E-03 0. -1.
    9900012    2    1    2    0    0  0.16971656710E+02 -0.79056177662E+01  0.37965471484E+00  0.72461546480E+02  0.69999968977E+02 0.  0.
        -12    1    1    2    0    0 -0.16971656710E+02  0.79056177662E+01 -0.37965471484E+00  0.18726453520E+02  0.00000000000E+00 0.  1.
         11    1    3    3    0    0  0.15037465282E+02  0.76912920648E+01 -0.19947799668E+02  0.26138019198E+02  0.51100000000E-03 0. -1.
        -11    1    3    3    0    0  0.73481778043E+01 -0.25551907171E+02  0.46683317214E+01  0.26994240097E+02  0.51100000000E-03 0.  1.
        -12    1    3    3    0    0 -0.54139863763E+01  0.99549973398E+01  0.15659122662E+02  0.19329287184E+02  0.00000000000E+00 0.  1.
</event>
<event>
 7    1  0.1358622E-013  0.7246157E+02  0.7816164E-02  0.1226708E+00
        -11   -1    0    0    0    0  0.00000000000E+00  0.00000000000E+00  0.45593999997E+02  0.45594000000E+02  0.51100000000E-03 0. -1.
         11   -1    0    0    0    0 -0.00000000000E+00 -0.00000000000E+00 -0.45593999997E+02  0.45594000000E+02  0.51100000000E-03 0.  1.
    9900012    2    1    2    0    0  0.16902211358E+02  0.53470850457E+01  0.60335044514E+01  0.72461568326E+02  0.69999997435E+02 0.  0.
        -12    1    1    2    0    0 -0.16902211358E+02 -0.53470850457E+01 -0.60335044514E+01  0.18726431674E+02  0.00000000000E+00 0.  1.
         11    1    3    3    0    0  0.16907117121E+02  0.64433027213E+01  0.27185147156E+02  0.32655764965E+02  0.51100000000E-03 0.  1.
        -11    1    3    3    0    0  0.65810201265E+01 -0.16035355342E+02 -0.12090586982E+02  0.21133498070E+02  0.51100000000E-03 0. -1.
        -12    1    3    3    0    0 -0.65859258895E+01  0.14939137666E+02 -0.90610557226E+01  0.18672305290E+02  0.00000000000E+00 0.  1.
</event>
<event>
 7    1  0.1713325E-013  0.7246156E+02  0.7816164E-02  0.1226708E+00
        -11   -1    0    0    0    0  0.00000000000E+00  0.00000000000E+00  0.45593999997E+02  0.45594000000E+02  0.51100000000E-03 0. -1.
         11   -1    0    0    0    0 -0.00000000000E+00 -0.00000000000E+00 -0.45593999997E+02  0.45594000000E+02  0.51100000000E-03 0.  1.
    9900012    2    1    2    0    0  0.21750576102E+01 -0.72833987233E+01  0.17114343479E+02  0.72461560795E+02  0.69999987626E+02 0.  0.
        -12    1    1    2    0    0 -0.21750576102E+01  0.72833987233E+01 -0.17114343479E+02  0.18726439205E+02  0.00000000000E+00 0.  1.
         11    1    3    3    0    0  0.22889705354E+02  0.25237312593E+01  0.16719928499E+02  0.28458106752E+02  0.51100000000E-03 0. -1.
        -11    1    3    3    0    0 -0.71309471555E+01  0.14498604829E+02  0.56142946192E-01  0.16157447249E+02  0.51100000000E-03 0.  1.
        -12    1    3    3    0    0 -0.13583700588E+02 -0.24305734812E+02  0.33827203361E+00  0.27846006794E+02  0.00000000000E+00 0.  1.
</event>
<event>
 7    1  0.1358622E-013  0.7246166E+02  0.7816164E-02  0.1226708E+00
        -11   -1    0    0    0    0  0.00000000000E+00  0.00000000000E+00  0.45593999997E+02  0.45594000000E+02  0.51100000000E-03 0.  1.
         11   -1    0    0    0    0 -0.00000000000E+00 -0.00000000000E+00 -0.45593999997E+02  0.45594000000E+02  0.51100000000E-03 0. -1.
    9900012    2    1    2    0    0  0.76402752363E+01  0.14681899088E+02 -0.87603494872E+01  0.72461663208E+02  0.70000121037E+02 0.  0.
        -12    1    1    2    0    0 -0.76402752363E+01 -0.14681899088E+02  0.87603494872E+01  0.18726336792E+02  0.00000000000E+00 0.  1.
         11    1    3    3    0    0 -0.10445757767E+02 -0.12938967393E+02 -0.19994419941E+02  0.26005913973E+02  0.51100000000E-03 0. -1.
        -11    1    3    3    0    0  0.72801928054E+01  0.17031939667E+02 -0.94778452591E+01  0.20806675062E+02  0.51100000000E-03 0.  1.
        -12    1    3    3    0    0  0.10805840198E+02  0.10588926814E+02  0.20711915713E+02  0.25649074173E+02  0.00000000000E+00 0.  1.
</event>
<event>
 7    1  0.1358622E-013  0.7246156E+02  0.7816164E-02  0.1226708E+00
        -11   -1    0    0    0    0  0.00000000000E+00  0.00000000000E+00  0.45593999997E+02  0.45594000000E+02  0.51100000000E-03 0.  1.
         11   -1    0    0    0    0 -0.00000000000E+00 -0.00000000000E+00 -0.45593999997E+02  0.45594000000E+02  0.51100000000E-03 0. -1.
    9900012    2    1    2    0    0  0.11446334141E+02 -0.14805935632E+02  0.66732712644E+00  0.72461558248E+02  0.69999984307E+02 0.  0.
        -12    1    1    2    0    0 -0.11446334141E+02  0.14805935632E+02 -0.66732712644E+00  0.18726441752E+02  0.00000000000E+00 0.  1.
         11    1    3    3    0    0 -0.30387895092E+01  0.14472055570E+02 -0.21916952650E+02  0.26439127214E+02  0.51100000000E-03 0. -1.
        -11    1    3    3    0    0  0.54424753786E+00  0.22719250611E+01 -0.24630812625E+01  0.33947928409E+01  0.51100000000E-03 0.  1.
        -12    1    3    3    0    0  0.13940876112E+02 -0.31549916263E+02  0.25047361039E+02  0.42627638194E+02  0.00000000000E+00 0.  1.
</event>
<event>
 7    1  0.1358622E-013  0.7246217E+02  0.7816164E-02  0.1226706E+00
        -11   -1    0    0    0    0  0.00000000000E+00  0.00000000000E+00  0.45593999997E+02  0.45594000000E+02  0.51100000000E-03 0.  1.
         11   -1    0    0    0    0 -0.00000000000E+00 -0.00000000000E+00 -0.45593999997E+02  0.45594000000E+02  0.51100000000E-03 0. -1.
    9900012    2    1    2    0    0  0.30509350374E-01  0.74480028520E+01 -0.17180892426E+02  0.72462169128E+02  0.70000780087E+02 0.  0.
        -12    1    1    2    0    0 -0.30509350374E-01 -0.74480028520E+01  0.17180892426E+02  0.18725830872E+02  0.00000000000E+00 0.  1.
         11    1    3    3    0    0 -0.58138723933E+01 -0.20491794819E+01 -0.17472352056E+02  0.18527906935E+02  0.51100000000E-03 0. -1.
        -11    1    3    3    0    0 -0.68977704574E+01  0.65577577186E+01 -0.24291578604E+02  0.26089542252E+02  0.51100000000E-03 0.  1.
        -12    1    3    3    0    0  0.12742152201E+02  0.29394246154E+01  0.24583038234E+02  0.27844719941E+02  0.00000000000E+00 0.  1.
</event>
<event>
 7    1  0.1358622E-013  0.7246152E+02  0.7816164E-02  0.1226708E+00
        -11   -1    0    0    0    0  0.00000000000E+00  0.00000000000E+00  0.45593999997E+02  0.45594000000E+02  0.51100000000E-03 0. -1.
         11   -1    0    0    0    0 -0.00000000000E+00 -0.00000000000E+00 -0.45593999997E+02  0.45594000000E+02  0.51100000000E-03 0.  1.
    9900012    2    1    2    0    0 -0.14821026189E+02 -0.68543374923E+00  0.11425777780E+02  0.72461520496E+02  0.69999935129E+02 0.  0.
        -12    1    1    2    0    0  0.14821026189E+02  0.68543374923E+00 -0.11425777780E+02  0.18726479504E+02  0.00000000000E+00 0.  1.
         11    1    3    3    0    0 -0.42149855066E+01  0.81002437692E+01 -0.66340786819E+01  0.11286764468E+02  0.51100000000E-03 0. -1.
        -11    1    3    3    0    0 -0.85925674147E+01 -0.32914385693E+02  0.13141904437E+02  0.36467775539E+02  0.51100000000E-03 0.  1.
         12    1    3    3    0    0 -0.20134732679E+01  0.24128708174E+02  0.49179520255E+01  0.24706980489E+02  0.00000000000E+00 0. -1.
</event>
<event>
 7    1  0.1358622E-013  0.7246161E+02  0.7816164E-02  0.1226708E+00
        -11   -1    0    0    0    0  0.00000000000E+00  0.00000000000E+00  0.45593999997E+02  0.45594000000E+02  0.51100000000E-03 0.  1.
         11   -1    0    0    0    0 -0.00000000000E+00 -0.00000000000E+00 -0.45593999997E+02  0.45594000000E+02  0.51100000000E-03 0. -1.
    9900012    2    1    2    0    0  0.34523184049E+01 -0.54441288324E+01 -0.17581832325E+02  0.72461605018E+02  0.70000045234E+02 0.  0.
        -12    1    1    2    0    0 -0.34523184049E+01  0.54441288324E+01  0.17581832325E+02  0.18726394982E+02  0.00000000000E+00 0.  1.
         11    1    3    3    0    0 -0.12057674070E+02 -0.21017847799E+02  0.10621630886E+02  0.26456690515E+02  0.51100000000E-03 0. -1.
        -11    1    3    3    0    0  0.14558581473E+01 -0.41396155966E+01  0.38487054896E+01  0.58368205763E+01  0.51100000000E-03 0.  1.
        -12    1    3    3    0    0  0.14054134327E+02  0.19713334563E+02 -0.32052168700E+02  0.40168093927E+02  0.00000000000E+00 0.  1.
</event>
<event>
 7    1  0.1358622E-013  0.7246157E+02  0.7816164E-02  0.1226708E+00
        -11   -1    0    0    0    0  0.00000000000E+00  0.00000000000E+00  0.45593999997E+02  0.45594000000E+02  0.51100000000E-03 0. -1.
         11   -1    0    0    0    0 -0.00000000000E+00 -0.00000000000E+00 -0.45593999997E+02  0.45594000000E+02  0.51100000000E-03 0.  1.
    9900012    2    1    2    0    0  0.55334331553E+01  0.16822491839E+02 -0.60880113966E+01  0.72461574903E+02  0.70000006004E+02 0.  0.
        -12    1    1    2    0    0 -0.55334331553E+01 -0.16822491839E+02  0.60880113966E+01  0.18726425097E+02  0.00000000000E+00 0.  1.
         11    1    3    3    0    0 -0.90980858641E+01  0.17324989606E+02  0.93710629564E+01  0.21696710636E+02  0.51100000000E-03 0. -1.
        -11    1    3    3    0    0  0.12686482547E+02  0.20510625243E+02  0.79143979915E+00  0.24130042778E+02  0.51100000000E-03 0.  1.
         12    1    3    3    0    0  0.19450364725E+01 -0.21013123010E+02 -0.16250514152E+02  0.26634821489E+02  0.00000000000E+00 0. -1.
</event>
<event>
 7    1  0.1358622E-013  0.7246158E+02  0.7816164E-02  0.1226708E+00
        -11   -1    0    0    0    0  0.00000000000E+00  0.00000000000E+00  0.45593999997E+02  0.45594000000E+02  0.51100000000E-03 0. -1.
         11   -1    0    0    0    0 -0.00000000000E+00 -0.00000000000E+00 -0.45593999997E+02  0.45594000000E+02  0.51100000000E-03 0.  1.
    9900012    2    1    2    0    0  0.74203608707E+01  0.64375296566E+01  0.15942869883E+02  0.72461584336E+02  0.70000018292E+02 0.  0.
        -12    1    1    2    0    0 -0.74203608707E+01 -0.64375296566E+01 -0.15942869883E+02  0.18726415664E+02  0.00000000000E+00 0.  1.
         11    1    3    3    0    0  0.13198447941E+02  0.18543261297E+02 -0.45779272261E+00  0.22765349591E+02  0.51100000000E-03 0. -1.
        -11    1    3    3    0    0  0.14862727299E+02 -0.22286641816E+01 -0.73380229031E+01  0.16724658059E+02  0.51100000000E-03 0.  1.
        -12    1    3    3    0    0 -0.20640814370E+02 -0.98770674585E+01  0.23738685509E+02  0.32971576685E+02  0.00000000000E+00 0.  1.
</event>
<event>
 7    1  0.1939903E-013  0.7246138E+02  0.7816164E-02  0.1226709E+00
        -11   -1    0    0    0    0  0.00000000000E+00  0.00000000000E+00  0.45593999997E+02  0.45594000000E+02  0.51100000000E-03 0. -1.
         11   -1    0    0    0    0 -0.00000000000E+00 -0.00000000000E+00 -0.45593999997E+02  0.45594000000E+02  0.51100000000E-03 0.  1.
    9900012    2    1    2    0    0 -0.12638122144E+02  0.13296082755E+01  0.13754867842E+02  0.72461377805E+02  0.69999749246E+02 0.  0.
        -12    1    1    2    0    0  0.12638122144E+02 -0.13296082755E+01 -0.13754867842E+02  0.18726622195E+02  0.00000000000E+00 0.  1.
         11    1    3    3    0    0  0.26786150165E+01  0.66277288784E+01  0.27136466570E+02  0.28062244861E+02  0.51100000000E-03 0. -1.
        -11    1    3    3    0    0  0.10157971157E+02  0.83466818930E+01 -0.18169529009E+01  0.13272256581E+02  0.51100000000E-03 0.  1.
        -12    1    3    3    0    0 -0.25474708317E+02 -0.13644802496E+02 -0.11564645827E+02  0.31126876363E+02  0.00000000000E+00 0.  1.
</event>
<event>
 7    1  0.1358622E-013  0.7246155E+02  0.7816164E-02  0.1226708E+00
        -11   -1    0    0    0    0  0.00000000000E+00  0.00000000000E+00  0.45593999997E+02  0.45594000000E+02  0.51100000000E-03 0.  1.
         11   -1    0    0    0    0 -0.00000000000E+00 -0.00000000000E+00 -0.45593999997E+02  0.45594000000E+02  0.51100000000E-03 0. -1.
    9900012    2    1    2    0    0  0.80553110936E+01 -0.59085042765E+01 -0.15839234548E+02  0.72461553176E+02  0.69999977700E+02 0.  0.
        -12    1    1    2    0    0 -0.80553110936E+01  0.59085042765E+01  0.15839234548E+02  0.18726446824E+02  0.00000000000E+00 0.  1.
         11    1    3    3    0    0 -0.14352015563E+02  0.11482766490E+02 -0.13798874160E+01  0.18431993015E+02  0.51100000000E-03 0.  1.
        -11    1    3    3    0    0  0.13858061151E+02 -0.21190620421E+02 -0.27885423938E+02  0.37665436692E+02  0.51100000000E-03 0. -1.
        -12    1    3    3    0    0  0.85492655052E+01  0.37993496554E+01  0.13426076806E+02  0.16364123468E+02  0.00000000000E+00 0.  1.
</event>
<event>
 7    1  0.1358622E-013  0.7246157E+02  0.7816164E-02  0.1226708E+00
        -11   -1    0    0    0    0  0.00000000000E+00  0.00000000000E+00  0.45593999997E+02  0.45594000000E+02  0.51100000000E-03 0. -1.
         11   -1    0    0    0    0 -0.00000000000E+00 -0.00000000000E+00 -0.45593999997E+02  0.45594000000E+02  0.51100000000E-03 0.  1.
    9900012    2    1    2    0    0  0.13779309151E+02  0.10399335681E+02  0.72569769721E+01  0.72461567930E+02  0.69999996920E+02 0.  0.
        -12    1    1    2    0    0 -0.13779309151E+02 -0.10399335681E+02 -0.72569769721E+01  0.18726432070E+02  0.00000000000E+00 0.  1.
         11    1    3    3    0    0 -0.96945284862E+01 -0.74662518085E+01 -0.15248560329E+02  0.19551148073E+02  0.51100000000E-03 0. -1.
        -11    1    3    3    0    0  0.20613638637E+02 -0.18328678801E+01 -0.26151487669E+01  0.20859542322E+02  0.51100000000E-03 0.  1.
         12    1    3    3    0    0  0.28601990001E+01  0.19698455370E+02  0.25120686067E+02  0.32050877535E+02  0.00000000000E+00 0. -1.
</event>
<event>
 7    1  0.1358622E-013  0.7246156E+02  0.7816164E-02  0.1226708E+00
        -11   -1    0    0    0    0  0.00000000000E+00  0.00000000000E+00  0.45593999997E+02  0.45594000000E+02  0.51100000000E-03 0.  1.
         11   -1    0    0    0    0 -0.00000000000E+00 -0.00000000000E+00 -0.45593999997E+02  0.45594000000E+02  0.51100000000E-03 0. -1.
    9900012    2    1    2    0    0 -0.95307951613E+01 -0.15622915592E+02  0.39709102393E+01  0.72461556768E+02  0.69999982379E+02 0.  0.
        -12    1    1    2    0    0  0.95307951613E+01  0.15622915592E+02 -0.39709102393E+01  0.18726443232E+02  0.00000000000E+00 0.  1.
         11    1    3    3    0    0  0.23368865090E+00  0.44175192021E+00  0.58403884201E+00  0.76867208527E+00  0.51100000000E-03 0. -1.
        -11    1    3    3    0    0 -0.37627638406E+02 -0.21315216817E+02  0.27323788623E+01  0.43331784344E+02  0.51100000000E-03 0.  1.
         12    1    3    3    0    0  0.27863154594E+02  0.52505493047E+01  0.65449253503E+00  0.28361100338E+02  0.00000000000E+00 0. -1.
</event>
<event>
 7    1  0.1358622E-013  0.7246161E+02  0.7816164E-02  0.1226708E+00
        -11   -1    0    0    0    0  0.00000000000E+00  0.00000000000E+00  0.45593999997E+02  0.45594000000E+02  0.51100000000E-03 0. -1.
         11   -1    0    0    0    0 -0.00000000000E+00 -0.00000000000E+00 -0.45593999997E+02  0.45594000000E+02  0.51100000000E-03 0.  1.
    9900012    2    1    2    0    0  0.16480892955E+02  0.82245562353E+01  0.33785434845E+01  0.72461609159E+02  0.70000050628E+02 0.  0.
        -12    1    1    2    0    0 -0.16480892955E+02 -0.82245562353E+01 -0.33785434845E+01  0.18726390841E+02  0.00000000000E+00 0.  1.
         11    1    3    3    0    0 -0.80341627742E+01  0.13509474473E+02  0.13400891550E+01  0.15774964698E+02  0.51100000000E-03 0. -1.
        -11    1    3    3    0    0 -0.31247505653E+01  0.11027765728E+02 -0.16144275917E+02  0.19799326458E+02  0.51100000000E-03 0.  1.
         12    1    3    3    0    0  0.27639806295E+02 -0.16312683966E+02  0.18182730247E+02  0.36887318002E+02  0.00000000000E+00 0. -1.
</event>
<event>
 7    1  0.1358622E-013  0.7246155E+02  0.7816164E-02  0.1226708E+00
        -11   -1    0    0    0    0  0.00000000000E+00  0.00000000000E+00  0.45593999997E+02  0.45594000000E+02  0.51100000000E-03 0.  1.
         11   -1    0    0    0    0 -0.00000000000E+00 -0.00000000000E+00 -0.45593999997E+02  0.45594000000E+02  0.51100000000E-03 0. -1.
    9900012    2    1    2    0    0  0.12020220574E+02  0.13487233308E+02 -0.49283513591E+01  0.72461553138E+02  0.69999977651E+02 0.  0.
        -12    1    1    2    0    0 -0.12020220574E+02 -0.13487233308E+02  0.49283513591E+01  0.18726446862E+02  0.00000000000E+00 0.  1.
         11    1    3    3    0    0  0.70363500786E+01 -0.41048119801E+01  0.83640574609E+01  0.11675494049E+02  0.51100000000E-03 0. -1.
        -11    1    3    3    0    0 -0.27708849402E+01  0.56718592798E+01  0.21919838552E+02  0.22810679811E+02  0.51100000000E-03 0.  1.
         12    1    3    3    0    0  0.77547554354E+01  0.11920186009E+02 -0.35212247372E+02  0.37975379278E+02  0.00000000000E+00 0. -1.
</event>
<event>
 7    1  0.1358622E-013  0.7246154E+02  0.7816164E-02  0.1226708E+00
        -11   -1    0    0    0    0  0.00000000000E+00  0.00000000000E+00  0.45593999997E+02  0.45594000000E+02  0.51100000000E-03 0.  1.
         11   -1    0    0    0    0 -0.00000000000E+00 -0.00000000000E+00 -0.45593999997E+02  0.45594000000E+02  0.51100000000E-03 0. -1.
    9900012    2    1    2    0    0  0.10983064368E+01  0.18016978331E+02 -0.49862161354E+01  0.72461544474E+02  0.69999966365E+02 0.  0.
        -12    1    1    2    0    0 -0.10983064368E+01 -0.18016978331E+02  0.49862161354E+01  0.18726455526E+02  0.00000000000E+00 0.  1.
         11    1    3    3    0    0  0.55906675840E+01  0.17522481785E+02 -0.91740174626E+01  0.20553722986E+02  0.51100000000E-03 0. -1.
        -11    1    3    3    0    0  0.15340103428E+02  0.15783516004E+02  0.12758113033E+02  0.25440275137E+02  0.51100000000E-03 0.  1.
         12    1    3    3    0    0 -0.19832464575E+02 -0.15289019458E+02 -0.85703117060E+01  0.26467546351E+02  0.00000000000E+00 0. -1.
</event>
<event>
 7    1  0.1358622E-013  0.7246160E+02  0.7816164E-02  0.1226708E+00
        -11   -1    0    0    0    0  0.00000000000E+00  0.00000000000E+00  0.45593999997E+02  0.45594000000E+02  0.51100000000E-03 0.  1.
         11   -1    0    0    0    0 -0.00000000000E+00 -0.00000000000E+00 -0.45593999997E+02  0.45594000000E+02  0.51100000000E-03 0. -1.
    9900012    2    1    2    0    0 -0.54719132560E+01  0.67743496931E+01 -0.16578434590E+02  0.72461597732E+02  0.70000035743E+02 0.  0.
        -12    1    1    2    0    0  0.54719132560E+01 -0.67743496931E+01  0.16578434590E+02  0.18726402268E+02  0.00000000000E+00 0.  1.
         11    1    3    3    0    0  0.17893757853E+02 -0.89424355646E+01  0.60588414276E+01  0.20901274689E+02  0.51100000000E-03 0. -1.
        -11    1    3    3    0    0  0.55275852683E+01 -0.64695860539E+00  0.56566162814E+01  0.79353678145E+01  0.51100000000E-03 0.  1.
         12    1    3    3    0    0 -0.28893256377E+02  0.16363743863E+02 -0.28293892299E+02  0.43624955229E+02  0.00000000000E+00 0. -1.
</event>
<event>
 7    1  0.1358622E-013  0.7246141E+02  0.7816164E-02  0.1226708E+00
        -11   -1    0    0    0    0  0.00000000000E+00  0.00000000000E+00  0.45593999997E+02  0.45594000000E+02  0.51100000000E-03 0.  1.
         11   -1    0    0    0    0 -0.00000000000E+00 -0.00000000000E+00 -0.45593999997E+02  0.45594000000E+02  0.51100000000E-03 0. -1.
    9900012    2    1    2    0    0 -0.55412245251E+01 -0.13427743069E+02 -0.11818450892E+02  0.72461408354E+02  0.69999789043E+02 0.  0.
        -12    1    1    2    0    0  0.55412245251E+01  0.13427743069E+02  0.11818450892E+02  0.18726591646E+02  0.00000000000E+00 0.  1.
         11    1    3    3    0    0  0.12356218233E+01 -0.57660958628E+00  0.25675748243E+01  0.29071774361E+01  0.51100000000E-03 0. -1.
        -11    1    3    3    0    0 -0.76527188817E+01 -0.55317142889E+01  0.26436081855E+02  0.28071879049E+02  0.51100000000E-03 0.  1.
         12    1    3    3    0    0  0.87587253324E+00 -0.73194191942E+01 -0.40822107571E+02  0.41482351869E+02  0.00000000000E+00 0. -1.
</event>
<event>
 7    1  0.1358622E-013  0.7246148E+02  0.7816164E-02  0.1226708E+00
        -11   -1    0    0    0    0  0.00000000000E+00  0.00000000000E+00  0.45593999997E+02  0.45594000000E+02  0.51100000000E-03 0. -1.
         11   -1    0    0    0    0 -0.00000000000E+00 -0.00000000000E+00 -0.45593999997E+02  0.45594000000E+02  0.51100000000E-03 0.  1.
    9900012    2    1    2    0    0  0.87995719679E+01  0.16522351100E+02  0.51196321155E+00  0.72461477124E+02  0.69999878628E+02 0.  0.
        -12    1    1    2    0    0 -0.87995719679E+01 -0.16522351100E+02 -0.51196321155E+00  0.18726522876E+02  0.00000000000E+00 0.  1.
         11    1    3    3    0    0  0.12572854895E+02  0.70867921332E+01 -0.25905561563E+02  0.29654635778E+02  0.51100000000E-03 0.  1.
        -11    1    3    3    0    0  0.12342759576E+02  0.43714637072E+01  0.21568022081E+02  0.25231587061E+02  0.51100000000E-03 0. -1.
        -12    1    3    3    0    0 -0.16116042504E+02  0.50640952598E+01  0.48495026940E+01  0.17575254284E+02  0.00000000000E+00 0.  1.
</event>
<event>
 7    1  0.1358622E-013  0.7246156E+02  0.7816164E-02  0.1226708E+00
        -11   -1    0    0    0    0  0.00000000000E+00  0.00000000000E+00  0.45593999997E+02  0.45594000000E+02  0.51100000000E-03 0. -1.
         11   -1    0    0    0    0 -0.00000000000E+00 -0.00000000000E+00 -0.45593999997E+02  0.45594000000E+02  0.51100000000E-03 0.  1.
    9900012    2    1    2    0    0  0.34886572962E+00 -0.48491058043E+01  0.18084353948E+02  0.72461564351E+02  0.69999992257E+02 0.  0.
        -12    1    1    2    0    0 -0.34886572962E+00  0.48491058043E+01 -0.18084353948E+02  0.18726435649E+02  0.00000000000E+00 0.  1.
         11    1    3    3    0    0  0.47236168223E+01  0.84723198983E+01 -0.72624589698E+01  0.12117593445E+02  0.51100000000E-03 0. -1.
        -11    1    3    3    0    0 -0.18990957281E+01  0.11799319355E+02 -0.10898930999E+02  0.16174584972E+02  0.51100000000E-03 0.  1.
         12    1    3    3    0    0 -0.24756553646E+01 -0.25120745057E+02  0.36245743917E+02  0.44169385934E+02  0.00000000000E+00 0. -1.
</event>
<event>
 7    1  0.1358622E-013  0.7246157E+02  0.7816164E-02  0.1226708E+00
        -11   -1    0    0    0    0  0.00000000000E+00  0.00000000000E+00  0.45593999997E+02  0.45594000000E+02  0.51100000000E-03 0.  1.
         11   -1    0    0    0    0 -0.00000000000E+00 -0.00000000000E+00 -0.45593999997E+02  0.45594000000E+02  0.51100000000E-03 0. -1.
    9900012    2    1    2    0    0 -0.14009413660E+01  0.59782441403E+01 -0.17691164130E+02  0.72461566063E+02  0.69999994488E+02 0.  0.
        -12    1    1    2    0    0  0.14009413660E+01 -0.59782441403E+01  0.17691164130E+02  0.18726433937E+02  0.00000000000E+00 0.  1.
         11    1    3    3    0    0  0.22519117891E+00 -0.27822340402E+01 -0.67803594158E+01  0.73324492081E+01  0.51100000000E-03 0. -1.
        -11    1    3    3    0    0 -0.14434700675E+02 -0.19837822278E+02  0.11006250402E+02  0.26889353367E+02  0.51100000000E-03 0.  1.
         12    1    3    3    0    0  0.12808568130E+02  0.28598300458E+02 -0.21917055117E+02  0.38239763488E+02  0.00000000000E+00 0. -1.
</event>
<event>
 7    1  0.1358622E-013  0.7246154E+02  0.7816164E-02  0.1226708E+00
        -11   -1    0    0    0    0  0.00000000000E+00  0.00000000000E+00  0.45593999997E+02  0.45594000000E+02  0.51100000000E-03 0.  1.
         11   -1    0    0    0    0 -0.00000000000E+00 -0.00000000000E+00 -0.45593999997E+02  0.45594000000E+02  0.51100000000E-03 0. -1.
    9900012    2    1    2    0    0  0.82434899700E+01 -0.11281414861E+02 -0.12468153020E+02  0.72461540434E+02  0.69999961101E+02 0.  0.
        -12    1    1    2    0    0 -0.82434899700E+01  0.11281414861E+02  0.12468153020E+02  0.18726459566E+02  0.00000000000E+00 0.  1.
         11    1    3    3    0    0  0.20817024735E+02 -0.76752200430E+01 -0.17872254910E+02  0.28489910799E+02  0.51100000000E-03 0. -1.
        -11    1    3    3    0    0  0.12554462541E+02 -0.11651084004E+01 -0.84459247149E+01  0.15175824585E+02  0.51100000000E-03 0.  1.
        -12    1    3    3    0    0 -0.25127997306E+02 -0.24410864177E+01  0.13850026605E+02  0.28795805050E+02  0.00000000000E+00 0.  1.
</event>
<event>
 7    1  0.1358622E-013  0.7246158E+02  0.7816164E-02  0.1226708E+00
        -11   -1    0    0    0    0  0.00000000000E+00  0.00000000000E+00  0.45593999997E+02  0.45594000000E+02  0.51100000000E-03 0. -1.
         11   -1    0    0    0    0 -0.00000000000E+00 -0.00000000000E+00 -0.45593999997E+02  0.45594000000E+02  0.51100000000E-03 0.  1.
    9900012    2    1    2    0    0 -0.10744061938E+02 -0.14621365358E+02  0.46324672558E+01  0.72461576296E+02  0.70000007818E+02 0.  0.
        -12    1    1    2    0    0  0.10744061938E+02  0.14621365358E+02 -0.46324672558E+01  0.18726423704E+02  0.00000000000E+00 0.  1.
         11    1    3    3    0    0 -0.96272598787E+01  0.70073211644E+01  0.49180171166E+01  0.12883073208E+02  0.51100000000E-03 0. -1.
        -11    1    3    3    0    0  0.28737709976E+01  0.10773682938E+01 -0.25343513813E+02  0.25528669665E+02  0.51100000000E-03 0.  1.
         12    1    3    3    0    0 -0.39905730572E+01 -0.22706054817E+02  0.25057963952E+02  0.34049833423E+02  0.00000000000E+00 0. -1.
</event>
<event>
 7    1  0.1358622E-013  0.7246131E+02  0.7816164E-02  0.1226709E+00
        -11   -1    0    0    0    0  0.00000000000E+00  0.00000000000E+00  0.45593999997E+02  0.45594000000E+02  0.51100000000E-03 0. -1.
         11   -1    0    0    0    0 -0.00000000000E+00 -0.00000000000E+00 -0.45593999997E+02  0.45594000000E+02  0.51100000000E-03 0.  1.
    9900012    2    1    2    0    0 -0.50513023807E+01  0.99929975515E+01  0.15010433456E+02  0.72461314005E+02  0.69999666135E+02 0.  0.
        -12    1    1    2    0    0  0.50513023807E+01 -0.99929975515E+01 -0.15010433456E+02  0.18726685995E+02  0.00000000000E+00 0.  1.
         11    1    3    3    0    0 -0.17798726606E+02  0.16284371373E+02  0.20794267485E+02  0.31849285397E+02  0.51100000000E-03 0. -1.
        -11    1    3    3    0    0 -0.49728662615E+01  0.50743000698E+01  0.11403024984E+02  0.13435285598E+02  0.51100000000E-03 0.  1.
        -12    1    3    3    0    0  0.17720290486E+02 -0.11365673891E+02 -0.17186859013E+02  0.27176743010E+02  0.00000000000E+00 0.  1.
</event>
<event>
 7    1  0.1358622E-013  0.7246154E+02  0.7816164E-02  0.1226708E+00
        -11   -1    0    0    0    0  0.00000000000E+00  0.00000000000E+00  0.45593999997E+02  0.45594000000E+02  0.51100000000E-03 0.  1.
         11   -1    0    0    0    0 -0.00000000000E+00 -0.00000000000E+00 -0.45593999997E+02  0.45594000000E+02  0.51100000000E-03 0. -1.
    9900012    2    1    2    0    0  0.75691896346E+01  0.14860625273E+02 -0.85175927046E+01  0.72461542761E+02  0.69999964133E+02 0.  0.
        -12    1    1    2    0    0 -0.75691896346E+01 -0.14860625273E+02  0.85175927046E+01  0.18726457239E+02  0.00000000000E+00 0.  1.
         11    1    3    3    0    0  0.35872648105E+02  0.92063554461E+01  0.10760881740E+01  0.37050800648E+02  0.51100000000E-03 0. -1.
        -11    1    3    3    0    0 -0.28397435703E+01  0.77101178126E+01 -0.28607991788E+00  0.82214294505E+01  0.51100000000E-03 0.  1.
        -12    1    3    3    0    0 -0.25463714900E+02 -0.20558479854E+01 -0.93076009607E+01  0.27189312663E+02  0.00000000000E+00 0.  1.
</event>
<event>
 7    1  0.1358622E-013  0.7246156E+02  0.7816164E-02  0.1226708E+00
        -11   -1    0    0    0    0  0.00000000000E+00  0.00000000000E+00  0.45593999997E+02  0.45594000000E+02  0.51100000000E-03 0. -1.
         11   -1    0    0    0    0 -0.00000000000E+00 -0.00000000000E+00 -0.45593999997E+02  0.45594000000E+02  0.51100000000E-03 0.  1.
    9900012    2    1    2    0    0  0.32989625350E+01  0.18092055294E+02 -0.35318651247E+01  0.72461556402E+02  0.69999981902E+02 0.  0.
        -12    1    1    2    0    0 -0.32989625350E+01 -0.18092055294E+02  0.35318651247E+01  0.18726443598E+02  0.00000000000E+00 0.  1.
         11    1    3    3    0    0  0.15735477688E+02  0.20989915687E+02 -0.76455649745E+01  0.27324649726E+02  0.51100000000E-03 0.  1.
        -11    1    3    3    0    0  0.14511378751E+02 -0.43423087457E+01  0.91330380226E+01  0.17687513739E+02  0.51100000000E-03 0. -1.
        -12    1    3    3    0    0 -0.26947893903E+02  0.14444483528E+01 -0.50193381727E+01  0.27449392936E+02  0.00000000000E+00 0.  1.
</event>
<event>
 7    1  0.1358622E-013  0.7246159E+02  0.7816164E-02  0.1226708E+00
        -11   -1    0    0    0    0  0.00000000000E+00  0.00000000000E+00  0.45593999997E+02  0.45594000000E+02  0.51100000000E-03 0.  1.
         11   -1    0    0    0    0 -0.00000000000E+00 -0.00000000000E+00 -0.45593999997E+02  0.45594000000E+02  0.51100000000E-03 0. -1.
    9900012    2    1    2    0    0  0.91810243273E+01 -0.12452207329E+02 -0.10551296940E+02  0.72461587044E+02  0.70000021820E+02 0.  0.
        -12    1    1    2    0    0 -0.91810243273E+01  0.12452207329E+02  0.10551296940E+02  0.18726412956E+02  0.00000000000E+00 0.  1.
         11    1    3    3    0    0  0.13443209138E+02 -0.41972720136E+01 -0.18159472610E+02  0.22980500648E+02  0.51100000000E-03 0. -1.
        -11    1    3    3    0    0  0.14787493073E+02  0.24764740329E+01 -0.12693221069E+02  0.19644865396E+02  0.51100000000E-03 0.  1.
        -12    1    3    3    0    0 -0.19049677884E+02 -0.10731409348E+02  0.20301396739E+02  0.29836221001E+02  0.00000000000E+00 0.  1.
</event>
<event>
 7    1  0.1358622E-013  0.7246155E+02  0.7816164E-02  0.1226708E+00
        -11   -1    0    0    0    0  0.00000000000E+00  0.00000000000E+00  0.45593999997E+02  0.45594000000E+02  0.51100000000E-03 0. -1.
         11   -1    0    0    0    0 -0.00000000000E+00 -0.00000000000E+00 -0.45593999997E+02  0.45594000000E+02  0.51100000000E-03 0.  1.
    9900012    2    1    2    0    0 -0.15757946510E+02 -0.93945215838E+01  0.37563127601E+01  0.72461553472E+02  0.69999978086E+02 0.  0.
        -12    1    1    2    0    0  0.15757946510E+02  0.93945215838E+01 -0.37563127601E+01  0.18726446528E+02  0.00000000000E+00 0.  1.
         11    1    3    3    0    0  0.32835687085E+01 -0.30291676958E+01  0.76877745008E+01  0.88915441532E+01  0.51100000000E-03 0. -1.
        -11    1    3    3    0    0 -0.27105547503E+02 -0.28284180026E+02  0.27679426819E+01  0.39272981197E+02  0.51100000000E-03 0.  1.
        -12    1    3    3    0    0  0.80640322838E+01  0.21918826138E+02 -0.66994044226E+01  0.24297028122E+02  0.00000000000E+00 0.  1.
</event>
<event>
 7    1  0.1358622E-013  0.7246157E+02  0.7816164E-02  0.1226708E+00
        -11   -1    0    0    0    0  0.00000000000E+00  0.00000000000E+00  0.45593999997E+02  0.45594000000E+02  0.51100000000E-03 0.  1.
         11   -1    0    0    0    0 -0.00000000000E+00 -0.00000000000E+00 -0.45593999997E+02  0.45594000000E+02  0.51100000000E-03 0. -1.
    9900012    2    1    2    0    0 -0.16227769700E+02  0.90591165516E+01  0.22958444661E+01  0.72461574715E+02  0.70000005759E+02 0.  0.
        -12    1    1    2    0    0  0.16227769700E+02 -0.90591165516E+01 -0.22958444661E+01  0.18726425285E+02  0.00000000000E+00 0.  1.
         11    1    3    3    0    0  0.17510079973E+02  0.19504718622E+02  0.38531577124E+01  0.26493089171E+02  0.51100000000E-03 0. -1.
        -11    1    3    3    0    0  0.37803009137E+01  0.39870884276E+01  0.13733589979E+01  0.56633615747E+01  0.51100000000E-03 0.  1.
         12    1    3    3    0    0 -0.37518150587E+02 -0.14432690498E+02 -0.29306722442E+01  0.40305123970E+02  0.00000000000E+00 0. -1.
</event>
<event>
 7    1  0.1358622E-013  0.7246155E+02  0.7816164E-02  0.1226708E+00
        -11   -1    0    0    0    0  0.00000000000E+00  0.00000000000E+00  0.45593999997E+02  0.45594000000E+02  0.51100000000E-03 0.  1.
         11   -1    0    0    0    0 -0.00000000000E+00 -0.00000000000E+00 -0.45593999997E+02  0.45594000000E+02  0.51100000000E-03 0. -1.
    9900012    2    1    2    0    0  0.11752414289E+02  0.14128415269E+02  0.35984183355E+01  0.72461548811E+02  0.69999972014E+02 0.  0.
        -12    1    1    2    0    0 -0.11752414289E+02 -0.14128415269E+02 -0.35984183355E+01  0.18726451189E+02  0.00000000000E+00 0.  1.
         11    1    3    3    0    0  0.10020318561E+02  0.11725554721E+02  0.13619461923E+02  0.20576325253E+02  0.51100000000E-03 0. -1.
        -11    1    3    3    0    0  0.25777447427E+02  0.37414162666E+01 -0.68571722716E+00  0.26056576903E+02  0.51100000000E-03 0.  1.
         12    1    3    3    0    0 -0.24045351699E+02 -0.13385557193E+01 -0.93353263603E+01  0.25828646654E+02  0.00000000000E+00 0. -1.
</event>
<event>
 7    1  0.1358622E-013  0.7246158E+02  0.7816164E-02  0.1226708E+00
        -11   -1    0    0    0    0  0.00000000000E+00  0.00000000000E+00  0.45593999997E+02  0.45594000000E+02  0.51100000000E-03 0. -1.
         11   -1    0    0    0    0 -0.00000000000E+00 -0.00000000000E+00 -0.45593999997E+02  0.45594000000E+02  0.51100000000E-03 0.  1.
    9900012    2    1    2    0    0  0.18212958906E+02  0.40518774051E+01  0.15966092235E+01  0.72461581666E+02  0.70000014814E+02 0.  0.
        -12    1    1    2    0    0 -0.18212958906E+02 -0.40518774051E+01 -0.15966092235E+01  0.18726418334E+02  0.00000000000E+00 0.  1.
         11    1    3    3    0    0 -0.97656983062E+01  0.12803405318E+02  0.49372684129E+01  0.16842585038E+02  0.51100000000E-03 0. -1.
        -11    1    3    3    0    0 -0.11741800865E+02  0.59224338379E+01 -0.14793638440E+01  0.13233806246E+02  0.51100000000E-03 0.  1.
         12    1    3    3    0    0  0.39720458077E+02 -0.14673961750E+02 -0.18612953454E+01  0.42385190381E+02  0.00000000000E+00 0. -1.
</event>
<event>
 7    1  0.1358622E-013  0.7246157E+02  0.7816164E-02  0.1226708E+00
        -11   -1    0    0    0    0  0.00000000000E+00  0.00000000000E+00  0.45593999997E+02  0.45594000000E+02  0.51100000000E-03 0. -1.
         11   -1    0    0    0    0 -0.00000000000E+00 -0.00000000000E+00 -0.45593999997E+02  0.45594000000E+02  0.51100000000E-03 0.  1.
    9900012    2    1    2    0    0 -0.13822349568E+02 -0.99164239030E+01  0.78285514407E+01  0.72461574066E+02  0.70000004914E+02 0.  0.
        -12    1    1    2    0    0  0.13822349568E+02  0.99164239030E+01 -0.78285514407E+01  0.18726425934E+02  0.00000000000E+00 0.  1.
         11    1    3    3    0    0  0.92004046113E+01 -0.77729749979E+00  0.52260560683E+01  0.10609585228E+02  0.51100000000E-03 0. -1.
        -11    1    3    3    0    0  0.68903501968E+01  0.16083453104E+02 -0.10718099186E+02  0.20519065281E+02  0.51100000000E-03 0.  1.
         12    1    3    3    0    0 -0.29913104376E+02 -0.25222579508E+02  0.13320594558E+02  0.41332923557E+02  0.00000000000E+00 0. -1.
</event>
<event>
 7    1  0.1358622E-013  0.7246158E+02  0.7816164E-02  0.1226708E+00
        -11   -1    0    0    0    0  0.00000000000E+00  0.00000000000E+00  0.45593999997E+02  0.45594000000E+02  0.51100000000E-03 0.  1.
         11   -1    0    0    0    0 -0.00000000000E+00 -0.00000000000E+00 -0.45593999997E+02  0.45594000000E+02  0.51100000000E-03 0. -1.
    9900012    2    1    2    0    0  0.10516579755E+02 -0.14452706248E+02  0.55856691379E+01  0.72461578363E+02  0.70000010511E+02 0.  0.
        -12    1    1    2    0    0 -0.10516579755E+02  0.14452706248E+02 -0.55856691379E+01  0.18726421637E+02  0.00000000000E+00 0.  1.
         11    1    3    3    0    0  0.29339601897E+02 -0.19221598008E+02  0.55745546893E+01  0.35515598400E+02  0.51100000000E-03 0. -1.
        -11    1    3    3    0    0  0.87944590501E+01  0.26943549017E+01 -0.85145202327E+00  0.92372630757E+01  0.51100000000E-03 0.  1.
        -12    1    3    3    0    0 -0.27617481193E+02  0.20745368585E+01  0.86256647189E+00  0.27708716887E+02  0.00000000000E+00 0.  1.
</event>
<event>
 7    1  0.1358622E-013  0.7246160E+02  0.7816164E-02  0.1226708E+00
        -11   -1    0    0    0    0  0.00000000000E+00  0.00000000000E+00  0.45593999997E+02  0.45594000000E+02  0.51100000000E-03 0. -1.
         11   -1    0    0    0    0 -0.00000000000E+00 -0.00000000000E+00 -0.45593999997E+02  0.45594000000E+02  0.51100000000E-03 0.  1.
    9900012    2    1    2    0    0  0.42642750725E+01 -0.15890718149E+02  0.89431115161E+01  0.72461595946E+02  0.70000033416E+02 0.  0.
        -12    1    1    2    0    0 -0.42642750725E+01  0.15890718149E+02 -0.89431115161E+01  0.18726404054E+02  0.00000000000E+00 0.  1.
         11    1    3    3    0    0 -0.10055377503E+02 -0.12540306477E+02  0.43523670006E+01  0.16652717557E+02  0.51100000000E-03 0. -1.
        -11    1    3    3    0    0 -0.12842666559E+02  0.17492206163E+01 -0.16544276709E+02  0.21016825383E+02  0.51100000000E-03 0.  1.
         12    1    3    3    0    0  0.27162319134E+02 -0.50996322886E+01  0.21135021224E+02  0.34792053006E+02  0.00000000000E+00 0. -1.
</event>
<event>
 7    1  0.1358622E-013  0.7246157E+02  0.7816164E-02  0.1226708E+00
        -11   -1    0    0    0    0  0.00000000000E+00  0.00000000000E+00  0.45593999997E+02  0.45594000000E+02  0.51100000000E-03 0. -1.
         11   -1    0    0    0    0 -0.00000000000E+00 -0.00000000000E+00 -0.45593999997E+02  0.45594000000E+02  0.51100000000E-03 0.  1.
    9900012    2    1    2    0    0  0.37745389579E+01 -0.17736376856E+02 -0.46747180957E+01  0.72461569545E+02  0.69999999023E+02 0.  0.
        -12    1    1    2    0    0 -0.37745389579E+01  0.17736376856E+02  0.46747180957E+01  0.18726430455E+02  0.00000000000E+00 0.  1.
         11    1    3    3    0    0  0.12843463576E+02 -0.26000575436E+02 -0.38692024644E+01  0.29256712180E+02  0.51100000000E-03 0. -1.
        -11    1    3    3    0    0 -0.10647004251E+02 -0.19522261343E+01 -0.19236403106E+02  0.22072813394E+02  0.51100000000E-03 0.  1.
         12    1    3    3    0    0  0.15780796329E+01  0.10216424714E+02  0.18430887475E+02  0.21132043971E+02  0.00000000000E+00 0. -1.
</event>
<event>
 7    1  0.1358622E-013  0.7246160E+02  0.7816164E-02  0.1226708E+00
        -11   -1    0    0    0    0  0.00000000000E+00  0.00000000000E+00  0.45593999997E+02  0.45594000000E+02  0.51100000000E-03 0. -1.
         11   -1    0    0    0    0 -0.00000000000E+00 -0.00000000000E+00 -0.45593999997E+02  0.45594000000E+02  0.51100000000E-03 0.  1.
    9900012    2    1    2    0    0  0.74597257582E+01 -0.79903170511E+01 -0.15204777480E+02  0.72461603305E+02  0.70000043003E+02 0.  0.
        -12    1    1    2    0    0 -0.74597257582E+01  0.79903170511E+01  0.15204777480E+02  0.18726396695E+02  0.00000000000E+00 0.  1.
         11    1    3    3    0    0 -0.19600167410E+02 -0.30023676959E+01 -0.47189267666E+00  0.19834400854E+02  0.51100000000E-03 0. -1.
        -11    1    3    3    0    0 -0.10103987928E+02 -0.45056699898E+01  0.29768259395E+01  0.11456575712E+02  0.51100000000E-03 0.  1.
        -12    1    3    3    0    0  0.37163881096E+02 -0.48227936540E+00 -0.17709710743E+02  0.41170626739E+02  0.00000000000E+00 0.  1.
</event>
<event>
 7    1  0.1358622E-013  0.7246138E+02  0.7816164E-02  0.1226709E+00
        -11   -1    0    0    0    0  0.00000000000E+00  0.00000000000E+00  0.45593999997E+02  0.45594000000E+02  0.51100000000E-03 0. -1.
         11   -1    0    0    0    0 -0.00000000000E+00 -0.00000000000E+00 -0.45593999997E+02  0.45594000000E+02  0.51100000000E-03 0.  1.
    9900012    2    1    2    0    0  0.12650563275E+02  0.28680598662E+01  0.13506439919E+02  0.72461376229E+02  0.69999747193E+02 0.  0.
        -12    1    1    2    0    0 -0.12650563275E+02 -0.28680598662E+01 -0.13506439919E+02  0.18726623771E+02  0.00000000000E+00 0.  1.
         11    1    3    3    0    0 -0.15196376207E+01  0.16913437660E+02  0.28414939181E+01  0.17217658375E+02  0.51100000000E-03 0. -1.
        -11    1    3    3    0    0 -0.53483035010E+01  0.10724980205E+02 -0.11569076554E+02  0.16657523325E+02  0.51100000000E-03 0.  1.
         12    1    3    3    0    0  0.19518504397E+02 -0.24770357998E+02  0.22234022556E+02  0.38586194529E+02  0.00000000000E+00 0. -1.
</event>
<event>
 7    1  0.1358622E-013  0.7246156E+02  0.7816164E-02  0.1226708E+00
        -11   -1    0    0    0    0  0.00000000000E+00  0.00000000000E+00  0.45593999997E+02  0.45594000000E+02  0.51100000000E-03 0. -1.
         11   -1    0    0    0    0 -0.00000000000E+00 -0.00000000000E+00 -0.45593999997E+02  0.45594000000E+02  0.51100000000E-03 0.  1.
    9900012    2    1    2    0    0  0.11651605712E+01 -0.13818478628E+02  0.12584585009E+02  0.72461555313E+02  0.69999980485E+02 0.  0.
        -12    1    1    2    0    0 -0.11651605712E+01  0.13818478628E+02 -0.12584585009E+02  0.18726444687E+02  0.00000000000E+00 0.  1.
         11    1    3    3    0    0  0.71541260051E+01 -0.23124017171E+01  0.29197103388E+02  0.30149619684E+02  0.51100000000E-03 0. -1.
        -11    1    3    3    0    0  0.11165303450E+02  0.63179887250E+01 -0.59812183122E+00  0.12842847528E+02  0.51100000000E-03 0.  1.
         12    1    3    3    0    0 -0.17154268884E+02 -0.17824065636E+02 -0.16014396547E+02  0.29469088101E+02  0.00000000000E+00 0. -1.
</event>
<event>
 7    1  0.1358622E-013  0.7246167E+02  0.7816164E-02  0.1226708E+00
        -11   -1    0    0    0    0  0.00000000000E+00  0.00000000000E+00  0.45593999997E+02  0.45594000000E+02  0.51100000000E-03 0. -1.
         11   -1    0    0    0    0 -0.00000000000E+00 -0.00000000000E+00 -0.45593999997E+02  0.45594000000E+02  0.51100000000E-03 0.  1.
    9900012    2    1    2    0    0  0.48325357959E+01  0.92135661526E+01  0.15570239593E+02  0.72461666551E+02  0.70000125392E+02 0.  0.
        -12    1    1    2    0    0 -0.48325357959E+01 -0.92135661526E+01 -0.15570239593E+02  0.18726333449E+02  0.00000000000E+00 0.  1.
         11    1    3    3    0    0 -0.64121366964E+01  0.56487532860E+01  0.40159342716E+02  0.41058454894E+02  0.51100000000E-03 0. -1.
        -11    1    3    3    0    0  0.30191034969E+01 -0.41374975800E+01 -0.94125295514E+00  0.52076702599E+01  0.51100000000E-03 0.  1.
        -12    1    3    3    0    0  0.82255689953E+01  0.77023104466E+01 -0.23647850168E+02  0.26195541397E+02  0.00000000000E+00 0.  1.
</event>
<event>
 7    1  0.1358622E-013  0.7246157E+02  0.7816164E-02  0.1226708E+00
        -11   -1    0    0    0    0  0.00000000000E+00  0.00000000000E+00  0.45593999997E+02  0.45594000000E+02  0.51100000000E-03 0.  1.
         11   -1    0    0    0    0 -0.00000000000E+00 -0.00000000000E+00 -0.45593999997E+02  0.45594000000E+02  0.51100000000E-03 0. -1.
    9900012    2    1    2    0    0  0.10101031216E+02 -0.17336461819E+01 -0.15672999558E+02  0.72461567455E+02  0.69999996302E+02 0.  0.
        -12    1    1    2    0    0 -0.10101031216E+02  0.17336461819E+01  0.15672999558E+02  0.18726432545E+02  0.00000000000E+00 0.  1.
         11    1    3    3    0    0  0.20744473240E+01  0.15667801964E+02 -0.29153363748E+02  0.33161754600E+02  0.51100000000E-03 0. -1.
        -11    1    3    3    0    0  0.10146592871E+01  0.92751309840E+01  0.35992068250E+01  0.10000593896E+02  0.51100000000E-03 0.  1.
         12    1    3    3    0    0  0.70119246046E+01 -0.26676579130E+02  0.98811573648E+01  0.29299218959E+02  0.00000000000E+00 0. -1.
</event>
<event>
 7    1  0.1358622E-013  0.7246141E+02  0.7816164E-02  0.1226708E+00
        -11   -1    0    0    0    0  0.00000000000E+00  0.00000000000E+00  0.45593999997E+02  0.45594000000E+02  0.51100000000E-03 0.  1.
         11   -1    0    0    0    0 -0.00000000000E+00 -0.00000000000E+00 -0.45593999997E+02  0.45594000000E+02  0.51100000000E-03 0. -1.
    9900012    2    1    2    0    0  0.29885841041E+01  0.16398097423E+01 -0.18413705565E+02  0.72461410253E+02  0.69999791516E+02 0.  0.
        -12    1    1    2    0    0 -0.29885841041E+01 -0.16398097423E+01  0.18413705565E+02  0.18726589747E+02  0.00000000000E+00 0.  1.
         11    1    3    3    0    0  0.13556587116E+02 -0.99513195625E+01 -0.20592556487E+02  0.26586898995E+02  0.51100000000E-03 0. -1.
        -11    1    3    3    0    0  0.42343972278E+01 -0.88008565291E+01 -0.13150031406E+02  0.16380125817E+02  0.51100000000E-03 0.  1.
        -12    1    3    3    0    0 -0.14802400240E+02  0.20391985834E+02  0.15328882327E+02  0.29494385441E+02  0.00000000000E+00 0.  1.
</event>
<event>
 7    1  0.1358622E-013  0.7246142E+02  0.7816164E-02  0.1226708E+00
        -11   -1    0    0    0    0  0.00000000000E+00  0.00000000000E+00  0.45593999997E+02  0.45594000000E+02  0.51100000000E-03 0. -1.
         11   -1    0    0    0    0 -0.00000000000E+00 -0.00000000000E+00 -0.45593999997E+02  0.45594000000E+02  0.51100000000E-03 0.  1.
    9900012    2    1    2    0    0  0.33611830911E+01 -0.13831264003E+02  0.12168949557E+02  0.72461421322E+02  0.69999805935E+02 0.  0.
        -12    1    1    2    0    0 -0.33611830911E+01  0.13831264003E+02 -0.12168949557E+02  0.18726578678E+02  0.00000000000E+00 0.  1.
         11    1    3    3    0    0 -0.16165676010E+02 -0.41210261009E+01  0.33641532487E+01  0.17018503587E+02  0.51100000000E-03 0. -1.
        -11    1    3    3    0    0 -0.69832402269E+01  0.57651958899E+01 -0.14366801615E+02  0.16982582743E+02  0.51100000000E-03 0.  1.
        -12    1    3    3    0    0  0.26510099328E+02 -0.15475433791E+02  0.23171597923E+02  0.38460334992E+02  0.00000000000E+00 0.  1.
</event>
<event>
 7    1  0.1358622E-013  0.7246165E+02  0.7816164E-02  0.1226708E+00
        -11   -1    0    0    0    0  0.00000000000E+00  0.00000000000E+00  0.45593999997E+02  0.45594000000E+02  0.51100000000E-03 0. -1.
         11   -1    0    0    0    0 -0.00000000000E+00 -0.00000000000E+00 -0.45593999997E+02  0.45594000000E+02  0.51100000000E-03 0.  1.
    9900012    2    1    2    0    0  0.17261022863E+02  0.38309833044E+01  0.61690182267E+01  0.72461651470E+02  0.70000105747E+02 0.  0.
        -12    1    1    2    0    0 -0.17261022863E+02 -0.38309833044E+01 -0.61690182267E+01  0.18726348530E+02  0.00000000000E+00 0.  1.
         11    1    3    3    0    0 -0.78989590507E+00 -0.11570280209E+02  0.20976986435E+02  0.23969340412E+02  0.51100000000E-03 0. -1.
        -11    1    3    3    0    0 -0.79882055627E+01  0.16233935931E+02  0.82100516176E+00  0.18111492309E+02  0.51100000000E-03 0.  1.
         12    1    3    3    0    0  0.26039124331E+02 -0.83267241808E+00 -0.15628973370E+02  0.30380818749E+02  0.00000000000E+00 0. -1.
</event>
<event>
 7    1  0.1358622E-013  0.7246156E+02  0.7816164E-02  0.1226708E+00
        -11   -1    0    0    0    0  0.00000000000E+00  0.00000000000E+00  0.45593999997E+02  0.45594000000E+02  0.51100000000E-03 0.  1.
         11   -1    0    0    0    0 -0.00000000000E+00 -0.00000000000E+00 -0.45593999997E+02  0.45594000000E+02  0.51100000000E-03 0. -1.
    9900012    2    1    2    0    0  0.16769395410E+02  0.96350245171E+00 -0.82787966155E+01  0.72461563265E+02  0.69999990843E+02 0.  0.
        -12    1    1    2    0    0 -0.16769395410E+02 -0.96350245171E+00  0.82787966155E+01  0.18726436735E+02  0.00000000000E+00 0.  1.
         11    1    3    3    0    0 -0.33419631168E+01  0.21788489449E+01 -0.34069299532E+02  0.34302088436E+02  0.51100000000E-03 0. -1.
        -11    1    3    3    0    0  0.22994065280E+01  0.47890220469E+01 -0.10266868992E+01  0.54107382857E+01  0.51100000000E-03 0.  1.
        -12    1    3    3    0    0  0.17811951999E+02 -0.60043685401E+01  0.26817189816E+02  0.32748736543E+02  0.00000000000E+00 0.  1.
</event>
<event>
 7    1  0.1358622E-013  0.7246169E+02  0.7816164E-02  0.1226708E+00
        -11   -1    0    0    0    0  0.00000000000E+00  0.00000000000E+00  0.45593999997E+02  0.45594000000E+02  0.51100000000E-03 0.  1.
         11   -1    0    0    0    0 -0.00000000000E+00 -0.00000000000E+00 -0.45593999997E+02  0.45594000000E+02  0.51100000000E-03 0. -1.
    9900012    2    1    2    0    0 -0.46699194110E+01 -0.14047652227E+02  0.11468647261E+02  0.72461693627E+02  0.70000160663E+02 0.  0.
        -12    1    1    2    0    0  0.46699194110E+01  0.14047652227E+02 -0.11468647261E+02  0.18726306373E+02  0.00000000000E+00 0.  1.
         11    1    3    3    0    0  0.18963966542E+01 -0.18900345733E+01 -0.79681900693E+01  0.84059862122E+01  0.51100000000E-03 0. -1.
        -11    1    3    3    0    0  0.12358054759E+01 -0.29957025018E+02  0.29593435747E+02  0.42127449516E+02  0.51100000000E-03 0.  1.
         12    1    3    3    0    0 -0.78021215411E+01  0.17799407365E+02 -0.10156598417E+02  0.21928257899E+02  0.00000000000E+00 0. -1.
</event>
<event>
 7    1  0.1358622E-013  0.7246159E+02  0.7816164E-02  0.1226708E+00
        -11   -1    0    0    0    0  0.00000000000E+00  0.00000000000E+00  0.45593999997E+02  0.45594000000E+02  0.51100000000E-03 0.  1.
         11   -1    0    0    0    0 -0.00000000000E+00 -0.00000000000E+00 -0.45593999997E+02  0.45594000000E+02  0.51100000000E-03 0. -1.
    9900012    2    1    2    0    0  0.32654102228E+01 -0.11618310645E+02 -0.14318884573E+02  0.72461588128E+02  0.70000023232E+02 0.  0.
        -12    1    1    2    0    0 -0.32654102228E+01  0.11618310645E+02  0.14318884573E+02  0.18726411872E+02  0.00000000000E+00 0.  1.
         11    1    3    3    0    0  0.99851299170E+01  0.23564239707E+01 -0.22977502833E+02  0.25163886625E+02  0.51100000000E-03 0. -1.
        -11    1    3    3    0    0 -0.94699673626E+01  0.14562148109E+02  0.65020871325E+01  0.18547602992E+02  0.51100000000E-03 0.  1.
        -12    1    3    3    0    0  0.27502476684E+01 -0.28536882725E+02  0.21565311270E+01  0.28750098511E+02  0.00000000000E+00 0.  1.
</event>
<event>
 7    1  0.1358622E-013  0.7246158E+02  0.7816164E-02  0.1226708E+00
        -11   -1    0    0    0    0  0.00000000000E+00  0.00000000000E+00  0.45593999997E+02  0.45594000000E+02  0.51100000000E-03 0. -1.
         11   -1    0    0    0    0 -0.00000000000E+00 -0.00000000000E+00 -0.45593999997E+02  0.45594000000E+02  0.51100000000E-03 0.  1.
    9900012    2    1    2    0    0  0.87070999422E+01  0.16415396481E+02 -0.23237935212E+01  0.72461578896E+02  0.70000011205E+02 0.  0.
        -12    1    1    2    0    0 -0.87070999422E+01 -0.16415396481E+02  0.23237935212E+01  0.18726421104E+02  0.00000000000E+00 0.  1.
         11    1    3    3    0    0  0.10579000607E+02  0.16140071364E+02  0.16952554163E+02  0.25686694033E+02  0.51100000000E-03 0. -1.
        -11    1    3    3    0    0 -0.31908313199E+01  0.11475647711E+02  0.99042245847E+01  0.15490821792E+02  0.51100000000E-03 0.  1.
        -12    1    3    3    0    0  0.13189306554E+01 -0.11200322594E+02 -0.29180572268E+02  0.31284063070E+02  0.00000000000E+00 0.  1.
</event>
<event>
 7    1  0.1358622E-013  0.7246186E+02  0.7816164E-02  0.1226707E+00
        -11   -1    0    0    0    0  0.00000000000E+00  0.00000000000E+00  0.45593999997E+02  0.45594000000E+02  0.51100000000E-03 0.  1.
         11   -1    0    0    0    0 -0.00000000000E+00 -0.00000000000E+00 -0.45593999997E+02  0.45594000000E+02  0.51100000000E-03 0. -1.
    9900012    2    1    2    0    0 -0.46258480404E+01  0.18145693303E+02  0.59428571706E-01  0.72461863525E+02  0.70000381986E+02 0.  0.
        -12    1    1    2    0    0  0.46258480404E+01 -0.18145693303E+02 -0.59428571706E-01  0.18726136475E+02  0.00000000000E+00 0.  1.
         11    1    3    3    0    0 -0.24897640252E+02  0.36622670696E+01  0.15943496986E+01  0.25215999711E+02  0.51100000000E-03 0. -1.
        -11    1    3    3    0    0 -0.10628838892E+02  0.42425231970E+00  0.63568919083E+01  0.12392024904E+02  0.51100000000E-03 0.  1.
        -12    1    3    3    0    0  0.30900631104E+02  0.14059173914E+02 -0.78918130352E+01  0.34853838910E+02  0.00000000000E+00 0.  1.
</event>
<event>
 7    1  0.1358622E-013  0.7246148E+02  0.7816164E-02  0.1226708E+00
        -11   -1    0    0    0    0  0.00000000000E+00  0.00000000000E+00  0.45593999997E+02  0.45594000000E+02  0.51100000000E-03 0. -1.
         11   -1    0    0    0    0 -0.00000000000E+00 -0.00000000000E+00 -0.45593999997E+02  0.45594000000E+02  0.51100000000E-03 0.  1.
    9900012    2    1    2    0    0  0.65110641540E+01 -0.17122598278E+02 -0.38865639295E+01  0.72461475832E+02  0.69999876946E+02 0.  0.
        -12    1    1    2    0    0 -0.65110641540E+01  0.17122598278E+02  0.38865639295E+01  0.18726524168E+02  0.00000000000E+00 0.  1.
         11    1    3    3    0    0  0.79899866077E+01  0.67718171185E+01  0.15081146913E+02  0.18361328534E+02  0.51100000000E-03 0. -1.
        -11    1    3    3    0    0 -0.44569687105E+01 -0.29305784410E+02  0.43661668889E+01  0.29962593071E+02  0.51100000000E-03 0.  1.
        -12    1    3    3    0    0  0.29780462568E+01  0.54113690127E+01 -0.23333877731E+02  0.24137554227E+02  0.00000000000E+00 0.  1.
</event>
<event>
 7    1  0.1358622E-013  0.7246123E+02  0.7816164E-02  0.1226709E+00
        -11   -1    0    0    0    0  0.00000000000E+00  0.00000000000E+00  0.45593999997E+02  0.45594000000E+02  0.51100000000E-03 0.  1.
         11   -1    0    0    0    0 -0.00000000000E+00 -0.00000000000E+00 -0.45593999997E+02  0.45594000000E+02  0.51100000000E-03 0. -1.
    9900012    2    1    2    0    0  0.11990851117E+02  0.30637936554E+01 -0.14054343050E+02  0.72461230374E+02  0.69999557189E+02 0.  0.
        -12    1    1    2    0    0 -0.11990851117E+02 -0.30637936554E+01  0.14054343050E+02  0.18726769626E+02  0.00000000000E+00 0.  1.
         11    1    3    3    0    0  0.17202295023E+02 -0.19204157835E+01  0.64736572086E+01  0.18480129565E+02  0.51100000000E-03 0. -1.
        -11    1    3    3    0    0 -0.30640554213E+01 -0.21417799442E+02 -0.21531627847E+01  0.21742738530E+02  0.51100000000E-03 0.  1.
         12    1    3    3    0    0 -0.21473884847E+01  0.26402008881E+02 -0.18374837474E+02  0.32238362279E+02  0.00000000000E+00 0. -1.
</event>
<event>
 7    1  0.1358622E-013  0.7246157E+02  0.7816164E-02  0.1226708E+00
        -11   -1    0    0    0    0  0.00000000000E+00  0.00000000000E+00  0.45593999997E+02  0.45594000000E+02  0.51100000000E-03 0.  1.
         11   -1    0    0    0    0 -0.00000000000E+00 -0.00000000000E+00 -0.45593999997E+02  0.45594000000E+02  0.51100000000E-03 0. -1.
    9900012    2    1    2    0    0  0.48403748527E+01 -0.19914185363E+01 -0.17980104663E+02  0.72461571077E+02  0.70000001020E+02 0.  0.
        -12    1    1    2    0    0 -0.48403748527E+01  0.19914185363E+01  0.17980104663E+02  0.18726428923E+02  0.00000000000E+00 0.  1.
         11    1    3    3    0    0  0.33611618611E+01 -0.42323276599E+00  0.72322435362E+01  0.79863559812E+01  0.51100000000E-03 0. -1.
        -11    1    3    3    0    0  0.34477497114E+01 -0.96345087929E+01  0.17874130699E+02  0.20596001706E+02  0.51100000000E-03 0.  1.
         12    1    3    3    0    0 -0.19685367198E+01  0.80663230226E+01 -0.43086478898E+02  0.43879213390E+02  0.00000000000E+00 0. -1.
</event>
<event>
 7    1  0.1358622E-013  0.7246172E+02  0.7816164E-02  0.1226708E+00
        -11   -1    0    0    0    0  0.00000000000E+00  0.00000000000E+00  0.45593999997E+02  0.45594000000E+02  0.51100000000E-03 0.  1.
         11   -1    0    0    0    0 -0.00000000000E+00 -0.00000000000E+00 -0.45593999997E+02  0.45594000000E+02  0.51100000000E-03 0. -1.
    9900012    2    1    2    0    0 -0.33502468357E+01 -0.17202977348E+02 -0.65959709523E+01  0.72461723907E+02  0.70000200109E+02 0.  0.
        -12    1    1    2    0    0  0.33502468357E+01  0.17202977348E+02  0.65959709523E+01  0.18726276093E+02  0.00000000000E+00 0.  1.
         11    1    3    3    0    0 -0.87469184906E+01 -0.19263969818E+02  0.11380193963E+02  0.24023278942E+02  0.51100000000E-03 0. -1.
        -11    1    3    3    0    0 -0.14773065315E+02  0.11804548603E+02  0.12047375925E+01  0.18948409418E+02  0.51100000000E-03 0.  1.
         12    1    3    3    0    0  0.20169736970E+02 -0.97435561339E+01 -0.19180902508E+02  0.29490035548E+02  0.00000000000E+00 0. -1.
</event>
<event>
 7    1  0.1358622E-013  0.7246155E+02  0.7816164E-02  0.1226708E+00
        -11   -1    0    0    0    0  0.00000000000E+00  0.00000000000E+00  0.45593999997E+02  0.45594000000E+02  0.51100000000E-03 0.  1.
         11   -1    0    0    0    0 -0.00000000000E+00 -0.00000000000E+00 -0.45593999997E+02  0.45594000000E+02  0.51100000000E-03 0. -1.
    9900012    2    1    2    0    0  0.18460662828E+02  0.23937925221E+01 -0.20380450215E+01  0.72461549663E+02  0.69999973124E+02 0.  0.
        -12    1    1    2    0    0 -0.18460662828E+02 -0.23937925221E+01  0.20380450215E+01  0.18726450337E+02  0.00000000000E+00 0.  1.
         11    1    3    3    0    0  0.30915803446E+01 -0.86211439491E+01 -0.53993009087E+01  0.10631765732E+02  0.51100000000E-03 0. -1.
        -11    1    3    3    0    0 -0.98080269214E+01 -0.21494394129E+01 -0.21722066992E+02  0.23930434107E+02  0.51100000000E-03 0.  1.
        -12    1    3    3    0    0  0.25177109405E+02  0.13164375884E+02  0.25083322880E+02  0.37899349824E+02  0.00000000000E+00 0.  1.
</event>
<event>
 7    1  0.1358622E-013  0.7246154E+02  0.7816164E-02  0.1226708E+00
        -11   -1    0    0    0    0  0.00000000000E+00  0.00000000000E+00  0.45593999997E+02  0.45594000000E+02  0.51100000000E-03 0.  1.
         11   -1    0    0    0    0 -0.00000000000E+00 -0.00000000000E+00 -0.45593999997E+02  0.45594000000E+02  0.51100000000E-03 0. -1.
    9900012    2    1    2    0    0 -0.32531541558E+01 -0.53224743144E+01 -0.17656968106E+02  0.72461540979E+02  0.69999961811E+02 0.  0.
        -12    1    1    2    0    0  0.32531541558E+01  0.53224743144E+01  0.17656968106E+02  0.18726459021E+02  0.00000000000E+00 0.  1.
         11    1    3    3    0    0 -0.68336244287E+01  0.16689500712E+02 -0.29423414047E+02  0.34510507839E+02  0.51100000000E-03 0. -1.
        -11    1    3    3    0    0 -0.45940688876E+01  0.30690891560E+01 -0.43552704411E+01  0.70351373880E+01  0.51100000000E-03 0.  1.
        -12    1    3    3    0    0  0.81745391605E+01 -0.25081064182E+02  0.16121716383E+02  0.30915895752E+02  0.00000000000E+00 0.  1.
</event>
<event>
 7    1  0.1358622E-013  0.7246167E+02  0.7816164E-02  0.1226708E+00
        -11   -1    0    0    0    0  0.00000000000E+00  0.00000000000E+00  0.45593999997E+02  0.45594000000E+02  0.51100000000E-03 0.  1.
         11   -1    0    0    0    0 -0.00000000000E+00 -0.00000000000E+00 -0.45593999997E+02  0.45594000000E+02  0.51100000000E-03 0. -1.
    9900012    2    1    2    0    0  0.36528466339E+01 -0.56852507257E+01 -0.17464535610E+02  0.72461671785E+02  0.70000132210E+02 0.  0.
        -12    1    1    2    0    0 -0.36528466339E+01  0.56852507257E+01  0.17464535610E+02  0.18726328215E+02  0.00000000000E+00 0.  1.
         11    1    3    3    0    0 -0.85074499748E+00 -0.15863403832E+02 -0.32410172187E+02  0.36094190802E+02  0.51100000000E-03 0. -1.
        -11    1    3    3    0    0  0.56935360077E+01  0.13534811866E+02 -0.54506576654E+01  0.15662603671E+02  0.51100000000E-03 0.  1.
        -12    1    3    3    0    0 -0.11899443764E+01 -0.33566587602E+01  0.20396294243E+02  0.20704877311E+02  0.00000000000E+00 0.  1.
</event>
<event>
 7    1  0.1358622E-013  0.7246155E+02  0.7816164E-02  0.1226708E+00
        -11   -1    0    0    0    0  0.00000000000E+00  0.00000000000E+00  0.45593999997E+02  0.45594000000E+02  0.51100000000E-03 0.  1.
         11   -1    0    0    0    0 -0.00000000000E+00 -0.00000000000E+00 -0.45593999997E+02  0.45594000000E+02  0.51100000000E-03 0. -1.
    9900012    2    1    2    0    0  0.48777549249E+01 -0.15211597798E+02 -0.97721379596E+01  0.72461551298E+02  0.69999975254E+02 0.  0.
        -12    1    1    2    0    0 -0.48777549249E+01  0.15211597798E+02  0.97721379596E+01  0.18726448702E+02  0.00000000000E+00 0.  1.
         11    1    3    3    0    0  0.62467486644E+01  0.40132538308E+01 -0.23338256578E+02  0.24490861470E+02  0.51100000000E-03 0. -1.
        -11    1    3    3    0    0 -0.16959309779E+02 -0.12223695985E+02 -0.62339033628E+01  0.21815097596E+02  0.51100000000E-03 0.  1.
        -12    1    3    3    0    0  0.15590316040E+02 -0.70011556446E+01  0.19800021981E+02  0.26155592232E+02  0.00000000000E+00 0.  1.
</event>
<event>
 7    1  0.1358622E-013  0.7246170E+02  0.7816164E-02  0.1226708E+00
        -11   -1    0    0    0    0  0.00000000000E+00  0.00000000000E+00  0.45593999997E+02  0.45594000000E+02  0.51100000000E-03 0.  1.
         11   -1    0    0    0    0 -0.00000000000E+00 -0.00000000000E+00 -0.45593999997E+02  0.45594000000E+02  0.51100000000E-03 0. -1.
    9900012    2    1    2    0    0  0.16626521038E+02 -0.17914150191E+01  0.84275769756E+01  0.72461697021E+02  0.70000165084E+02 0.  0.
        -12    1    1    2    0    0 -0.16626521038E+02  0.17914150191E+01 -0.84275769756E+01  0.18726302979E+02  0.00000000000E+00 0.  1.
         11    1    3    3    0    0 -0.62720834205E+00  0.49792237174E+01  0.93178144635E+01  0.10583370246E+02  0.51100000000E-03 0. -1.
        -11    1    3    3    0    0  0.80041609253E-01  0.22099541995E+02 -0.13615020125E+02  0.25956982419E+02  0.51100000000E-03 0.  1.
         12    1    3    3    0    0  0.17173687771E+02 -0.28870180732E+02  0.12724782637E+02  0.35921344355E+02  0.00000000000E+00 0. -1.
</event>
<event>
 7    1  0.1358622E-013  0.7246158E+02  0.7816164E-02  0.1226708E+00
        -11   -1    0    0    0    0  0.00000000000E+00  0.00000000000E+00  0.45593999997E+02  0.45594000000E+02  0.51100000000E-03 0. -1.
         11   -1    0    0    0    0 -0.00000000000E+00 -0.00000000000E+00 -0.45593999997E+02  0.45594000000E+02  0.51100000000E-03 0.  1.
    9900012    2    1    2    0    0 -0.97482518590E+01 -0.15065319465E+02  0.53559829535E+01  0.72461579672E+02  0.70000012216E+02 0.  0.
        -12    1    1    2    0    0  0.97482518590E+01  0.15065319465E+02 -0.53559829535E+01  0.18726420328E+02  0.00000000000E+00 0.  1.
         11    1    3    3    0    0 -0.39089690490E+01  0.66883741069E+01 -0.16915940149E+01  0.79294311140E+01  0.51100000000E-03 0. -1.
        -11    1    3    3    0    0  0.13625709476E+02  0.14036973470E+02 -0.79523743017E+01  0.21117216678E+02  0.51100000000E-03 0.  1.
         12    1    3    3    0    0 -0.19464992286E+02 -0.35790667042E+02  0.14999951270E+02  0.43414931880E+02  0.00000000000E+00 0. -1.
</event>
<event>
 7    1  0.1358622E-013  0.7246159E+02  0.7816164E-02  0.1226708E+00
        -11   -1    0    0    0    0  0.00000000000E+00  0.00000000000E+00  0.45593999997E+02  0.45594000000E+02  0.51100000000E-03 0. -1.
         11   -1    0    0    0    0 -0.00000000000E+00 -0.00000000000E+00 -0.45593999997E+02  0.45594000000E+02  0.51100000000E-03 0.  1.
    9900012    2    1    2    0    0 -0.26860200258E+01  0.56428140950E+00  0.18524186714E+02  0.72461585220E+02  0.70000019443E+02 0.  0.
        -12    1    1    2    0    0  0.26860200258E+01 -0.56428140950E+00 -0.18524186714E+02  0.18726414780E+02  0.00000000000E+00 0.  1.
         11    1    3    3    0    0 -0.23618096261E+01 -0.85220590090E+01 -0.84002723244E+01  0.12197057426E+02  0.51100000000E-03 0. -1.
        -11    1    3    3    0    0 -0.15881633640E+02  0.58425339576E+01 -0.10285588872E+02  0.19802899506E+02  0.51100000000E-03 0.  1.
         12    1    3    3    0    0  0.15557423241E+02  0.32438064609E+01  0.37210047910E+02  0.40461628288E+02  0.00000000000E+00 0. -1.
</event>
<event>
 7    1  0.1358622E-013  0.7246159E+02  0.7816164E-02  0.1226708E+00
        -11   -1    0    0    0    0  0.00000000000E+00  0.00000000000E+00  0.45593999997E+02  0.45594000000E+02  0.51100000000E-03 0.  1.
         11   -1    0    0    0    0 -0.00000000000E+00 -0.00000000000E+00 -0.45593999997E+02  0.45594000000E+02  0.51100000000E-03 0. -1.
    9900012    2    1    2    0    0  0.11030871816E+02 -0.14242890767E+02  0.51125847604E+01  0.72461585679E+02  0.70000020041E+02 0.  0.
        -12    1    1    2    0    0 -0.11030871816E+02  0.14242890767E+02 -0.51125847604E+01  0.18726414321E+02  0.00000000000E+00 0.  1.
         11    1    3    3    0    0 -0.82810581989E+01 -0.61104571164E+01 -0.11329904720E+02  0.15306219399E+02  0.51100000000E-03 0. -1.
        -11    1    3    3    0    0 -0.57027563441E+01  0.12920470691E+02 -0.80935718563E+01  0.16277773142E+02  0.51100000000E-03 0.  1.
        -12    1    3    3    0    0  0.25014686358E+02 -0.21052904341E+02  0.24536061337E+02  0.40877593138E+02  0.00000000000E+00 0.  1.
</event>
<event>
 7    1  0.1358622E-013  0.7246154E+02  0.7816164E-02  0.1226708E+00
        -11   -1    0    0    0    0  0.00000000000E+00  0.00000000000E+00  0.45593999997E+02  0.45594000000E+02  0.51100000000E-03 0. -1.
         11   -1    0    0    0    0 -0.00000000000E+00 -0.00000000000E+00 -0.45593999997E+02  0.45594000000E+02  0.51100000000E-03 0.  1.
    9900012    2    1    2    0    0 -0.11801380765E+02  0.13686053601E+02 -0.49091560571E+01  0.72461535723E+02  0.69999954964E+02 0.  0.
        -12    1    1    2    0    0  0.11801380765E+02 -0.13686053601E+02  0.49091560571E+01  0.18726464277E+02  0.00000000000E+00 0.  1.
         11    1    3    3    0    0 -0.22084719244E+02 -0.39171753599E+00  0.21623740550E+02  0.30910749301E+02  0.51100000000E-03 0. -1.
        -11    1    3    3    0    0  0.36502651976E+01  0.64712373195E+01  0.46570271782E+01  0.87686515986E+01  0.51100000000E-03 0.  1.
        -12    1    3    3    0    0  0.66330732812E+01  0.76065338177E+01 -0.31189923785E+02  0.32782134823E+02  0.00000000000E+00 0.  1.
</event>
<event>
 7    1  0.1358622E-013  0.7246154E+02  0.7816164E-02  0.1226708E+00
        -11   -1    0    0    0    0  0.00000000000E+00  0.00000000000E+00  0.45593999997E+02  0.45594000000E+02  0.51100000000E-03 0.  1.
         11   -1    0    0    0    0 -0.00000000000E+00 -0.00000000000E+00 -0.45593999997E+02  0.45594000000E+02  0.51100000000E-03 0. -1.
    9900012    2    1    2    0    0  0.80925080948E+01 -0.16853164308E+02  0.10781510744E+01  0.72461541600E+02  0.69999962621E+02 0.  0.
        -12    1    1    2    0    0 -0.80925080948E+01  0.16853164308E+02 -0.10781510744E+01  0.18726458400E+02  0.00000000000E+00 0.  1.
         11    1    3    3    0    0 -0.19476655394E+01 -0.62584002610E+01 -0.13513027818E+02  0.15018751478E+02  0.51100000000E-03 0. -1.
        -11    1    3    3    0    0  0.96776643890E+01  0.85729250433E+01  0.30116058701E+02  0.32773910718E+02  0.51100000000E-03 0.  1.
         12    1    3    3    0    0  0.36250924523E+00 -0.19167689090E+02 -0.15524879808E+02  0.24668879405E+02  0.00000000000E+00 0. -1.
</event>
<event>
 7    1  0.1358622E-013  0.7246155E+02  0.7816164E-02  0.1226708E+00
        -11   -1    0    0    0    0  0.00000000000E+00  0.00000000000E+00  0.45593999997E+02  0.45594000000E+02  0.51100000000E-03 0. -1.
         11   -1    0    0    0    0 -0.00000000000E+00 -0.00000000000E+00 -0.45593999997E+02  0.45594000000E+02  0.51100000000E-03 0.  1.
    9900012    2    1    2    0    0  0.12425447948E+02  0.13998787208E+02  0.56742095987E+00  0.72461554354E+02  0.69999979235E+02 0.  0.
        -12    1    1    2    0    0 -0.12425447948E+02 -0.13998787208E+02 -0.56742095987E+00  0.18726445646E+02  0.00000000000E+00 0.  1.
         11    1    3    3    0    0  0.49391476340E+01  0.17554399232E+02 -0.41945878004E+01  0.18712206680E+02  0.51100000000E-03 0. -1.
        -11    1    3    3    0    0  0.72309314470E+01  0.14793665437E+02  0.22729235917E+02  0.28067010391E+02  0.51100000000E-03 0.  1.
        -12    1    3    3    0    0  0.25536886682E+00 -0.18349277462E+02 -0.17967227157E+02  0.25682337283E+02  0.00000000000E+00 0.  1.
</event>
<event>
 7    1  0.1358622E-013  0.7246156E+02  0.7816164E-02  0.1226708E+00
        -11   -1    0    0    0    0  0.00000000000E+00  0.00000000000E+00  0.45593999997E+02  0.45594000000E+02  0.51100000000E-03 0.  1.
         11   -1    0    0    0    0 -0.00000000000E+00 -0.00000000000E+00 -0.45593999997E+02  0.45594000000E+02  0.51100000000E-03 0. -1.
    9900012    2    1    2    0    0 -0.11034691569E+01  0.73964317887E+01 -0.17168422047E+02  0.72461559789E+02  0.69999986315E+02 0.  0.
        -12    1    1    2    0    0  0.11034691569E+01 -0.73964317887E+01  0.17168422047E+02  0.18726440211E+02  0.00000000000E+00 0.  1.
         11    1    3    3    0    0 -0.30017319616E+02 -0.45132233036E+00  0.19998120287E+01  0.30087246754E+02  0.51100000000E-03 0. -1.
        -11    1    3    3    0    0  0.59872203405E+01  0.10379658848E+02  0.59803494883E+00  0.11997573557E+02  0.51100000000E-03 0.  1.
        -12    1    3    3    0    0  0.22926630119E+02 -0.25319047288E+01 -0.19766269025E+02  0.30376739478E+02  0.00000000000E+00 0.  1.
</event>
<event>
 7    1  0.1358622E-013  0.7246155E+02  0.7816164E-02  0.1226708E+00
        -11   -1    0    0    0    0  0.00000000000E+00  0.00000000000E+00  0.45593999997E+02  0.45594000000E+02  0.51100000000E-03 0.  1.
         11   -1    0    0    0    0 -0.00000000000E+00 -0.00000000000E+00 -0.45593999997E+02  0.45594000000E+02  0.51100000000E-03 0. -1.
    9900012    2    1    2    0    0  0.81917751898E+01 -0.11694260083E+01 -0.16799023893E+02  0.72461549677E+02  0.69999973142E+02 0.  0.
        -12    1    1    2    0    0 -0.81917751898E+01  0.11694260083E+01  0.16799023893E+02  0.18726450323E+02  0.00000000000E+00 0.  1.
         11    1    3    3    0    0  0.32345740336E+01 -0.12410922119E+01 -0.38919887252E+02  0.39073781530E+02  0.51100000000E-03 0. -1.
        -11    1    3    3    0    0  0.76631261662E+01  0.93537991105E+01  0.38048589091E+01  0.12676514190E+02  0.51100000000E-03 0.  1.
        -12    1    3    3    0    0 -0.27059250100E+01 -0.92821329069E+01  0.18316004450E+02  0.20711253957E+02  0.00000000000E+00 0.  1.
</event>
<event>
 7    1  0.1358622E-013  0.7246159E+02  0.7816164E-02  0.1226708E+00
        -11   -1    0    0    0    0  0.00000000000E+00  0.00000000000E+00  0.45593999997E+02  0.45594000000E+02  0.51100000000E-03 0.  1.
         11   -1    0    0    0    0 -0.00000000000E+00 -0.00000000000E+00 -0.45593999997E+02  0.45594000000E+02  0.51100000000E-03 0. -1.
    9900012    2    1    2    0    0 -0.10955258870E+02  0.37739609513E+01 -0.14711151585E+02  0.72461589262E+02  0.70000024709E+02 0.  0.
        -12    1    1    2    0    0  0.10955258870E+02 -0.37739609513E+01  0.14711151585E+02  0.18726410738E+02  0.00000000000E+00 0.  1.
         11    1    3    3    0    0  0.74368372948E+01 -0.12051359669E+02 -0.19431626449E+02  0.24044332504E+02  0.51100000000E-03 0. -1.
        -11    1    3    3    0    0 -0.30450096910E+02  0.32853135341E+01  0.10928657546E+01  0.30646305530E+02  0.51100000000E-03 0.  1.
        -12    1    3    3    0    0  0.12058000745E+02  0.12540007086E+02  0.36276091100E+01  0.17770951228E+02  0.00000000000E+00 0.  1.
</event>
<event>
 7    1  0.1358622E-013  0.7246087E+02  0.7816164E-02  0.1226710E+00
        -11   -1    0    0    0    0  0.00000000000E+00  0.00000000000E+00  0.45593999997E+02  0.45594000000E+02  0.51100000000E-03 0.  1.
         11   -1    0    0    0    0 -0.00000000000E+00 -0.00000000000E+00 -0.45593999997E+02  0.45594000000E+02  0.51100000000E-03 0. -1.
    9900012    2    1    2    0    0 -0.15123227554E+02  0.92305439286E+01 -0.60655216932E+01  0.72460867110E+02  0.69999083965E+02 0.  0.
        -12    1    1    2    0    0  0.15123227554E+02 -0.92305439286E+01  0.60655216932E+01  0.18727132890E+02  0.00000000000E+00 0.  1.
         11    1    3    3    0    0  0.19002216998E+01  0.33769142680E+01 -0.14992526273E+02  0.15485161826E+02  0.51100000000E-03 0. -1.
        -11    1    3    3    0    0  0.85848275008E+01  0.18524710533E+02  0.17769575989E+02  0.27066990868E+02  0.51100000000E-03 0.  1.
        -12    1    3    3    0    0 -0.25608276755E+02 -0.12671080872E+02 -0.88425714095E+01  0.29908714415E+02  0.00000000000E+00 0.  1.
</event>
<event>
 7    1  0.1358622E-013  0.7246158E+02  0.7816164E-02  0.1226708E+00
        -11   -1    0    0    0    0  0.00000000000E+00  0.00000000000E+00  0.45593999997E+02  0.45594000000E+02  0.51100000000E-03 0.  1.
         11   -1    0    0    0    0 -0.00000000000E+00 -0.00000000000E+00 -0.45593999997E+02  0.45594000000E+02  0.51100000000E-03 0. -1.
    9900012    2    1    2    0    0  0.17389196885E+02  0.62226934870E+01 -0.30939657589E+01  0.72461582653E+02  0.70000016100E+02 0.  0.
        -12    1    1    2    0    0 -0.17389196885E+02 -0.62226934870E+01  0.30939657589E+01  0.18726417347E+02  0.00000000000E+00 0.  1.
         11    1    3    3    0    0  0.33604314067E+01  0.15360428590E+02  0.10721933942E+02  0.19031424892E+02  0.51100000000E-03 0. -1.
        -11    1    3    3    0    0  0.11247512208E+01 -0.60160880858E+01  0.17969686636E+02  0.18983361642E+02  0.51100000000E-03 0.  1.
         12    1    3    3    0    0  0.12904014257E+02 -0.31216470171E+01 -0.31785586337E+02  0.34446796119E+02  0.00000000000E+00 0. -1.
</event>
<event>
 7    1  0.1358622E-013  0.7246156E+02  0.7816164E-02  0.1226708E+00
        -11   -1    0    0    0    0  0.00000000000E+00  0.00000000000E+00  0.45593999997E+02  0.45594000000E+02  0.51100000000E-03 0.  1.
         11   -1    0    0    0    0 -0.00000000000E+00 -0.00000000000E+00 -0.45593999997E+02  0.45594000000E+02  0.51100000000E-03 0. -1.
    9900012    2    1    2    0    0  0.11374748985E+02 -0.76739606902E+01 -0.12743814346E+02  0.72461564375E+02  0.69999992289E+02 0.  0.
        -12    1    1    2    0    0 -0.11374748985E+02  0.76739606902E+01  0.12743814346E+02  0.18726435625E+02  0.00000000000E+00 0.  1.
         11    1    3    3    0    0  0.12875465630E+02 -0.57856672703E+01 -0.33625369383E+01  0.14510624242E+02  0.51100000000E-03 0. -1.
        -11    1    3    3    0    0 -0.18263360992E+02 -0.22520597640E+02  0.19335534156E+01  0.29059702370E+02  0.51100000000E-03 0.  1.
        -12    1    3    3    0    0  0.16762644346E+02  0.20632304220E+02 -0.11314830823E+02  0.28891237763E+02  0.00000000000E+00 0.  1.
</event>
<event>
 7    1  0.1358622E-013  0.7246151E+02  0.7816164E-02  0.1226708E+00
        -11   -1    0    0    0    0  0.00000000000E+00  0.00000000000E+00  0.45593999997E+02  0.45594000000E+02  0.51100000000E-03 0. -1.
         11   -1    0    0    0    0 -0.00000000000E+00 -0.00000000000E+00 -0.45593999997E+02  0.45594000000E+02  0.51100000000E-03 0.  1.
    9900012    2    1    2    0    0  0.77833716538E+01 -0.36884874054E+01  0.16628154311E+02  0.72461512624E+02  0.69999924874E+02 0.  0.
        -12    1    1    2    0    0 -0.77833716538E+01  0.36884874054E+01 -0.16628154311E+02  0.18726487376E+02  0.00000000000E+00 0.  1.
         11    1    3    3    0    0 -0.14635051925E+01 -0.12581691255E+02  0.23979031495E+01  0.12891498829E+02  0.51100000000E-03 0. -1.
        -11    1    3    3    0    0  0.32160181402E+01 -0.20841169574E+02 -0.73567349907E+01  0.22334248854E+02  0.51100000000E-03 0.  1.
         12    1    3    3    0    0  0.60308587062E+01  0.29734373423E+02  0.21586986152E+02  0.37235764941E+02  0.00000000000E+00 0. -1.
</event>
<event>
 7    1  0.1358622E-013  0.7246158E+02  0.7816164E-02  0.1226708E+00
        -11   -1    0    0    0    0  0.00000000000E+00  0.00000000000E+00  0.45593999997E+02  0.45594000000E+02  0.51100000000E-03 0. -1.
         11   -1    0    0    0    0 -0.00000000000E+00 -0.00000000000E+00 -0.45593999997E+02  0.45594000000E+02  0.51100000000E-03 0.  1.
    9900012    2    1    2    0    0  0.74841676883E+01 -0.10485347574E+00  0.17165523105E+02  0.72461576324E+02  0.70000007855E+02 0.  0.
        -12    1    1    2    0    0 -0.74841676883E+01  0.10485347574E+00 -0.17165523105E+02  0.18726423676E+02  0.00000000000E+00 0.  1.
         11    1    3    3    0    0  0.14987252833E+01 -0.28513727647E+02  0.13240828177E+02  0.31473772778E+02  0.51100000000E-03 0. -1.
        -11    1    3    3    0    0  0.75150087096E+01 -0.14999899229E-01  0.93651408756E+01  0.12007557819E+02  0.51100000000E-03 0.  1.
         12    1    3    3    0    0 -0.15295663046E+01  0.28423874071E+02 -0.54404459475E+01  0.28980245727E+02  0.00000000000E+00 0. -1.
</event>
<event>
 7    1  0.1358622E-013  0.7246118E+02  0.7816164E-02  0.1226709E+00
        -11   -1    0    0    0    0  0.00000000000E+00  0.00000000000E+00  0.45593999997E+02  0.45594000000E+02  0.51100000000E-03 0.  1.
         11   -1    0    0    0    0 -0.00000000000E+00 -0.00000000000E+00 -0.45593999997E+02  0.45594000000E+02  0.51100000000E-03 0. -1.
    9900012    2    1    2    0    0 -0.17741235590E+02 -0.59149778563E+01 -0.97746913379E+00  0.72461178347E+02  0.69999489414E+02 0.  0.
        -12    1    1    2    0    0  0.17741235590E+02  0.59149778563E+01  0.97746913379E+00  0.18726821653E+02  0.00000000000E+00 0.  1.
         11    1    3    3    0    0  0.77909987304E+01  0.23258081308E+01 -0.37182857155E+01  0.89406204260E+01  0.51100000000E-03 0. -1.
        -11    1    3    3    0    0  0.45364259299E+01  0.19040624862E+02  0.10459424243E+02  0.22192884246E+02  0.51100000000E-03 0.  1.
         12    1    3    3    0    0 -0.30068660251E+02 -0.27281410849E+02 -0.77186076618E+01  0.41327673676E+02  0.00000000000E+00 0. -1.
</event>
<event>
 7    1  0.1358622E-013  0.7246157E+02  0.7816164E-02  0.1226708E+00
        -11   -1    0    0    0    0  0.00000000000E+00  0.00000000000E+00  0.45593999997E+02  0.45594000000E+02  0.51100000000E-03 0.  1.
         11   -1    0    0    0    0 -0.00000000000E+00 -0.00000000000E+00 -0.45593999997E+02  0.45594000000E+02  0.51100000000E-03 0. -1.
    9900012    2    1    2    0    0 -0.17412597485E+02  0.67373061590E+01 -0.14454311456E+01  0.72461571706E+02  0.70000001839E+02 0.  0.
        -12    1    1    2    0    0  0.17412597485E+02 -0.67373061590E+01  0.14454311456E+01  0.18726428294E+02  0.00000000000E+00 0.  1.
         11    1    3    3    0    0  0.96823174080E+01  0.69024903425E+01  0.11444494648E+02  0.16503578440E+02  0.51100000000E-03 0. -1.
        -11    1    3    3    0    0  0.69282348648E+01  0.53396614798E+01  0.10976579253E+02  0.14035587463E+02  0.51100000000E-03 0.  1.
        -12    1    3    3    0    0 -0.34023149758E+02 -0.55048456634E+01 -0.23866505046E+02  0.41922405803E+02  0.00000000000E+00 0.  1.
</event>
<event>
 7    1  0.1358622E-013  0.7246174E+02  0.7816164E-02  0.1226708E+00
        -11   -1    0    0    0    0  0.00000000000E+00  0.00000000000E+00  0.45593999997E+02  0.45594000000E+02  0.51100000000E-03 0. -1.
         11   -1    0    0    0    0 -0.00000000000E+00 -0.00000000000E+00 -0.45593999997E+02  0.45594000000E+02  0.51100000000E-03 0.  1.
    9900012    2    1    2    0    0 -0.83266520086E+01  0.16040904225E+02 -0.49019517629E+01  0.72461738411E+02  0.70000219003E+02 0.  0.
        -12    1    1    2    0    0  0.83266520086E+01 -0.16040904225E+02  0.49019517629E+01  0.18726261589E+02  0.00000000000E+00 0.  1.
         11    1    3    3    0    0  0.61468063921E+01  0.11246273918E+02 -0.13773479083E+02  0.18814107265E+02  0.51100000000E-03 0. -1.
        -11    1    3    3    0    0  0.10922170814E+02  0.29119548403E+01 -0.14973519771E+02  0.18761119126E+02  0.51100000000E-03 0.  1.
         12    1    3    3    0    0 -0.25395629215E+02  0.18826754665E+01  0.23845047091E+02  0.34886512020E+02  0.00000000000E+00 0. -1.
</event>
<event>
 7    1  0.1358622E-013  0.7246152E+02  0.7816164E-02  0.1226708E+00
        -11   -1    0    0    0    0  0.00000000000E+00  0.00000000000E+00  0.45593999997E+02  0.45594000000E+02  0.51100000000E-03 0.  1.
         11   -1    0    0    0    0 -0.00000000000E+00 -0.00000000000E+00 -0.45593999997E+02  0.45594000000E+02  0.51100000000E-03 0. -1.
    9900012    2    1    2    0    0 -0.18399426709E+02 -0.25214443076E+01 -0.24050633569E+01  0.72461523706E+02  0.69999939311E+02 0.  0.
        -12    1    1    2    0    0  0.18399426709E+02  0.25214443076E+01  0.24050633569E+01  0.18726476294E+02  0.00000000000E+00 0.  1.
         11    1    3    3    0    0 -0.22347346652E+02  0.28253556937E+01 -0.78570150247E+01  0.23856219788E+02  0.51100000000E-03 0. -1.
        -11    1    3    3    0    0  0.40144668319E+01 -0.22023715149E+02 -0.11205334352E+02  0.25034366201E+02  0.51100000000E-03 0.  1.
        -12    1    3    3    0    0 -0.66546888779E-01  0.16676915147E+02  0.16657286020E+02  0.23570937717E+02  0.00000000000E+00 0.  1.
</event>
<event>
 7    1  0.1358622E-013  0.7246156E+02  0.7816164E-02  0.1226708E+00
        -11   -1    0    0    0    0  0.00000000000E+00  0.00000000000E+00  0.45593999997E+02  0.45594000000E+02  0.51100000000E-03 0.  1.
         11   -1    0    0    0    0 -0.00000000000E+00 -0.00000000000E+00 -0.45593999997E+02  0.45594000000E+02  0.51100000000E-03 0. -1.
    9900012    2    1    2    0    0 -0.10500311416E+02 -0.65442277928E+01 -0.14056891902E+02  0.72461557007E+02  0.69999982691E+02 0.  0.
        -12    1    1    2    0    0  0.10500311416E+02  0.65442277928E+01  0.14056891902E+02  0.18726442993E+02  0.00000000000E+00 0.  1.
         11    1    3    3    0    0  0.30906221331E+01 -0.27093133194E+01 -0.15995707989E+02  0.16515295885E+02  0.51100000000E-03 0. -1.
        -11    1    3    3    0    0  0.20824690740E+02  0.20338413363E+01  0.21430878187E+01  0.21033237522E+02  0.51100000000E-03 0.  1.
         12    1    3    3    0    0 -0.34415624289E+02 -0.58687558097E+01 -0.20427173135E+00  0.34913023600E+02  0.00000000000E+00 0. -1.
</event>
<event>
 7    1  0.1358622E-013  0.7246159E+02  0.7816164E-02  0.1226708E+00
        -11   -1    0    0    0    0  0.00000000000E+00  0.00000000000E+00  0.45593999997E+02  0.45594000000E+02  0.51100000000E-03 0.  1.
         11   -1    0    0    0    0 -0.00000000000E+00 -0.00000000000E+00 -0.45593999997E+02  0.45594000000E+02  0.51100000000E-03 0. -1.
    9900012    2    1    2    0    0  0.18354389092E+02  0.36753031544E+01  0.53586244823E+00  0.72461585480E+02  0.70000019782E+02 0.  0.
        -12    1    1    2    0    0 -0.18354389092E+02 -0.36753031544E+01 -0.53586244823E+00  0.18726414520E+02  0.00000000000E+00 0.  1.
         11    1    3    3    0    0  0.20104439854E+02 -0.81944583069E+01  0.51469057210E+01  0.22312065963E+02  0.51100000000E-03 0. -1.
        -11    1    3    3    0    0  0.42618308702E+01  0.12967000799E+02  0.20320922853E+02  0.24479506080E+02  0.51100000000E-03 0.  1.
         12    1    3    3    0    0 -0.60118816315E+01 -0.10972393374E+01 -0.24931966126E+02  0.25670013436E+02  0.00000000000E+00 0. -1.
</event>
<event>
 7    1  0.1358622E-013  0.7246156E+02  0.7816164E-02  0.1226708E+00
        -11   -1    0    0    0    0  0.00000000000E+00  0.00000000000E+00  0.45593999997E+02  0.45594000000E+02  0.51100000000E-03 0.  1.
         11   -1    0    0    0    0 -0.00000000000E+00 -0.00000000000E+00 -0.45593999997E+02  0.45594000000E+02  0.51100000000E-03 0. -1.
    9900012    2    1    2    0    0 -0.63931769466E+01  0.93464313389E+01 -0.14914799753E+02  0.72461555011E+02  0.69999980091E+02 0.  0.
        -12    1    1    2    0    0  0.63931769466E+01 -0.93464313389E+01  0.14914799753E+02  0.18726444989E+02  0.00000000000E+00 0.  1.
         11    1    3    3    0    0 -0.69125858588E+01 -0.17876963609E+02  0.19702120298E+02  0.27487146372E+02  0.51100000000E-03 0. -1.
        -11    1    3    3    0    0 -0.61311315639E+00 -0.33792772950E+00  0.13924036517E-01  0.70021213415E+00  0.51100000000E-03 0.  1.
        -12    1    3    3    0    0  0.11325220685E+01  0.27561322678E+02 -0.34630844088E+02  0.44274196506E+02  0.00000000000E+00 0.  1.
</event>
<event>
 7    1  0.1358622E-013  0.7246162E+02  0.7816164E-02  0.1226708E+00
        -11   -1    0    0    0    0  0.00000000000E+00  0.00000000000E+00  0.45593999997E+02  0.45594000000E+02  0.51100000000E-03 0.  1.
         11   -1    0    0    0    0 -0.00000000000E+00 -0.00000000000E+00 -0.45593999997E+02  0.45594000000E+02  0.51100000000E-03 0. -1.
    9900012    2    1    2    0    0  0.18124943753E+02  0.31611332059E+01  0.34886792615E+01  0.72461622022E+02  0.70000067385E+02 0.  0.
        -12    1    1    2    0    0 -0.18124943753E+02 -0.31611332059E+01 -0.34886792615E+01  0.18726377978E+02  0.00000000000E+00 0.  1.
         11    1    3    3    0    0 -0.20175729135E+01  0.18816100972E+02 -0.49686533365E+01  0.19565371770E+02  0.51100000000E-03 0.  1.
        -11    1    3    3    0    0  0.19386467561E+01  0.11998050395E+02  0.14837889315E+02  0.19180055373E+02  0.51100000000E-03 0. -1.
         12    1    3    3    0    0  0.18203869910E+02 -0.27653018161E+02 -0.63805567170E+01  0.33716194879E+02  0.00000000000E+00 0. -1.
</event>
<event>
 7    1  0.1358622E-013  0.7246158E+02  0.7816164E-02  0.1226708E+00
        -11   -1    0    0    0    0  0.00000000000E+00  0.00000000000E+00  0.45593999997E+02  0.45594000000E+02  0.51100000000E-03 0. -1.
         11   -1    0    0    0    0 -0.00000000000E+00 -0.00000000000E+00 -0.45593999997E+02  0.45594000000E+02  0.51100000000E-03 0.  1.
    9900012    2    1    2    0    0 -0.18524731300E+02 -0.25760594111E+01 -0.93655456082E+00  0.72461577858E+02  0.70000009853E+02 0.  0.
        -12    1    1    2    0    0  0.18524731300E+02  0.25760594111E+01  0.93655456082E+00  0.18726422142E+02  0.00000000000E+00 0.  1.
         11    1    3    3    0    0  0.13403227739E+02  0.72148991595E+01  0.20030503263E+02  0.25157947948E+02  0.51100000000E-03 0. -1.
        -11    1    3    3    0    0  0.37718507017E+01 -0.36872503062E+01 -0.63306707358E+01  0.82401495595E+01  0.51100000000E-03 0.  1.
        -12    1    3    3    0    0 -0.35699809740E+02 -0.61037082644E+01 -0.14636387088E+02  0.39063480350E+02  0.00000000000E+00 0.  1.
</event>
<event>
 7    1  0.1358622E-013  0.7246174E+02  0.7816164E-02  0.1226708E+00
        -11   -1    0    0    0    0  0.00000000000E+00  0.00000000000E+00  0.45593999997E+02  0.45594000000E+02  0.51100000000E-03 0.  1.
         11   -1    0    0    0    0 -0.00000000000E+00 -0.00000000000E+00 -0.45593999997E+02  0.45594000000E+02  0.51100000000E-03 0. -1.
    9900012    2    1    2    0    0 -0.12718474153E+02  0.42547973943E+01  0.13069432993E+02  0.72461735973E+02  0.70000215827E+02 0.  0.
        -12    1    1    2    0    0  0.12718474153E+02 -0.42547973943E+01 -0.13069432993E+02  0.18726264027E+02  0.00000000000E+00 0.  1.
         11    1    3    3    0    0  0.99781188352E+01  0.20467810597E+02 -0.87015616571E+01  0.24376449735E+02  0.51100000000E-03 0. -1.
        -11    1    3    3    0    0 -0.17962982463E+02 -0.11608507704E+02 -0.37587434460E+01  0.21715302039E+02  0.51100000000E-03 0.  1.
        -12    1    3    3    0    0 -0.47336105255E+01 -0.46045054987E+01  0.25529738096E+02  0.26369984200E+02  0.00000000000E+00 0.  1.
</event>
<event>
 7    1  0.1358622E-013  0.7246169E+02  0.7816164E-02  0.1226708E+00
        -11   -1    0    0    0    0  0.00000000000E+00  0.00000000000E+00  0.45593999997E+02  0.45594000000E+02  0.51100000000E-03 0.  1.
         11   -1    0    0    0    0 -0.00000000000E+00 -0.00000000000E+00 -0.45593999997E+02  0.45594000000E+02  0.51100000000E-03 0. -1.
    9900012    2    1    2    0    0 -0.10934304691E+02 -0.35288143149E+01 -0.14787266239E+02  0.72461687166E+02  0.70000152247E+02 0.  0.
        -12    1    1    2    0    0  0.10934304691E+02  0.35288143149E+01  0.14787266239E+02  0.18726312834E+02  0.00000000000E+00 0.  1.
         11    1    3    3    0    0  0.17324891200E+02 -0.55564971418E+01 -0.96336875546E+01  0.20587240022E+02  0.51100000000E-03 0. -1.
        -11    1    3    3    0    0  0.25887714707E+01 -0.12541968550E+02  0.82352172523E+01  0.15225686069E+02  0.51100000000E-03 0.  1.
        -12    1    3    3    0    0 -0.30847967362E+02  0.14569651377E+02 -0.13388795936E+02  0.36648761074E+02  0.00000000000E+00 0.  1.
</event>
<event>
 7    1  0.1358622E-013  0.7246154E+02  0.7816164E-02  0.1226708E+00
        -11   -1    0    0    0    0  0.00000000000E+00  0.00000000000E+00  0.45593999997E+02  0.45594000000E+02  0.51100000000E-03 0.  1.
         11   -1    0    0    0    0 -0.00000000000E+00 -0.00000000000E+00 -0.45593999997E+02  0.45594000000E+02  0.51100000000E-03 0. -1.
    9900012    2    1    2    0    0 -0.18129364232E+02 -0.46314764406E+01 -0.74556537910E+00  0.72461540398E+02  0.69999961055E+02 0.  0.
        -12    1    1    2    0    0  0.18129364232E+02  0.46314764406E+01  0.74556537910E+00  0.18726459602E+02  0.00000000000E+00 0.  1.
         11    1    3    3    0    0  0.51805525742E+01 -0.15271589523E+02  0.62255646607E+01  0.17286330644E+02  0.51100000000E-03 0. -1.
        -11    1    3    3    0    0 -0.20161259245E+02 -0.16698596183E+02 -0.87398613802E+01  0.27598997555E+02  0.51100000000E-03 0.  1.
        -12    1    3    3    0    0 -0.31486575613E+01  0.27338709265E+02  0.17687313404E+01  0.27576212200E+02  0.00000000000E+00 0.  1.
</event>
<event>
 7    1  0.1358622E-013  0.7246150E+02  0.7816164E-02  0.1226708E+00
        -11   -1    0    0    0    0  0.00000000000E+00  0.00000000000E+00  0.45593999997E+02  0.45594000000E+02  0.51100000000E-03 0. -1.
         11   -1    0    0    0    0 -0.00000000000E+00 -0.00000000000E+00 -0.45593999997E+02  0.45594000000E+02  0.51100000000E-03 0.  1.
    9900012    2    1    2    0    0 -0.16789221001E+02 -0.71441239611E+01 -0.42148959286E+01  0.72461500149E+02  0.69999908622E+02 0.  0.
        -12    1    1    2    0    0  0.16789221001E+02  0.71441239611E+01  0.42148959286E+01  0.18726499851E+02  0.00000000000E+00 0.  1.
         11    1    3    3    0    0 -0.16650014614E+02 -0.15575450386E+02  0.13852762533E+02  0.26678018506E+02  0.51100000000E-03 0. -1.
        -11    1    3    3    0    0  0.89185470811E+01 -0.85009208652E+01  0.70275357538E+01  0.14184230562E+02  0.51100000000E-03 0.  1.
        -12    1    3    3    0    0 -0.90577534685E+01  0.16932247290E+02 -0.25095194215E+02  0.31599251081E+02  0.00000000000E+00 0.  1.
</event>
<event>
 7    1  0.1358622E-013  0.7246158E+02  0.7816164E-02  0.1226708E+00
        -11   -1    0    0    0    0  0.00000000000E+00  0.00000000000E+00  0.45593999997E+02  0.45594000000E+02  0.51100000000E-03 0. -1.
         11   -1    0    0    0    0 -0.00000000000E+00 -0.00000000000E+00 -0.45593999997E+02  0.45594000000E+02  0.51100000000E-03 0.  1.
    9900012    2    1    2    0    0 -0.14573656016E+02  0.68680653776E+01  0.95455203590E+01  0.72461582013E+02  0.70000015265E+02 0.  0.
        -12    1    1    2    0    0  0.14573656016E+02 -0.68680653776E+01 -0.95455203590E+01  0.18726417987E+02  0.00000000000E+00 0.  1.
         11    1    3    3    0    0 -0.36848415437E+01  0.62118329704E-01 -0.20541492321E+01  0.42191758932E+01  0.51100000000E-03 0. -1.
        -11    1    3    3    0    0  0.11255539033E+02 -0.66874740394E+01 -0.22120294456E+02  0.25704413922E+02  0.51100000000E-03 0.  1.
        -12    1    3    3    0    0 -0.22144353506E+02  0.13493421087E+02  0.33719964047E+02  0.42537992198E+02  0.00000000000E+00 0.  1.
</event>
<event>
 7    1  0.1358622E-013  0.7246159E+02  0.7816164E-02  0.1226708E+00
        -11   -1    0    0    0    0  0.00000000000E+00  0.00000000000E+00  0.45593999997E+02  0.45594000000E+02  0.51100000000E-03 0.  1.
         11   -1    0    0    0    0 -0.00000000000E+00 -0.00000000000E+00 -0.45593999997E+02  0.45594000000E+02  0.51100000000E-03 0. -1.
    9900012    2    1    2    0    0 -0.23833533546E+01  0.17151844874E+02 -0.71282655572E+01  0.72461592826E+02  0.70000029352E+02 0.  0.
        -12    1    1    2    0    0  0.23833533546E+01 -0.17151844874E+02  0.71282655572E+01  0.18726407174E+02  0.00000000000E+00 0.  1.
         11    1    3    3    0    0  0.84525243465E+01 -0.93879683696E+01 -0.75331639329E+01  0.14708082031E+02  0.51100000000E-03 0. -1.
        -11    1    3    3    0    0 -0.12386743034E+02 -0.85382010410E+01 -0.13281459578E+02  0.20068120211E+02  0.51100000000E-03 0.  1.
        -12    1    3    3    0    0  0.15508653325E+01  0.35078014285E+02  0.13686357954E+02  0.37685390584E+02  0.00000000000E+00 0.  1.
</event>
<event>
 7    1  0.1358622E-013  0.7246155E+02  0.7816164E-02  0.1226708E+00
        -11   -1    0    0    0    0  0.00000000000E+00  0.00000000000E+00  0.45593999997E+02  0.45594000000E+02  0.51100000000E-03 0. -1.
         11   -1    0    0    0    0 -0.00000000000E+00 -0.00000000000E+00 -0.45593999997E+02  0.45594000000E+02  0.51100000000E-03 0.  1.
    9900012    2    1    2    0    0  0.13813384164E+02  0.42723524843E+01  0.11900311779E+02  0.72461548167E+02  0.69999971175E+02 0.  0.
        -12    1    1    2    0    0 -0.13813384164E+02 -0.42723524843E+01 -0.11900311779E+02  0.18726451833E+02  0.00000000000E+00 0.  1.
         11    1    3    3    0    0  0.11179501478E+02  0.25310380887E+02  0.40967799759E+01  0.27971060766E+02  0.51100000000E-03 0. -1.
        -11    1    3    3    0    0  0.13304832516E+02 -0.40682193832E+01 -0.10433216436E+02  0.17390255395E+02  0.51100000000E-03 0.  1.
        -12    1    3    3    0    0 -0.10670949830E+02 -0.16969809019E+02  0.18236748240E+02  0.27100232006E+02  0.00000000000E+00 0.  1.
</event>
<event>
 7    1  0.1358622E-013  0.7246159E+02  0.7816164E-02  0.1226708E+00
        -11   -1    0    0    0    0  0.00000000000E+00  0.00000000000E+00  0.45593999997E+02  0.45594000000E+02  0.51100000000E-03 0. -1.
         11   -1    0    0    0    0 -0.00000000000E+00 -0.00000000000E+00 -0.45593999997E+02  0.45594000000E+02  0.51100000000E-03 0.  1.
    9900012    2    1    2    0    0  0.19101367430E+00  0.16504211206E+02 -0.88460642970E+01  0.72461592782E+02  0.70000029295E+02 0.  0.
        -12    1    1    2    0    0 -0.19101367430E+00 -0.16504211206E+02  0.88460642970E+01  0.18726407218E+02  0.00000000000E+00 0.  1.
         11    1    3    3    0    0  0.11466754688E+02  0.64329494872E+01 -0.48070240355E+01  0.13999170780E+02  0.51100000000E-03 0. -1.
        -11    1    3    3    0    0  0.74941503651E+01  0.14587913655E+02 -0.25042132820E+02  0.29934560811E+02  0.51100000000E-03 0.  1.
         12    1    3    3    0    0 -0.18769891379E+02 -0.45166519371E+01  0.21003092559E+02  0.28527861191E+02  0.00000000000E+00 0. -1.
</event>
<event>
 7    1  0.1358622E-013  0.7246160E+02  0.7816164E-02  0.1226708E+00
        -11   -1    0    0    0    0  0.00000000000E+00  0.00000000000E+00  0.45593999997E+02  0.45594000000E+02  0.51100000000E-03 0. -1.
         11   -1    0    0    0    0 -0.00000000000E+00 -0.00000000000E+00 -0.45593999997E+02  0.45594000000E+02  0.51100000000E-03 0.  1.
    9900012    2    1    2    0    0 -0.15301955336E+01 -0.18615527377E+02  0.13411723710E+01  0.72461598818E+02  0.70000037158E+02 0.  0.
        -12    1    1    2    0    0  0.15301955336E+01  0.18615527377E+02 -0.13411723710E+01  0.18726401182E+02  0.00000000000E+00 0.  1.
         11    1    3    3    0    0  0.99388500779E+01  0.51714576205E+00  0.70353205934E+01  0.12187859399E+02  0.51100000000E-03 0. -1.
        -11    1    3    3    0    0 -0.99347820762E+01  0.17948599148E+02 -0.10160482094E+02  0.22892957496E+02  0.51100000000E-03 0.  1.
         12    1    3    3    0    0 -0.15342635352E+01 -0.37081272287E+02  0.44663338714E+01  0.37380781924E+02  0.00000000000E+00 0. -1.
</event>
<event>
 7    1  0.1358622E-013  0.7246156E+02  0.7816164E-02  0.1226708E+00
        -11   -1    0    0    0    0  0.00000000000E+00  0.00000000000E+00  0.45593999997E+02  0.45594000000E+02  0.51100000000E-03 0.  1.
         11   -1    0    0    0    0 -0.00000000000E+00 -0.00000000000E+00 -0.45593999997E+02  0.45594000000E+02  0.51100000000E-03 0. -1.
    9900012    2    1    2    0    0  0.16071151444E+02 -0.13269515864E+01 -0.95203396017E+01  0.72461559458E+02  0.69999985883E+02 0.  0.
        -12    1    1    2    0    0 -0.16071151444E+02  0.13269515864E+01  0.95203396017E+01  0.18726440542E+02  0.00000000000E+00 0.  1.
         11    1    3    3    0    0  0.11870571567E+02  0.34303164984E+01  0.48273496190E+01  0.13265777219E+02  0.51100000000E-03 0. -1.
        -11    1    3    3    0    0  0.11862731774E+02  0.22594735505E+02  0.33350850609E+01  0.25736535709E+02  0.51100000000E-03 0.  1.
         12    1    3    3    0    0 -0.76621518969E+01 -0.27352003590E+02 -0.17682774282E+02  0.33459246530E+02  0.00000000000E+00 0. -1.
</event>
<event>
 7    1  0.1358622E-013  0.7246175E+02  0.7816164E-02  0.1226708E+00
        -11   -1    0    0    0    0  0.00000000000E+00  0.00000000000E+00  0.45593999997E+02  0.45594000000E+02  0.51100000000E-03 0.  1.
         11   -1    0    0    0    0 -0.00000000000E+00 -0.00000000000E+00 -0.45593999997E+02  0.45594000000E+02  0.51100000000E-03 0. -1.
    9900012    2    1    2    0    0  0.53752635786E+01  0.16109811910E+02  0.78900508634E+01  0.72461751018E+02  0.70000235426E+02 0.  0.
        -12    1    1    2    0    0 -0.53752635786E+01 -0.16109811910E+02 -0.78900508634E+01  0.18726248982E+02  0.00000000000E+00 0.  1.
         11    1    3    3    0    0 -0.12012206772E+02 -0.66225918470E+01  0.28184249937E+01  0.14003405086E+02  0.51100000000E-03 0. -1.
        -11    1    3    3    0    0  0.76078094352E+01  0.38116762276E+02 -0.19638974420E+01  0.38918160597E+02  0.51100000000E-03 0.  1.
         12    1    3    3    0    0  0.97796609154E+01 -0.15384358519E+02  0.70355233117E+01  0.19540185335E+02  0.00000000000E+00 0. -1.
</event>
<event>
 7    1  0.1358622E-013  0.7246154E+02  0.7816164E-02  0.1226708E+00
        -11   -1    0    0    0    0  0.00000000000E+00  0.00000000000E+00  0.45593999997E+02  0.45594000000E+02  0.51100000000E-03 0.  1.
         11   -1    0    0    0    0 -0.00000000000E+00 -0.00000000000E+00 -0.45593999997E+02  0.45594000000E+02  0.51100000000E-03 0. -1.
    9900012    2    1    2    0    0 -0.39182057289E+01 -0.23998201725E+00 -0.18310390027E+02  0.72461539832E+02  0.69999960317E+02 0.  0.
        -12    1    1    2    0    0  0.39182057289E+01  0.23998201725E+00  0.18310390027E+02  0.18726460168E+02  0.00000000000E+00 0.  1.
         11    1    3    3    0    0 -0.17319243245E+02 -0.34345212325E+01  0.33138361740E+01  0.17964788702E+02  0.51100000000E-03 0. -1.
        -11    1    3    3    0    0  0.28259072279E+02  0.84727490119E+01 -0.23510710603E+01  0.29595441832E+02  0.51100000000E-03 0.  1.
         12    1    3    3    0    0 -0.14858034763E+02 -0.52782097966E+01 -0.19273155140E+02  0.24901309297E+02  0.00000000000E+00 0. -1.
</event>
<event>
 7    1  0.1358622E-013  0.7246155E+02  0.7816164E-02  0.1226708E+00
        -11   -1    0    0    0    0  0.00000000000E+00  0.00000000000E+00  0.45593999997E+02  0.45594000000E+02  0.51100000000E-03 0.  1.
         11   -1    0    0    0    0 -0.00000000000E+00 -0.00000000000E+00 -0.45593999997E+02  0.45594000000E+02  0.51100000000E-03 0. -1.
    9900012    2    1    2    0    0  0.87293817949E+01  0.14689659899E+02 -0.76610409510E+01  0.72461554450E+02  0.69999979360E+02 0.  0.
        -12    1    1    2    0    0 -0.87293817949E+01 -0.14689659899E+02  0.76610409510E+01  0.18726445550E+02  0.00000000000E+00 0.  1.
         11    1    3    3    0    0 -0.12930847449E+02  0.31184317107E+01  0.36101791912E+01  0.13782772803E+02  0.51100000000E-03 0. -1.
        -11    1    3    3    0    0 -0.11522474821E+02 -0.60081738841E+01 -0.16240769344E+02  0.20799715589E+02  0.51100000000E-03 0.  1.
         12    1    3    3    0    0  0.33182704064E+02  0.17579402072E+02  0.49695492020E+01  0.37879066059E+02  0.00000000000E+00 0. -1.
</event>
<event>
 7    1  0.1358622E-013  0.7246160E+02  0.7816164E-02  0.1226708E+00
        -11   -1    0    0    0    0  0.00000000000E+00  0.00000000000E+00  0.45593999997E+02  0.45594000000E+02  0.51100000000E-03 0.  1.
         11   -1    0    0    0    0 -0.00000000000E+00 -0.00000000000E+00 -0.45593999997E+02  0.45594000000E+02  0.51100000000E-03 0. -1.
    9900012    2    1    2    0    0 -0.54963346164E+01 -0.17886193319E+02  0.74336881801E+00  0.72461596104E+02  0.70000033622E+02 0.  0.
        -12    1    1    2    0    0  0.54963346164E+01  0.17886193319E+02 -0.74336881801E+00  0.18726403896E+02  0.00000000000E+00 0.  1.
         11    1    3    3    0    0 -0.45596748703E+00 -0.21479691928E+02 -0.11911981362E+02  0.24565837497E+02  0.51100000000E-03 0. -1.
        -11    1    3    3    0    0 -0.80895062146E+01  0.14490484457E+02 -0.12192303386E+02  0.20592875290E+02  0.51100000000E-03 0.  1.
        -12    1    3    3    0    0  0.30491390852E+01 -0.10896985847E+02  0.24847653566E+02  0.27302883318E+02  0.00000000000E+00 0.  1.
</event>
<event>
 7    1  0.1358622E-013  0.7246157E+02  0.7816164E-02  0.1226708E+00
        -11   -1    0    0    0    0  0.00000000000E+00  0.00000000000E+00  0.45593999997E+02  0.45594000000E+02  0.51100000000E-03 0.  1.
         11   -1    0    0    0    0 -0.00000000000E+00 -0.00000000000E+00 -0.45593999997E+02  0.45594000000E+02  0.51100000000E-03 0. -1.
    9900012    2    1    2    0    0 -0.20546150974E+00 -0.51696711763E+01 -0.17997541604E+02  0.72461568992E+02  0.69999998304E+02 0.  0.
        -12    1    1    2    0    0  0.20546150974E+00  0.51696711763E+01  0.17997541604E+02  0.18726431008E+02  0.00000000000E+00 0.  1.
         11    1    3    3    0    0  0.24888333607E+01 -0.72958527114E+01 -0.28904121422E+02  0.29914411138E+02  0.51100000000E-03 0. -1.
        -11    1    3    3    0    0 -0.49291230772E+00  0.18423130879E+02 -0.55850988646E+01  0.19257415286E+02  0.51100000000E-03 0.  1.
         12    1    3    3    0    0 -0.22013825627E+01 -0.16296949344E+02  0.16491678683E+02  0.23289742568E+02  0.00000000000E+00 0. -1.
</event>
<event>
 7    1  0.1358622E-013  0.7246159E+02  0.7816164E-02  0.1226708E+00
        -11   -1    0    0    0    0  0.00000000000E+00  0.00000000000E+00  0.45593999997E+02  0.45594000000E+02  0.51100000000E-03 0. -1.
         11   -1    0    0    0    0 -0.00000000000E+00 -0.00000000000E+00 -0.45593999997E+02  0.45594000000E+02  0.51100000000E-03 0.  1.
    9900012    2    1    2    0    0  0.99191863412E+01  0.15626978061E+02  0.28435350280E+01  0.72461591042E+02  0.70000027028E+02 0.  0.
        -12    1    1    2    0    0 -0.99191863412E+01 -0.15626978061E+02 -0.28435350280E+01  0.18726408958E+02  0.00000000000E+00 0.  1.
         11    1    3    3    0    0  0.74733788750E+01 -0.12908627845E+02 -0.18409089624E+01  0.15029072184E+02  0.51100000000E-03 0. -1.
        -11    1    3    3    0    0 -0.71388944901E+01  0.55196665311E+01 -0.20251259962E+02  0.22170793028E+02  0.51100000000E-03 0.  1.
         12    1    3    3    0    0  0.95847019564E+01  0.23015939375E+02  0.24935703953E+02  0.35261725830E+02  0.00000000000E+00 0. -1.
</event>
<event>
 7    1  0.1358622E-013  0.7246154E+02  0.7816164E-02  0.1226708E+00
        -11   -1    0    0    0    0  0.00000000000E+00  0.00000000000E+00  0.45593999997E+02  0.45594000000E+02  0.51100000000E-03 0. -1.
         11   -1    0    0    0    0 -0.00000000000E+00 -0.00000000000E+00 -0.45593999997E+02  0.45594000000E+02  0.51100000000E-03 0.  1.
    9900012    2    1    2    0    0  0.81495129385E+01 -0.34317956357E+01  0.16507230180E+02  0.72461536622E+02  0.69999956136E+02 0.  0.
        -12    1    1    2    0    0 -0.81495129385E+01  0.34317956357E+01 -0.16507230180E+02  0.18726463378E+02  0.00000000000E+00 0.  1.
         11    1    3    3    0    0 -0.11362839518E+02 -0.11769369814E+01  0.13177080548E+02  0.17439459699E+02  0.51100000000E-03 0. -1.
        -11    1    3    3    0    0  0.49215705161E+00 -0.63204470645E+01  0.25065590097E+02  0.25854865631E+02  0.51100000000E-03 0.  1.
        -12    1    3    3    0    0  0.19020195405E+02  0.40655884102E+01 -0.21735440464E+02  0.29167211292E+02  0.00000000000E+00 0.  1.
</event>
<event>
 7    1  0.1358622E-013  0.7246180E+02  0.7816164E-02  0.1226707E+00
        -11   -1    0    0    0    0  0.00000000000E+00  0.00000000000E+00  0.45593999997E+02  0.45594000000E+02  0.51100000000E-03 0.  1.
         11   -1    0    0    0    0 -0.00000000000E+00 -0.00000000000E+00 -0.45593999997E+02  0.45594000000E+02  0.51100000000E-03 0. -1.
    9900012    2    1    2    0    0 -0.43050548617E+01 -0.97013952746E+01  0.15427896329E+02  0.72461800365E+02  0.70000299709E+02 0.  0.
        -12    1    1    2    0    0  0.43050548617E+01  0.97013952746E+01 -0.15427896329E+02  0.18726199635E+02  0.00000000000E+00 0.  1.
         11    1    3    3    0    0 -0.16092162271E+02  0.58402016584E+01 -0.16653582647E+02  0.23883204500E+02  0.51100000000E-03 0. -1.
        -11    1    3    3    0    0 -0.75961232387E+01  0.39003381182E+01  0.11211861365E+02  0.14093245234E+02  0.51100000000E-03 0.  1.
         12    1    3    3    0    0  0.19383230648E+02 -0.19441935051E+02  0.20869617611E+02  0.34485350630E+02  0.00000000000E+00 0. -1.
</event>
<event>
 7    1  0.1358622E-013  0.7246160E+02  0.7816164E-02  0.1226708E+00
        -11   -1    0    0    0    0  0.00000000000E+00  0.00000000000E+00  0.45593999997E+02  0.45594000000E+02  0.51100000000E-03 0.  1.
         11   -1    0    0    0    0 -0.00000000000E+00 -0.00000000000E+00 -0.45593999997E+02  0.45594000000E+02  0.51100000000E-03 0. -1.
    9900012    2    1    2    0    0  0.13988376590E+02  0.58099350396E+01  0.11011269084E+02  0.72461599608E+02  0.70000038187E+02 0.  0.
        -12    1    1    2    0    0 -0.13988376590E+02 -0.58099350396E+01 -0.11011269084E+02  0.18726400392E+02  0.00000000000E+00 0.  1.
         11    1    3    3    0    0 -0.59417163582E+01 -0.18468182791E+01 -0.80211583461E+00  0.62736051127E+01  0.51100000000E-03 0. -1.
        -11    1    3    3    0    0 -0.19767264302E+02 -0.89086135647E+01  0.75644150651E+01  0.22963634494E+02  0.51100000000E-03 0.  1.
         12    1    3    3    0    0  0.39697357251E+02  0.16565366883E+02  0.42489698534E+01  0.43224360001E+02  0.00000000000E+00 0. -1.
</event>
<event>
 7    1  0.1358622E-013  0.7246152E+02  0.7816164E-02  0.1226708E+00
        -11   -1    0    0    0    0  0.00000000000E+00  0.00000000000E+00  0.45593999997E+02  0.45594000000E+02  0.51100000000E-03 0. -1.
         11   -1    0    0    0    0 -0.00000000000E+00 -0.00000000000E+00 -0.45593999997E+02  0.45594000000E+02  0.51100000000E-03 0.  1.
    9900012    2    1    2    0    0  0.14325976209E+02  0.70761122422E+01  0.97660740515E+01  0.72461517116E+02  0.69999930726E+02 0.  0.
        -12    1    1    2    0    0 -0.14325976209E+02 -0.70761122422E+01 -0.97660740515E+01  0.18726482884E+02  0.00000000000E+00 0.  1.
         11    1    3    3    0    0  0.18866907937E+02  0.27315835954E+02 -0.42340930323E+01  0.33467038307E+02  0.51100000000E-03 0. -1.
        -11    1    3    3    0    0 -0.16409838057E+02 -0.79215394507E+01  0.25242299142E+01  0.18395795967E+02  0.51100000000E-03 0.  1.
        -12    1    3    3    0    0  0.11868906329E+02 -0.12318184261E+02  0.11475937170E+02  0.20598682843E+02  0.00000000000E+00 0.  1.
</event>
<event>
 7    1  0.1358622E-013  0.7246156E+02  0.7816164E-02  0.1226708E+00
        -11   -1    0    0    0    0  0.00000000000E+00  0.00000000000E+00  0.45593999997E+02  0.45594000000E+02  0.51100000000E-03 0.  1.
         11   -1    0    0    0    0 -0.00000000000E+00 -0.00000000000E+00 -0.45593999997E+02  0.45594000000E+02  0.51100000000E-03 0. -1.
    9900012    2    1    2    0    0 -0.97120044413E+01 -0.10321609318E+02 -0.12240138691E+02  0.72461557616E+02  0.69999983485E+02 0.  0.
        -12    1    1    2    0    0  0.97120044413E+01  0.10321609318E+02  0.12240138691E+02  0.18726442384E+02  0.00000000000E+00 0.  1.
         11    1    3    3    0    0 -0.23470370687E+01 -0.25128721462E+01  0.19782433707E+02  0.20079038648E+02  0.51100000000E-03 0. -1.
        -11    1    3    3    0    0  0.60252375389E+01 -0.14702570285E+02  0.11706911996E+01  0.15932343787E+02  0.51100000000E-03 0.  1.
        -12    1    3    3    0    0 -0.13390204912E+02  0.68938331133E+01 -0.33193263597E+02  0.36450175182E+02  0.00000000000E+00 0.  1.
</event>
<event>
 7    1  0.1358622E-013  0.7246164E+02  0.7816164E-02  0.1226708E+00
        -11   -1    0    0    0    0  0.00000000000E+00  0.00000000000E+00  0.45593999997E+02  0.45594000000E+02  0.51100000000E-03 0. -1.
         11   -1    0    0    0    0 -0.00000000000E+00 -0.00000000000E+00 -0.45593999997E+02  0.45594000000E+02  0.51100000000E-03 0.  1.
    9900012    2    1    2    0    0 -0.12498880032E+02  0.25331025727E+01  0.13712686725E+02  0.72461644564E+02  0.70000096750E+02 0.  0.
        -12    1    1    2    0    0  0.12498880032E+02 -0.25331025727E+01 -0.13712686725E+02  0.18726355436E+02  0.00000000000E+00 0.  1.
         11    1    3    3    0    0 -0.96441741097E+01  0.11159789939E+02  0.13683464258E+02  0.20119348899E+02  0.51100000000E-03 0. -1.
        -11    1    3    3    0    0  0.93653617866E+01  0.18860437446E+02  0.55084981502E+01  0.21766250347E+02  0.51100000000E-03 0.  1.
        -12    1    3    3    0    0 -0.12220067709E+02 -0.27487124812E+02 -0.54792756833E+01  0.30576045318E+02  0.00000000000E+00 0.  1.
</event>
<event>
 7    1  0.1358622E-013  0.7246159E+02  0.7816164E-02  0.1226708E+00
        -11   -1    0    0    0    0  0.00000000000E+00  0.00000000000E+00  0.45593999997E+02  0.45594000000E+02  0.51100000000E-03 0. -1.
         11   -1    0    0    0    0 -0.00000000000E+00 -0.00000000000E+00 -0.45593999997E+02  0.45594000000E+02  0.51100000000E-03 0.  1.
    9900012    2    1    2    0    0  0.43997044119E+01 -0.73766638041E+01  0.16640484081E+02  0.72461594092E+02  0.70000031001E+02 0.  0.
        -12    1    1    2    0    0 -0.43997044119E+01  0.73766638041E+01 -0.16640484081E+02  0.18726405908E+02  0.00000000000E+00 0.  1.
         11    1    3    3    0    0  0.43482810116E+01 -0.21549237935E+02 -0.13097615517E+02  0.25589543486E+02  0.51100000000E-03 0. -1.
        -11    1    3    3    0    0  0.23739878585E+01 -0.81397490118E+01  0.21263738190E+02  0.22891873982E+02  0.51100000000E-03 0.  1.
        -12    1    3    3    0    0 -0.23225644583E+01  0.22312323142E+02  0.84743614079E+01  0.23980176624E+02  0.00000000000E+00 0.  1.
</event>
<event>
 7    1  0.1358622E-013  0.7246168E+02  0.7816164E-02  0.1226708E+00
        -11   -1    0    0    0    0  0.00000000000E+00  0.00000000000E+00  0.45593999997E+02  0.45594000000E+02  0.51100000000E-03 0. -1.
         11   -1    0    0    0    0 -0.00000000000E+00 -0.00000000000E+00 -0.45593999997E+02  0.45594000000E+02  0.51100000000E-03 0.  1.
    9900012    2    1    2    0    0 -0.15377270216E+02  0.10023843262E+02 -0.37063800605E+01  0.72461678253E+02  0.70000140636E+02 0.  0.
        -12    1    1    2    0    0  0.15377270216E+02 -0.10023843262E+02  0.37063800605E+01  0.18726321747E+02  0.00000000000E+00 0.  1.
         11    1    3    3    0    0 -0.31270684405E+02 -0.68108256017E+01 -0.92726650203E-03  0.32003797426E+02  0.51100000000E-03 0. -1.
        -11    1    3    3    0    0  0.55757310602E+01 -0.10003928126E+02  0.10260903129E+00  0.11453291391E+02  0.51100000000E-03 0.  1.
        -12    1    3    3    0    0  0.10317683130E+02  0.26838596989E+02 -0.38080618252E+01  0.29004589436E+02  0.00000000000E+00 0.  1.
</event>
<event>
 7    1  0.1358622E-013  0.7246165E+02  0.7816164E-02  0.1226708E+00
        -11   -1    0    0    0    0  0.00000000000E+00  0.00000000000E+00  0.45593999997E+02  0.45594000000E+02  0.51100000000E-03 0.  1.
         11   -1    0    0    0    0 -0.00000000000E+00 -0.00000000000E+00 -0.45593999997E+02  0.45594000000E+02  0.51100000000E-03 0. -1.
    9900012    2    1    2    0    0  0.15920600692E+02 -0.78973561385E+01  0.59027388483E+01  0.72461652618E+02  0.70000107242E+02 0.  0.
        -12    1    1    2    0    0 -0.15920600692E+02  0.78973561385E+01 -0.59027388483E+01  0.18726347382E+02  0.00000000000E+00 0.  1.
         11    1    3    3    0    0 -0.41315040635E+00 -0.14799503345E+01  0.12312397595E-01  0.15365865115E+01  0.51100000000E-03 0. -1.
        -11    1    3    3    0    0 -0.19800983335E+01 -0.29764733353E+02  0.22088923083E+02  0.37118467966E+02  0.51100000000E-03 0.  1.
         12    1    3    3    0    0  0.18313849432E+02  0.23347327549E+02 -0.16198496632E+02  0.33806598140E+02  0.00000000000E+00 0. -1.
</event>
<event>
 7    1  0.1358622E-013  0.7246149E+02  0.7816164E-02  0.1226708E+00
        -11   -1    0    0    0    0  0.00000000000E+00  0.00000000000E+00  0.45593999997E+02  0.45594000000E+02  0.51100000000E-03 0.  1.
         11   -1    0    0    0    0 -0.00000000000E+00 -0.00000000000E+00 -0.45593999997E+02  0.45594000000E+02  0.51100000000E-03 0. -1.
    9900012    2    1    2    0    0  0.14290987846E+02 -0.45885060965E+01 -0.11198013657E+02  0.72461488534E+02  0.69999893492E+02 0.  0.
        -12    1    1    2    0    0 -0.14290987846E+02  0.45885060965E+01  0.11198013657E+02  0.18726511466E+02  0.00000000000E+00 0.  1.
         11    1    3    3    0    0  0.81830652749E+00  0.22499723115E+02 -0.48499771242E+01  0.23031053910E+02  0.51100000000E-03 0. -1.
        -11    1    3    3    0    0  0.54638652731E+01 -0.62308574337E+01 -0.21092162387E+02  0.22661789923E+02  0.51100000000E-03 0.  1.
        -12    1    3    3    0    0  0.80088160454E+01 -0.20857371778E+02  0.14744125854E+02  0.26768644701E+02  0.00000000000E+00 0.  1.
</event>
<event>
 7    1  0.1358622E-013  0.7246150E+02  0.7816164E-02  0.1226708E+00
        -11   -1    0    0    0    0  0.00000000000E+00  0.00000000000E+00  0.45593999997E+02  0.45594000000E+02  0.51100000000E-03 0. -1.
         11   -1    0    0    0    0 -0.00000000000E+00 -0.00000000000E+00 -0.45593999997E+02  0.45594000000E+02  0.51100000000E-03 0.  1.
    9900012    2    1    2    0    0  0.10913411834E+02 -0.14596103784E+02 -0.43049838325E+01  0.72461503015E+02  0.69999912356E+02 0.  0.
        -12    1    1    2    0    0 -0.10913411834E+02  0.14596103784E+02  0.43049838325E+01  0.18726496985E+02  0.00000000000E+00 0.  1.
         11    1    3    3    0    0 -0.86871612237E+01 -0.10039068384E+02 -0.23625707047E+00  0.13278007449E+02  0.51100000000E-03 0. -1.
        -11    1    3    3    0    0 -0.72133660306E+01 -0.19644758129E+02 -0.15835042096E+02  0.26243051078E+02  0.51100000000E-03 0.  1.
         12    1    3    3    0    0  0.26813939088E+02  0.15087722729E+02  0.11766315334E+02  0.32940444489E+02  0.00000000000E+00 0. -1.
</event>
<event>
 7    1  0.1358622E-013  0.7246152E+02  0.7816164E-02  0.1226708E+00
        -11   -1    0    0    0    0  0.00000000000E+00  0.00000000000E+00  0.45593999997E+02  0.45594000000E+02  0.51100000000E-03 0. -1.
         11   -1    0    0    0    0 -0.00000000000E+00 -0.00000000000E+00 -0.45593999997E+02  0.45594000000E+02  0.51100000000E-03 0.  1.
    9900012    2    1    2    0    0 -0.15958789436E+02 -0.43814939619E+01 -0.87635976214E+01  0.72461518940E+02  0.69999933102E+02 0.  0.
        -12    1    1    2    0    0  0.15958789436E+02  0.43814939619E+01  0.87635976214E+01  0.18726481060E+02  0.00000000000E+00 0.  1.
         11    1    3    3    0    0  0.22454781358E+01 -0.93290193576E+01  0.18442172401E+02  0.20789095636E+02  0.51100000000E-03 0. -1.
        -11    1    3    3    0    0  0.11773052339E+02  0.72454298610E+01 -0.75382609354E+01  0.15745678564E+02  0.51100000000E-03 0.  1.
         12    1    3    3    0    0 -0.29977319911E+02 -0.22979044653E+01 -0.19667509087E+02  0.35926744741E+02  0.00000000000E+00 0. -1.
</event>
<event>
 7    1  0.1358622E-013  0.7246163E+02  0.7816164E-02  0.1226708E+00
        -11   -1    0    0    0    0  0.00000000000E+00  0.00000000000E+00  0.45593999997E+02  0.45594000000E+02  0.51100000000E-03 0.  1.
         11   -1    0    0    0    0 -0.00000000000E+00 -0.00000000000E+00 -0.45593999997E+02  0.45594000000E+02  0.51100000000E-03 0. -1.
    9900012    2    1    2    0    0  0.10939821165E+02 -0.31079404101E+00 -0.15195420286E+02  0.72461626146E+02  0.70000072757E+02 0.  0.
        -12    1    1    2    0    0 -0.10939821165E+02  0.31079404101E+00  0.15195420286E+02  0.18726373854E+02  0.00000000000E+00 0.  1.
         11    1    3    3    0    0  0.32147028523E+01  0.65090807545E+00  0.37244010742E+01  0.49627773851E+01  0.51100000000E-03 0. -1.
        -11    1    3    3    0    0 -0.16222012042E+02 -0.43384662631E+01  0.17195190264E+02  0.24034361499E+02  0.51100000000E-03 0.  1.
         12    1    3    3    0    0  0.23947130355E+02  0.33767641467E+01 -0.36115011624E+02  0.43464487262E+02  0.00000000000E+00 0. -1.
</event>
<event>
 7    1  0.1358622E-013  0.7246154E+02  0.7816164E-02  0.1226708E+00
        -11   -1    0    0    0    0  0.00000000000E+00  0.00000000000E+00  0.45593999997E+02  0.45594000000E+02  0.51100000000E-03 0.  1.
         11   -1    0    0    0    0 -0.00000000000E+00 -0.00000000000E+00 -0.45593999997E+02  0.45594000000E+02  0.51100000000E-03 0. -1.
    9900012    2    1    2    0    0  0.14400552322E+02  0.10191863803E+02  0.62793597383E+01  0.72461538677E+02  0.69999958812E+02 0.  0.
        -12    1    1    2    0    0 -0.14400552322E+02 -0.10191863803E+02 -0.62793597383E+01  0.18726461323E+02  0.00000000000E+00 0.  1.
         11    1    3    3    0    0  0.17755099010E+02 -0.17410279159E+01 -0.14832720718E+02  0.23200955222E+02  0.51100000000E-03 0. -1.
        -11    1    3    3    0    0  0.10311615234E+02 -0.12199239113E+02  0.12302541966E+02  0.20161929043E+02  0.51100000000E-03 0.  1.
         12    1    3    3    0    0 -0.13666161921E+02  0.24132130832E+02  0.88095384899E+01  0.29098654412E+02  0.00000000000E+00 0. -1.
</event>
<event>
 7    1  0.1358622E-013  0.7246160E+02  0.7816164E-02  0.1226708E+00
        -11   -1    0    0    0    0  0.00000000000E+00  0.00000000000E+00  0.45593999997E+02  0.45594000000E+02  0.51100000000E-03 0.  1.
         11   -1    0    0    0    0 -0.00000000000E+00 -0.00000000000E+00 -0.45593999997E+02  0.45594000000E+02  0.51100000000E-03 0. -1.
    9900012    2    1    2    0    0 -0.88667309994E+00 -0.14684427521E+02 -0.11587046352E+02  0.72461595007E+02  0.70000032192E+02 0.  0.
        -12    1    1    2    0    0  0.88667309994E+00  0.14684427521E+02  0.11587046352E+02  0.18726404993E+02  0.00000000000E+00 0.  1.
         11    1    3    3    0    0  0.14432259815E+02 -0.25362625540E+02  0.12587015768E+02  0.31780274761E+02  0.51100000000E-03 0. -1.
        -11    1    3    3    0    0  0.47789576282E+01  0.93479424760E+01 -0.19326945094E+01  0.10675100603E+02  0.51100000000E-03 0.  1.
        -12    1    3    3    0    0 -0.20097890544E+02  0.13302555426E+01 -0.22241367610E+02  0.30006219643E+02  0.00000000000E+00 0.  1.
</event>
<event>
 7    1  0.1358622E-013  0.7246154E+02  0.7816164E-02  0.1226708E+00
        -11   -1    0    0    0    0  0.00000000000E+00  0.00000000000E+00  0.45593999997E+02  0.45594000000E+02  0.51100000000E-03 0.  1.
         11   -1    0    0    0    0 -0.00000000000E+00 -0.00000000000E+00 -0.45593999997E+02  0.45594000000E+02  0.51100000000E-03 0. -1.
    9900012    2    1    2    0    0 -0.14732364794E+02  0.10702860392E+02 -0.43688312840E+01  0.72461535310E+02  0.69999954426E+02 0.  0.
        -12    1    1    2    0    0  0.14732364794E+02 -0.10702860392E+02  0.43688312840E+01  0.18726464690E+02  0.00000000000E+00 0.  1.
         11    1    3    3    0    0  0.37804667938E+00  0.26091368196E+01 -0.29655658957E+02  0.29772615314E+02  0.51100000000E-03 0. -1.
        -11    1    3    3    0    0 -0.12256356916E+02  0.19424395260E+01 -0.36763919333E+01  0.12942457806E+02  0.51100000000E-03 0.  1.
        -12    1    3    3    0    0 -0.28540545573E+01  0.61512840469E+01  0.28963219606E+02  0.29746462189E+02  0.00000000000E+00 0.  1.
</event>
<event>
 7    1  0.1358622E-013  0.7246157E+02  0.7816164E-02  0.1226708E+00
        -11   -1    0    0    0    0  0.00000000000E+00  0.00000000000E+00  0.45593999997E+02  0.45594000000E+02  0.51100000000E-03 0.  1.
         11   -1    0    0    0    0 -0.00000000000E+00 -0.00000000000E+00 -0.45593999997E+02  0.45594000000E+02  0.51100000000E-03 0. -1.
    9900012    2    1    2    0    0 -0.73399207140E+01 -0.86535018824E+01 -0.14897035469E+02  0.72461569569E+02  0.69999999055E+02 0.  0.
        -12    1    1    2    0    0  0.73399207140E+01  0.86535018824E+01  0.14897035469E+02  0.18726430431E+02  0.00000000000E+00 0.  1.
         11    1    3    3    0    0  0.18747803392E+02 -0.12102204420E+02 -0.47591686078E+01  0.22816510907E+02  0.51100000000E-03 0. -1.
        -11    1    3    3    0    0 -0.11381431394E+02  0.14467371456E+02  0.11151242014E+02  0.21521896202E+02  0.51100000000E-03 0.  1.
         12    1    3    3    0    0 -0.14706292712E+02 -0.11018668918E+02 -0.21289108876E+02  0.28123162460E+02  0.00000000000E+00 0. -1.
</event>
<event>
 7    1  0.1358622E-013  0.7246155E+02  0.7816164E-02  0.1226708E+00
        -11   -1    0    0    0    0  0.00000000000E+00  0.00000000000E+00  0.45593999997E+02  0.45594000000E+02  0.51100000000E-03 0. -1.
         11   -1    0    0    0    0 -0.00000000000E+00 -0.00000000000E+00 -0.45593999997E+02  0.45594000000E+02  0.51100000000E-03 0.  1.
    9900012    2    1    2    0    0  0.77129343337E+01 -0.16706148918E+02 -0.34777831617E+01  0.72461554971E+02  0.69999980038E+02 0.  0.
        -12    1    1    2    0    0 -0.77129343337E+01  0.16706148918E+02  0.34777831617E+01  0.18726445029E+02  0.00000000000E+00 0.  1.
         11    1    3    3    0    0 -0.46955355213E+01  0.39561884992E+01  0.58161727412E+01  0.84573841636E+01  0.51100000000E-03 0. -1.
        -11    1    3    3    0    0 -0.19057281292E+02 -0.12259429887E+02 -0.19477736561E+02  0.29880692985E+02  0.51100000000E-03 0.  1.
         12    1    3    3    0    0  0.31465751147E+02 -0.84029075297E+01  0.10183780658E+02  0.34123477823E+02  0.00000000000E+00 0. -1.
</event>
<event>
 7    1  0.1358622E-013  0.7246155E+02  0.7816164E-02  0.1226708E+00
        -11   -1    0    0    0    0  0.00000000000E+00  0.00000000000E+00  0.45593999997E+02  0.45594000000E+02  0.51100000000E-03 0.  1.
         11   -1    0    0    0    0 -0.00000000000E+00 -0.00000000000E+00 -0.45593999997E+02  0.45594000000E+02  0.51100000000E-03 0. -1.
    9900012    2    1    2    0    0  0.13991739128E+01 -0.18461904758E+02 -0.28071912560E+01  0.72461549784E+02  0.69999973282E+02 0.  0.
        -12    1    1    2    0    0 -0.13991739128E+01  0.18461904758E+02  0.28071912560E+01  0.18726450216E+02  0.00000000000E+00 0.  1.
         11    1    3    3    0    0 -0.21920735173E+02 -0.50565329766E+01 -0.19158293628E+02  0.29548728758E+02  0.51100000000E-03 0. -1.
        -11    1    3    3    0    0  0.22980519484E+02 -0.11784613344E+02 -0.64716252930E+00  0.25834090017E+02  0.51100000000E-03 0.  1.
        -12    1    3    3    0    0  0.33938960118E+00 -0.16207584382E+01  0.16998264901E+02  0.17078731008E+02  0.00000000000E+00 0.  1.
</event>
<event>
 7    1  0.1358622E-013  0.7246158E+02  0.7816164E-02  0.1226708E+00
        -11   -1    0    0    0    0  0.00000000000E+00  0.00000000000E+00  0.45593999997E+02  0.45594000000E+02  0.51100000000E-03 0.  1.
         11   -1    0    0    0    0 -0.00000000000E+00 -0.00000000000E+00 -0.45593999997E+02  0.45594000000E+02  0.51100000000E-03 0. -1.
    9900012    2    1    2    0    0 -0.38175305884E+01 -0.16730637605E+02  0.74960771380E+01  0.72461576238E+02  0.70000007743E+02 0.  0.
        -12    1    1    2    0    0  0.38175305884E+01  0.16730637605E+02 -0.74960771380E+01  0.18726423762E+02  0.00000000000E+00 0.  1.
         11    1    3    3    0    0  0.31061878583E+01  0.12764791334E+02  0.16220307514E+01  0.13237042148E+02  0.51100000000E-03 0. -1.
        -11    1    3    3    0    0  0.15654713330E+02 -0.30417042099E+02 -0.42328792988E+01  0.34470041586E+02  0.51100000000E-03 0.  1.
         12    1    3    3    0    0 -0.22578431777E+02  0.92161316065E+00  0.10106925685E+02  0.24754492504E+02  0.00000000000E+00 0. -1.
</event>
<event>
 7    1  0.1358622E-013  0.7246156E+02  0.7816164E-02  0.1226708E+00
        -11   -1    0    0    0    0  0.00000000000E+00  0.00000000000E+00  0.45593999997E+02  0.45594000000E+02  0.51100000000E-03 0.  1.
         11   -1    0    0    0    0 -0.00000000000E+00 -0.00000000000E+00 -0.45593999997E+02  0.45594000000E+02  0.51100000000E-03 0. -1.
    9900012    2    1    2    0    0 -0.14331955815E+02  0.10653652962E+02 -0.56368573403E+01  0.72461563084E+02  0.69999990607E+02 0.  0.
        -12    1    1    2    0    0  0.14331955815E+02 -0.10653652962E+02  0.56368573403E+01  0.18726436916E+02  0.00000000000E+00 0.  1.
         11    1    3    3    0    0 -0.62169354021E+01  0.30225598154E+02 -0.21512992454E+01  0.30933237113E+02  0.51100000000E-03 0. -1.
        -11    1    3    3    0    0 -0.16368819252E+02 -0.67611334165E+00  0.76643538850E+01  0.18086948159E+02  0.51100000000E-03 0.  1.
         12    1    3    3    0    0  0.82537988395E+01 -0.18895831850E+02 -0.11149911980E+02  0.23441377813E+02  0.00000000000E+00 0. -1.
</event>
<event>
 7    1  0.1358622E-013  0.7246172E+02  0.7816164E-02  0.1226708E+00
        -11   -1    0    0    0    0  0.00000000000E+00  0.00000000000E+00  0.45593999997E+02  0.45594000000E+02  0.51100000000E-03 0.  1.
         11   -1    0    0    0    0 -0.00000000000E+00 -0.00000000000E+00 -0.45593999997E+02  0.45594000000E+02  0.51100000000E-03 0. -1.
    9900012    2    1    2    0    0  0.12327888440E+02  0.20543250269E+00 -0.14094490332E+02  0.72461716503E+02  0.70000190463E+02 0.  0.
        -12    1    1    2    0    0 -0.12327888440E+02 -0.20543250269E+00  0.14094490332E+02  0.18726283497E+02  0.00000000000E+00 0.  1.
         11    1    3    3    0    0  0.45852962440E+00  0.13770022454E+02  0.58222956528E+01  0.14957369245E+02  0.51100000000E-03 0. -1.
        -11    1    3    3    0    0  0.28706487107E+02 -0.14228078885E+02 -0.83815437027E+00  0.32050009888E+02  0.51100000000E-03 0.  1.
         12    1    3    3    0    0 -0.16837128291E+02  0.66348893384E+00 -0.19078631614E+02  0.25454337370E+02  0.00000000000E+00 0. -1.
</event>
<event>
 7    1  0.1358622E-013  0.7246159E+02  0.7816164E-02  0.1226708E+00
        -11   -1    0    0    0    0  0.00000000000E+00  0.00000000000E+00  0.45593999997E+02  0.45594000000E+02  0.51100000000E-03 0. -1.
         11   -1    0    0    0    0 -0.00000000000E+00 -0.00000000000E+00 -0.45593999997E+02  0.45594000000E+02  0.51100000000E-03 0.  1.
    9900012    2    1    2    0    0 -0.13355122458E+02  0.51360257142E+01  0.12080584403E+02  0.72461586154E+02  0.70000020660E+02 0.  0.
        -12    1    1    2    0    0  0.13355122458E+02 -0.51360257142E+01 -0.12080584403E+02  0.18726413846E+02  0.00000000000E+00 0.  1.
         11    1    3    3    0    0  0.60525015340E+01 -0.13589249273E+02 -0.20894639031E+01  0.15022194589E+02  0.51100000000E-03 0. -1.
        -11    1    3    3    0    0  0.70286019038E+01  0.24722000045E+02 -0.21608289193E+01  0.25792396415E+02  0.51100000000E-03 0.  1.
         12    1    3    3    0    0 -0.26436225896E+02 -0.59967250584E+01  0.16330877226E+02  0.31646995150E+02  0.00000000000E+00 0. -1.
</event>
<event>
 7    1  0.1358622E-013  0.7246156E+02  0.7816164E-02  0.1226708E+00
        -11   -1    0    0    0    0  0.00000000000E+00  0.00000000000E+00  0.45593999997E+02  0.45594000000E+02  0.51100000000E-03 0.  1.
         11   -1    0    0    0    0 -0.00000000000E+00 -0.00000000000E+00 -0.45593999997E+02  0.45594000000E+02  0.51100000000E-03 0. -1.
    9900012    2    1    2    0    0 -0.88603937406E+01 -0.40704604024E+01 -0.15987629230E+02  0.72461561109E+02  0.69999988035E+02 0.  0.
        -12    1    1    2    0    0  0.88603937406E+01  0.40704604024E+01  0.15987629230E+02  0.18726438891E+02  0.00000000000E+00 0.  1.
         11    1    3    3    0    0 -0.11211697233E+02 -0.30432958531E+01 -0.17757992910E+02  0.21220511703E+02  0.51100000000E-03 0. -1.
        -11    1    3    3    0    0  0.16248099747E+02 -0.13004964314E+02 -0.15574098334E+02  0.25993891232E+02  0.51100000000E-03 0.  1.
         12    1    3    3    0    0 -0.13896796254E+02  0.11977799765E+02  0.17344462014E+02  0.25247158174E+02  0.00000000000E+00 0. -1.
</event>
<event>
 7    1  0.1358622E-013  0.7246152E+02  0.7816164E-02  0.1226708E+00
        -11   -1    0    0    0    0  0.00000000000E+00  0.00000000000E+00  0.45593999997E+02  0.45594000000E+02  0.51100000000E-03 0.  1.
         11   -1    0    0    0    0 -0.00000000000E+00 -0.00000000000E+00 -0.45593999997E+02  0.45594000000E+02  0.51100000000E-03 0. -1.
    9900012    2    1    2    0    0  0.62539666638E+01  0.12554558960E+02 -0.12407736677E+02  0.72461521977E+02  0.69999937057E+02 0.  0.
        -12    1    1    2    0    0 -0.62539666638E+01 -0.12554558960E+02  0.12407736677E+02  0.18726478023E+02  0.00000000000E+00 0.  1.
         11    1    3    3    0    0 -0.74071747719E+01  0.10924741859E+02 -0.10042544370E+02  0.16585201852E+02  0.51100000000E-03 0. -1.
        -11    1    3    3    0    0  0.17002977715E+01 -0.19594557086E+02 -0.18218703828E+02  0.26809678277E+02  0.51100000000E-03 0.  1.
         12    1    3    3    0    0  0.11960843664E+02  0.21224374187E+02  0.15853511520E+02  0.29066641848E+02  0.00000000000E+00 0. -1.
</event>
<event>
 7    1  0.1358622E-013  0.7246157E+02  0.7816164E-02  0.1226708E+00
        -11   -1    0    0    0    0  0.00000000000E+00  0.00000000000E+00  0.45593999997E+02  0.45594000000E+02  0.51100000000E-03 0. -1.
         11   -1    0    0    0    0 -0.00000000000E+00 -0.00000000000E+00 -0.45593999997E+02  0.45594000000E+02  0.51100000000E-03 0.  1.
    9900012    2    1    2    0    0  0.14634016447E+02 -0.10921413597E+02  0.41530097617E+01  0.72461569417E+02  0.69999998857E+02 0.  0.
        -12    1    1    2    0    0 -0.14634016447E+02  0.10921413597E+02 -0.41530097617E+01  0.18726430583E+02  0.00000000000E+00 0.  1.
         11    1    3    3    0    0  0.61912322291E+01  0.15165150311E+02  0.33144672173E+00  0.16383619798E+02  0.51100000000E-03 0. -1.
        -11    1    3    3    0    0  0.33418071252E+01  0.11660990652E+02 -0.98315907040E+01  0.15614306065E+02  0.51100000000E-03 0.  1.
         12    1    3    3    0    0  0.51009770922E+01 -0.37747554560E+02  0.13653153744E+02  0.40463643555E+02  0.00000000000E+00 0. -1.
</event>
<event>
 7    1  0.1358622E-013  0.7246158E+02  0.7816164E-02  0.1226708E+00
        -11   -1    0    0    0    0  0.00000000000E+00  0.00000000000E+00  0.45593999997E+02  0.45594000000E+02  0.51100000000E-03 0. -1.
         11   -1    0    0    0    0 -0.00000000000E+00 -0.00000000000E+00 -0.45593999997E+02  0.45594000000E+02  0.51100000000E-03 0.  1.
    9900012    2    1    2    0    0 -0.19148487402E+01 -0.18426082642E+02  0.27370786313E+01  0.72461581051E+02  0.70000014012E+02 0.  0.
        -12    1    1    2    0    0  0.19148487402E+01  0.18426082642E+02 -0.27370786313E+01  0.18726418949E+02  0.00000000000E+00 0.  1.
         11    1    3    3    0    0 -0.14155043449E+02 -0.37084867947E+01  0.33446697008E+00  0.14636597889E+02  0.51100000000E-03 0. -1.
        -11    1    3    3    0    0 -0.12508491981E+02 -0.11745323229E+02 -0.18545033203E+02  0.25265257690E+02  0.51100000000E-03 0.  1.
         12    1    3    3    0    0  0.24748686690E+02 -0.29722726184E+01  0.20947644864E+02  0.32559725471E+02  0.00000000000E+00 0. -1.
</event>
<event>
 7    1  0.1358622E-013  0.7246158E+02  0.7816164E-02  0.1226708E+00
        -11   -1    0    0    0    0  0.00000000000E+00  0.00000000000E+00  0.45593999997E+02  0.45594000000E+02  0.51100000000E-03 0.  1.
         11   -1    0    0    0    0 -0.00000000000E+00 -0.00000000000E+00 -0.45593999997E+02  0.45594000000E+02  0.51100000000E-03 0. -1.
    9900012    2    1    2    0    0  0.10105654743E+01  0.16619077072E+02  0.85711122485E+01  0.72461576676E+02  0.70000008314E+02 0.  0.
        -12    1    1    2    0    0 -0.10105654743E+01 -0.16619077072E+02 -0.85711122485E+01  0.18726423324E+02  0.00000000000E+00 0.  1.
         11    1    3    3    0    0  0.28193791755E+01  0.19128022805E+01  0.21788339598E+01  0.40441351591E+01  0.51100000000E-03 0. -1.
        -11    1    3    3    0    0  0.29574625172E+02 -0.36785511500E+01  0.10972395671E+02  0.31758206178E+02  0.51100000000E-03 0.  1.
         12    1    3    3    0    0 -0.31383438873E+02  0.18384825942E+02 -0.45801173825E+01  0.36659235339E+02  0.00000000000E+00 0. -1.
</event>
<event>
 7    1  0.1358622E-013  0.7246155E+02  0.7816164E-02  0.1226708E+00
        -11   -1    0    0    0    0  0.00000000000E+00  0.00000000000E+00  0.45593999997E+02  0.45594000000E+02  0.51100000000E-03 0. -1.
         11   -1    0    0    0    0 -0.00000000000E+00 -0.00000000000E+00 -0.45593999997E+02  0.45594000000E+02  0.51100000000E-03 0.  1.
    9900012    2    1    2    0    0 -0.12073936170E+02  0.13240320507E+01  0.14252965790E+02  0.72461547338E+02  0.69999970095E+02 0.  0.
        -12    1    1    2    0    0  0.12073936170E+02 -0.13240320507E+01 -0.14252965790E+02  0.18726452662E+02  0.00000000000E+00 0.  1.
         11    1    3    3    0    0 -0.90353378567E+01  0.65995254145E-01  0.14844652723E+02  0.17378302572E+02  0.51100000000E-03 0. -1.
        -11    1    3    3    0    0 -0.19506466442E+02  0.18258170664E+02  0.10797025962E+02  0.28817335042E+02  0.51100000000E-03 0.  1.
         12    1    3    3    0    0  0.16467868129E+02 -0.17000133867E+02 -0.11388712895E+02  0.26265909724E+02  0.00000000000E+00 0. -1.
</event>
<event>
 7    1  0.1358622E-013  0.7246154E+02  0.7816164E-02  0.1226708E+00
        -11   -1    0    0    0    0  0.00000000000E+00  0.00000000000E+00  0.45593999997E+02  0.45594000000E+02  0.51100000000E-03 0. -1.
         11   -1    0    0    0    0 -0.00000000000E+00 -0.00000000000E+00 -0.45593999997E+02  0.45594000000E+02  0.51100000000E-03 0.  1.
    9900012    2    1    2    0    0 -0.15368944451E+02  0.60488169093E+01  0.88253941544E+01  0.72461542205E+02  0.69999963409E+02 0.  0.
        -12    1    1    2    0    0  0.15368944451E+02 -0.60488169093E+01 -0.88253941544E+01  0.18726457795E+02  0.00000000000E+00 0.  1.
         11    1    3    3    0    0 -0.21525868430E+02  0.71846266631E+01  0.25529216834E+02  0.34157324022E+02  0.51100000000E-03 0. -1.
        -11    1    3    3    0    0 -0.11408167954E+02 -0.32524167078E+01  0.25736619143E+01  0.12138708598E+02  0.51100000000E-03 0.  1.
        -12    1    3    3    0    0  0.17565091933E+02  0.21166069540E+01 -0.19277484594E+02  0.26165509585E+02  0.00000000000E+00 0.  1.
</event>
<event>
 7    1  0.1358622E-013  0.7246154E+02  0.7816164E-02  0.1226708E+00
        -11   -1    0    0    0    0  0.00000000000E+00  0.00000000000E+00  0.45593999997E+02  0.45594000000E+02  0.51100000000E-03 0. -1.
         11   -1    0    0    0    0 -0.00000000000E+00 -0.00000000000E+00 -0.45593999997E+02  0.45594000000E+02  0.51100000000E-03 0.  1.
    9900012    2    1    2    0    0 -0.38731937232E+01 -0.13721134339E+01  0.18270079622E+02  0.72461544535E+02  0.69999966443E+02 0.  0.
        -12    1    1    2    0    0  0.38731937232E+01  0.13721134339E+01 -0.18270079622E+02  0.18726455465E+02  0.00000000000E+00 0.  1.
         11    1    3    3    0    0 -0.22652228816E+02 -0.48120314419E+01  0.72125417508E+01  0.24254893850E+02  0.51100000000E-03 0. -1.
        -11    1    3    3    0    0  0.74743493527E+01  0.10453685179E+01  0.27271368575E+02  0.28296399732E+02  0.51100000000E-03 0.  1.
        -12    1    3    3    0    0  0.11304685740E+02  0.23945494901E+01 -0.16213830703E+02  0.19910250953E+02  0.00000000000E+00 0.  1.
</event>
<event>
 7    1  0.1358622E-013  0.7246138E+02  0.7816164E-02  0.1226709E+00
        -11   -1    0    0    0    0  0.00000000000E+00  0.00000000000E+00  0.45593999997E+02  0.45594000000E+02  0.51100000000E-03 0. -1.
         11   -1    0    0    0    0 -0.00000000000E+00 -0.00000000000E+00 -0.45593999997E+02  0.45594000000E+02  0.51100000000E-03 0.  1.
    9900012    2    1    2    0    0  0.95195863896E+01 -0.15707750483E+02 -0.36510716554E+01  0.72461380591E+02  0.69999752875E+02 0.  0.
        -12    1    1    2    0    0 -0.95195863896E+01  0.15707750483E+02  0.36510716554E+01  0.18726619409E+02  0.00000000000E+00 0.  1.
         11    1    3    3    0    0 -0.46033608961E+01  0.20424094857E+01 -0.11632806173E+02  0.12676140886E+02  0.51100000000E-03 0. -1.
        -11    1    3    3    0    0  0.89127321713E+01 -0.16100584293E+02 -0.22357751178E+02  0.28957462722E+02  0.51100000000E-03 0.  1.
         12    1    3    3    0    0  0.52102151143E+01 -0.16495756760E+01  0.30339485695E+02  0.30827776983E+02  0.00000000000E+00 0. -1.
</event>
<event>
 7    1  0.1358622E-013  0.7246207E+02  0.7816164E-02  0.1226707E+00
        -11   -1    0    0    0    0  0.00000000000E+00  0.00000000000E+00  0.45593999997E+02  0.45594000000E+02  0.51100000000E-03 0.  1.
         11   -1    0    0    0    0 -0.00000000000E+00 -0.00000000000E+00 -0.45593999997E+02  0.45594000000E+02  0.51100000000E-03 0. -1.
    9900012    2    1    2    0    0  0.11882252509E+02  0.56887219238E+01  0.13308298714E+02  0.72462074216E+02  0.70000656448E+02 0.  0.
        -12    1    1    2    0    0 -0.11882252509E+02 -0.56887219238E+01 -0.13308298714E+02  0.18725925784E+02  0.00000000000E+00 0.  1.
         11    1    3    3    0    0 -0.22103768079E+01 -0.23984126829E+01 -0.16501970191E+01  0.36553111350E+01  0.51100000000E-03 0. -1.
        -11    1    3    3    0    0 -0.63452297467E+01 -0.19572534584E+02 -0.13125543940E+02  0.24405449280E+02  0.51100000000E-03 0.  1.
        -12    1    3    3    0    0  0.20437859064E+02  0.27659669190E+02  0.28084039674E+02  0.44401313801E+02  0.00000000000E+00 0.  1.
</event>
<event>
 7    1  0.1358622E-013  0.7246154E+02  0.7816164E-02  0.1226708E+00
        -11   -1    0    0    0    0  0.00000000000E+00  0.00000000000E+00  0.45593999997E+02  0.45594000000E+02  0.51100000000E-03 0.  1.
         11   -1    0    0    0    0 -0.00000000000E+00 -0.00000000000E+00 -0.45593999997E+02  0.45594000000E+02  0.51100000000E-03 0. -1.
    9900012    2    1    2    0    0  0.13432269301E+02 -0.78489120722E+01 -0.10423492856E+02  0.72461535235E+02  0.69999954328E+02 0.  0.
        -12    1    1    2    0    0 -0.13432269301E+02  0.78489120722E+01  0.10423492856E+02  0.18726464765E+02  0.00000000000E+00 0.  1.
         11    1    3    3    0    0 -0.40728900405E+00 -0.25395106756E+02 -0.15725404968E+02  0.29872490575E+02  0.51100000000E-03 0. -1.
        -11    1    3    3    0    0  0.21308178396E+02  0.79928046459E+01 -0.84302018034E+01  0.24269151105E+02  0.51100000000E-03 0.  1.
        -12    1    3    3    0    0 -0.74686200903E+01  0.95533900377E+01  0.13732113916E+02  0.18319893555E+02  0.00000000000E+00 0.  1.
</event>
<event>
 7    1  0.1358622E-013  0.7246165E+02  0.7816164E-02  0.1226708E+00
        -11   -1    0    0    0    0  0.00000000000E+00  0.00000000000E+00  0.45593999997E+02  0.45594000000E+02  0.51100000000E-03 0.  1.
         11   -1    0    0    0    0 -0.00000000000E+00 -0.00000000000E+00 -0.45593999997E+02  0.45594000000E+02  0.51100000000E-03 0. -1.
    9900012    2    1    2    0    0 -0.65004624237E+01  0.15889537205E+02  0.74795026404E+01  0.72461645201E+02  0.70000097580E+02 0.  0.
        -12    1    1    2    0    0  0.65004624237E+01 -0.15889537205E+02 -0.74795026404E+01  0.18726354799E+02  0.00000000000E+00 0.  1.
         11    1    3    3    0    0  0.18245794248E+02  0.28031364116E+02  0.53164458337E+01  0.33866369432E+02  0.51100000000E-03 0. -1.
        -11    1    3    3    0    0  0.25557476992E+01 -0.84646677619E+01  0.61348460844E+01  0.10761913555E+02  0.51100000000E-03 0.  1.
        -12    1    3    3    0    0 -0.27302004371E+02 -0.36771591491E+01 -0.39717892777E+01  0.27833362214E+02  0.00000000000E+00 0.  1.
</event>
<event>
 7    1  0.1358622E-013  0.7246159E+02  0.7816164E-02  0.1226708E+00
        -11   -1    0    0    0    0  0.00000000000E+00  0.00000000000E+00  0.45593999997E+02  0.45594000000E+02  0.51100000000E-03 0.  1.
         11   -1    0    0    0    0 -0.00000000000E+00 -0.00000000000E+00 -0.45593999997E+02  0.45594000000E+02  0.51100000000E-03 0. -1.
    9900012    2    1    2    0    0  0.51064912096E+01 -0.72533315375E+01  0.16492156346E+02  0.72461593729E+02  0.70000030528E+02 0.  0.
        -12    1    1    2    0    0 -0.51064912096E+01  0.72533315375E+01 -0.16492156346E+02  0.18726406271E+02  0.00000000000E+00 0.  1.
         11    1    3    3    0    0 -0.18805718749E+01 -0.11951526797E+02 -0.75651976769E+01  0.14269119087E+02  0.51100000000E-03 0. -1.
        -11    1    3    3    0    0 -0.13470212265E+02  0.22263731488E+02  0.11596071917E+02  0.28488405402E+02  0.51100000000E-03 0.  1.
         12    1    3    3    0    0  0.20457275349E+02 -0.17565536228E+02  0.12461282106E+02  0.29704069240E+02  0.00000000000E+00 0. -1.
</event>
<event>
 7    1  0.1358622E-013  0.7246156E+02  0.7816164E-02  0.1226708E+00
        -11   -1    0    0    0    0  0.00000000000E+00  0.00000000000E+00  0.45593999997E+02  0.45594000000E+02  0.51100000000E-03 0. -1.
         11   -1    0    0    0    0 -0.00000000000E+00 -0.00000000000E+00 -0.45593999997E+02  0.45594000000E+02  0.51100000000E-03 0.  1.
    9900012    2    1    2    0    0 -0.16209981855E+02 -0.37559860973E+01  0.85912034425E+01  0.72461555599E+02  0.69999980857E+02 0.  0.
        -12    1    1    2    0    0  0.16209981855E+02  0.37559860973E+01 -0.85912034425E+01  0.18726444401E+02  0.00000000000E+00 0.  1.
         11    1    3    3    0    0 -0.16694658776E+02 -0.69839081994E+01 -0.48486023875E+01  0.18734875253E+02  0.51100000000E-03 0. -1.
        -11    1    3    3    0    0 -0.13965042275E+02 -0.89296633003E+01 -0.13118644866E+02  0.21139066578E+02  0.51100000000E-03 0.  1.
         12    1    3    3    0    0  0.14449719196E+02  0.12157585403E+02  0.26558450696E+02  0.32587613768E+02  0.00000000000E+00 0. -1.
</event>
<event>
 7    1  0.1358622E-013  0.7246158E+02  0.7816164E-02  0.1226708E+00
        -11   -1    0    0    0    0  0.00000000000E+00  0.00000000000E+00  0.45593999997E+02  0.45594000000E+02  0.51100000000E-03 0. -1.
         11   -1    0    0    0    0 -0.00000000000E+00 -0.00000000000E+00 -0.45593999997E+02  0.45594000000E+02  0.51100000000E-03 0.  1.
    9900012    2    1    2    0    0 -0.16471416259E+02 -0.17455031308E+01  0.87363801230E+01  0.72461583567E+02  0.70000017290E+02 0.  0.
        -12    1    1    2    0    0  0.16471416259E+02  0.17455031308E+01 -0.87363801230E+01  0.18726416433E+02  0.00000000000E+00 0.  1.
         11    1    3    3    0    0 -0.30124248992E+02 -0.19854611236E+01  0.22214355327E+02  0.37481862495E+02  0.51100000000E-03 0. -1.
        -11    1    3    3    0    0  0.94100844489E+00  0.84683217998E+00  0.90325459665E+01  0.91208282811E+01  0.51100000000E-03 0.  1.
        -12    1    3    3    0    0  0.12711824289E+02 -0.60687418711E+00 -0.22510521171E+02  0.25858892791E+02  0.00000000000E+00 0.  1.
</event>
<event>
 7    1  0.1358622E-013  0.7246168E+02  0.7816164E-02  0.1226708E+00
        -11   -1    0    0    0    0  0.00000000000E+00  0.00000000000E+00  0.45593999997E+02  0.45594000000E+02  0.51100000000E-03 0. -1.
         11   -1    0    0    0    0 -0.00000000000E+00 -0.00000000000E+00 -0.45593999997E+02  0.45594000000E+02  0.51100000000E-03 0.  1.
    9900012    2    1    2    0    0  0.97208348574E-01 -0.16912283303E+02 -0.80399140655E+01  0.72461681778E+02  0.70000145228E+02 0.  0.
        -12    1    1    2    0    0 -0.97208348574E-01  0.16912283303E+02  0.80399140655E+01  0.18726318222E+02  0.00000000000E+00 0.  1.
         11    1    3    3    0    0  0.33500720493E+00 -0.49303025396E+01  0.83047646093E+01  0.96638102443E+01  0.51100000000E-03 0. -1.
        -11    1    3    3    0    0  0.25020797804E+02 -0.61020127629E+01  0.82630082050E+01  0.27047221435E+02  0.51100000000E-03 0.  1.
         12    1    3    3    0    0 -0.25258596660E+02 -0.58799680000E+01 -0.24607686880E+02  0.35750650099E+02  0.00000000000E+00 0. -1.
</event>
<event>
 7    1  0.1358622E-013  0.7246164E+02  0.7816164E-02  0.1226708E+00
        -11   -1    0    0    0    0  0.00000000000E+00  0.00000000000E+00  0.45593999997E+02  0.45594000000E+02  0.51100000000E-03 0.  1.
         11   -1    0    0    0    0 -0.00000000000E+00 -0.00000000000E+00 -0.45593999997E+02  0.45594000000E+02  0.51100000000E-03 0. -1.
    9900012    2    1    2    0    0  0.28160154525E+00  0.11843049565E+02 -0.14503089125E+02  0.72461635788E+02  0.70000085318E+02 0.  0.
        -12    1    1    2    0    0 -0.28160154525E+00 -0.11843049565E+02  0.14503089125E+02  0.18726364212E+02  0.00000000000E+00 0.  1.
         11    1    3    3    0    0 -0.63414762030E+01  0.14110748646E+02 -0.37447261847E+02  0.40516971357E+02  0.51100000000E-03 0. -1.
        -11    1    3    3    0    0 -0.89895007517E+00  0.25675793430E+01 -0.32663051637E+01  0.42508028187E+01  0.51100000000E-03 0.  1.
        -12    1    3    3    0    0  0.75220278234E+01 -0.48352784246E+01  0.26210477886E+02  0.27693861613E+02  0.00000000000E+00 0.  1.
</event>
<event>
 7    1  0.1358622E-013  0.7246170E+02  0.7816164E-02  0.1226708E+00
        -11   -1    0    0    0    0  0.00000000000E+00  0.00000000000E+00  0.45593999997E+02  0.45594000000E+02  0.51100000000E-03 0.  1.
         11   -1    0    0    0    0 -0.00000000000E+00 -0.00000000000E+00 -0.45593999997E+02  0.45594000000E+02  0.51100000000E-03 0. -1.
    9900012    2    1    2    0    0  0.16509328669E+02  0.19439912062E+01  0.86219123198E+01  0.72461697456E+02  0.70000165652E+02 0.  0.
        -12    1    1    2    0    0 -0.16509328669E+02 -0.19439912062E+01 -0.86219123198E+01  0.18726302544E+02  0.00000000000E+00 0.  1.
         11    1    3    3    0    0  0.32866116061E+02 -0.15716767551E+02 -0.68721838936E+01  0.37073242088E+02  0.51100000000E-03 0. -1.
        -11    1    3    3    0    0 -0.14687288756E+02  0.34774584331E+01  0.11339664116E+01  0.15135886107E+02  0.51100000000E-03 0.  1.
        -12    1    3    3    0    0 -0.16694986354E+01  0.14183300324E+02  0.14360129802E+02  0.20252569262E+02  0.00000000000E+00 0.  1.
</event>
<event>
 7    1  0.1358622E-013  0.7246158E+02  0.7816164E-02  0.1226708E+00
        -11   -1    0    0    0    0  0.00000000000E+00  0.00000000000E+00  0.45593999997E+02  0.45594000000E+02  0.51100000000E-03 0.  1.
         11   -1    0    0    0    0 -0.00000000000E+00 -0.00000000000E+00 -0.45593999997E+02  0.45594000000E+02  0.51100000000E-03 0. -1.
    9900012    2    1    2    0    0  0.92452509937E+01  0.16094713906E+02  0.24828260468E+01  0.72461577309E+02  0.70000009137E+02 0.  0.
        -12    1    1    2    0    0 -0.92452509937E+01 -0.16094713906E+02 -0.24828260468E+01  0.18726422691E+02  0.00000000000E+00 0.  1.
         11    1    3    3    0    0  0.14134417340E+02  0.10255150761E+02  0.26085175154E+02  0.31390862265E+02  0.51100000000E-03 0. -1.
        -11    1    3    3    0    0  0.19522057162E+00 -0.34888790707E+01  0.74621169502E+01  0.82397559357E+01  0.51100000000E-03 0.  1.
         12    1    3    3    0    0 -0.50843869183E+01  0.93284422155E+01 -0.31064466057E+02  0.32830959108E+02  0.00000000000E+00 0. -1.
</event>
<event>
 8    1  0.1358622E-013  0.7246161E+02  0.7816164E-02  0.1226708E+00
        -11   -1    0    0    0    0  0.00000000000E+00  0.00000000000E+00  0.45593999997E+02  0.45594000000E+02  0.51100000000E-03 0. -1.
         11   -1    0    0    0    0 -0.00000000000E+00 -0.00000000000E+00 -0.45593999997E+02  0.45594000000E+02  0.51100000000E-03 0.  1.
    9900012    2    1    2    0    0  0.61979695570E+01 -0.56113734806E+01  0.16756350611E+02  0.72461611539E+02  0.70000053729E+02 0.  0.
         23    2    3    3    0    0  0.45369478370E+01 -0.18433798156E+02  0.14598417703E+02  0.59353208046E+02  0.54307464457E+02 0.  0.
        -12    1    1    2    0    0 -0.61979695570E+01  0.56113734806E+01 -0.16756350611E+02  0.18726388461E+02  0.00000000000E+00 0.  1.
         11    1    4    4    0    0  0.18555071159E+02 -0.40657746945E+00  0.27460396125E+02  0.33144069251E+02  0.51100000000E-03 0. -1.
        -11    1    4    4    0    0 -0.14018123322E+02 -0.18027220687E+02 -0.12861978422E+02  0.26209138794E+02  0.51100000000E-03 0.  1.
        -12    1    3    3    0    0  0.16610217200E+01  0.12822424676E+02  0.21579329088E+01  0.13108403494E+02  0.00000000000E+00 0.  1.
</event>
<event>
 7    1  0.1358622E-013  0.7246157E+02  0.7816164E-02  0.1226708E+00
        -11   -1    0    0    0    0  0.00000000000E+00  0.00000000000E+00  0.45593999997E+02  0.45594000000E+02  0.51100000000E-03 0.  1.
         11   -1    0    0    0    0 -0.00000000000E+00 -0.00000000000E+00 -0.45593999997E+02  0.45594000000E+02  0.51100000000E-03 0. -1.
    9900012    2    1    2    0    0 -0.13102464773E+02  0.46892377537E+01 -0.12530581862E+02  0.72461574403E+02  0.70000005353E+02 0.  0.
        -12    1    1    2    0    0  0.13102464773E+02 -0.46892377537E+01  0.12530581862E+02  0.18726425597E+02  0.00000000000E+00 0.  1.
         11    1    3    3    0    0 -0.23916954350E+02 -0.13330594261E+01  0.48011196906E+01  0.24430483077E+02  0.51100000000E-03 0. -1.
        -11    1    3    3    0    0 -0.81335203328E+01 -0.14575051215E+02 -0.81652283717E+01  0.18581098610E+02  0.51100000000E-03 0.  1.
        -12    1    3    3    0    0  0.18948009910E+02  0.20597348395E+02 -0.91664731804E+01  0.29449992717E+02  0.00000000000E+00 0.  1.
</event>
<event>
 7    1  0.1358622E-013  0.7246160E+02  0.7816164E-02  0.1226708E+00
        -11   -1    0    0    0    0  0.00000000000E+00  0.00000000000E+00  0.45593999997E+02  0.45594000000E+02  0.51100000000E-03 0.  1.
         11   -1    0    0    0    0 -0.00000000000E+00 -0.00000000000E+00 -0.45593999997E+02  0.45594000000E+02  0.51100000000E-03 0. -1.
    9900012    2    1    2    0    0 -0.66864586391E+01  0.74535337656E+01 -0.15824481445E+02  0.72461598645E+02  0.70000036932E+02 0.  0.
        -12    1    1    2    0    0  0.66864586391E+01 -0.74535337656E+01  0.15824481445E+02  0.18726401355E+02  0.00000000000E+00 0.  1.
         11    1    3    3    0    0 -0.85820911426E+01  0.59559160205E+01 -0.11757678939E+02  0.15727944504E+02  0.51100000000E-03 0. -1.
        -11    1    3    3    0    0 -0.18521860475E+02  0.20434625097E+02  0.36916653938E+01  0.27825556813E+02  0.51100000000E-03 0.  1.
         12    1    3    3    0    0  0.20417492979E+02 -0.18937007352E+02 -0.77584678990E+01  0.28908097328E+02  0.00000000000E+00 0. -1.
</event>
<event>
 7    1  0.1358622E-013  0.7246159E+02  0.7816164E-02  0.1226708E+00
        -11   -1    0    0    0    0  0.00000000000E+00  0.00000000000E+00  0.45593999997E+02  0.45594000000E+02  0.51100000000E-03 0.  1.
         11   -1    0    0    0    0 -0.00000000000E+00 -0.00000000000E+00 -0.45593999997E+02  0.45594000000E+02  0.51100000000E-03 0. -1.
    9900012    2    1    2    0    0 -0.15547836350E+02  0.85393969021E+01 -0.60018199704E+01  0.72461591973E+02  0.70000028241E+02 0.  0.
        -12    1    1    2    0    0  0.15547836350E+02 -0.85393969021E+01  0.60018199704E+01  0.18726408027E+02  0.00000000000E+00 0.  1.
         11    1    3    3    0    0 -0.10233151938E+02  0.64871569039E+01 -0.25338576440E+02  0.28086367859E+02  0.51100000000E-03 0. -1.
        -11    1    3    3    0    0 -0.11824626058E+01  0.89092867381E+01 -0.10303704310E+02  0.13672597806E+02  0.51100000000E-03 0.  1.
        -12    1    3    3    0    0 -0.41322218066E+01 -0.68570467399E+01  0.29640460779E+02  0.30702626308E+02  0.00000000000E+00 0.  1.
</event>
<event>
 7    1  0.1358622E-013  0.7246157E+02  0.7816164E-02  0.1226708E+00
        -11   -1    0    0    0    0  0.00000000000E+00  0.00000000000E+00  0.45593999997E+02  0.45594000000E+02  0.51100000000E-03 0.  1.
         11   -1    0    0    0    0 -0.00000000000E+00 -0.00000000000E+00 -0.45593999997E+02  0.45594000000E+02  0.51100000000E-03 0. -1.
    9900012    2    1    2    0    0 -0.95277672667E+01  0.12636464667E+02 -0.10011018056E+02  0.72461572928E+02  0.70000003431E+02 0.  0.
        -12    1    1    2    0    0  0.95277672667E+01 -0.12636464667E+02  0.10011018056E+02  0.18726427072E+02  0.00000000000E+00 0.  1.
         11    1    3    3    0    0 -0.19206236763E+02 -0.91744055770E+01 -0.14213572187E+02  0.25594430700E+02  0.51100000000E-03 0. -1.
        -11    1    3    3    0    0 -0.51516739600E+01 -0.36847616317E+01 -0.11739680361E+02  0.13339314379E+02  0.51100000000E-03 0.  1.
        -12    1    3    3    0    0  0.14830143456E+02  0.25495631875E+02  0.15942234492E+02  0.33527827849E+02  0.00000000000E+00 0.  1.
</event>
<event>
 7    1  0.1358622E-013  0.7246159E+02  0.7816164E-02  0.1226708E+00
        -11   -1    0    0    0    0  0.00000000000E+00  0.00000000000E+00  0.45593999997E+02  0.45594000000E+02  0.51100000000E-03 0.  1.
         11   -1    0    0    0    0 -0.00000000000E+00 -0.00000000000E+00 -0.45593999997E+02  0.45594000000E+02  0.51100000000E-03 0. -1.
    9900012    2    1    2    0    0 -0.11879428747E+02 -0.13982904183E+00 -0.14475424134E+02  0.72461593954E+02  0.70000030821E+02 0.  0.
        -12    1    1    2    0    0  0.11879428747E+02  0.13982904183E+00  0.14475424134E+02  0.18726406046E+02  0.00000000000E+00 0.  1.
         11    1    3    3    0    0 -0.15671081322E+02  0.31468932402E+01  0.24279412941E+01  0.16167270210E+02  0.51100000000E-03 0. -1.
        -11    1    3    3    0    0 -0.11807155494E+02 -0.20826690072E+02  0.46948288446E+01  0.24396748930E+02  0.51100000000E-03 0.  1.
        -12    1    3    3    0    0  0.15598808068E+02  0.17539967790E+02 -0.21598194273E+02  0.31897574815E+02  0.00000000000E+00 0.  1.
</event>
<event>
 7    1  0.1358622E-013  0.7246157E+02  0.7816164E-02  0.1226708E+00
        -11   -1    0    0    0    0  0.00000000000E+00  0.00000000000E+00  0.45593999997E+02  0.45594000000E+02  0.51100000000E-03 0. -1.
         11   -1    0    0    0    0 -0.00000000000E+00 -0.00000000000E+00 -0.45593999997E+02  0.45594000000E+02  0.51100000000E-03 0.  1.
    9900012    2    1    2    0    0  0.11840559775E+02 -0.14240594583E+02 -0.27723067467E+01  0.72461572829E+02  0.70000003302E+02 0.  0.
        -12    1    1    2    0    0 -0.11840559775E+02  0.14240594583E+02  0.27723067467E+01  0.18726427171E+02  0.00000000000E+00 0.  1.
         11    1    3    3    0    0  0.32801672379E+01 -0.38165083752E+01 -0.10078054554E+02  0.11264653440E+02  0.51100000000E-03 0. -1.
        -11    1    3    3    0    0  0.38381155797E+01 -0.13098016064E+02 -0.24976073543E+02  0.28462139869E+02  0.51100000000E-03 0.  1.
         12    1    3    3    0    0  0.47222769576E+01  0.26739298561E+01  0.32281821350E+02  0.32734779520E+02  0.00000000000E+00 0. -1.
</event>
<event>
 7    1  0.1358622E-013  0.7246155E+02  0.7816164E-02  0.1226708E+00
        -11   -1    0    0    0    0  0.00000000000E+00  0.00000000000E+00  0.45593999997E+02  0.45594000000E+02  0.51100000000E-03 0.  1.
         11   -1    0    0    0    0 -0.00000000000E+00 -0.00000000000E+00 -0.45593999997E+02  0.45594000000E+02  0.51100000000E-03 0. -1.
    9900012    2    1    2    0    0 -0.87072222094E+01 -0.14658859431E+02 -0.77448010097E+01  0.72461552897E+02  0.69999977337E+02 0.  0.
        -12    1    1    2    0    0  0.87072222094E+01  0.14658859431E+02  0.77448010097E+01  0.18726447103E+02  0.00000000000E+00 0.  1.
         11    1    3    3    0    0 -0.24800102021E+01  0.15183213684E+02  0.72448258187E+01  0.17004938394E+02  0.51100000000E-03 0. -1.
        -11    1    3    3    0    0 -0.23431037514E+01  0.89486552254E+01  0.61510428127E+01  0.11108730507E+02  0.51100000000E-03 0.  1.
         12    1    3    3    0    0 -0.38841082558E+01 -0.38790728340E+02 -0.21140669641E+02  0.44347883996E+02  0.00000000000E+00 0. -1.
</event>
<event>
 7    1  0.1358622E-013  0.7246156E+02  0.7816164E-02  0.1226708E+00
        -11   -1    0    0    0    0  0.00000000000E+00  0.00000000000E+00  0.45593999997E+02  0.45594000000E+02  0.51100000000E-03 0.  1.
         11   -1    0    0    0    0 -0.00000000000E+00 -0.00000000000E+00 -0.45593999997E+02  0.45594000000E+02  0.51100000000E-03 0. -1.
    9900012    2    1    2    0    0 -0.18232564994E+02 -0.42442785370E+01 -0.48894202960E+00  0.72461564384E+02  0.69999992301E+02 0.  0.
        -12    1    1    2    0    0  0.18232564994E+02  0.42442785370E+01  0.48894202960E+00  0.18726435616E+02  0.00000000000E+00 0.  1.
         11    1    3    3    0    0 -0.92250720633E+01  0.44699202927E+01 -0.49081613704E+01  0.11365394419E+02  0.51100000000E-03 0. -1.
        -11    1    3    3    0    0  0.36137316098E+01  0.24819429101E+02  0.26787463608E+01  0.25223774488E+02  0.51100000000E-03 0.  1.
        -12    1    3    3    0    0 -0.12621224541E+02 -0.33533627931E+02  0.17404729800E+01  0.35872395478E+02  0.00000000000E+00 0.  1.
</event>
<event>
 7    1  0.1358622E-013  0.7246155E+02  0.7816164E-02  0.1226708E+00
        -11   -1    0    0    0    0  0.00000000000E+00  0.00000000000E+00  0.45593999997E+02  0.45594000000E+02  0.51100000000E-03 0. -1.
         11   -1    0    0    0    0 -0.00000000000E+00 -0.00000000000E+00 -0.45593999997E+02  0.45594000000E+02  0.51100000000E-03 0.  1.
    9900012    2    1    2    0    0  0.25695373783E+01 -0.18476740269E+02 -0.16393190990E+01  0.72461552915E+02  0.69999977361E+02 0.  0.
        -12    1    1    2    0    0 -0.25695373783E+01  0.18476740269E+02  0.16393190990E+01  0.18726447085E+02  0.00000000000E+00 0.  1.
         11    1    3    3    0    0  0.53685384392E+01 -0.15428641617E+02  0.29513748889E+02  0.33733152252E+02  0.51100000000E-03 0. -1.
        -11    1    3    3    0    0  0.22391812864E+01 -0.23462995604E+00  0.31896749020E+01  0.39042297949E+01  0.51100000000E-03 0.  1.
        -12    1    3    3    0    0 -0.50381823473E+01 -0.28134686960E+01 -0.34342742890E+02  0.34824170868E+02  0.00000000000E+00 0.  1.
</event>
<event>
 7    1  0.1358622E-013  0.7246160E+02  0.7816164E-02  0.1226708E+00
        -11   -1    0    0    0    0  0.00000000000E+00  0.00000000000E+00  0.45593999997E+02  0.45594000000E+02  0.51100000000E-03 0.  1.
         11   -1    0    0    0    0 -0.00000000000E+00 -0.00000000000E+00 -0.45593999997E+02  0.45594000000E+02  0.51100000000E-03 0. -1.
    9900012    2    1    2    0    0  0.66392594497E+01  0.14039446939E+02 -0.10463857361E+02  0.72461597589E+02  0.70000035556E+02 0.  0.
        -12    1    1    2    0    0 -0.66392594497E+01 -0.14039446939E+02  0.10463857361E+02  0.18726402411E+02  0.00000000000E+00 0.  1.
         11    1    3    3    0    0  0.23688111636E+02  0.13673067832E+02 -0.18550961531E+02  0.33048715419E+02  0.51100000000E-03 0. -1.
        -11    1    3    3    0    0 -0.10764920085E+02  0.51843118204E+01 -0.12538357960E+02  0.17319671304E+02  0.51100000000E-03 0.  1.
        -12    1    3    3    0    0 -0.62839321020E+01 -0.48179327137E+01  0.20625462130E+02  0.22093210866E+02  0.00000000000E+00 0.  1.
</event>
<event>
 7    1  0.1358622E-013  0.7246159E+02  0.7816164E-02  0.1226708E+00
        -11   -1    0    0    0    0  0.00000000000E+00  0.00000000000E+00  0.45593999997E+02  0.45594000000E+02  0.51100000000E-03 0.  1.
         11   -1    0    0    0    0 -0.00000000000E+00 -0.00000000000E+00 -0.45593999997E+02  0.45594000000E+02  0.51100000000E-03 0. -1.
    9900012    2    1    2    0    0 -0.52645867324E+01 -0.28598141844E+01 -0.17742157269E+02  0.72461586698E+02  0.70000021368E+02 0.  0.
        -12    1    1    2    0    0  0.52645867324E+01  0.28598141844E+01  0.17742157269E+02  0.18726413302E+02  0.00000000000E+00 0.  1.
         11    1    3    3    0    0 -0.11825794891E+01 -0.15720477877E+02 -0.12510284993E+02  0.20125584459E+02  0.51100000000E-03 0. -1.
        -11    1    3    3    0    0 -0.21915540593E+02  0.57823883361E+01 -0.18292002115E+02  0.29126006867E+02  0.51100000000E-03 0.  1.
         12    1    3    3    0    0  0.17833533350E+02  0.70782753561E+01  0.13060129840E+02  0.23209995372E+02  0.00000000000E+00 0. -1.
</event>
<event>
 7    1  0.1358622E-013  0.7246157E+02  0.7816164E-02  0.1226708E+00
        -11   -1    0    0    0    0  0.00000000000E+00  0.00000000000E+00  0.45593999997E+02  0.45594000000E+02  0.51100000000E-03 0. -1.
         11   -1    0    0    0    0 -0.00000000000E+00 -0.00000000000E+00 -0.45593999997E+02  0.45594000000E+02  0.51100000000E-03 0.  1.
    9900012    2    1    2    0    0 -0.16261857713E+02 -0.92829518764E+01  0.24114017394E+00  0.72461565198E+02  0.69999993361E+02 0.  0.
        -12    1    1    2    0    0  0.16261857713E+02  0.92829518764E+01 -0.24114017394E+00  0.18726434802E+02  0.00000000000E+00 0.  1.
         11    1    3    3    0    0 -0.20746851147E+02  0.29646115534E+01  0.13813000553E+02  0.25100193998E+02  0.51100000000E-03 0. -1.
        -11    1    3    3    0    0 -0.17985249777E+02 -0.11183469383E+02 -0.17605795891E+00  0.21179475764E+02  0.51100000000E-03 0.  1.
        -12    1    3    3    0    0  0.22470243212E+02 -0.10640940471E+01 -0.13395802421E+02  0.26181895436E+02  0.00000000000E+00 0.  1.
</event>
<event>
 7    1  0.1358622E-013  0.7246158E+02  0.7816164E-02  0.1226708E+00
        -11   -1    0    0    0    0  0.00000000000E+00  0.00000000000E+00  0.45593999997E+02  0.45594000000E+02  0.51100000000E-03 0.  1.
         11   -1    0    0    0    0 -0.00000000000E+00 -0.00000000000E+00 -0.45593999997E+02  0.45594000000E+02  0.51100000000E-03 0. -1.
    9900012    2    1    2    0    0  0.27050119152E+01 -0.19274201706E+01 -0.18429506108E+02  0.72461581940E+02  0.70000015171E+02 0.  0.
        -12    1    1    2    0    0 -0.27050119152E+01  0.19274201706E+01  0.18429506108E+02  0.18726418060E+02  0.00000000000E+00 0.  1.
         11    1    3    3    0    0  0.12898427558E+02 -0.49024991879E+01  0.41091946147E+01  0.14397548833E+02  0.51100000000E-03 0. -1.
        -11    1    3    3    0    0 -0.13708332220E+02 -0.23254791748E+02 -0.12663697344E+02  0.29817326208E+02  0.51100000000E-03 0.  1.
         12    1    3    3    0    0  0.35149165774E+01  0.26229870765E+02 -0.98750033788E+01  0.28246706899E+02  0.00000000000E+00 0. -1.
</event>
<event>
 7    1  0.1358622E-013  0.7246162E+02  0.7816164E-02  0.1226708E+00
        -11   -1    0    0    0    0  0.00000000000E+00  0.00000000000E+00  0.45593999997E+02  0.45594000000E+02  0.51100000000E-03 0.  1.
         11   -1    0    0    0    0 -0.00000000000E+00 -0.00000000000E+00 -0.45593999997E+02  0.45594000000E+02  0.51100000000E-03 0. -1.
    9900012    2    1    2    0    0  0.21941165680E+01 -0.14362599752E+02 -0.11814357943E+02  0.72461615598E+02  0.70000059017E+02 0.  0.
        -12    1    1    2    0    0 -0.21941165680E+01  0.14362599752E+02  0.11814357943E+02  0.18726384402E+02  0.00000000000E+00 0.  1.
         11    1    3    3    0    0 -0.98032803336E+01  0.20818849548E+02  0.12678643848E+01  0.23046394124E+02  0.51100000000E-03 0. -1.
        -11    1    3    3    0    0  0.48274023950E+01  0.30624732212E+01  0.39414778690E+01  0.69439041012E+01  0.51100000000E-03 0.  1.
        -12    1    3    3    0    0  0.71699945066E+01 -0.38243922520E+02 -0.17023700197E+02  0.42471317373E+02  0.00000000000E+00 0.  1.
</event>
<event>
 7    1  0.1358622E-013  0.7246161E+02  0.7816164E-02  0.1226708E+00
        -11   -1    0    0    0    0  0.00000000000E+00  0.00000000000E+00  0.45593999997E+02  0.45594000000E+02  0.51100000000E-03 0.  1.
         11   -1    0    0    0    0 -0.00000000000E+00 -0.00000000000E+00 -0.45593999997E+02  0.45594000000E+02  0.51100000000E-03 0. -1.
    9900012    2    1    2    0    0 -0.27648367717E+01 -0.42962009534E+01 -0.18015998311E+02  0.72461605255E+02  0.70000045542E+02 0.  0.
        -12    1    1    2    0    0  0.27648367717E+01  0.42962009534E+01  0.18015998311E+02  0.18726394745E+02  0.00000000000E+00 0.  1.
         11    1    3    3    0    0 -0.28342177274E+01  0.22261060377E+02 -0.22797539611E+02  0.31989301522E+02  0.51100000000E-03 0. -1.
        -11    1    3    3    0    0 -0.10249998881E+02  0.13776471110E+01  0.22562750851E+01  0.10585422341E+02  0.51100000000E-03 0.  1.
        -12    1    3    3    0    0  0.10319379837E+02 -0.27934908442E+02  0.25252662148E+01  0.29886881392E+02  0.00000000000E+00 0.  1.
</event>
<event>
 7    1  0.1358622E-013  0.7246161E+02  0.7816164E-02  0.1226708E+00
        -11   -1    0    0    0    0  0.00000000000E+00  0.00000000000E+00  0.45593999997E+02  0.45594000000E+02  0.51100000000E-03 0.  1.
         11   -1    0    0    0    0 -0.00000000000E+00 -0.00000000000E+00 -0.45593999997E+02  0.45594000000E+02  0.51100000000E-03 0. -1.
    9900012    2    1    2    0    0  0.74170550138E+01  0.32271721802E+01 -0.16889355520E+02  0.72461610192E+02  0.70000051974E+02 0.  0.
        -12    1    1    2    0    0 -0.74170550138E+01 -0.32271721802E+01  0.16889355520E+02  0.18726389808E+02  0.00000000000E+00 0.  1.
         11    1    3    3    0    0  0.27415094729E+02  0.18127424350E+01 -0.23277143487E+02  0.36009705127E+02  0.51100000000E-03 0. -1.
        -11    1    3    3    0    0 -0.39289530758E+01  0.77422489278E+01 -0.95815932885E+01  0.12930043346E+02  0.51100000000E-03 0.  1.
        -12    1    3    3    0    0 -0.16069086640E+02 -0.63278191825E+01  0.15969381255E+02  0.23521861719E+02  0.00000000000E+00 0.  1.
</event>
<event>
 7    1  0.1358622E-013  0.7246157E+02  0.7816164E-02  0.1226708E+00
        -11   -1    0    0    0    0  0.00000000000E+00  0.00000000000E+00  0.45593999997E+02  0.45594000000E+02  0.51100000000E-03 0.  1.
         11   -1    0    0    0    0 -0.00000000000E+00 -0.00000000000E+00 -0.45593999997E+02  0.45594000000E+02  0.51100000000E-03 0. -1.
    9900012    2    1    2    0    0 -0.73829512845E+01  0.40343093096E+01 -0.16730077269E+02  0.72461571972E+02  0.70000002185E+02 0.  0.
        -12    1    1    2    0    0  0.73829512845E+01 -0.40343093096E+01  0.16730077269E+02  0.18726428028E+02  0.00000000000E+00 0.  1.
         11    1    3    3    0    0  0.11408269715E+02  0.12206736971E+02 -0.59888970237E+00  0.16718603844E+02  0.51100000000E-03 0. -1.
        -11    1    3    3    0    0  0.58621397196E+01  0.16495078431E+02 -0.46817543278E+00  0.17512038232E+02  0.51100000000E-03 0.  1.
         12    1    3    3    0    0 -0.24653360719E+02 -0.24667506092E+02 -0.15663012134E+02  0.38230929895E+02  0.00000000000E+00 0. -1.
</event>
<event>
 7    1  0.1358622E-013  0.7246159E+02  0.7816164E-02  0.1226708E+00
        -11   -1    0    0    0    0  0.00000000000E+00  0.00000000000E+00  0.45593999997E+02  0.45594000000E+02  0.51100000000E-03 0. -1.
         11   -1    0    0    0    0 -0.00000000000E+00 -0.00000000000E+00 -0.45593999997E+02  0.45594000000E+02  0.51100000000E-03 0.  1.
    9900012    2    1    2    0    0 -0.10294208742E+02  0.23825175382E+01  0.15460633779E+02  0.72461592969E+02  0.70000029538E+02 0.  0.
        -12    1    1    2    0    0  0.10294208742E+02 -0.23825175382E+01 -0.15460633779E+02  0.18726407031E+02  0.00000000000E+00 0.  1.
         11    1    3    3    0    0 -0.22507732155E+02  0.99896611751E+01  0.99925853074E+01  0.26575234684E+02  0.51100000000E-03 0. -1.
        -11    1    3    3    0    0 -0.13406803493E+02  0.76546566790E+01  0.43695695303E+01  0.16044603047E+02  0.51100000000E-03 0.  1.
         12    1    3    3    0    0  0.25620326906E+02 -0.15261800316E+02  0.10984789415E+01  0.29841755238E+02  0.00000000000E+00 0. -1.
</event>
<event>
 7    1  0.1358622E-013  0.7246147E+02  0.7816164E-02  0.1226708E+00
        -11   -1    0    0    0    0  0.00000000000E+00  0.00000000000E+00  0.45593999997E+02  0.45594000000E+02  0.51100000000E-03 0. -1.
         11   -1    0    0    0    0 -0.00000000000E+00 -0.00000000000E+00 -0.45593999997E+02  0.45594000000E+02  0.51100000000E-03 0.  1.
    9900012    2    1    2    0    0  0.14510927609E+02  0.72323555100E+01  0.93706458893E+01  0.72461468269E+02  0.69999867093E+02 0.  0.
        -12    1    1    2    0    0 -0.14510927609E+02 -0.72323555100E+01 -0.93706458893E+01  0.18726531731E+02  0.00000000000E+00 0.  1.
         11    1    3    3    0    0 -0.59751577165E+01  0.61477395478E+01 -0.17116505762E+02  0.19143457918E+02  0.51100000000E-03 0. -1.
        -11    1    3    3    0    0 -0.11566801484E+02  0.51208423773E+01  0.13496893785E+02  0.18498109778E+02  0.51100000000E-03 0.  1.
         12    1    3    3    0    0  0.32052886810E+02 -0.40362264151E+01  0.12990257866E+02  0.34819900573E+02  0.00000000000E+00 0. -1.
</event>
<event>
 7    1  0.1358622E-013  0.7246162E+02  0.7816164E-02  0.1226708E+00
        -11   -1    0    0    0    0  0.00000000000E+00  0.00000000000E+00  0.45593999997E+02  0.45594000000E+02  0.51100000000E-03 0. -1.
         11   -1    0    0    0    0 -0.00000000000E+00 -0.00000000000E+00 -0.45593999997E+02  0.45594000000E+02  0.51100000000E-03 0.  1.
    9900012    2    1    2    0    0 -0.23927701397E+01 -0.16489440027E+02  0.85469527889E+01  0.72461617986E+02  0.70000062127E+02 0.  0.
        -12    1    1    2    0    0  0.23927701397E+01  0.16489440027E+02 -0.85469527889E+01  0.18726382014E+02  0.00000000000E+00 0.  1.
         11    1    3    3    0    0 -0.29400136897E+01 -0.67039256851E+01  0.17791101060E+02  0.19238232177E+02  0.51100000000E-03 0. -1.
        -11    1    3    3    0    0  0.65759693640E+01 -0.19132770753E+02  0.15898246335E+02  0.25730536850E+02  0.51100000000E-03 0.  1.
        -12    1    3    3    0    0 -0.60287258139E+01  0.93472564109E+01 -0.25142394607E+02  0.27492848960E+02  0.00000000000E+00 0.  1.
</event>
<event>
 7    1  0.1358622E-013  0.7246158E+02  0.7816164E-02  0.1226708E+00
        -11   -1    0    0    0    0  0.00000000000E+00  0.00000000000E+00  0.45593999997E+02  0.45594000000E+02  0.51100000000E-03 0.  1.
         11   -1    0    0    0    0 -0.00000000000E+00 -0.00000000000E+00 -0.45593999997E+02  0.45594000000E+02  0.51100000000E-03 0. -1.
    9900012    2    1    2    0    0  0.63648426522E+01 -0.11718501978E+02 -0.13147028561E+02  0.72461578276E+02  0.70000010397E+02 0.  0.
        -12    1    1    2    0    0 -0.63648426522E+01  0.11718501978E+02  0.13147028561E+02  0.18726421724E+02  0.00000000000E+00 0.  1.
         11    1    3    3    0    0 -0.14213414198E+02 -0.41137488637E+01  0.13794808630E+02  0.20229701389E+02  0.51100000000E-03 0. -1.
        -11    1    3    3    0    0  0.23652850373E+01  0.11081957056E+02  0.37600015361E+01  0.11939093655E+02  0.51100000000E-03 0.  1.
         12    1    3    3    0    0  0.18212971813E+02 -0.18686710171E+02 -0.30701838727E+02  0.40292783231E+02  0.00000000000E+00 0. -1.
</event>
<event>
 7    1  0.1358622E-013  0.7246228E+02  0.7816164E-02  0.1226706E+00
        -11   -1    0    0    0    0  0.00000000000E+00  0.00000000000E+00  0.45593999997E+02  0.45594000000E+02  0.51100000000E-03 0.  1.
         11   -1    0    0    0    0 -0.00000000000E+00 -0.00000000000E+00 -0.45593999997E+02  0.45594000000E+02  0.51100000000E-03 0. -1.
    9900012    2    1    2    0    0  0.11303819555E+02  0.94295573613E+01 -0.11574089082E+02  0.72462284349E+02  0.70000930183E+02 0.  0.
        -12    1    1    2    0    0 -0.11303819555E+02 -0.94295573613E+01  0.11574089082E+02  0.18725715651E+02  0.00000000000E+00 0.  1.
         11    1    3    3    0    0  0.22910575975E+02  0.20661605911E+02 -0.47582874592E+00  0.30854867745E+02  0.51100000000E-03 0. -1.
        -11    1    3    3    0    0  0.83796254822E+01  0.71536828074E+01  0.24071979403E+01  0.11277761441E+02  0.51100000000E-03 0.  1.
         12    1    3    3    0    0 -0.19986381903E+02 -0.18385731357E+02 -0.13505458276E+02  0.30329655163E+02  0.00000000000E+00 0. -1.
</event>
<event>
 7    1  0.1358622E-013  0.7246158E+02  0.7816164E-02  0.1226708E+00
        -11   -1    0    0    0    0  0.00000000000E+00  0.00000000000E+00  0.45593999997E+02  0.45594000000E+02  0.51100000000E-03 0. -1.
         11   -1    0    0    0    0 -0.00000000000E+00 -0.00000000000E+00 -0.45593999997E+02  0.45594000000E+02  0.51100000000E-03 0.  1.
    9900012    2    1    2    0    0  0.18126381941E+01 -0.42454884609E+01  0.18148522677E+02  0.72461582701E+02  0.70000016162E+02 0.  0.
        -12    1    1    2    0    0 -0.18126381941E+01  0.42454884609E+01 -0.18148522677E+02  0.18726417299E+02  0.00000000000E+00 0.  1.
         11    1    3    3    0    0 -0.80585799649E+01  0.25703845480E+02 -0.78098870270E+01  0.28046795167E+02  0.51100000000E-03 0. -1.
        -11    1    3    3    0    0  0.55706591655E+01 -0.60381180589E+01 -0.82205721020E+00  0.82563243365E+01  0.51100000000E-03 0.  1.
        -12    1    3    3    0    0  0.43005589935E+01 -0.23911215882E+02  0.26780466915E+02  0.36158463197E+02  0.00000000000E+00 0.  1.
</event>
<event>
 7    1  0.1358622E-013  0.7246154E+02  0.7816164E-02  0.1226708E+00
        -11   -1    0    0    0    0  0.00000000000E+00  0.00000000000E+00  0.45593999997E+02  0.45594000000E+02  0.51100000000E-03 0. -1.
         11   -1    0    0    0    0 -0.00000000000E+00 -0.00000000000E+00 -0.45593999997E+02  0.45594000000E+02  0.51100000000E-03 0.  1.
    9900012    2    1    2    0    0  0.16970167518E+02 -0.72370841780E+01 -0.32122157474E+01  0.72461540030E+02  0.69999960575E+02 0.  0.
        -12    1    1    2    0    0 -0.16970167518E+02  0.72370841780E+01  0.32122157474E+01  0.18726459970E+02  0.00000000000E+00 0.  1.
         11    1    3    3    0    0 -0.36944628655E+01  0.37759517427E+01  0.23633046115E+02  0.24216270075E+02  0.51100000000E-03 0. -1.
        -11    1    3    3    0    0  0.24476533978E+01 -0.10200659944E+02  0.49443076257E+01  0.11597010331E+02  0.51100000000E-03 0.  1.
        -12    1    3    3    0    0  0.18216976986E+02 -0.81237597658E+00 -0.31789569488E+02  0.36648259624E+02  0.00000000000E+00 0.  1.
</event>
<event>
 7    1  0.1358622E-013  0.7246158E+02  0.7816164E-02  0.1226708E+00
        -11   -1    0    0    0    0  0.00000000000E+00  0.00000000000E+00  0.45593999997E+02  0.45594000000E+02  0.51100000000E-03 0.  1.
         11   -1    0    0    0    0 -0.00000000000E+00 -0.00000000000E+00 -0.45593999997E+02  0.45594000000E+02  0.51100000000E-03 0. -1.
    9900012    2    1    2    0    0  0.26052267361E+00  0.17104197051E+02 -0.76195481281E+01  0.72461576356E+02  0.70000007896E+02 0.  0.
        -12    1    1    2    0    0 -0.26052267361E+00 -0.17104197051E+02  0.76195481281E+01  0.18726423644E+02  0.00000000000E+00 0.  1.
         11    1    3    3    0    0 -0.18112482138E+01  0.49810292237E+01  0.26635363770E+00  0.53068085269E+01  0.51100000000E-03 0. -1.
        -11    1    3    3    0    0 -0.14170737561E+02 -0.30438458646E+01  0.24150030350E+02  0.28165559942E+02  0.51100000000E-03 0.  1.
         12    1    3    3    0    0  0.16242508449E+02  0.15167013692E+02 -0.32035932116E+02  0.38989207886E+02  0.00000000000E+00 0. -1.
</event>
<event>
 7    1  0.1358622E-013  0.7246155E+02  0.7816164E-02  0.1226708E+00
        -11   -1    0    0    0    0  0.00000000000E+00  0.00000000000E+00  0.45593999997E+02  0.45594000000E+02  0.51100000000E-03 0. -1.
         11   -1    0    0    0    0 -0.00000000000E+00 -0.00000000000E+00 -0.45593999997E+02  0.45594000000E+02  0.51100000000E-03 0.  1.
    9900012    2    1    2    0    0 -0.47681391428E+01 -0.25587491158E+01  0.17927565654E+02  0.72461549236E+02  0.69999972568E+02 0.  0.
        -12    1    1    2    0    0  0.47681391428E+01  0.25587491158E+01 -0.17927565654E+02  0.18726450764E+02  0.00000000000E+00 0.  1.
         11    1    3    3    0    0  0.22867910448E+02 -0.39261567878E+01  0.16806458194E+02  0.28649835474E+02  0.51100000000E-03 0. -1.
        -11    1    3    3    0    0 -0.54759520217E+01 -0.13475602083E+02 -0.67031895479E+01  0.16015949939E+02  0.51100000000E-03 0.  1.
        -12    1    3    3    0    0 -0.22160097570E+02  0.14843009755E+02  0.78242970082E+01  0.27795763824E+02  0.00000000000E+00 0.  1.
</event>
<event>
 7    1  0.1358622E-013  0.7246170E+02  0.7816164E-02  0.1226708E+00
        -11   -1    0    0    0    0  0.00000000000E+00  0.00000000000E+00  0.45593999997E+02  0.45594000000E+02  0.51100000000E-03 0.  1.
         11   -1    0    0    0    0 -0.00000000000E+00 -0.00000000000E+00 -0.45593999997E+02  0.45594000000E+02  0.51100000000E-03 0. -1.
    9900012    2    1    2    0    0  0.14529241760E+02  0.33438443283E+01 -0.11331121311E+02  0.72461695741E+02  0.70000163418E+02 0.  0.
        -12    1    1    2    0    0 -0.14529241760E+02 -0.33438443283E+01  0.11331121311E+02  0.18726304259E+02  0.00000000000E+00 0.  1.
         11    1    3    3    0    0  0.93510329174E+01  0.11860245829E+02  0.93633802629E+01  0.17770203656E+02  0.51100000000E-03 0. -1.
        -11    1    3    3    0    0 -0.12176268252E+02 -0.18193322160E+02  0.47563350638E+01  0.22402705267E+02  0.51100000000E-03 0.  1.
         12    1    3    3    0    0  0.17354477095E+02  0.96769206587E+01 -0.25450836638E+02  0.32288786819E+02  0.00000000000E+00 0. -1.
</event>
<event>
 7    1  0.1358622E-013  0.7246160E+02  0.7816164E-02  0.1226708E+00
        -11   -1    0    0    0    0  0.00000000000E+00  0.00000000000E+00  0.45593999997E+02  0.45594000000E+02  0.51100000000E-03 0.  1.
         11   -1    0    0    0    0 -0.00000000000E+00 -0.00000000000E+00 -0.45593999997E+02  0.45594000000E+02  0.51100000000E-03 0. -1.
    9900012    2    1    2    0    0 -0.18082140127E+02 -0.42938099598E+01 -0.22972930236E+01  0.72461597495E+02  0.70000035435E+02 0.  0.
        -12    1    1    2    0    0  0.18082140127E+02  0.42938099598E+01  0.22972930236E+01  0.18726402505E+02  0.00000000000E+00 0.  1.
         11    1    3    3    0    0  0.83953084077E+01  0.11513531722E+01  0.11113908788E+00  0.84746191387E+01  0.51100000000E-03 0. -1.
        -11    1    3    3    0    0 -0.14295591542E+02  0.14273411335E+02  0.22313098971E+02  0.30099312196E+02  0.51100000000E-03 0.  1.
         12    1    3    3    0    0 -0.12181856992E+02 -0.19718574467E+02 -0.24721531083E+02  0.33887666161E+02  0.00000000000E+00 0. -1.
</event>
<event>
 7    1  0.1358622E-013  0.7246153E+02  0.7816164E-02  0.1226708E+00
        -11   -1    0    0    0    0  0.00000000000E+00  0.00000000000E+00  0.45593999997E+02  0.45594000000E+02  0.51100000000E-03 0.  1.
         11   -1    0    0    0    0 -0.00000000000E+00 -0.00000000000E+00 -0.45593999997E+02  0.45594000000E+02  0.51100000000E-03 0. -1.
    9900012    2    1    2    0    0  0.18236497936E+02 -0.35399994051E+01 -0.23620651060E+01  0.72461526645E+02  0.69999943139E+02 0.  0.
        -12    1    1    2    0    0 -0.18236497936E+02  0.35399994051E+01  0.23620651060E+01  0.18726473355E+02  0.00000000000E+00 0.  1.
         11    1    3    3    0    0  0.13459477318E+02  0.13330741861E+02 -0.13179891641E+01  0.18989557760E+02  0.51100000000E-03 0. -1.
        -11    1    3    3    0    0  0.17774527487E+02 -0.48279585674E+00  0.17915440072E+02  0.25241432457E+02  0.51100000000E-03 0.  1.
        -12    1    3    3    0    0 -0.12997506869E+02 -0.16387945409E+02 -0.18959516014E+02  0.28230536428E+02  0.00000000000E+00 0.  1.
</event>
<event>
 7    1  0.1358622E-013  0.7246133E+02  0.7816164E-02  0.1226709E+00
        -11   -1    0    0    0    0  0.00000000000E+00  0.00000000000E+00  0.45593999997E+02  0.45594000000E+02  0.51100000000E-03 0.  1.
         11   -1    0    0    0    0 -0.00000000000E+00 -0.00000000000E+00 -0.45593999997E+02  0.45594000000E+02  0.51100000000E-03 0. -1.
    9900012    2    1    2    0    0  0.11545729909E+02 -0.14318763600E+02 -0.35152854261E+01  0.72461331803E+02  0.69999689320E+02 0.  0.
        -12    1    1    2    0    0 -0.11545729909E+02  0.14318763600E+02  0.35152854261E+01  0.18726668197E+02  0.00000000000E+00 0.  1.
         11    1    3    3    0    0  0.25652368891E+02 -0.25660356413E+02  0.13595088679E+02  0.38746927071E+02  0.51100000000E-03 0. -1.
        -11    1    3    3    0    0  0.25321144439E+01 -0.27100330634E+01 -0.10219784022E+02  0.10871976291E+02  0.51100000000E-03 0.  1.
        -12    1    3    3    0    0 -0.16638753427E+02  0.14051625877E+02 -0.68905900839E+01  0.22842428441E+02  0.00000000000E+00 0.  1.
</event>
<event>
 7    1  0.1358622E-013  0.7246158E+02  0.7816164E-02  0.1226708E+00
        -11   -1    0    0    0    0  0.00000000000E+00  0.00000000000E+00  0.45593999997E+02  0.45594000000E+02  0.51100000000E-03 0.  1.
         11   -1    0    0    0    0 -0.00000000000E+00 -0.00000000000E+00 -0.45593999997E+02  0.45594000000E+02  0.51100000000E-03 0. -1.
    9900012    2    1    2    0    0  0.56592473946E+00 -0.17638576450E+02 -0.62641283607E+01  0.72461576046E+02  0.70000007493E+02 0.  0.
        -12    1    1    2    0    0 -0.56592473946E+00  0.17638576450E+02  0.62641283607E+01  0.18726423954E+02  0.00000000000E+00 0.  1.
         11    1    3    3    0    0 -0.33456268414E+01  0.22970461603E+02 -0.49676399575E+01  0.23738423963E+02  0.51100000000E-03 0. -1.
        -11    1    3    3    0    0  0.51370259503E+01  0.40712337195E+00 -0.54240110628E+01  0.74816229071E+01  0.51100000000E-03 0.  1.
         12    1    3    3    0    0 -0.12254743694E+01 -0.41016161425E+02  0.41275226595E+01  0.41241529176E+02  0.00000000000E+00 0. -1.
</event>
<event>
 7    1  0.1358622E-013  0.7246169E+02  0.7816164E-02  0.1226708E+00
        -11   -1    0    0    0    0  0.00000000000E+00  0.00000000000E+00  0.45593999997E+02  0.45594000000E+02  0.51100000000E-03 0.  1.
         11   -1    0    0    0    0 -0.00000000000E+00 -0.00000000000E+00 -0.45593999997E+02  0.45594000000E+02  0.51100000000E-03 0. -1.
    9900012    2    1    2    0    0  0.76327522536E+01  0.14875871381E+02 -0.84335284212E+01  0.72461685415E+02  0.70000149965E+02 0.  0.
        -12    1    1    2    0    0 -0.76327522536E+01 -0.14875871381E+02  0.84335284212E+01  0.18726314585E+02  0.00000000000E+00 0.  1.
         11    1    3    3    0    0 -0.14595806768E+02 -0.60494907397E+01 -0.11573112560E+02  0.19584964846E+02  0.51100000000E-03 0. -1.
        -11    1    3    3    0    0  0.13397785514E+02 -0.11433977246E+01  0.19739441685E+02  0.23884169932E+02  0.51100000000E-03 0.  1.
         12    1    3    3    0    0  0.88307735083E+01  0.22068759846E+02 -0.16599857547E+02  0.28992550637E+02  0.00000000000E+00 0. -1.
</event>
<event>
 7    1  0.1358622E-013  0.7246157E+02  0.7816164E-02  0.1226708E+00
        -11   -1    0    0    0    0  0.00000000000E+00  0.00000000000E+00  0.45593999997E+02  0.45594000000E+02  0.51100000000E-03 0.  1.
         11   -1    0    0    0    0 -0.00000000000E+00 -0.00000000000E+00 -0.45593999997E+02  0.45594000000E+02  0.51100000000E-03 0. -1.
    9900012    2    1    2    0    0  0.16977157603E+02 -0.54549162303E+00 -0.78840121576E+01  0.72461572442E+02  0.70000002798E+02 0.  0.
        -12    1    1    2    0    0 -0.16977157603E+02  0.54549162303E+00  0.78840121576E+01  0.18726427558E+02  0.00000000000E+00 0.  1.
         11    1    3    3    0    0  0.16961217771E+02 -0.11600643813E+02 -0.17903971491E+02  0.27254541651E+02  0.51100000000E-03 0. -1.
        -11    1    3    3    0    0  0.16972176860E+00 -0.15832446185E+02  0.91879824577E+01  0.18306124101E+02  0.51100000000E-03 0.  1.
        -12    1    3    3    0    0 -0.15378193739E+00  0.26887598375E+02  0.83197687585E+00  0.26900906691E+02  0.00000000000E+00 0.  1.
</event>
<event>
 7    1  0.1358622E-013  0.7246157E+02  0.7816164E-02  0.1226708E+00
        -11   -1    0    0    0    0  0.00000000000E+00  0.00000000000E+00  0.45593999997E+02  0.45594000000E+02  0.51100000000E-03 0. -1.
         11   -1    0    0    0    0 -0.00000000000E+00 -0.00000000000E+00 -0.45593999997E+02  0.45594000000E+02  0.51100000000E-03 0.  1.
    9900012    2    1    2    0    0  0.10667311635E+02 -0.14121478451E+02  0.61213829739E+01  0.72461574269E+02  0.70000005177E+02 0.  0.
        -12    1    1    2    0    0 -0.10667311635E+02  0.14121478451E+02 -0.61213829739E+01  0.18726425731E+02  0.00000000000E+00 0.  1.
         11    1    3    3    0    0  0.32235399818E+02  0.34305599031E+01 -0.46751354591E+01  0.32752811093E+02  0.51100000000E-03 0. -1.
        -11    1    3    3    0    0 -0.45964214764E+01  0.18495783753E+01 -0.68616200627E+01  0.84634426034E+01  0.51100000000E-03 0.  1.
        -12    1    3    3    0    0 -0.16971666707E+02 -0.19401616730E+02  0.17658138496E+02  0.31245320572E+02  0.00000000000E+00 0.  1.
</event>
<event>
 7    1  0.1358622E-013  0.7246161E+02  0.7816164E-02  0.1226708E+00
        -11   -1    0    0    0    0  0.00000000000E+00  0.00000000000E+00  0.45593999997E+02  0.45594000000E+02  0.51100000000E-03 0. -1.
         11   -1    0    0    0    0 -0.00000000000E+00 -0.00000000000E+00 -0.45593999997E+02  0.45594000000E+02  0.51100000000E-03 0.  1.
    9900012    2    1    2    0    0  0.17802106835E+02 -0.41514620554E+01  0.40654725505E+01  0.72461609210E+02  0.70000050695E+02 0.  0.
        -12    1    1    2    0    0 -0.17802106835E+02  0.41514620554E+01 -0.40654725505E+01  0.18726390790E+02  0.00000000000E+00 0.  1.
         11    1    3    3    0    0 -0.68746179176E+01  0.40023616216E-01 -0.60294220197E+01  0.91441732024E+01  0.51100000000E-03 0. -1.
        -11    1    3    3    0    0  0.24952024802E+02 -0.28069408315E+02  0.43775722711E+00  0.37559111498E+02  0.51100000000E-03 0.  1.
         12    1    3    3    0    0 -0.27530004921E+00  0.23877922643E+02  0.96571373430E+01  0.25758324510E+02  0.00000000000E+00 0. -1.
</event>
<event>
 7    1  0.1358622E-013  0.7246169E+02  0.7816164E-02  0.1226708E+00
        -11   -1    0    0    0    0  0.00000000000E+00  0.00000000000E+00  0.45593999997E+02  0.45594000000E+02  0.51100000000E-03 0. -1.
         11   -1    0    0    0    0 -0.00000000000E+00 -0.00000000000E+00 -0.45593999997E+02  0.45594000000E+02  0.51100000000E-03 0.  1.
    9900012    2    1    2    0    0  0.28434503047E+01 -0.44489688853E+00  0.18503823170E+02  0.72461691907E+02  0.70000158423E+02 0.  0.
        -12    1    1    2    0    0 -0.28434503047E+01  0.44489688853E+00 -0.18503823170E+02  0.18726308093E+02  0.00000000000E+00 0.  1.
         11    1    3    3    0    0 -0.66554092261E+01 -0.98366041181E+01  0.24140587195E+01  0.12119444389E+02  0.51100000000E-03 0. -1.
        -11    1    3    3    0    0 -0.38011096067E+01 -0.11146408589E+02 -0.16075726876E+02  0.19927866256E+02  0.51100000000E-03 0.  1.
         12    1    3    3    0    0  0.13299969137E+02  0.20538115818E+02  0.32165491327E+02  0.40414381261E+02  0.00000000000E+00 0. -1.
</event>
<event>
 7    1  0.1358622E-013  0.7246157E+02  0.7816164E-02  0.1226708E+00
        -11   -1    0    0    0    0  0.00000000000E+00  0.00000000000E+00  0.45593999997E+02  0.45594000000E+02  0.51100000000E-03 0.  1.
         11   -1    0    0    0    0 -0.00000000000E+00 -0.00000000000E+00 -0.45593999997E+02  0.45594000000E+02  0.51100000000E-03 0. -1.
    9900012    2    1    2    0    0 -0.45401744301E+01  0.24148489681E+01 -0.18006511202E+02  0.72461571481E+02  0.70000001546E+02 0.  0.
        -12    1    1    2    0    0  0.45401744301E+01 -0.24148489681E+01  0.18006511202E+02  0.18726428519E+02  0.00000000000E+00 0.  1.
         11    1    3    3    0    0 -0.16016760600E+02  0.10301852464E+02 -0.37859747572E+02  0.42379538350E+02  0.51100000000E-03 0. -1.
        -11    1    3    3    0    0 -0.27037806419E+01 -0.35392871766E+00  0.11814503379E+02  0.12125105593E+02  0.51100000000E-03 0.  1.
        -12    1    3    3    0    0  0.14180366812E+02 -0.75330747780E+01  0.80387329902E+01  0.17956927538E+02  0.00000000000E+00 0.  1.
</event>
<event>
 7    1  0.1358622E-013  0.7246158E+02  0.7816164E-02  0.1226708E+00
        -11   -1    0    0    0    0  0.00000000000E+00  0.00000000000E+00  0.45593999997E+02  0.45594000000E+02  0.51100000000E-03 0.  1.
         11   -1    0    0    0    0 -0.00000000000E+00 -0.00000000000E+00 -0.45593999997E+02  0.45594000000E+02  0.51100000000E-03 0. -1.
    9900012    2    1    2    0    0 -0.53409572883E+01 -0.28406632569E+01 -0.17722402348E+02  0.72461581830E+02  0.70000015027E+02 0.  0.
        -12    1    1    2    0    0  0.53409572883E+01  0.28406632569E+01  0.17722402348E+02  0.18726418170E+02  0.00000000000E+00 0.  1.
         11    1    3    3    0    0 -0.21555768340E+02 -0.48270223701E+01  0.46189461729E+01  0.22567364881E+02  0.51100000000E-03 0. -1.
        -11    1    3    3    0    0  0.57221958493E+01  0.16113948933E+02  0.46063919996E+01  0.17709368229E+02  0.51100000000E-03 0.  1.
         12    1    3    3    0    0  0.10492615202E+02 -0.14127589820E+02 -0.26947740521E+02  0.32184848719E+02  0.00000000000E+00 0. -1.
</event>
<event>
 7    1  0.1358622E-013  0.7246156E+02  0.7816164E-02  0.1226708E+00
        -11   -1    0    0    0    0  0.00000000000E+00  0.00000000000E+00  0.45593999997E+02  0.45594000000E+02  0.51100000000E-03 0.  1.
         11   -1    0    0    0    0 -0.00000000000E+00 -0.00000000000E+00 -0.45593999997E+02  0.45594000000E+02  0.51100000000E-03 0. -1.
    9900012    2    1    2    0    0  0.92505662207E+01 -0.13260806119E+02 -0.94476260758E+01  0.72461558993E+02  0.69999985278E+02 0.  0.
        -12    1    1    2    0    0 -0.92505662207E+01  0.13260806119E+02  0.94476260758E+01  0.18726441007E+02  0.00000000000E+00 0.  1.
         11    1    3    3    0    0 -0.70555681069E+01 -0.46868126942E+00 -0.94332159178E+01  0.11789243668E+02  0.51100000000E-03 0. -1.
        -11    1    3    3    0    0 -0.15162020873E+02  0.11115591092E+02  0.78574591847E+01  0.20376037578E+02  0.51100000000E-03 0.  1.
        -12    1    3    3    0    0  0.31468155201E+02 -0.23907715941E+02 -0.78718693427E+01  0.40296277747E+02  0.00000000000E+00 0.  1.
</event>
<event>
 7    1  0.1358622E-013  0.7246162E+02  0.7816164E-02  0.1226708E+00
        -11   -1    0    0    0    0  0.00000000000E+00  0.00000000000E+00  0.45593999997E+02  0.45594000000E+02  0.51100000000E-03 0.  1.
         11   -1    0    0    0    0 -0.00000000000E+00 -0.00000000000E+00 -0.45593999997E+02  0.45594000000E+02  0.51100000000E-03 0. -1.
    9900012    2    1    2    0    0 -0.54803220717E+01  0.28256567444E+01 -0.17682169844E+02  0.72461617636E+02  0.70000061671E+02 0.  0.
        -12    1    1    2    0    0  0.54803220717E+01 -0.28256567444E+01  0.17682169844E+02  0.18726382364E+02  0.00000000000E+00 0.  1.
         11    1    3    3    0    0 -0.21280782068E+02  0.20289452049E+02 -0.16610263407E+02  0.33770318337E+02  0.51100000000E-03 0. -1.
        -11    1    3    3    0    0 -0.38601148937E+01  0.62887980382E+01 -0.25894981449E+01  0.78201642350E+01  0.51100000000E-03 0.  1.
        -12    1    3    3    0    0  0.19660574890E+02 -0.23752593343E+02  0.15175917077E+01  0.30871135064E+02  0.00000000000E+00 0.  1.
</event>
<event>
 7    1  0.1358622E-013  0.7246156E+02  0.7816164E-02  0.1226708E+00
        -11   -1    0    0    0    0  0.00000000000E+00  0.00000000000E+00  0.45593999997E+02  0.45594000000E+02  0.51100000000E-03 0.  1.
         11   -1    0    0    0    0 -0.00000000000E+00 -0.00000000000E+00 -0.45593999997E+02  0.45594000000E+02  0.51100000000E-03 0. -1.
    9900012    2    1    2    0    0  0.14498915845E+02 -0.11589199590E+02  0.24801809731E+01  0.72461563994E+02  0.69999991793E+02 0.  0.
        -12    1    1    2    0    0 -0.14498915845E+02  0.11589199590E+02 -0.24801809731E+01  0.18726436006E+02  0.00000000000E+00 0.  1.
         11    1    3    3    0    0  0.61567106772E+01 -0.90835221903E+01 -0.67190300352E+01  0.12867044207E+02  0.51100000000E-03 0. -1.
        -11    1    3    3    0    0  0.29540210886E+02  0.13271674765E+02  0.36128451463E+01  0.32585488497E+02  0.51100000000E-03 0.  1.
         12    1    3    3    0    0 -0.21198005718E+02 -0.15777352164E+02  0.55863658620E+01  0.27009031291E+02  0.00000000000E+00 0. -1.
</event>
<event>
 7    1  0.1358622E-013  0.7246157E+02  0.7816164E-02  0.1226708E+00
        -11   -1    0    0    0    0  0.00000000000E+00  0.00000000000E+00  0.45593999997E+02  0.45594000000E+02  0.51100000000E-03 0.  1.
         11   -1    0    0    0    0 -0.00000000000E+00 -0.00000000000E+00 -0.45593999997E+02  0.45594000000E+02  0.51100000000E-03 0. -1.
    9900012    2    1    2    0    0 -0.13809951306E+02 -0.16866292100E+01 -0.12534740643E+02  0.72461569583E+02  0.69999999074E+02 0.  0.
        -12    1    1    2    0    0  0.13809951306E+02  0.16866292100E+01  0.12534740643E+02  0.18726430417E+02  0.00000000000E+00 0.  1.
         11    1    3    3    0    0 -0.53004349812E+01  0.32214164160E+01  0.10940326520E+02  0.12576282413E+02  0.51100000000E-03 0. -1.
        -11    1    3    3    0    0 -0.23547005088E+02  0.15988812972E+02 -0.69681162972E+01  0.29302870744E+02  0.51100000000E-03 0.  1.
         12    1    3    3    0    0  0.15037488763E+02 -0.20896858598E+02 -0.16506950865E+02  0.30582416426E+02  0.00000000000E+00 0. -1.
</event>
<event>
 7    1  0.1358622E-013  0.7246161E+02  0.7816164E-02  0.1226708E+00
        -11   -1    0    0    0    0  0.00000000000E+00  0.00000000000E+00  0.45593999997E+02  0.45594000000E+02  0.51100000000E-03 0.  1.
         11   -1    0    0    0    0 -0.00000000000E+00 -0.00000000000E+00 -0.45593999997E+02  0.45594000000E+02  0.51100000000E-03 0. -1.
    9900012    2    1    2    0    0 -0.15396286211E+01  0.14061374568E+02 -0.12271304134E+02  0.72461611769E+02  0.70000054029E+02 0.  0.
        -12    1    1    2    0    0  0.15396286211E+01 -0.14061374568E+02  0.12271304134E+02  0.18726388231E+02  0.00000000000E+00 0.  1.
         11    1    3    3    0    0  0.26014301680E+00  0.27999737373E+02 -0.24768397985E+02  0.37383505806E+02  0.51100000000E-03 0. -1.
        -11    1    3    3    0    0 -0.47784187232E+01 -0.13098598066E+02 -0.68151741844E+01  0.15519444456E+02  0.51100000000E-03 0.  1.
        -12    1    3    3    0    0  0.29786470853E+01 -0.83976473959E+00  0.19312268036E+02  0.19558661507E+02  0.00000000000E+00 0.  1.
</event>
<event>
 7    1  0.1358622E-013  0.7246164E+02  0.7816164E-02  0.1226708E+00
        -11   -1    0    0    0    0  0.00000000000E+00  0.00000000000E+00  0.45593999997E+02  0.45594000000E+02  0.51100000000E-03 0.  1.
         11   -1    0    0    0    0 -0.00000000000E+00 -0.00000000000E+00 -0.45593999997E+02  0.45594000000E+02  0.51100000000E-03 0. -1.
    9900012    2    1    2    0    0 -0.26613874026E+01  0.16698559278E+02 -0.80468330253E+01  0.72461644599E+02  0.70000096795E+02 0.  0.
        -12    1    1    2    0    0  0.26613874026E+01 -0.16698559278E+02  0.80468330253E+01  0.18726355401E+02  0.00000000000E+00 0.  1.
         11    1    3    3    0    0  0.10710501129E+02  0.91925238781E+01 -0.16500975690E+02  0.21714039897E+02  0.51100000000E-03 0. -1.
        -11    1    3    3    0    0 -0.78804704321E+01 -0.16047529909E+02 -0.98543168008E+01  0.20414029252E+02  0.51100000000E-03 0.  1.
        -12    1    3    3    0    0 -0.54914180998E+01  0.23553565310E+02  0.18308459465E+02  0.30333575449E+02  0.00000000000E+00 0.  1.
</event>
<event>
 7    1  0.1358622E-013  0.7246156E+02  0.7816164E-02  0.1226708E+00
        -11   -1    0    0    0    0  0.00000000000E+00  0.00000000000E+00  0.45593999997E+02  0.45594000000E+02  0.51100000000E-03 0.  1.
         11   -1    0    0    0    0 -0.00000000000E+00 -0.00000000000E+00 -0.45593999997E+02  0.45594000000E+02  0.51100000000E-03 0. -1.
    9900012    2    1    2    0    0 -0.15334749159E+02  0.22797642490E+01 -0.10503695511E+02  0.72461562107E+02  0.69999989334E+02 0.  0.
        -12    1    1    2    0    0  0.15334749159E+02 -0.22797642490E+01  0.10503695511E+02  0.18726437893E+02  0.00000000000E+00 0.  1.
         11    1    3    3    0    0 -0.18263771008E+02 -0.19848432574E+02 -0.88707128752E+01  0.28393928123E+02  0.51100000000E-03 0. -1.
        -11    1    3    3    0    0 -0.36966076820E+01 -0.59894513727E+01 -0.11549577404E+02  0.13525205158E+02  0.51100000000E-03 0.  1.
        -12    1    3    3    0    0  0.66256295314E+01  0.28117648196E+02  0.99165947683E+01  0.30542428825E+02  0.00000000000E+00 0.  1.
</event>
<event>
 7    1  0.1358622E-013  0.7246161E+02  0.7816164E-02  0.1226708E+00
        -11   -1    0    0    0    0  0.00000000000E+00  0.00000000000E+00  0.45593999997E+02  0.45594000000E+02  0.51100000000E-03 0. -1.
         11   -1    0    0    0    0 -0.00000000000E+00 -0.00000000000E+00 -0.45593999997E+02  0.45594000000E+02  0.51100000000E-03 0.  1.
    9900012    2    1    2    0    0  0.11481685607E+02  0.96448943282E+01 -0.11217157668E+02  0.72461609074E+02  0.70000050517E+02 0.  0.
        -12    1    1    2    0    0 -0.11481685607E+02 -0.96448943282E+01  0.11217157668E+02  0.18726390926E+02  0.00000000000E+00 0.  1.
         11    1    3    3    0    0 -0.11777345707E+02  0.47830607925E+00 -0.10051684862E+02  0.15490997948E+02  0.51100000000E-03 0. -1.
        -11    1    3    3    0    0  0.68488423134E+01 -0.10729009466E+02 -0.20917328591E+02  0.24485769761E+02  0.51100000000E-03 0.  1.
         12    1    3    3    0    0  0.16410189001E+02  0.19895597715E+02  0.19751855785E+02  0.32484841364E+02  0.00000000000E+00 0. -1.
</event>
<event>
 7    1  0.1358622E-013  0.7246159E+02  0.7816164E-02  0.1226708E+00
        -11   -1    0    0    0    0  0.00000000000E+00  0.00000000000E+00  0.45593999997E+02  0.45594000000E+02  0.51100000000E-03 0. -1.
         11   -1    0    0    0    0 -0.00000000000E+00 -0.00000000000E+00 -0.45593999997E+02  0.45594000000E+02  0.51100000000E-03 0.  1.
    9900012    2    1    2    0    0  0.16138947365E+02  0.72994878732E+01  0.60770423784E+01  0.72461585785E+02  0.70000020180E+02 0.  0.
        -12    1    1    2    0    0 -0.16138947365E+02 -0.72994878732E+01 -0.60770423784E+01  0.18726414215E+02  0.00000000000E+00 0.  1.
         11    1    3    3    0    0 -0.85758959733E+01  0.68949957793E+00  0.54576546687E+01  0.10188591471E+02  0.51100000000E-03 0. -1.
        -11    1    3    3    0    0 -0.71197412917E+01  0.23009565908E+02  0.86160053190E+01  0.25580586140E+02  0.51100000000E-03 0.  1.
        -12    1    3    3    0    0  0.31834584630E+02 -0.16399577613E+02 -0.79966176093E+01  0.36692408175E+02  0.00000000000E+00 0.  1.
</event>
<event>
 7    1  0.1358622E-013  0.7246160E+02  0.7816164E-02  0.1226708E+00
        -11   -1    0    0    0    0  0.00000000000E+00  0.00000000000E+00  0.45593999997E+02  0.45594000000E+02  0.51100000000E-03 0.  1.
         11   -1    0    0    0    0 -0.00000000000E+00 -0.00000000000E+00 -0.45593999997E+02  0.45594000000E+02  0.51100000000E-03 0. -1.
    9900012    2    1    2    0    0 -0.32801198671E+01 -0.45088100861E+01 -0.17877068618E+02  0.72461597860E+02  0.70000035909E+02 0.  0.
        -12    1    1    2    0    0  0.32801198671E+01  0.45088100861E+01  0.17877068618E+02  0.18726402140E+02  0.00000000000E+00 0.  1.
         11    1    3    3    0    0 -0.14793478911E+01  0.18746427339E+01  0.12128028663E+02  0.12360899444E+02  0.51100000000E-03 0. -1.
        -11    1    3    3    0    0 -0.12091778180E+02  0.18652977145E+00  0.11590221470E+02  0.16750496318E+02  0.51100000000E-03 0.  1.
         12    1    3    3    0    0  0.10291006204E+02 -0.65699825915E+01 -0.41595318751E+02  0.43350202098E+02  0.00000000000E+00 0. -1.
</event>
<event>
 7    1  0.1358622E-013  0.7246157E+02  0.7816164E-02  0.1226708E+00
        -11   -1    0    0    0    0  0.00000000000E+00  0.00000000000E+00  0.45593999997E+02  0.45594000000E+02  0.51100000000E-03 0.  1.
         11   -1    0    0    0    0 -0.00000000000E+00 -0.00000000000E+00 -0.45593999997E+02  0.45594000000E+02  0.51100000000E-03 0. -1.
    9900012    2    1    2    0    0 -0.26748403693E+01  0.11926736252E+02 -0.14187222585E+02  0.72461572330E+02  0.70000002652E+02 0.  0.
        -12    1    1    2    0    0  0.26748403693E+01 -0.11926736252E+02  0.14187222585E+02  0.18726427670E+02  0.00000000000E+00 0.  1.
         11    1    3    3    0    0 -0.13341064312E+02  0.15374648599E+02 -0.50795436854E+01  0.20980123471E+02  0.51100000000E-03 0. -1.
        -11    1    3    3    0    0  0.42155897249E+01 -0.75385255338E+01  0.19789269020E+02  0.21592029375E+02  0.51100000000E-03 0.  1.
         12    1    3    3    0    0  0.64506342176E+01  0.40906131860E+01 -0.28896947919E+02  0.29889419484E+02  0.00000000000E+00 0. -1.
</event>
<event>
 7    1  0.1358622E-013  0.7246156E+02  0.7816164E-02  0.1226708E+00
        -11   -1    0    0    0    0  0.00000000000E+00  0.00000000000E+00  0.45593999997E+02  0.45594000000E+02  0.51100000000E-03 0.  1.
         11   -1    0    0    0    0 -0.00000000000E+00 -0.00000000000E+00 -0.45593999997E+02  0.45594000000E+02  0.51100000000E-03 0. -1.
    9900012    2    1    2    0    0  0.80968366363E-01 -0.98595981784E+01 -0.15920469259E+02  0.72461559507E+02  0.69999985948E+02 0.  0.
        -12    1    1    2    0    0 -0.80968366363E-01  0.98595981784E+01  0.15920469259E+02  0.18726440493E+02  0.00000000000E+00 0.  1.
         11    1    3    3    0    0  0.18003301645E+01 -0.24124487753E+02 -0.32579284375E+02  0.40578835231E+02  0.51100000000E-03 0. -1.
        -11    1    3    3    0    0  0.10122339395E+02  0.43257217314E+01  0.34144942221E+01  0.11525293679E+02  0.51100000000E-03 0.  1.
        -12    1    3    3    0    0 -0.11841701194E+02  0.99391678437E+01  0.13244320894E+02  0.20357430597E+02  0.00000000000E+00 0.  1.
</event>
<event>
 7    1  0.1358622E-013  0.7246213E+02  0.7816164E-02  0.1226707E+00
        -11   -1    0    0    0    0  0.00000000000E+00  0.00000000000E+00  0.45593999997E+02  0.45594000000E+02  0.51100000000E-03 0. -1.
         11   -1    0    0    0    0 -0.00000000000E+00 -0.00000000000E+00 -0.45593999997E+02  0.45594000000E+02  0.51100000000E-03 0.  1.
    9900012    2    1    2    0    0  0.97142969419E+01 -0.10903266582E+02  0.11722183047E+02  0.72462125852E+02  0.70000723713E+02 0.  0.
        -12    1    1    2    0    0 -0.97142969419E+01  0.10903266582E+02 -0.11722183047E+02  0.18725874148E+02  0.00000000000E+00 0.  1.
         11    1    3    3    0    0  0.11636252785E+02  0.49652306746E+01  0.15044802255E+02  0.19657109902E+02  0.51100000000E-03 0. -1.
        -11    1    3    3    0    0 -0.18953226546E+02  0.30176816522E+01  0.12452952602E+02  0.22878094934E+02  0.51100000000E-03 0.  1.
         12    1    3    3    0    0  0.17031270703E+02 -0.18886178909E+02 -0.15775571810E+02  0.29926921015E+02  0.00000000000E+00 0. -1.
</event>
<event>
 7    1  0.1358622E-013  0.7246158E+02  0.7816164E-02  0.1226708E+00
        -11   -1    0    0    0    0  0.00000000000E+00  0.00000000000E+00  0.45593999997E+02  0.45594000000E+02  0.51100000000E-03 0. -1.
         11   -1    0    0    0    0 -0.00000000000E+00 -0.00000000000E+00 -0.45593999997E+02  0.45594000000E+02  0.51100000000E-03 0.  1.
    9900012    2    1    2    0    0 -0.14346670161E+02  0.10997272557E+01  0.11985100909E+02  0.72461575126E+02  0.70000006294E+02 0.  0.
        -12    1    1    2    0    0  0.14346670161E+02 -0.10997272557E+01 -0.11985100909E+02  0.18726424874E+02  0.00000000000E+00 0.  1.
         11    1    3    3    0    0 -0.38505113511E+02  0.79398829451E+01  0.12631779282E+02  0.41294640763E+02  0.51100000000E-03 0. -1.
        -11    1    3    3    0    0  0.75603594804E+00 -0.14105290104E+01 -0.62888291922E+01  0.64892646204E+01  0.51100000000E-03 0.  1.
        -12    1    3    3    0    0  0.23402407401E+02 -0.54296266789E+01  0.56421508193E+01  0.24677669743E+02  0.00000000000E+00 0.  1.
</event>
<event>
 7    1  0.1358622E-013  0.7246159E+02  0.7816164E-02  0.1226708E+00
        -11   -1    0    0    0    0  0.00000000000E+00  0.00000000000E+00  0.45593999997E+02  0.45594000000E+02  0.51100000000E-03 0.  1.
         11   -1    0    0    0    0 -0.00000000000E+00 -0.00000000000E+00 -0.45593999997E+02  0.45594000000E+02  0.51100000000E-03 0. -1.
    9900012    2    1    2    0    0  0.16885399966E+02 -0.42533014668E+01 -0.68899294639E+01  0.72461589949E+02  0.70000025604E+02 0.  0.
        -12    1    1    2    0    0 -0.16885399966E+02  0.42533014668E+01  0.68899294639E+01  0.18726410051E+02  0.00000000000E+00 0.  1.
         11    1    3    3    0    0  0.25609705665E+01 -0.11055540118E+02 -0.59735282368E+01  0.12824452324E+02  0.51100000000E-03 0. -1.
        -11    1    3    3    0    0 -0.11244443013E+02 -0.16061355977E+02  0.11998190301E+02  0.22986109398E+02  0.51100000000E-03 0.  1.
         12    1    3    3    0    0  0.25568872413E+02  0.22863594628E+02 -0.12914591528E+02  0.36651028227E+02  0.00000000000E+00 0. -1.
</event>
<event>
 7    1  0.1358622E-013  0.7246162E+02  0.7816164E-02  0.1226708E+00
        -11   -1    0    0    0    0  0.00000000000E+00  0.00000000000E+00  0.45593999997E+02  0.45594000000E+02  0.51100000000E-03 0.  1.
         11   -1    0    0    0    0 -0.00000000000E+00 -0.00000000000E+00 -0.45593999997E+02  0.45594000000E+02  0.51100000000E-03 0. -1.
    9900012    2    1    2    0    0  0.74166688437E+01 -0.20654133616E+01 -0.17070568962E+02  0.72461621979E+02  0.70000067329E+02 0.  0.
        -12    1    1    2    0    0 -0.74166688437E+01  0.20654133616E+01  0.17070568962E+02  0.18726378021E+02  0.00000000000E+00 0.  1.
         11    1    3    3    0    0  0.15618766984E+02 -0.24415540394E+00 -0.18938118931E+01  0.15735056966E+02  0.51100000000E-03 0. -1.
        -11    1    3    3    0    0  0.11487611481E+01 -0.28813776569E+01  0.20037671168E+02  0.20276347192E+02  0.51100000000E-03 0.  1.
         12    1    3    3    0    0 -0.93508592886E+01  0.10601196992E+01 -0.35214428236E+02  0.36450217821E+02  0.00000000000E+00 0. -1.
</event>
<event>
 7    1  0.1358622E-013  0.7246157E+02  0.7816164E-02  0.1226708E+00
        -11   -1    0    0    0    0  0.00000000000E+00  0.00000000000E+00  0.45593999997E+02  0.45594000000E+02  0.51100000000E-03 0.  1.
         11   -1    0    0    0    0 -0.00000000000E+00 -0.00000000000E+00 -0.45593999997E+02  0.45594000000E+02  0.51100000000E-03 0. -1.
    9900012    2    1    2    0    0 -0.17782085286E+02 -0.45738469101E+01  0.36819429039E+01  0.72461565844E+02  0.69999994202E+02 0.  0.
        -12    1    1    2    0    0  0.17782085286E+02  0.45738469101E+01 -0.36819429039E+01  0.18726434156E+02  0.00000000000E+00 0.  1.
         11    1    3    3    0    0 -0.18010689827E+02  0.14025112037E+02  0.85411845879E+01  0.24372947096E+02  0.51100000000E-03 0. -1.
        -11    1    3    3    0    0  0.12309792074E+02  0.15799927966E+01  0.13436607225E+02  0.18291248512E+02  0.51100000000E-03 0.  1.
         12    1    3    3    0    0 -0.12081187533E+02 -0.20178951743E+02 -0.18295848909E+02  0.29797370236E+02  0.00000000000E+00 0. -1.
</event>
<event>
 7    1  0.1358622E-013  0.7246146E+02  0.7816164E-02  0.1226708E+00
        -11   -1    0    0    0    0  0.00000000000E+00  0.00000000000E+00  0.45593999997E+02  0.45594000000E+02  0.51100000000E-03 0.  1.
         11   -1    0    0    0    0 -0.00000000000E+00 -0.00000000000E+00 -0.45593999997E+02  0.45594000000E+02  0.51100000000E-03 0. -1.
    9900012    2    1    2    0    0 -0.66752701402E+01  0.16262850959E+02  0.64531913121E+01  0.72461461856E+02  0.69999858738E+02 0.  0.
        -12    1    1    2    0    0  0.66752701402E+01 -0.16262850959E+02 -0.64531913121E+01  0.18726538144E+02  0.00000000000E+00 0.  1.
         11    1    3    3    0    0  0.10048765179E+02 -0.61662876650E+01  0.44584625677E+01  0.12604708403E+02  0.51100000000E-03 0.  1.
        -11    1    3    3    0    0  0.12781506357E+02  0.27056594405E+02 -0.50071605255E-02  0.29923673419E+02  0.51100000000E-03 0. -1.
         12    1    3    3    0    0 -0.29505541676E+02 -0.46274557809E+01  0.19997359049E+01  0.29933080034E+02  0.00000000000E+00 0. -1.
</event>
<event>
 7    1  0.1358622E-013  0.7246155E+02  0.7816164E-02  0.1226708E+00
        -11   -1    0    0    0    0  0.00000000000E+00  0.00000000000E+00  0.45593999997E+02  0.45594000000E+02  0.51100000000E-03 0. -1.
         11   -1    0    0    0    0 -0.00000000000E+00 -0.00000000000E+00 -0.45593999997E+02  0.45594000000E+02  0.51100000000E-03 0.  1.
    9900012    2    1    2    0    0  0.65938946311E+01  0.12246138391E+02 -0.12539238299E+02  0.72461552152E+02  0.69999976366E+02 0.  0.
        -12    1    1    2    0    0 -0.65938946311E+01 -0.12246138391E+02  0.12539238299E+02  0.18726447848E+02  0.00000000000E+00 0.  1.
         11    1    3    3    0    0  0.72138671384E+01  0.32082140494E+02 -0.21209353195E+02  0.39129787643E+02  0.51100000000E-03 0. -1.
        -11    1    3    3    0    0  0.71751233967E+01  0.24356919374E+01 -0.13488843800E+01  0.76963939806E+01  0.51100000000E-03 0.  1.
        -12    1    3    3    0    0 -0.77950959040E+01 -0.22271694041E+02  0.10018999277E+02  0.25635370528E+02  0.00000000000E+00 0.  1.
</event>
<event>
 7    1  0.1358622E-013  0.7246169E+02  0.7816164E-02  0.1226708E+00
        -11   -1    0    0    0    0  0.00000000000E+00  0.00000000000E+00  0.45593999997E+02  0.45594000000E+02  0.51100000000E-03 0.  1.
         11   -1    0    0    0    0 -0.00000000000E+00 -0.00000000000E+00 -0.45593999997E+02  0.45594000000E+02  0.51100000000E-03 0. -1.
    9900012    2    1    2    0    0  0.70320848605E+01 -0.16955827389E+02  0.37046648517E+01  0.72461685851E+02  0.70000150534E+02 0.  0.
        -12    1    1    2    0    0 -0.70320848605E+01  0.16955827389E+02 -0.37046648517E+01  0.18726314149E+02  0.00000000000E+00 0.  1.
         11    1    3    3    0    0 -0.57341289488E+01 -0.25732501486E+02 -0.67479981058E+01  0.27213550783E+02  0.51100000000E-03 0. -1.
        -11    1    3    3    0    0 -0.44980479706E+01 -0.11418175318E+02 -0.63444653436E+01  0.13815187436E+02  0.51100000000E-03 0.  1.
         12    1    3    3    0    0  0.17264261780E+02  0.20194849415E+02  0.16797128301E+02  0.31432947632E+02  0.00000000000E+00 0. -1.
</event>
<event>
 7    1  0.1358622E-013  0.7246156E+02  0.7816164E-02  0.1226708E+00
        -11   -1    0    0    0    0  0.00000000000E+00  0.00000000000E+00  0.45593999997E+02  0.45594000000E+02  0.51100000000E-03 0. -1.
         11   -1    0    0    0    0 -0.00000000000E+00 -0.00000000000E+00 -0.45593999997E+02  0.45594000000E+02  0.51100000000E-03 0.  1.
    9900012    2    1    2    0    0  0.67530000546E+00  0.16758013189E+02  0.83302097700E+01  0.72461563314E+02  0.69999990907E+02 0.  0.
        -12    1    1    2    0    0 -0.67530000546E+00 -0.16758013189E+02 -0.83302097700E+01  0.18726436686E+02  0.00000000000E+00 0.  1.
         11    1    3    3    0    0  0.22612331762E+02  0.24015519133E+02  0.10841815396E+02  0.34721861532E+02  0.51100000000E-03 0. -1.
        -11    1    3    3    0    0  0.21800631784E+01 -0.92451460450E+00  0.96931964395E+01  0.99782493550E+01  0.51100000000E-03 0.  1.
        -12    1    3    3    0    0 -0.24117094935E+02 -0.63329913396E+01 -0.12204802065E+02  0.27761452427E+02  0.00000000000E+00 0.  1.
</event>
<event>
 7    1  0.1358622E-013  0.7246155E+02  0.7816164E-02  0.1226708E+00
        -11   -1    0    0    0    0  0.00000000000E+00  0.00000000000E+00  0.45593999997E+02  0.45594000000E+02  0.51100000000E-03 0. -1.
         11   -1    0    0    0    0 -0.00000000000E+00 -0.00000000000E+00 -0.45593999997E+02  0.45594000000E+02  0.51100000000E-03 0.  1.
    9900012    2    1    2    0    0 -0.15705242872E+02  0.20771894836E+01  0.99855263748E+01  0.72461545268E+02  0.69999967399E+02 0.  0.
        -12    1    1    2    0    0  0.15705242872E+02 -0.20771894836E+01 -0.99855263748E+01  0.18726454732E+02  0.00000000000E+00 0.  1.
         11    1    3    3    0    0 -0.19280367061E+01  0.17665793962E+01  0.18269769640E+02  0.18455964111E+02  0.51100000000E-03 0. -1.
        -11    1    3    3    0    0  0.68381994361E+01  0.14548524350E+02 -0.20565767579E+02  0.26103090405E+02  0.51100000000E-03 0.  1.
         12    1    3    3    0    0 -0.20615405602E+02 -0.14237914263E+02  0.12281524314E+02  0.27902490752E+02  0.00000000000E+00 0. -1.
</event>
<event>
 7    1  0.1358622E-013  0.7246158E+02  0.7816164E-02  0.1226708E+00
        -11   -1    0    0    0    0  0.00000000000E+00  0.00000000000E+00  0.45593999997E+02  0.45594000000E+02  0.51100000000E-03 0. -1.
         11   -1    0    0    0    0 -0.00000000000E+00 -0.00000000000E+00 -0.45593999997E+02  0.45594000000E+02  0.51100000000E-03 0.  1.
    9900012    2    1    2    0    0 -0.91065087815E+00  0.15707260799E+02 -0.10155372598E+02  0.72461576972E+02  0.70000008698E+02 0.  0.
        -12    1    1    2    0    0  0.91065087815E+00 -0.15707260799E+02  0.10155372598E+02  0.18726423028E+02  0.00000000000E+00 0.  1.
         11    1    3    3    0    0  0.88008864995E+01  0.16885244644E+01  0.57215138238E+01  0.10632141776E+02  0.51100000000E-03 0. -1.
        -11    1    3    3    0    0  0.20002082808E+02 -0.76639637213E+01 -0.12716083314E+02  0.24910207379E+02  0.51100000000E-03 0.  1.
         12    1    3    3    0    0 -0.29713620186E+02  0.21682700056E+02 -0.31608031081E+01  0.36919227816E+02  0.00000000000E+00 0. -1.
</event>
<event>
 7    1  0.1358622E-013  0.7246150E+02  0.7816164E-02  0.1226708E+00
        -11   -1    0    0    0    0  0.00000000000E+00  0.00000000000E+00  0.45593999997E+02  0.45594000000E+02  0.51100000000E-03 0.  1.
         11   -1    0    0    0    0 -0.00000000000E+00 -0.00000000000E+00 -0.45593999997E+02  0.45594000000E+02  0.51100000000E-03 0. -1.
    9900012    2    1    2    0    0 -0.12702111655E+02  0.39028929547E+00 -0.13754479707E+02  0.72461503311E+02  0.69999912741E+02 0.  0.
        -12    1    1    2    0    0  0.12702111655E+02 -0.39028929547E+00  0.13754479707E+02  0.18726496689E+02  0.00000000000E+00 0.  1.
         11    1    3    3    0    0 -0.31430529413E+02 -0.31934122290E+01 -0.21232858821E+02  0.38064555098E+02  0.51100000000E-03 0. -1.
        -11    1    3    3    0    0 -0.86807281989E+00  0.99312066473E+01 -0.40859591881E+01  0.10773925869E+02  0.51100000000E-03 0.  1.
        -12    1    3    3    0    0  0.19596490578E+02 -0.63475051228E+01  0.11564338302E+02  0.23623022343E+02  0.00000000000E+00 0.  1.
</event>
<event>
 7    1  0.1358622E-013  0.7246154E+02  0.7816164E-02  0.1226708E+00
        -11   -1    0    0    0    0  0.00000000000E+00  0.00000000000E+00  0.45593999997E+02  0.45594000000E+02  0.51100000000E-03 0.  1.
         11   -1    0    0    0    0 -0.00000000000E+00 -0.00000000000E+00 -0.45593999997E+02  0.45594000000E+02  0.51100000000E-03 0. -1.
    9900012    2    1    2    0    0  0.13559119544E+02 -0.20967277999E+01  0.12744977395E+02  0.72461536397E+02  0.69999955842E+02 0.  0.
        -12    1    1    2    0    0 -0.13559119544E+02  0.20967277999E+01 -0.12744977395E+02  0.18726463603E+02  0.00000000000E+00 0.  1.
         11    1    3    3    0    0  0.19909175559E+02  0.67668972788E+01 -0.71072137083E+01  0.22196365855E+02  0.51100000000E-03 0. -1.
        -11    1    3    3    0    0  0.92319726697E+01 -0.22930530764E+02  0.71645352775E+01  0.25736532915E+02  0.51100000000E-03 0.  1.
        -12    1    3    3    0    0 -0.15582028684E+02  0.14066905685E+02  0.12687655826E+02  0.24528637627E+02  0.00000000000E+00 0.  1.
</event>
<event>
 7    1  0.1358622E-013  0.7246160E+02  0.7816164E-02  0.1226708E+00
        -11   -1    0    0    0    0  0.00000000000E+00  0.00000000000E+00  0.45593999997E+02  0.45594000000E+02  0.51100000000E-03 0. -1.
         11   -1    0    0    0    0 -0.00000000000E+00 -0.00000000000E+00 -0.45593999997E+02  0.45594000000E+02  0.51100000000E-03 0.  1.
    9900012    2    1    2    0    0  0.58184054024E+01 -0.17237170925E+02 -0.44389506493E+01  0.72461596561E+02  0.70000034217E+02 0.  0.
        -12    1    1    2    0    0 -0.58184054024E+01  0.17237170925E+02  0.44389506493E+01  0.18726403439E+02  0.00000000000E+00 0.  1.
         11    1    3    3    0    0 -0.10136135402E+02  0.73582394977E+01  0.10188185125E+02  0.16145712923E+02  0.51100000000E-03 0. -1.
        -11    1    3    3    0    0 -0.33464003494E+00  0.98221858549E+01  0.74215302223E+01  0.12315292527E+02  0.51100000000E-03 0.  1.
        -12    1    3    3    0    0  0.16289180839E+02 -0.34417596277E+02 -0.22048665996E+02  0.44000591111E+02  0.00000000000E+00 0.  1.
</event>
<event>
 7    1  0.1358622E-013  0.7246154E+02  0.7816164E-02  0.1226708E+00
        -11   -1    0    0    0    0  0.00000000000E+00  0.00000000000E+00  0.45593999997E+02  0.45594000000E+02  0.51100000000E-03 0.  1.
         11   -1    0    0    0    0 -0.00000000000E+00 -0.00000000000E+00 -0.45593999997E+02  0.45594000000E+02  0.51100000000E-03 0. -1.
    9900012    2    1    2    0    0  0.15978272488E+02  0.86149367439E+01 -0.45997628494E+01  0.72461544247E+02  0.69999966068E+02 0.  0.
        -12    1    1    2    0    0 -0.15978272488E+02 -0.86149367439E+01  0.45997628494E+01  0.18726455753E+02  0.00000000000E+00 0.  1.
         11    1    3    3    0    0  0.33175210544E+02 -0.53494323634E+01  0.64528908166E+01  0.34217697488E+02  0.51100000000E-03 0. -1.
        -11    1    3    3    0    0 -0.47587922953E+00  0.72842297798E+01  0.88054968474E+01  0.11437798718E+02  0.51100000000E-03 0.  1.
        -12    1    3    3    0    0 -0.16721058826E+02  0.66801393275E+01 -0.19858150513E+02  0.26806048040E+02  0.00000000000E+00 0.  1.
</event>
<event>
 7    1  0.1358622E-013  0.7246163E+02  0.7816164E-02  0.1226708E+00
        -11   -1    0    0    0    0  0.00000000000E+00  0.00000000000E+00  0.45593999997E+02  0.45594000000E+02  0.51100000000E-03 0. -1.
         11   -1    0    0    0    0 -0.00000000000E+00 -0.00000000000E+00 -0.45593999997E+02  0.45594000000E+02  0.51100000000E-03 0.  1.
    9900012    2    1    2    0    0 -0.13295510586E+02  0.48150411978E+01 -0.12276878991E+02  0.72461628722E+02  0.70000076113E+02 0.  0.
        -12    1    1    2    0    0  0.13295510586E+02 -0.48150411978E+01  0.12276878991E+02  0.18726371278E+02  0.00000000000E+00 0.  1.
         11    1    3    3    0    0 -0.17910833811E+02  0.19492292616E+01  0.65958874970E+00  0.18028658300E+02  0.51100000000E-03 0. -1.
        -11    1    3    3    0    0 -0.13767286005E+02 -0.14689698340E+02 -0.19660309288E+02  0.28139885622E+02  0.51100000000E-03 0.  1.
        -12    1    3    3    0    0  0.18382609229E+02  0.17555510277E+02  0.67238415477E+01  0.26293084800E+02  0.00000000000E+00 0.  1.
</event>
<event>
 7    1  0.1358622E-013  0.7246164E+02  0.7816164E-02  0.1226708E+00
        -11   -1    0    0    0    0  0.00000000000E+00  0.00000000000E+00  0.45593999997E+02  0.45594000000E+02  0.51100000000E-03 0.  1.
         11   -1    0    0    0    0 -0.00000000000E+00 -0.00000000000E+00 -0.45593999997E+02  0.45594000000E+02  0.51100000000E-03 0. -1.
    9900012    2    1    2    0    0  0.21070540534E+01  0.18076897273E+02  0.44116535164E+01  0.72461639474E+02  0.70000090119E+02 0.  0.
        -12    1    1    2    0    0 -0.21070540534E+01 -0.18076897273E+02 -0.44116535164E+01  0.18726360526E+02  0.00000000000E+00 0.  1.
         11    1    3    3    0    0  0.42885992803E+01  0.25239565278E+02  0.14534193487E+02  0.29439268330E+02  0.51100000000E-03 0. -1.
        -11    1    3    3    0    0  0.12001299573E+02 -0.12749720771E+01  0.11387563255E+02  0.16593171559E+02  0.51100000000E-03 0.  1.
        -12    1    3    3    0    0 -0.14182844800E+02 -0.58876959273E+01 -0.21510103225E+02  0.26429199585E+02  0.00000000000E+00 0.  1.
</event>
<event>
 7    1  0.1358622E-013  0.7246155E+02  0.7816164E-02  0.1226708E+00
        -11   -1    0    0    0    0  0.00000000000E+00  0.00000000000E+00  0.45593999997E+02  0.45594000000E+02  0.51100000000E-03 0. -1.
         11   -1    0    0    0    0 -0.00000000000E+00 -0.00000000000E+00 -0.45593999997E+02  0.45594000000E+02  0.51100000000E-03 0.  1.
    9900012    2    1    2    0    0  0.15431176137E+02 -0.18249713427E+01  0.10451230597E+02  0.72461549765E+02  0.69999973257E+02 0.  0.
        -12    1    1    2    0    0 -0.15431176137E+02  0.18249713427E+01 -0.10451230597E+02  0.18726450235E+02  0.00000000000E+00 0.  1.
         11    1    3    3    0    0 -0.61116790687E+00  0.23306674924E+02 -0.12536695620E+02  0.26471557558E+02  0.51100000000E-03 0.  1.
        -11    1    3    3    0    0  0.13121480448E+02 -0.71676088522E+01 -0.19914554979E+01  0.15083559297E+02  0.51100000000E-03 0. -1.
        -12    1    3    3    0    0  0.29208635968E+01 -0.17964037414E+02  0.24979381716E+02  0.30906432911E+02  0.00000000000E+00 0.  1.
</event>
<event>
 7    1  0.1358622E-013  0.7246149E+02  0.7816164E-02  0.1226708E+00
        -11   -1    0    0    0    0  0.00000000000E+00  0.00000000000E+00  0.45593999997E+02  0.45594000000E+02  0.51100000000E-03 0.  1.
         11   -1    0    0    0    0 -0.00000000000E+00 -0.00000000000E+00 -0.45593999997E+02  0.45594000000E+02  0.51100000000E-03 0. -1.
    9900012    2    1    2    0    0 -0.16539677584E+02 -0.85325313751E+01 -0.20777874866E+01  0.72461488657E+02  0.69999893652E+02 0.  0.
        -12    1    1    2    0    0  0.16539677584E+02  0.85325313751E+01  0.20777874866E+01  0.18726511343E+02  0.00000000000E+00 0.  1.
         11    1    3    3    0    0 -0.84636390235E+01  0.82589150346E+01 -0.14664577079E+02  0.18838595601E+02  0.51100000000E-03 0. -1.
        -11    1    3    3    0    0 -0.25480685787E+02 -0.12751967550E+02 -0.45634415655E+01  0.28856594113E+02  0.51100000000E-03 0.  1.
        -12    1    3    3    0    0  0.17404647227E+02 -0.40394788596E+01  0.17150231158E+02  0.24766298943E+02  0.00000000000E+00 0.  1.
</event>
<event>
 7    1  0.1358622E-013  0.7246159E+02  0.7816164E-02  0.1226708E+00
        -11   -1    0    0    0    0  0.00000000000E+00  0.00000000000E+00  0.45593999997E+02  0.45594000000E+02  0.51100000000E-03 0.  1.
         11   -1    0    0    0    0 -0.00000000000E+00 -0.00000000000E+00 -0.45593999997E+02  0.45594000000E+02  0.51100000000E-03 0. -1.
    9900012    2    1    2    0    0  0.16101140734E+02 -0.89354167755E+01 -0.34044308497E+01  0.72461586694E+02  0.70000021364E+02 0.  0.
        -12    1    1    2    0    0 -0.16101140734E+02  0.89354167755E+01  0.34044308497E+01  0.18726413306E+02  0.00000000000E+00 0.  1.
         11    1    3    3    0    0  0.25914720876E+02 -0.41098005140E+01 -0.21788749622E+02  0.34105906068E+02  0.51100000000E-03 0. -1.
        -11    1    3    3    0    0  0.68341870425E+01 -0.10275019011E+02  0.16690452236E+02  0.20757006631E+02  0.51100000000E-03 0.  1.
        -12    1    3    3    0    0 -0.16647767185E+02  0.54494027491E+01  0.16938665368E+01  0.17598673995E+02  0.00000000000E+00 0.  1.
</event>
<event>
 7    1  0.1358622E-013  0.7246158E+02  0.7816164E-02  0.1226708E+00
        -11   -1    0    0    0    0  0.00000000000E+00  0.00000000000E+00  0.45593999997E+02  0.45594000000E+02  0.51100000000E-03 0.  1.
         11   -1    0    0    0    0 -0.00000000000E+00 -0.00000000000E+00 -0.45593999997E+02  0.45594000000E+02  0.51100000000E-03 0. -1.
    9900012    2    1    2    0    0  0.11284673107E+02 -0.55640913528E+01 -0.13869968464E+02  0.72461575223E+02  0.70000006421E+02 0.  0.
        -12    1    1    2    0    0 -0.11284673107E+02  0.55640913528E+01  0.13869968464E+02  0.18726424777E+02  0.00000000000E+00 0.  1.
         11    1    3    3    0    0 -0.21829517131E+02  0.39343519850E+00 -0.15173923010E+02  0.26588165585E+02  0.51100000000E-03 0.  1.
        -11    1    3    3    0    0 -0.29448446670E+01 -0.67269806578E+01 -0.54940682718E+01  0.91711049127E+01  0.51100000000E-03 0. -1.
         12    1    3    3    0    0  0.36059034905E+02  0.76945410656E+00  0.67980228172E+01  0.36702304725E+02  0.00000000000E+00 0. -1.
</event>
<event>
 7    1  0.1358622E-013  0.7246159E+02  0.7816164E-02  0.1226708E+00
        -11   -1    0    0    0    0  0.00000000000E+00  0.00000000000E+00  0.45593999997E+02  0.45594000000E+02  0.51100000000E-03 0. -1.
         11   -1    0    0    0    0 -0.00000000000E+00 -0.00000000000E+00 -0.45593999997E+02  0.45594000000E+02  0.51100000000E-03 0.  1.
    9900012    2    1    2    0    0 -0.33548727552E+00  0.18646915774E+02  0.16906900551E+01  0.72461589441E+02  0.70000024942E+02 0.  0.
        -12    1    1    2    0    0  0.33548727552E+00 -0.18646915774E+02 -0.16906900551E+01  0.18726410559E+02  0.00000000000E+00 0.  1.
         11    1    3    3    0    0  0.15186586796E+02 -0.82681234291E+01 -0.25930884799E+01  0.17484804593E+02  0.51100000000E-03 0. -1.
        -11    1    3    3    0    0  0.93552743458E+01 -0.77304195212E+01  0.15930250590E+01  0.12240027498E+02  0.51100000000E-03 0.  1.
         12    1    3    3    0    0 -0.24877348417E+02  0.34645458724E+02  0.26907534760E+01  0.42736757349E+02  0.00000000000E+00 0. -1.
</event>
<event>
 7    1  0.1358622E-013  0.7246153E+02  0.7816164E-02  0.1226708E+00
        -11   -1    0    0    0    0  0.00000000000E+00  0.00000000000E+00  0.45593999997E+02  0.45594000000E+02  0.51100000000E-03 0. -1.
         11   -1    0    0    0    0 -0.00000000000E+00 -0.00000000000E+00 -0.45593999997E+02  0.45594000000E+02  0.51100000000E-03 0.  1.
    9900012    2    1    2    0    0 -0.14375726249E+01 -0.18451576013E+02  0.28554045992E+01  0.72461531891E+02  0.69999949972E+02 0.  0.
        -12    1    1    2    0    0  0.14375726249E+01  0.18451576013E+02 -0.28554045992E+01  0.18726468109E+02  0.00000000000E+00 0.  1.
         11    1    3    3    0    0  0.14724643715E+02 -0.17979286823E+02  0.29392934527E+02  0.37470181312E+02  0.51100000000E-03 0. -1.
        -11    1    3    3    0    0  0.18957311058E+01 -0.16233400582E+01  0.41316328292E+00  0.25297694618E+01  0.51100000000E-03 0.  1.
        -12    1    3    3    0    0 -0.18057947446E+02  0.11510508673E+01 -0.26950693211E+02  0.32461581117E+02  0.00000000000E+00 0.  1.
</event>
<event>
 7    1  0.1358622E-013  0.7246162E+02  0.7816164E-02  0.1226708E+00
        -11   -1    0    0    0    0  0.00000000000E+00  0.00000000000E+00  0.45593999997E+02  0.45594000000E+02  0.51100000000E-03 0. -1.
         11   -1    0    0    0    0 -0.00000000000E+00 -0.00000000000E+00 -0.45593999997E+02  0.45594000000E+02  0.51100000000E-03 0.  1.
    9900012    2    1    2    0    0 -0.69656597561E+00  0.15193211771E+02  0.10925132034E+02  0.72461617594E+02  0.70000061616E+02 0.  0.
        -12    1    1    2    0    0  0.69656597561E+00 -0.15193211771E+02 -0.10925132034E+02  0.18726382406E+02  0.00000000000E+00 0.  1.
         11    1    3    3    0    0 -0.99343887936E+01  0.25887273598E+02  0.28233211186E+02  0.39572177463E+02  0.51100000000E-03 0. -1.
        -11    1    3    3    0    0 -0.63196170014E-01  0.39506451955E+01  0.38577674260E+01  0.55221337354E+01  0.51100000000E-03 0.  1.
        -12    1    3    3    0    0  0.93010189880E+01 -0.14644707023E+02 -0.21165846578E+02  0.27367306396E+02  0.00000000000E+00 0.  1.
</event>
<event>
 7    1  0.1358622E-013  0.7246162E+02  0.7816164E-02  0.1226708E+00
        -11   -1    0    0    0    0  0.00000000000E+00  0.00000000000E+00  0.45593999997E+02  0.45594000000E+02  0.51100000000E-03 0. -1.
         11   -1    0    0    0    0 -0.00000000000E+00 -0.00000000000E+00 -0.45593999997E+02  0.45594000000E+02  0.51100000000E-03 0.  1.
    9900012    2    1    2    0    0 -0.12628178656E+02 -0.91910179843E+01 -0.10331100715E+02  0.72461618883E+02  0.70000063296E+02 0.  0.
        -12    1    1    2    0    0  0.12628178656E+02  0.91910179843E+01  0.10331100715E+02  0.18726381117E+02  0.00000000000E+00 0.  1.
         11    1    3    3    0    0 -0.91461932576E+01  0.95498661717E+01  0.99592750476E+01  0.16554152190E+02  0.51100000000E-03 0. -1.
        -11    1    3    3    0    0  0.45108327662E+01  0.13203835720E+02  0.45316619192E+01  0.14670543616E+02  0.51100000000E-03 0.  1.
        -12    1    3    3    0    0 -0.79928181647E+01 -0.31944719876E+02 -0.24822037682E+02  0.41236923077E+02  0.00000000000E+00 0.  1.
</event>
<event>
 7    1  0.1358622E-013  0.7246155E+02  0.7816164E-02  0.1226708E+00
        -11   -1    0    0    0    0  0.00000000000E+00  0.00000000000E+00  0.45593999997E+02  0.45594000000E+02  0.51100000000E-03 0. -1.
         11   -1    0    0    0    0 -0.00000000000E+00 -0.00000000000E+00 -0.45593999997E+02  0.45594000000E+02  0.51100000000E-03 0.  1.
    9900012    2    1    2    0    0  0.13625137030E+02  0.12387391006E+02  0.34041437238E+01  0.72461547866E+02  0.69999970783E+02 0.  0.
        -12    1    1    2    0    0 -0.13625137030E+02 -0.12387391006E+02 -0.34041437238E+01  0.18726452134E+02  0.00000000000E+00 0.  1.
         11    1    3    3    0    0  0.82545326491E+01 -0.45498355919E+01 -0.86141727821E+01  0.12768801281E+02  0.51100000000E-03 0. -1.
        -11    1    3    3    0    0 -0.13964468452E+01 -0.98524887983E+01  0.26635367013E+02  0.28433507970E+02  0.51100000000E-03 0.  1.
         12    1    3    3    0    0  0.67670512264E+01  0.26789715396E+02 -0.14617050507E+02  0.31259238615E+02  0.00000000000E+00 0. -1.
</event>
<event>
 7    1  0.1358622E-013  0.7246139E+02  0.7816164E-02  0.1226709E+00
        -11   -1    0    0    0    0  0.00000000000E+00  0.00000000000E+00  0.45593999997E+02  0.45594000000E+02  0.51100000000E-03 0. -1.
         11   -1    0    0    0    0 -0.00000000000E+00 -0.00000000000E+00 -0.45593999997E+02  0.45594000000E+02  0.51100000000E-03 0.  1.
    9900012    2    1    2    0    0  0.22853786057E+01 -0.12080707056E+02  0.14125142150E+02  0.72461385808E+02  0.69999759672E+02 0.  0.
        -12    1    1    2    0    0 -0.22853786057E+01  0.12080707056E+02 -0.14125142150E+02  0.18726614192E+02  0.00000000000E+00 0.  1.
         11    1    3    3    0    0  0.52456556763E+01  0.16430860072E+02  0.13495449370E+02  0.21900164843E+02  0.51100000000E-03 0. -1.
        -11    1    3    3    0    0  0.18165428118E+02 -0.15519523059E+02  0.71097872551E+01  0.24927644288E+02  0.51100000000E-03 0.  1.
        -12    1    3    3    0    0 -0.21125705189E+02 -0.12992044070E+02 -0.64800944753E+01  0.25633576677E+02  0.00000000000E+00 0.  1.
</event>
<event>
 7    1  0.1358622E-013  0.7246156E+02  0.7816164E-02  0.1226708E+00
        -11   -1    0    0    0    0  0.00000000000E+00  0.00000000000E+00  0.45593999997E+02  0.45594000000E+02  0.51100000000E-03 0.  1.
         11   -1    0    0    0    0 -0.00000000000E+00 -0.00000000000E+00 -0.45593999997E+02  0.45594000000E+02  0.51100000000E-03 0. -1.
    9900012    2    1    2    0    0 -0.10687322342E+01 -0.10723913089E+02 -0.15314532177E+02  0.72461564239E+02  0.69999992112E+02 0.  0.
        -12    1    1    2    0    0  0.10687322342E+01  0.10723913089E+02  0.15314532177E+02  0.18726435761E+02  0.00000000000E+00 0.  1.
         11    1    3    3    0    0  0.22374652092E+02 -0.26287075999E+01 -0.26147032152E+02  0.34513800870E+02  0.51100000000E-03 0. -1.
        -11    1    3    3    0    0  0.21493205073E+01 -0.10446332003E+02  0.29489371278E+01  0.11065336028E+02  0.51100000000E-03 0.  1.
         12    1    3    3    0    0 -0.25592704833E+02  0.23511265142E+01  0.78835628477E+01  0.26882427341E+02  0.00000000000E+00 0. -1.
</event>
<event>
 7    1  0.1358622E-013  0.7246151E+02  0.7816164E-02  0.1226708E+00
        -11   -1    0    0    0    0  0.00000000000E+00  0.00000000000E+00  0.45593999997E+02  0.45594000000E+02  0.51100000000E-03 0. -1.
         11   -1    0    0    0    0 -0.00000000000E+00 -0.00000000000E+00 -0.45593999997E+02  0.45594000000E+02  0.51100000000E-03 0.  1.
    9900012    2    1    2    0    0  0.39658959057E+01  0.51287719344E+01  0.17568405934E+02  0.72461507564E+02  0.69999918283E+02 0.  0.
        -12    1    1    2    0    0 -0.39658959057E+01 -0.51287719344E+01 -0.17568405934E+02  0.18726492436E+02  0.00000000000E+00 0.  1.
         11    1    3    3    0    0  0.11531125859E+01  0.74835036886E+01  0.17815136143E+02  0.19357468123E+02  0.51100000000E-03 0. -1.
        -11    1    3    3    0    0 -0.16879332728E+02 -0.12002258901E+02  0.15700676876E+02  0.25989947031E+02  0.51100000000E-03 0.  1.
        -12    1    3    3    0    0  0.19692116048E+02  0.96475271466E+01 -0.15947407085E+02  0.27114092410E+02  0.00000000000E+00 0.  1.
</event>
<event>
 7    1  0.1358622E-013  0.7246154E+02  0.7816164E-02  0.1226708E+00
        -11   -1    0    0    0    0  0.00000000000E+00  0.00000000000E+00  0.45593999997E+02  0.45594000000E+02  0.51100000000E-03 0.  1.
         11   -1    0    0    0    0 -0.00000000000E+00 -0.00000000000E+00 -0.45593999997E+02  0.45594000000E+02  0.51100000000E-03 0. -1.
    9900012    2    1    2    0    0 -0.12019054235E+02 -0.14314556197E+02 -0.11472527902E+01  0.72461538167E+02  0.69999958148E+02 0.  0.
        -12    1    1    2    0    0  0.12019054235E+02  0.14314556197E+02  0.11472527902E+01  0.18726461833E+02  0.00000000000E+00 0.  1.
         11    1    3    3    0    0  0.18620554835E+00 -0.62900175837E-01  0.77964253900E+01  0.77989023626E+01  0.51100000000E-03 0. -1.
        -11    1    3    3    0    0  0.86552962914E+01 -0.27812787626E+02  0.12613178097E+02  0.31742047373E+02  0.51100000000E-03 0.  1.
         12    1    3    3    0    0 -0.20860556075E+02  0.13561131605E+02 -0.21556856277E+02  0.32920588432E+02  0.00000000000E+00 0. -1.
</event>
<event>
 7    1  0.1358622E-013  0.7246158E+02  0.7816164E-02  0.1226708E+00
        -11   -1    0    0    0    0  0.00000000000E+00  0.00000000000E+00  0.45593999997E+02  0.45594000000E+02  0.51100000000E-03 0.  1.
         11   -1    0    0    0    0 -0.00000000000E+00 -0.00000000000E+00 -0.45593999997E+02  0.45594000000E+02  0.51100000000E-03 0. -1.
    9900012    2    1    2    0    0 -0.71622328020E+01 -0.11829470704E+01 -0.17262151515E+02  0.72461579696E+02  0.70000012248E+02 0.  0.
        -12    1    1    2    0    0  0.71622328020E+01  0.11829470704E+01  0.17262151515E+02  0.18726420304E+02  0.00000000000E+00 0.  1.
         11    1    3    3    0    0 -0.15696956111E+02 -0.42166021265E+01 -0.13591693430E+02  0.21187456081E+02  0.51100000000E-03 0. -1.
        -11    1    3    3    0    0  0.18753043069E+02 -0.17779523306E+02 -0.92126984687E+01  0.27434684009E+02  0.51100000000E-03 0.  1.
         12    1    3    3    0    0 -0.10218319760E+02  0.20813178362E+02  0.55422403841E+01  0.23839439606E+02  0.00000000000E+00 0. -1.
</event>
<event>
 7    1  0.1358622E-013  0.7246139E+02  0.7816164E-02  0.1226708E+00
        -11   -1    0    0    0    0  0.00000000000E+00  0.00000000000E+00  0.45593999997E+02  0.45594000000E+02  0.51100000000E-03 0. -1.
         11   -1    0    0    0    0 -0.00000000000E+00 -0.00000000000E+00 -0.45593999997E+02  0.45594000000E+02  0.51100000000E-03 0.  1.
    9900012    2    1    2    0    0  0.16664978899E+02 -0.18362962236E+00 -0.85399428553E+01  0.72461391510E+02  0.69999767100E+02 0.  0.
        -12    1    1    2    0    0 -0.16664978899E+02  0.18362962236E+00  0.85399428553E+01  0.18726608490E+02  0.00000000000E+00 0.  1.
         11    1    3    3    0    0 -0.46291691850E+01 -0.98407493034E+01 -0.80822911936E+01  0.13549648903E+02  0.51100000000E-03 0. -1.
        -11    1    3    3    0    0  0.17139134814E+02 -0.15514357861E+02  0.16390073661E+02  0.28338661875E+02  0.51100000000E-03 0.  1.
         12    1    3    3    0    0  0.41550132706E+01  0.25171477542E+02 -0.16847725322E+02  0.30573080732E+02  0.00000000000E+00 0. -1.
</event>
<event>
 7    1  0.1358622E-013  0.7246168E+02  0.7816164E-02  0.1226708E+00
        -11   -1    0    0    0    0  0.00000000000E+00  0.00000000000E+00  0.45593999997E+02  0.45594000000E+02  0.51100000000E-03 0. -1.
         11   -1    0    0    0    0 -0.00000000000E+00 -0.00000000000E+00 -0.45593999997E+02  0.45594000000E+02  0.51100000000E-03 0.  1.
    9900012    2    1    2    0    0 -0.40209287357E+01 -0.16392867404E+02  0.81105612471E+01  0.72461676993E+02  0.70000138994E+02 0.  0.
        -12    1    1    2    0    0  0.40209287357E+01  0.16392867404E+02 -0.81105612471E+01  0.18726323007E+02  0.00000000000E+00 0.  1.
         11    1    3    3    0    0  0.61172423553E+01  0.23191545358E+00  0.38003465622E+01  0.72053503083E+01  0.51100000000E-03 0. -1.
        -11    1    3    3    0    0  0.79993639409E+01  0.21394902924E+02 -0.58139322629E+00  0.22848844892E+02  0.51100000000E-03 0.  1.
         12    1    3    3    0    0 -0.18137535032E+02 -0.38019685782E+02  0.48916079112E+01  0.42407481792E+02  0.00000000000E+00 0. -1.
</event>
<event>
 7    1  0.1358622E-013  0.7246171E+02  0.7816164E-02  0.1226708E+00
        -11   -1    0    0    0    0  0.00000000000E+00  0.00000000000E+00  0.45593999997E+02  0.45594000000E+02  0.51100000000E-03 0. -1.
         11   -1    0    0    0    0 -0.00000000000E+00 -0.00000000000E+00 -0.45593999997E+02  0.45594000000E+02  0.51100000000E-03 0.  1.
    9900012    2    1    2    0    0 -0.42767513100E+01  0.15024769120E+02  0.10326647905E+02  0.72461709768E+02  0.70000181690E+02 0.  0.
        -12    1    1    2    0    0  0.42767513100E+01 -0.15024769120E+02 -0.10326647905E+02  0.18726290232E+02  0.00000000000E+00 0.  1.
         11    1    3    3    0    0  0.20783040978E+02  0.18243609245E+02  0.70464259714E+01  0.28537978026E+02  0.51100000000E-03 0. -1.
        -11    1    3    3    0    0 -0.52791568382E+01  0.15556506472E+02 -0.20747959313E+00  0.16429164269E+02  0.51100000000E-03 0.  1.
         12    1    3    3    0    0 -0.19780635450E+02 -0.18775346596E+02  0.34877015271E+01  0.27494567473E+02  0.00000000000E+00 0. -1.
</event>
<event>
 7    1  0.1358622E-013  0.7246153E+02  0.7816164E-02  0.1226708E+00
        -11   -1    0    0    0    0  0.00000000000E+00  0.00000000000E+00  0.45593999997E+02  0.45594000000E+02  0.51100000000E-03 0.  1.
         11   -1    0    0    0    0 -0.00000000000E+00 -0.00000000000E+00 -0.45593999997E+02  0.45594000000E+02  0.51100000000E-03 0. -1.
    9900012    2    1    2    0    0  0.53119618583E+01 -0.71404578101E+01 -0.16476577416E+02  0.72461529967E+02  0.69999947467E+02 0.  0.
        -12    1    1    2    0    0 -0.53119618583E+01  0.71404578101E+01  0.16476577416E+02  0.18726470033E+02  0.00000000000E+00 0.  1.
         11    1    3    3    0    0  0.25995264203E+01  0.10601540754E+02  0.18956556286E+01  0.11078976238E+02  0.51100000000E-03 0. -1.
        -11    1    3    3    0    0  0.98888679708E+01  0.18845001218E+02 -0.64090029155E+01  0.22226090508E+02  0.51100000000E-03 0.  1.
         12    1    3    3    0    0 -0.71764325327E+01 -0.36586999781E+02 -0.11963230130E+02  0.39156463222E+02  0.00000000000E+00 0. -1.
</event>
<event>
 7    1  0.1358622E-013  0.7246193E+02  0.7816164E-02  0.1226707E+00
        -11   -1    0    0    0    0  0.00000000000E+00  0.00000000000E+00  0.45593999997E+02  0.45594000000E+02  0.51100000000E-03 0. -1.
         11   -1    0    0    0    0 -0.00000000000E+00 -0.00000000000E+00 -0.45593999997E+02  0.45594000000E+02  0.51100000000E-03 0.  1.
    9900012    2    1    2    0    0 -0.33716154904E+01  0.43097124954E+01  0.17908774671E+02  0.72461931992E+02  0.70000471177E+02 0.  0.
        -12    1    1    2    0    0  0.33716154904E+01 -0.43097124954E+01 -0.17908774671E+02  0.18726068008E+02  0.00000000000E+00 0.  1.
         11    1    3    3    0    0  0.17214726083E+02  0.11946484908E+02  0.59472336527E+01  0.21781526213E+02  0.51100000000E-03 0. -1.
        -11    1    3    3    0    0 -0.12919690814E+02  0.13560672020E+02  0.19378127383E+02  0.26950362846E+02  0.51100000000E-03 0.  1.
        -12    1    3    3    0    0 -0.76666507594E+01 -0.21197444432E+02 -0.74165863644E+01  0.23730042934E+02  0.00000000000E+00 0.  1.
</event>
<event>
 7    1  0.1358622E-013  0.7246166E+02  0.7816164E-02  0.1226708E+00
        -11   -1    0    0    0    0  0.00000000000E+00  0.00000000000E+00  0.45593999997E+02  0.45594000000E+02  0.51100000000E-03 0.  1.
         11   -1    0    0    0    0 -0.00000000000E+00 -0.00000000000E+00 -0.45593999997E+02  0.45594000000E+02  0.51100000000E-03 0. -1.
    9900012    2    1    2    0    0 -0.13264203651E+01 -0.11120930690E+02 -0.15008047985E+02  0.72461655063E+02  0.70000110427E+02 0.  0.
        -12    1    1    2    0    0  0.13264203651E+01  0.11120930690E+02  0.15008047985E+02  0.18726344937E+02  0.00000000000E+00 0.  1.
         11    1    3    3    0    0 -0.20116762230E+02 -0.22851631011E+02 -0.20803354576E+02  0.36873577591E+02  0.51100000000E-03 0. -1.
        -11    1    3    3    0    0  0.13598105064E+02 -0.22570725923E+01 -0.74220147394E+01  0.15655323090E+02  0.51100000000E-03 0.  1.
        -12    1    3    3    0    0  0.51922368019E+01  0.13987772914E+02  0.13217321331E+02  0.19932754382E+02  0.00000000000E+00 0.  1.
</event>
<event>
 7    1  0.1358622E-013  0.7246168E+02  0.7816164E-02  0.1226708E+00
        -11   -1    0    0    0    0  0.00000000000E+00  0.00000000000E+00  0.45593999997E+02  0.45594000000E+02  0.51100000000E-03 0.  1.
         11   -1    0    0    0    0 -0.00000000000E+00 -0.00000000000E+00 -0.45593999997E+02  0.45594000000E+02  0.51100000000E-03 0. -1.
    9900012    2    1    2    0    0  0.11042258851E+02 -0.14152602462E+02  0.53335969993E+01  0.72461684454E+02  0.70000148714E+02 0.  0.
        -12    1    1    2    0    0 -0.11042258851E+02  0.14152602462E+02 -0.53335969993E+01  0.18726315546E+02  0.00000000000E+00 0.  1.
         11    1    3    3    0    0 -0.22389294196E+01  0.34065309907E-01 -0.37232305050E+01  0.43446991893E+01  0.51100000000E-03 0. -1.
        -11    1    3    3    0    0 -0.70551026510E+01 -0.26912562485E+02  0.26525939938E+02  0.38440681352E+02  0.51100000000E-03 0.  1.
         12    1    3    3    0    0  0.20336290921E+02  0.12725894713E+02 -0.17469112434E+02  0.29676303913E+02  0.00000000000E+00 0. -1.
</event>
<event>
 7    1  0.1358622E-013  0.7246155E+02  0.7816164E-02  0.1226708E+00
        -11   -1    0    0    0    0  0.00000000000E+00  0.00000000000E+00  0.45593999997E+02  0.45594000000E+02  0.51100000000E-03 0. -1.
         11   -1    0    0    0    0 -0.00000000000E+00 -0.00000000000E+00 -0.45593999997E+02  0.45594000000E+02  0.51100000000E-03 0.  1.
    9900012    2    1    2    0    0 -0.11877525996E+02 -0.37039087274E+01  0.13995911525E+02  0.72461545368E+02  0.69999967529E+02 0.  0.
        -12    1    1    2    0    0  0.11877525996E+02  0.37039087274E+01 -0.13995911525E+02  0.18726454632E+02  0.00000000000E+00 0.  1.
         11    1    3    3    0    0 -0.88496765370E+01 -0.98064017359E+01  0.33610239754E+01  0.13630068681E+02  0.51100000000E-03 0. -1.
        -11    1    3    3    0    0 -0.18396872204E+02 -0.19129523788E+02  0.12275760994E+02  0.29241714989E+02  0.51100000000E-03 0.  1.
         12    1    3    3    0    0  0.15369022745E+02  0.25232016796E+02 -0.16408734445E+01  0.29589761699E+02  0.00000000000E+00 0. -1.
</event>
<event>
 7    1  0.1358622E-013  0.7246160E+02  0.7816164E-02  0.1226708E+00
        -11   -1    0    0    0    0  0.00000000000E+00  0.00000000000E+00  0.45593999997E+02  0.45594000000E+02  0.51100000000E-03 0. -1.
         11   -1    0    0    0    0 -0.00000000000E+00 -0.00000000000E+00 -0.45593999997E+02  0.45594000000E+02  0.51100000000E-03 0.  1.
    9900012    2    1    2    0    0 -0.13218166251E+02 -0.13123690909E+02  0.19304730578E+01  0.72461603968E+02  0.70000043866E+02 0.  0.
        -12    1    1    2    0    0  0.13218166251E+02  0.13123690909E+02 -0.19304730578E+01  0.18726396032E+02  0.00000000000E+00 0.  1.
         11    1    3    3    0    0  0.22258593747E+01 -0.92928611268E+01 -0.15706165627E+01  0.96839328027E+01  0.51100000000E-03 0. -1.
        -11    1    3    3    0    0 -0.27718487880E+02 -0.20830498227E+02 -0.12012129049E+02  0.36694897074E+02  0.51100000000E-03 0.  1.
         12    1    3    3    0    0  0.12274462254E+02  0.16999668444E+02  0.15513218669E+02  0.26082774092E+02  0.00000000000E+00 0. -1.
</event>
<event>
 7    1  0.1358622E-013  0.7246154E+02  0.7816164E-02  0.1226708E+00
        -11   -1    0    0    0    0  0.00000000000E+00  0.00000000000E+00  0.45593999997E+02  0.45594000000E+02  0.51100000000E-03 0. -1.
         11   -1    0    0    0    0 -0.00000000000E+00 -0.00000000000E+00 -0.45593999997E+02  0.45594000000E+02  0.51100000000E-03 0.  1.
    9900012    2    1    2    0    0 -0.11464719006E+01 -0.82137258737E+01  0.16789891605E+02  0.72461544098E+02  0.69999965875E+02 0.  0.
        -12    1    1    2    0    0  0.11464719006E+01  0.82137258737E+01 -0.16789891605E+02  0.18726455902E+02  0.00000000000E+00 0.  1.
         11    1    3    3    0    0 -0.80594619896E+01  0.12560046228E+02 -0.14660187378E+02  0.20919626742E+02  0.51100000000E-03 0.  1.
        -11    1    3    3    0    0 -0.38925512548E+01  0.35994785360E+01  0.22956222712E+02  0.23560483070E+02  0.51100000000E-03 0. -1.
        -12    1    3    3    0    0  0.10805541344E+02 -0.24373250638E+02  0.84938562701E+01  0.27981434286E+02  0.00000000000E+00 0.  1.
</event>
<event>
 7    1  0.1358622E-013  0.7246153E+02  0.7816164E-02  0.1226708E+00
        -11   -1    0    0    0    0  0.00000000000E+00  0.00000000000E+00  0.45593999997E+02  0.45594000000E+02  0.51100000000E-03 0.  1.
         11   -1    0    0    0    0 -0.00000000000E+00 -0.00000000000E+00 -0.45593999997E+02  0.45594000000E+02  0.51100000000E-03 0. -1.
    9900012    2    1    2    0    0 -0.58957912905E+01 -0.17173997228E+02  0.45797562690E+01  0.72461529344E+02  0.69999946655E+02 0.  0.
        -12    1    1    2    0    0  0.58957912905E+01  0.17173997228E+02 -0.45797562690E+01  0.18726470656E+02  0.00000000000E+00 0.  1.
         11    1    3    3    0    0  0.70747949693E+01  0.31793382524E+01  0.66041967621E+01  0.10187066836E+02  0.51100000000E-03 0.  1.
        -11    1    3    3    0    0  0.14316196789E+01 -0.36507238166E+02 -0.11984409091E+02  0.38450670150E+02  0.51100000000E-03 0. -1.
         12    1    3    3    0    0 -0.14402205939E+02  0.16153902685E+02  0.99599685984E+01  0.23823792359E+02  0.00000000000E+00 0. -1.
</event>
<event>
 7    1  0.1358622E-013  0.7246153E+02  0.7816164E-02  0.1226708E+00
        -11   -1    0    0    0    0  0.00000000000E+00  0.00000000000E+00  0.45593999997E+02  0.45594000000E+02  0.51100000000E-03 0. -1.
         11   -1    0    0    0    0 -0.00000000000E+00 -0.00000000000E+00 -0.45593999997E+02  0.45594000000E+02  0.51100000000E-03 0.  1.
    9900012    2    1    2    0    0  0.44180975165E+01  0.17342131007E+02  0.55146612579E+01  0.72461532572E+02  0.69999950860E+02 0.  0.
        -12    1    1    2    0    0 -0.44180975165E+01 -0.17342131007E+02 -0.55146612579E+01  0.18726467428E+02  0.00000000000E+00 0.  1.
         11    1    3    3    0    0 -0.27332686884E+01  0.13336996831E+02  0.13267711581E+02  0.19009955630E+02  0.51100000000E-03 0. -1.
        -11    1    3    3    0    0 -0.87903927374E+01  0.15863442633E+02  0.14790187275E+02  0.23402338698E+02  0.51100000000E-03 0.  1.
         12    1    3    3    0    0  0.15941758942E+02 -0.11858308457E+02 -0.22543237598E+02  0.30049238244E+02  0.00000000000E+00 0. -1.
</event>
<event>
 7    1  0.1358622E-013  0.7246157E+02  0.7816164E-02  0.1226708E+00
        -11   -1    0    0    0    0  0.00000000000E+00  0.00000000000E+00  0.45593999997E+02  0.45594000000E+02  0.51100000000E-03 0.  1.
         11   -1    0    0    0    0 -0.00000000000E+00 -0.00000000000E+00 -0.45593999997E+02  0.45594000000E+02  0.51100000000E-03 0. -1.
    9900012    2    1    2    0    0  0.94598297618E+01  0.15363390735E+02 -0.50156850509E+01  0.72461568131E+02  0.69999997182E+02 0.  0.
        -12    1    1    2    0    0 -0.94598297618E+01 -0.15363390735E+02  0.50156850509E+01  0.18726431869E+02  0.00000000000E+00 0.  1.
         11    1    3    3    0    0  0.16730276657E+02 -0.91641968842E+00 -0.21436792764E+02  0.27208051498E+02  0.51100000000E-03 0. -1.
        -11    1    3    3    0    0  0.10886456753E+02  0.76182990025E+01 -0.64701068483E+01  0.14778893843E+02  0.51100000000E-03 0.  1.
        -12    1    3    3    0    0 -0.18156903648E+02  0.86615114211E+01  0.22891214561E+02  0.30474622791E+02  0.00000000000E+00 0.  1.
</event>
<event>
 7    1  0.1358622E-013  0.7246139E+02  0.7816164E-02  0.1226708E+00
        -11   -1    0    0    0    0  0.00000000000E+00  0.00000000000E+00  0.45593999997E+02  0.45594000000E+02  0.51100000000E-03 0.  1.
         11   -1    0    0    0    0 -0.00000000000E+00 -0.00000000000E+00 -0.45593999997E+02  0.45594000000E+02  0.51100000000E-03 0. -1.
    9900012    2    1    2    0    0 -0.13920205808E+01 -0.48455367648E+01 -0.18035210564E+02  0.72461394116E+02  0.69999770495E+02 0.  0.
        -12    1    1    2    0    0  0.13920205808E+01  0.48455367648E+01  0.18035210564E+02  0.18726605884E+02  0.00000000000E+00 0.  1.
         11    1    3    3    0    0  0.53025309198E+01 -0.76157345194E+01  0.23813435458E+00  0.92829389020E+01  0.51100000000E-03 0. -1.
        -11    1    3    3    0    0  0.20855685394E+01 -0.64099833820E+01  0.20919340876E+02  0.21978541945E+02  0.51100000000E-03 0.  1.
         12    1    3    3    0    0 -0.87801200399E+01  0.91801811367E+01 -0.39192685794E+02  0.41199913269E+02  0.00000000000E+00 0. -1.
</event>
<event>
 7    1  0.1358622E-013  0.7246150E+02  0.7816164E-02  0.1226708E+00
        -11   -1    0    0    0    0  0.00000000000E+00  0.00000000000E+00  0.45593999997E+02  0.45594000000E+02  0.51100000000E-03 0. -1.
         11   -1    0    0    0    0 -0.00000000000E+00 -0.00000000000E+00 -0.45593999997E+02  0.45594000000E+02  0.51100000000E-03 0.  1.
    9900012    2    1    2    0    0  0.11433394246E+02 -0.88198452348E+01  0.11923491552E+02  0.72461499399E+02  0.69999907646E+02 0.  0.
        -12    1    1    2    0    0 -0.11433394246E+02  0.88198452348E+01 -0.11923491552E+02  0.18726500601E+02  0.00000000000E+00 0.  1.
         11    1    3    3    0    0  0.58585434962E+01  0.26609440851E+02  0.16273404958E+00  0.27247226592E+02  0.51100000000E-03 0. -1.
        -11    1    3    3    0    0  0.66192105844E+01 -0.69837907270E+01  0.13634592551E+02  0.16688001557E+02  0.51100000000E-03 0.  1.
        -12    1    3    3    0    0 -0.10443598346E+01 -0.28445495359E+02 -0.18738350489E+01  0.28526271251E+02  0.00000000000E+00 0.  1.
</event>
<event>
 7    1  0.1358622E-013  0.7246127E+02  0.7816164E-02  0.1226709E+00
        -11   -1    0    0    0    0  0.00000000000E+00  0.00000000000E+00  0.45593999997E+02  0.45594000000E+02  0.51100000000E-03 0. -1.
         11   -1    0    0    0    0 -0.00000000000E+00 -0.00000000000E+00 -0.45593999997E+02  0.45594000000E+02  0.51100000000E-03 0.  1.
    9900012    2    1    2    0    0 -0.11296908832E+02 -0.10118432312E+02  0.10985783497E+02  0.72461274161E+02  0.69999614230E+02 0.  0.
        -12    1    1    2    0    0  0.11296908832E+02  0.10118432312E+02 -0.10985783497E+02  0.18726725839E+02  0.00000000000E+00 0.  1.
         11    1    3    3    0    0 -0.80449637364E+01  0.11743979293E+02 -0.52774310879E+01  0.15182021285E+02  0.51100000000E-03 0. -1.
        -11    1    3    3    0    0 -0.15551085035E+02  0.55163619299E+01  0.21196776539E+02  0.26862051869E+02  0.51100000000E-03 0.  1.
         12    1    3    3    0    0  0.12299139939E+02 -0.27378773535E+02 -0.49335619540E+01  0.30417201006E+02  0.00000000000E+00 0. -1.
</event>
<event>
 7    1  0.1358622E-013  0.7246149E+02  0.7816164E-02  0.1226708E+00
        -11   -1    0    0    0    0  0.00000000000E+00  0.00000000000E+00  0.45593999997E+02  0.45594000000E+02  0.51100000000E-03 0. -1.
         11   -1    0    0    0    0 -0.00000000000E+00 -0.00000000000E+00 -0.45593999997E+02  0.45594000000E+02  0.51100000000E-03 0.  1.
    9900012    2    1    2    0    0  0.27638044115E+01 -0.42164570758E+01  0.18035108456E+02  0.72461487722E+02  0.69999892434E+02 0.  0.
        -12    1    1    2    0    0 -0.27638044115E+01  0.42164570758E+01 -0.18035108456E+02  0.18726512278E+02  0.00000000000E+00 0.  1.
         11    1    3    3    0    0 -0.26786898731E+02 -0.16875270343E+02  0.13429930870E+02  0.34390052867E+02  0.51100000000E-03 0.  1.
        -11    1    3    3    0    0 -0.17017671667E+01  0.42646408515E+01  0.33557118583E+01  0.56871764013E+01  0.51100000000E-03 0. -1.
        -12    1    3    3    0    0  0.31252470309E+02  0.83941724154E+01  0.12494657273E+01  0.32384258453E+02  0.00000000000E+00 0.  1.
</event>
<event>
 7    1  0.1358622E-013  0.7246159E+02  0.7816164E-02  0.1226708E+00
        -11   -1    0    0    0    0  0.00000000000E+00  0.00000000000E+00  0.45593999997E+02  0.45594000000E+02  0.51100000000E-03 0. -1.
         11   -1    0    0    0    0 -0.00000000000E+00 -0.00000000000E+00 -0.45593999997E+02  0.45594000000E+02  0.51100000000E-03 0.  1.
    9900012    2    1    2    0    0  0.63684093214E+00  0.18660662238E+02 -0.14326424529E+01  0.72461592284E+02  0.70000028646E+02 0.  0.
        -12    1    1    2    0    0 -0.63684093214E+00 -0.18660662238E+02  0.14326424529E+01  0.18726407716E+02  0.00000000000E+00 0.  1.
         11    1    3    3    0    0 -0.20820413241E+02 -0.74867429660E+01 -0.43809614066E+01  0.22555126931E+02  0.51100000000E-03 0. -1.
        -11    1    3    3    0    0 -0.10465492830E+02  0.61926971175E+01  0.11997505301E+01  0.12219469684E+02  0.51100000000E-03 0.  1.
         12    1    3    3    0    0  0.31922747003E+02  0.19954708087E+02  0.17485684237E+01  0.37686995669E+02  0.00000000000E+00 0. -1.
</event>
<event>
 7    1  0.1358622E-013  0.7246165E+02  0.7816164E-02  0.1226708E+00
        -11   -1    0    0    0    0  0.00000000000E+00  0.00000000000E+00  0.45593999997E+02  0.45594000000E+02  0.51100000000E-03 0.  1.
         11   -1    0    0    0    0 -0.00000000000E+00 -0.00000000000E+00 -0.45593999997E+02  0.45594000000E+02  0.51100000000E-03 0. -1.
    9900012    2    1    2    0    0  0.65908031813E+00  0.18711930384E+02  0.32451467512E+00  0.72461653978E+02  0.70000109013E+02 0.  0.
        -12    1    1    2    0    0 -0.65908031813E+00 -0.18711930384E+02 -0.32451467512E+00  0.18726346022E+02  0.00000000000E+00 0.  1.
         11    1    3    3    0    0 -0.27865461613E+00 -0.14661253092E+01  0.39243097517E+01  0.41984972438E+01  0.51100000000E-03 0. -1.
        -11    1    3    3    0    0  0.13610298365E+02  0.77324112297E+01  0.27962754951E+02  0.32045999278E+02  0.51100000000E-03 0.  1.
         12    1    3    3    0    0 -0.12672563431E+02  0.12445644464E+02 -0.31562550027E+02  0.36217157457E+02  0.00000000000E+00 0. -1.
</event>
<event>
 7    1  0.1358622E-013  0.7246160E+02  0.7816164E-02  0.1226708E+00
        -11   -1    0    0    0    0  0.00000000000E+00  0.00000000000E+00  0.45593999997E+02  0.45594000000E+02  0.51100000000E-03 0. -1.
         11   -1    0    0    0    0 -0.00000000000E+00 -0.00000000000E+00 -0.45593999997E+02  0.45594000000E+02  0.51100000000E-03 0.  1.
    9900012    2    1    2    0    0 -0.42220331392E+01  0.13844633054E+02  0.11881867085E+02  0.72461596351E+02  0.70000033943E+02 0.  0.
        -12    1    1    2    0    0  0.42220331392E+01 -0.13844633054E+02 -0.11881867085E+02  0.18726403649E+02  0.00000000000E+00 0.  1.
         11    1    3    3    0    0 -0.91168471855E+01  0.73349874419E+01  0.14004723272E+02  0.18249690889E+02  0.51100000000E-03 0. -1.
        -11    1    3    3    0    0  0.20848724071E+02 -0.64556766597E+01  0.15795238442E+02  0.26941317975E+02  0.51100000000E-03 0.  1.
        -12    1    3    3    0    0 -0.15953910025E+02  0.12965322271E+02 -0.17918094629E+02  0.27270587486E+02  0.00000000000E+00 0.  1.
</event>
<event>
 7    1  0.1358622E-013  0.7246153E+02  0.7816164E-02  0.1226708E+00
        -11   -1    0    0    0    0  0.00000000000E+00  0.00000000000E+00  0.45593999997E+02  0.45594000000E+02  0.51100000000E-03 0. -1.
         11   -1    0    0    0    0 -0.00000000000E+00 -0.00000000000E+00 -0.45593999997E+02  0.45594000000E+02  0.51100000000E-03 0.  1.
    9900012    2    1    2    0    0  0.15414558849E+02  0.48285417806E+01  0.94740380300E+01  0.72461525777E+02  0.69999942008E+02 0.  0.
        -12    1    1    2    0    0 -0.15414558849E+02 -0.48285417806E+01 -0.94740380300E+01  0.18726474223E+02  0.00000000000E+00 0.  1.
         11    1    3    3    0    0 -0.28251426550E+01 -0.69873516713E+01  0.25568967811E+01  0.79587835634E+01  0.51100000000E-03 0. -1.
        -11    1    3    3    0    0  0.26002875808E+02 -0.52431623014E+01 -0.18920879866E+02  0.32582817502E+02  0.51100000000E-03 0.  1.
         12    1    3    3    0    0 -0.77631743046E+01  0.17059055753E+02  0.25838021114E+02  0.31919924711E+02  0.00000000000E+00 0. -1.
</event>
<event>
 7    1  0.1358622E-013  0.7246158E+02  0.7816164E-02  0.1226708E+00
        -11   -1    0    0    0    0  0.00000000000E+00  0.00000000000E+00  0.45593999997E+02  0.45594000000E+02  0.51100000000E-03 0.  1.
         11   -1    0    0    0    0 -0.00000000000E+00 -0.00000000000E+00 -0.45593999997E+02  0.45594000000E+02  0.51100000000E-03 0. -1.
    9900012    2    1    2    0    0 -0.14768217412E+02  0.56692936433E+01 -0.10021856596E+02  0.72461581614E+02  0.70000014746E+02 0.  0.
        -12    1    1    2    0    0  0.14768217412E+02 -0.56692936433E+01  0.10021856596E+02  0.18726418386E+02  0.00000000000E+00 0.  1.
         11    1    3    3    0    0 -0.25473665381E+02  0.27937293347E+02 -0.57266709425E+01  0.38238655152E+02  0.51100000000E-03 0. -1.
        -11    1    3    3    0    0  0.27225444330E+01 -0.89352396737E+01 -0.13307667027E+02  0.16258682548E+02  0.51100000000E-03 0.  1.
        -12    1    3    3    0    0  0.79829035356E+01 -0.13332760030E+02  0.90124813738E+01  0.17964243914E+02  0.00000000000E+00 0.  1.
</event>
<event>
 7    1  0.1358622E-013  0.7246153E+02  0.7816164E-02  0.1226708E+00
        -11   -1    0    0    0    0  0.00000000000E+00  0.00000000000E+00  0.45593999997E+02  0.45594000000E+02  0.51100000000E-03 0.  1.
         11   -1    0    0    0    0 -0.00000000000E+00 -0.00000000000E+00 -0.45593999997E+02  0.45594000000E+02  0.51100000000E-03 0. -1.
    9900012    2    1    2    0    0 -0.70095972374E+01  0.11357529136E+02 -0.13135936799E+02  0.72461527906E+02  0.69999944781E+02 0.  0.
        -12    1    1    2    0    0  0.70095972374E+01 -0.11357529136E+02  0.13135936799E+02  0.18726472094E+02  0.00000000000E+00 0.  1.
         11    1    3    3    0    0  0.19619472529E+00  0.23102787416E+02 -0.97584270816E+01  0.25079955704E+02  0.51100000000E-03 0. -1.
        -11    1    3    3    0    0 -0.23609113160E+02  0.34138060953E+01  0.32706820523E+01  0.24077825018E+02  0.51100000000E-03 0.  1.
         12    1    3    3    0    0  0.16403321197E+02 -0.15159064375E+02 -0.66481917697E+01  0.23303747184E+02  0.00000000000E+00 0. -1.
</event>
<event>
 7    1  0.1358622E-013  0.7246155E+02  0.7816164E-02  0.1226708E+00
        -11   -1    0    0    0    0  0.00000000000E+00  0.00000000000E+00  0.45593999997E+02  0.45594000000E+02  0.51100000000E-03 0.  1.
         11   -1    0    0    0    0 -0.00000000000E+00 -0.00000000000E+00 -0.45593999997E+02  0.45594000000E+02  0.51100000000E-03 0. -1.
    9900012    2    1    2    0    0  0.22929132865E+01  0.28412905526E+01 -0.18367081745E+02  0.72461546113E+02  0.69999968500E+02 0.  0.
        -12    1    1    2    0    0 -0.22929132865E+01 -0.28412905526E+01  0.18367081745E+02  0.18726453887E+02  0.00000000000E+00 0.  1.
         11    1    3    3    0    0  0.22460148612E+02 -0.87224616514E+01  0.11046634364E+02  0.26505994491E+02  0.51100000000E-03 0. -1.
        -11    1    3    3    0    0 -0.67289524845E+01 -0.77951303836E+01 -0.33760891614E+01  0.10837012389E+02  0.51100000000E-03 0.  1.
         12    1    3    3    0    0 -0.13438282841E+02  0.19358882588E+02 -0.26037626948E+02  0.35118539233E+02  0.00000000000E+00 0. -1.
</event>
<event>
 7    1  0.1358622E-013  0.7246160E+02  0.7816164E-02  0.1226708E+00
        -11   -1    0    0    0    0  0.00000000000E+00  0.00000000000E+00  0.45593999997E+02  0.45594000000E+02  0.51100000000E-03 0. -1.
         11   -1    0    0    0    0 -0.00000000000E+00 -0.00000000000E+00 -0.45593999997E+02  0.45594000000E+02  0.51100000000E-03 0.  1.
    9900012    2    1    2    0    0 -0.11233784109E+01 -0.10139568349E+02  0.15703671954E+02  0.72461597831E+02  0.70000035872E+02 0.  0.
        -12    1    1    2    0    0  0.11233784109E+01  0.10139568349E+02 -0.15703671954E+02  0.18726402169E+02  0.00000000000E+00 0.  1.
         11    1    3    3    0    0  0.30743476059E+01 -0.64180435195E+01 -0.10927934722E+02  0.13040807236E+02  0.51100000000E-03 0. -1.
        -11    1    3    3    0    0 -0.27920618326E+02 -0.74843137321E+01  0.12017825996E+02  0.31305015919E+02  0.51100000000E-03 0.  1.
         12    1    3    3    0    0  0.23722892310E+02  0.37627889022E+01  0.14613780679E+02  0.28115774675E+02  0.00000000000E+00 0. -1.
</event>
<event>
 7    1  0.1358622E-013  0.7246159E+02  0.7816164E-02  0.1226708E+00
        -11   -1    0    0    0    0  0.00000000000E+00  0.00000000000E+00  0.45593999997E+02  0.45594000000E+02  0.51100000000E-03 0.  1.
         11   -1    0    0    0    0 -0.00000000000E+00 -0.00000000000E+00 -0.45593999997E+02  0.45594000000E+02  0.51100000000E-03 0. -1.
    9900012    2    1    2    0    0  0.83089595611E+01 -0.15357876404E+02 -0.67657369818E+01  0.72461591547E+02  0.70000027686E+02 0.  0.
        -12    1    1    2    0    0 -0.83089595611E+01  0.15357876404E+02  0.67657369818E+01  0.18726408453E+02  0.00000000000E+00 0.  1.
         11    1    3    3    0    0  0.11364994572E+02 -0.18027670919E+02  0.14186573095E+01  0.21358197705E+02  0.51100000000E-03 0. -1.
        -11    1    3    3    0    0 -0.45260606526E+01 -0.15476444917E+02  0.14728116334E+02  0.21838566420E+02  0.51100000000E-03 0.  1.
         12    1    3    3    0    0  0.14700256412E+01  0.18146239431E+02 -0.22912510625E+02  0.29264827422E+02  0.00000000000E+00 0. -1.
</event>
<event>
 7    1  0.1358622E-013  0.7246190E+02  0.7816164E-02  0.1226707E+00
        -11   -1    0    0    0    0  0.00000000000E+00  0.00000000000E+00  0.45593999997E+02  0.45594000000E+02  0.51100000000E-03 0.  1.
         11   -1    0    0    0    0 -0.00000000000E+00 -0.00000000000E+00 -0.45593999997E+02  0.45594000000E+02  0.51100000000E-03 0. -1.
    9900012    2    1    2    0    0 -0.15544284291E+01  0.11112836638E+02 -0.14991845060E+02  0.72461900455E+02  0.70000430094E+02 0.  0.
        -12    1    1    2    0    0  0.15544284291E+01 -0.11112836638E+02  0.14991845060E+02  0.18726099545E+02  0.00000000000E+00 0.  1.
         11    1    3    3    0    0 -0.75661181219E+01 -0.90222157187E+01 -0.11024833508E+01  0.11826326129E+02  0.51100000000E-03 0. -1.
        -11    1    3    3    0    0 -0.16461004876E+02  0.17427016968E+02  0.11528275000E+02  0.26600126441E+02  0.51100000000E-03 0.  1.
         12    1    3    3    0    0  0.22472694569E+02  0.27080353883E+01 -0.25417636709E+02  0.34035447885E+02  0.00000000000E+00 0. -1.
</event>
<event>
 7    1  0.1358622E-013  0.7246156E+02  0.7816164E-02  0.1226708E+00
        -11   -1    0    0    0    0  0.00000000000E+00  0.00000000000E+00  0.45593999997E+02  0.45594000000E+02  0.51100000000E-03 0.  1.
         11   -1    0    0    0    0 -0.00000000000E+00 -0.00000000000E+00 -0.45593999997E+02  0.45594000000E+02  0.51100000000E-03 0. -1.
    9900012    2    1    2    0    0  0.31215545667E+01 -0.14622435234E+02 -0.11274740093E+02  0.72461562025E+02  0.69999989228E+02 0.  0.
        -12    1    1    2    0    0 -0.31215545667E+01  0.14622435234E+02  0.11274740093E+02  0.18726437975E+02  0.00000000000E+00 0.  1.
         11    1    3    3    0    0 -0.10050852985E+02  0.98125216817E+01 -0.31505118701E+02  0.34494604391E+02  0.51100000000E-03 0. -1.
        -11    1    3    3    0    0  0.75651098432E+01 -0.42392818045E+01  0.13326355666E+02  0.15899501651E+02  0.51100000000E-03 0.  1.
        -12    1    3    3    0    0  0.56072977085E+01 -0.20195675111E+02  0.69040229421E+01  0.22067455983E+02  0.00000000000E+00 0.  1.
</event>
<event>
 7    1  0.1358622E-013  0.7246158E+02  0.7816164E-02  0.1226708E+00
        -11   -1    0    0    0    0  0.00000000000E+00  0.00000000000E+00  0.45593999997E+02  0.45594000000E+02  0.51100000000E-03 0.  1.
         11   -1    0    0    0    0 -0.00000000000E+00 -0.00000000000E+00 -0.45593999997E+02  0.45594000000E+02  0.51100000000E-03 0. -1.
    9900012    2    1    2    0    0 -0.52525113828E+01 -0.38532619378E+01 -0.17556832597E+02  0.72461578179E+02  0.70000010271E+02 0.  0.
        -12    1    1    2    0    0  0.52525113828E+01  0.38532619378E+01  0.17556832597E+02  0.18726421821E+02  0.00000000000E+00 0.  1.
         11    1    3    3    0    0  0.13748762656E+01  0.19647442049E+02 -0.14969563336E+02  0.24738635584E+02  0.51100000000E-03 0. -1.
        -11    1    3    3    0    0  0.37092614972E+00  0.35349731671E+01 -0.16249277611E+02  0.16633479631E+02  0.51100000000E-03 0.  1.
        -12    1    3    3    0    0 -0.69983137981E+01 -0.27035677154E+02  0.13662008351E+02  0.31089462964E+02  0.00000000000E+00 0.  1.
</event>
<event>
 7    1  0.1358622E-013  0.7246158E+02  0.7816164E-02  0.1226708E+00
        -11   -1    0    0    0    0  0.00000000000E+00  0.00000000000E+00  0.45593999997E+02  0.45594000000E+02  0.51100000000E-03 0.  1.
         11   -1    0    0    0    0 -0.00000000000E+00 -0.00000000000E+00 -0.45593999997E+02  0.45594000000E+02  0.51100000000E-03 0. -1.
    9900012    2    1    2    0    0  0.16790219479E+02  0.67569993801E+01 -0.48073028463E+01  0.72461583594E+02  0.70000017325E+02 0.  0.
        -12    1    1    2    0    0 -0.16790219479E+02 -0.67569993801E+01  0.48073028463E+01  0.18726416406E+02  0.00000000000E+00 0.  1.
         11    1    3    3    0    0  0.98017427021E+01  0.41090078875E+01 -0.61922733344E+01  0.12300502231E+02  0.51100000000E-03 0. -1.
        -11    1    3    3    0    0  0.25850892843E+02  0.46011738676E+01  0.20442186451E+02  0.33276454873E+02  0.51100000000E-03 0.  1.
        -12    1    3    3    0    0 -0.18862416066E+02 -0.19531823750E+01 -0.19057215963E+02  0.26884626490E+02  0.00000000000E+00 0.  1.
</event>
<event>
 7    1  0.1358622E-013  0.7246157E+02  0.7816164E-02  0.1226708E+00
        -11   -1    0    0    0    0  0.00000000000E+00  0.00000000000E+00  0.45593999997E+02  0.45594000000E+02  0.51100000000E-03 0.  1.
         11   -1    0    0    0    0 -0.00000000000E+00 -0.00000000000E+00 -0.45593999997E+02  0.45594000000E+02  0.51100000000E-03 0. -1.
    9900012    2    1    2    0    0  0.54769929327E+01  0.17565660049E+02 -0.34827383327E+01  0.72461565987E+02  0.69999994389E+02 0.  0.
        -12    1    1    2    0    0 -0.54769929327E+01 -0.17565660049E+02  0.34827383327E+01  0.18726434013E+02  0.00000000000E+00 0.  1.
         11    1    3    3    0    0 -0.60336196099E+01 -0.57254537306E+01  0.30154095300E+00  0.83232393469E+01  0.51100000000E-03 0. -1.
        -11    1    3    3    0    0 -0.15651291210E+02  0.88030697746E+01  0.18769699198E+02  0.25976115226E+02  0.51100000000E-03 0.  1.
         12    1    3    3    0    0  0.27161903753E+02  0.14488044005E+02 -0.22553978484E+02  0.38162211414E+02  0.00000000000E+00 0. -1.
</event>
<event>
 7    1  0.1358622E-013  0.7246158E+02  0.7816164E-02  0.1226708E+00
        -11   -1    0    0    0    0  0.00000000000E+00  0.00000000000E+00  0.45593999997E+02  0.45594000000E+02  0.51100000000E-03 0. -1.
         11   -1    0    0    0    0 -0.00000000000E+00 -0.00000000000E+00 -0.45593999997E+02  0.45594000000E+02  0.51100000000E-03 0.  1.
    9900012    2    1    2    0    0  0.16136685450E+02 -0.71188061228E+01  0.62935492480E+01  0.72461580693E+02  0.70000013546E+02 0.  0.
        -12    1    1    2    0    0 -0.16136685450E+02  0.71188061228E+01 -0.62935492480E+01  0.18726419307E+02  0.00000000000E+00 0.  1.
         11    1    3    3    0    0 -0.17608488269E+02  0.43677409178E+00 -0.43321023214E+01  0.18138818636E+02  0.51100000000E-03 0. -1.
        -11    1    3    3    0    0 -0.13520165029E+01  0.63162635485E+01 -0.95498149808E+01  0.11529184718E+02  0.51100000000E-03 0.  1.
        -12    1    3    3    0    0  0.35097190222E+02 -0.13871843763E+02  0.20175466550E+02  0.42793577338E+02  0.00000000000E+00 0.  1.
</event>
<event>
 7    1  0.1358622E-013  0.7246163E+02  0.7816164E-02  0.1226708E+00
        -11   -1    0    0    0    0  0.00000000000E+00  0.00000000000E+00  0.45593999997E+02  0.45594000000E+02  0.51100000000E-03 0. -1.
         11   -1    0    0    0    0 -0.00000000000E+00 -0.00000000000E+00 -0.45593999997E+02  0.45594000000E+02  0.51100000000E-03 0.  1.
    9900012    2    1    2    0    0  0.12758098418E+02  0.12723108825E+02  0.51019855441E+01  0.72461632763E+02  0.70000081377E+02 0.  0.
        -12    1    1    2    0    0 -0.12758098418E+02 -0.12723108825E+02 -0.51019855441E+01  0.18726367237E+02  0.00000000000E+00 0.  1.
         11    1    3    3    0    0  0.32267244190E+02  0.94137026691E+01  0.22640716956E+02  0.40526471720E+02  0.51100000000E-03 0. -1.
        -11    1    3    3    0    0  0.27200137047E+01  0.95077734626E+00 -0.62724782556E+01  0.69026397736E+01  0.51100000000E-03 0.  1.
        -12    1    3    3    0    0 -0.22229159477E+02  0.23586288099E+01 -0.11266253156E+02  0.25032521269E+02  0.00000000000E+00 0.  1.
</event>
<event>
 7    1  0.1358622E-013  0.7246157E+02  0.7816164E-02  0.1226708E+00
        -11   -1    0    0    0    0  0.00000000000E+00  0.00000000000E+00  0.45593999997E+02  0.45594000000E+02  0.51100000000E-03 0. -1.
         11   -1    0    0    0    0 -0.00000000000E+00 -0.00000000000E+00 -0.45593999997E+02  0.45594000000E+02  0.51100000000E-03 0.  1.
    9900012    2    1    2    0    0  0.67938309482E+01  0.16135222258E+02 -0.66466153764E+01  0.72461573960E+02  0.70000004776E+02 0.  0.
        -12    1    1    2    0    0 -0.67938309482E+01 -0.16135222258E+02  0.66466153764E+01  0.18726426040E+02  0.00000000000E+00 0.  1.
         11    1    3    3    0    0  0.12692010193E+02  0.13905123186E+02 -0.51748824238E+01  0.19524829882E+02  0.51100000000E-03 0. -1.
        -11    1    3    3    0    0  0.18168530048E+02  0.14862720025E+02  0.69511667241E+01  0.24480903776E+02  0.51100000000E-03 0.  1.
        -12    1    3    3    0    0 -0.24066709293E+02 -0.12632620953E+02 -0.84228996767E+01  0.28455840302E+02  0.00000000000E+00 0.  1.
</event>
<event>
 7    1  0.1358622E-013  0.7246158E+02  0.7816164E-02  0.1226708E+00
        -11   -1    0    0    0    0  0.00000000000E+00  0.00000000000E+00  0.45593999997E+02  0.45594000000E+02  0.51100000000E-03 0.  1.
         11   -1    0    0    0    0 -0.00000000000E+00 -0.00000000000E+00 -0.45593999997E+02  0.45594000000E+02  0.51100000000E-03 0. -1.
    9900012    2    1    2    0    0  0.13734530379E+01 -0.80503802850E+01 -0.16851818671E+02  0.72461580468E+02  0.70000013253E+02 0.  0.
        -12    1    1    2    0    0 -0.13734530379E+01  0.80503802850E+01  0.16851818671E+02  0.18726419532E+02  0.00000000000E+00 0.  1.
         11    1    3    3    0    0 -0.63903245980E+01  0.73480887632E+01 -0.14298604464E+02  0.17299732565E+02  0.51100000000E-03 0. -1.
        -11    1    3    3    0    0 -0.20517081569E+02  0.31009021100E+01 -0.47835752217E+01  0.21294337796E+02  0.51100000000E-03 0.  1.
         12    1    3    3    0    0  0.28280859205E+02 -0.18499371158E+02  0.22303610152E+01  0.33867510107E+02  0.00000000000E+00 0. -1.
</event>
<event>
 7    1  0.1358622E-013  0.7246185E+02  0.7816164E-02  0.1226707E+00
        -11   -1    0    0    0    0  0.00000000000E+00  0.00000000000E+00  0.45593999997E+02  0.45594000000E+02  0.51100000000E-03 0.  1.
         11   -1    0    0    0    0 -0.00000000000E+00 -0.00000000000E+00 -0.45593999997E+02  0.45594000000E+02  0.51100000000E-03 0. -1.
    9900012    2    1    2    0    0 -0.16104955977E+02  0.53784570072E+00 -0.95399104278E+01  0.72461847806E+02  0.70000361510E+02 0.  0.
        -12    1    1    2    0    0  0.16104955977E+02 -0.53784570072E+00  0.95399104278E+01  0.18726152194E+02  0.00000000000E+00 0.  1.
         11    1    3    3    0    0 -0.23735642984E+02  0.18602677001E+01  0.46161075278E+01  0.24251799784E+02  0.51100000000E-03 0. -1.
        -11    1    3    3    0    0 -0.86691194058E+01  0.16281405923E+02  0.30375869882E+01  0.18693976170E+02  0.51100000000E-03 0.  1.
         12    1    3    3    0    0  0.16299806413E+02 -0.17603827922E+02 -0.17193604944E+02  0.29516071852E+02  0.00000000000E+00 0. -1.
</event>
<event>
 7    1  0.1358622E-013  0.7246154E+02  0.7816164E-02  0.1226708E+00
        -11   -1    0    0    0    0  0.00000000000E+00  0.00000000000E+00  0.45593999997E+02  0.45594000000E+02  0.51100000000E-03 0. -1.
         11   -1    0    0    0    0 -0.00000000000E+00 -0.00000000000E+00 -0.45593999997E+02  0.45594000000E+02  0.51100000000E-03 0.  1.
    9900012    2    1    2    0    0  0.17134167253E+01 -0.13211680316E+02  0.13160400198E+02  0.72461536719E+02  0.69999956262E+02 0.  0.
        -12    1    1    2    0    0 -0.17134167253E+01  0.13211680316E+02 -0.13160400198E+02  0.18726463281E+02  0.00000000000E+00 0.  1.
         11    1    3    3    0    0  0.12565553688E+01  0.20100121417E+01  0.66114451448E+01  0.70235523326E+01  0.51100000000E-03 0. -1.
        -11    1    3    3    0    0  0.24862438066E+02 -0.13627500635E+02 -0.15670281485E+02  0.32394556985E+02  0.51100000000E-03 0.  1.
         12    1    3    3    0    0 -0.24405576710E+02 -0.15941918219E+01  0.22219236538E+02  0.33043427402E+02  0.00000000000E+00 0. -1.
</event>
<event>
 7    1  0.1358622E-013  0.7246140E+02  0.7816164E-02  0.1226708E+00
        -11   -1    0    0    0    0  0.00000000000E+00  0.00000000000E+00  0.45593999997E+02  0.45594000000E+02  0.51100000000E-03 0.  1.
         11   -1    0    0    0    0 -0.00000000000E+00 -0.00000000000E+00 -0.45593999997E+02  0.45594000000E+02  0.51100000000E-03 0. -1.
    9900012    2    1    2    0    0 -0.72356610637E+00  0.18507721025E+02  0.27615659672E+01  0.72461400414E+02  0.69999778699E+02 0.  0.
        -12    1    1    2    0    0  0.72356610637E+00 -0.18507721025E+02 -0.27615659672E+01  0.18726599586E+02  0.00000000000E+00 0.  1.
         11    1    3    3    0    0  0.47192902975E+01  0.90439862663E+01 -0.56456453486E+01  0.11659275285E+02  0.51100000000E-03 0. -1.
        -11    1    3    3    0    0  0.24857975611E+02 -0.68768714896E+01  0.35032827809E+01  0.26028509436E+02  0.51100000000E-03 0.  1.
         12    1    3    3    0    0 -0.30300832015E+02  0.16340606248E+02  0.49039285349E+01  0.34773615694E+02  0.00000000000E+00 0. -1.
</event>
<event>
 7    1  0.1358622E-013  0.7246157E+02  0.7816164E-02  0.1226708E+00
        -11   -1    0    0    0    0  0.00000000000E+00  0.00000000000E+00  0.45593999997E+02  0.45594000000E+02  0.51100000000E-03 0.  1.
         11   -1    0    0    0    0 -0.00000000000E+00 -0.00000000000E+00 -0.45593999997E+02  0.45594000000E+02  0.51100000000E-03 0. -1.
    9900012    2    1    2    0    0 -0.36560271161E+01 -0.76623073188E+01 -0.16691367087E+02  0.72461568868E+02  0.69999998142E+02 0.  0.
        -12    1    1    2    0    0  0.36560271161E+01  0.76623073188E+01  0.16691367087E+02  0.18726431132E+02  0.00000000000E+00 0.  1.
         11    1    3    3    0    0 -0.11742602433E+01  0.85579505216E+01 -0.94074766637E+01  0.12771766585E+02  0.51100000000E-03 0. -1.
        -11    1    3    3    0    0 -0.28399899775E+00 -0.46922623975E+01 -0.31992396500E+02  0.32335915263E+02  0.51100000000E-03 0.  1.
        -12    1    3    3    0    0 -0.21977678751E+01 -0.11527995443E+02  0.24708506077E+02  0.27353887020E+02  0.00000000000E+00 0.  1.
</event>
<event>
 7    1  0.1358622E-013  0.7246156E+02  0.7816164E-02  0.1226708E+00
        -11   -1    0    0    0    0  0.00000000000E+00  0.00000000000E+00  0.45593999997E+02  0.45594000000E+02  0.51100000000E-03 0.  1.
         11   -1    0    0    0    0 -0.00000000000E+00 -0.00000000000E+00 -0.45593999997E+02  0.45594000000E+02  0.51100000000E-03 0. -1.
    9900012    2    1    2    0    0  0.93454557938E+00  0.14307611925E+02  0.12045673188E+02  0.72461564755E+02  0.69999992784E+02 0.  0.
        -12    1    1    2    0    0 -0.93454557938E+00 -0.14307611925E+02 -0.12045673188E+02  0.18726435245E+02  0.00000000000E+00 0.  1.
         11    1    3    3    0    0  0.29250494214E+02  0.57704229905E+01 -0.11220458169E+02  0.31855735355E+02  0.51100000000E-03 0. -1.
        -11    1    3    3    0    0  0.64525852677E+00  0.38945703753E+01  0.28516838374E+01  0.48699217595E+01  0.51100000000E-03 0.  1.
        -12    1    3    3    0    0 -0.28961207161E+02  0.46426185591E+01  0.20414447520E+02  0.35735907640E+02  0.00000000000E+00 0.  1.
</event>
<event>
 7    1  0.1358622E-013  0.7246156E+02  0.7816164E-02  0.1226708E+00
        -11   -1    0    0    0    0  0.00000000000E+00  0.00000000000E+00  0.45593999997E+02  0.45594000000E+02  0.51100000000E-03 0.  1.
         11   -1    0    0    0    0 -0.00000000000E+00 -0.00000000000E+00 -0.45593999997E+02  0.45594000000E+02  0.51100000000E-03 0. -1.
    9900012    2    1    2    0    0 -0.27439598879E+01  0.14075802954E+01 -0.18470759229E+02  0.72461560279E+02  0.69999986953E+02 0.  0.
        -12    1    1    2    0    0  0.27439598879E+01 -0.14075802954E+01  0.18470759229E+02  0.18726439721E+02  0.00000000000E+00 0.  1.
         11    1    3    3    0    0 -0.15521178311E+02  0.31293293179E+01  0.35904964806E+01  0.16235496401E+02  0.51100000000E-03 0. -1.
        -11    1    3    3    0    0  0.58533484376E+01 -0.22596732263E+02  0.22405408206E+01  0.23449819196E+02  0.51100000000E-03 0.  1.
         12    1    3    3    0    0  0.69238699859E+01  0.20874983240E+02 -0.24301796530E+02  0.32776244682E+02  0.00000000000E+00 0. -1.
</event>
<event>
 7    1  0.1358622E-013  0.7246158E+02  0.7816164E-02  0.1226708E+00
        -11   -1    0    0    0    0  0.00000000000E+00  0.00000000000E+00  0.45593999997E+02  0.45594000000E+02  0.51100000000E-03 0.  1.
         11   -1    0    0    0    0 -0.00000000000E+00 -0.00000000000E+00 -0.45593999997E+02  0.45594000000E+02  0.51100000000E-03 0. -1.
    9900012    2    1    2    0    0 -0.11714407204E+02 -0.14492952245E+02  0.18454807509E+01  0.72461580157E+02  0.70000012848E+02 0.  0.
        -12    1    1    2    0    0  0.11714407204E+02  0.14492952245E+02 -0.18454807509E+01  0.18726419843E+02  0.00000000000E+00 0.  1.
         11    1    3    3    0    0 -0.25581190434E+02 -0.29945094477E+02  0.68564003161E+01  0.39976445725E+02  0.51100000000E-03 0. -1.
        -11    1    3    3    0    0 -0.32078788988E+00  0.17275624847E+02 -0.56151482813E+01  0.18168104172E+02  0.51100000000E-03 0.  1.
        -12    1    3    3    0    0  0.14187571120E+02 -0.18234826157E+01  0.60422871611E+00  0.14317030260E+02  0.00000000000E+00 0.  1.
</event>
<event>
 7    1  0.1358622E-013  0.7246156E+02  0.7816164E-02  0.1226708E+00
        -11   -1    0    0    0    0  0.00000000000E+00  0.00000000000E+00  0.45593999997E+02  0.45594000000E+02  0.51100000000E-03 0.  1.
         11   -1    0    0    0    0 -0.00000000000E+00 -0.00000000000E+00 -0.45593999997E+02  0.45594000000E+02  0.51100000000E-03 0. -1.
    9900012    2    1    2    0    0 -0.13262857669E+02 -0.84987941440E+01  0.10126523907E+02  0.72461564624E+02  0.69999992613E+02 0.  0.
        -12    1    1    2    0    0  0.13262857669E+02  0.84987941440E+01 -0.10126523907E+02  0.18726435376E+02  0.00000000000E+00 0.  1.
         11    1    3    3    0    0  0.91485620491E+01  0.67930511753E+01  0.35923288870E+01  0.11947659140E+02  0.51100000000E-03 0. -1.
        -11    1    3    3    0    0  0.72802568336E+01 -0.95261012547E+01  0.23101507391E+02  0.26027454517E+02  0.51100000000E-03 0.  1.
         12    1    3    3    0    0 -0.29691676552E+02 -0.57657440646E+01 -0.16567312370E+02  0.34486450966E+02  0.00000000000E+00 0. -1.
</event>
<event>
 7    1  0.1358622E-013  0.7246186E+02  0.7816164E-02  0.1226707E+00
        -11   -1    0    0    0    0  0.00000000000E+00  0.00000000000E+00  0.45593999997E+02  0.45594000000E+02  0.51100000000E-03 0.  1.
         11   -1    0    0    0    0 -0.00000000000E+00 -0.00000000000E+00 -0.45593999997E+02  0.45594000000E+02  0.51100000000E-03 0. -1.
    9900012    2    1    2    0    0 -0.55971630340E+01 -0.44960234965E+01 -0.17295253914E+02  0.72461861336E+02  0.70000379134E+02 0.  0.
        -12    1    1    2    0    0  0.55971630340E+01  0.44960234965E+01  0.17295253914E+02  0.18726138664E+02  0.00000000000E+00 0.  1.
         11    1    3    3    0    0 -0.18780655509E+01  0.16223608620E+02 -0.12522931795E+02  0.20580486580E+02  0.51100000000E-03 0. -1.
        -11    1    3    3    0    0  0.20999198100E+02 -0.45169712023E+01 -0.59959118077E+01  0.22300679549E+02  0.51100000000E-03 0.  1.
        -12    1    3    3    0    0 -0.24718295583E+02 -0.16202660914E+02  0.12235896888E+01  0.29580695207E+02  0.00000000000E+00 0.  1.
</event>
<event>
 7    1  0.1358622E-013  0.7246151E+02  0.7816164E-02  0.1226708E+00
        -11   -1    0    0    0    0  0.00000000000E+00  0.00000000000E+00  0.45593999997E+02  0.45594000000E+02  0.51100000000E-03 0.  1.
         11   -1    0    0    0    0 -0.00000000000E+00 -0.00000000000E+00 -0.45593999997E+02  0.45594000000E+02  0.51100000000E-03 0. -1.
    9900012    2    1    2    0    0 -0.25032442231E+01  0.14634997692E+02 -0.11411932886E+02  0.72461505366E+02  0.69999915418E+02 0.  0.
        -12    1    1    2    0    0  0.25032442231E+01 -0.14634997692E+02  0.11411932886E+02  0.18726494634E+02  0.00000000000E+00 0.  1.
         11    1    3    3    0    0  0.12018009130E+01 -0.70320688173E+01 -0.10811865592E+02  0.12953407086E+02  0.51100000000E-03 0. -1.
        -11    1    3    3    0    0 -0.73360114259E+00 -0.10083004331E+02  0.19393120954E+02  0.21870031723E+02  0.51100000000E-03 0.  1.
        -12    1    3    3    0    0 -0.29714439936E+01  0.31750070841E+02 -0.19993188248E+02  0.37638066557E+02  0.00000000000E+00 0.  1.
</event>
<event>
 7    1  0.1358622E-013  0.7246159E+02  0.7816164E-02  0.1226708E+00
        -11   -1    0    0    0    0  0.00000000000E+00  0.00000000000E+00  0.45593999997E+02  0.45594000000E+02  0.51100000000E-03 0.  1.
         11   -1    0    0    0    0 -0.00000000000E+00 -0.00000000000E+00 -0.45593999997E+02  0.45594000000E+02  0.51100000000E-03 0. -1.
    9900012    2    1    2    0    0  0.14838557175E+02 -0.62204961024E+01 -0.95812907630E+01  0.72461588612E+02  0.70000023862E+02 0.  0.
        -12    1    1    2    0    0 -0.14838557175E+02  0.62204961024E+01  0.95812907630E+01  0.18726411388E+02  0.00000000000E+00 0.  1.
         11    1    3    3    0    0  0.13521363232E+01 -0.86614172941E+01 -0.12886502945E+02  0.15585582459E+02  0.51100000000E-03 0. -1.
        -11    1    3    3    0    0 -0.96994986616E+01 -0.16712743630E+02  0.15149016349E+02  0.24553793404E+02  0.51100000000E-03 0.  1.
         12    1    3    3    0    0  0.23185919514E+02  0.19153664822E+02 -0.11843804167E+02  0.32322212748E+02  0.00000000000E+00 0. -1.
</event>
<event>
 7    1  0.1358622E-013  0.7246156E+02  0.7816164E-02  0.1226708E+00
        -11   -1    0    0    0    0  0.00000000000E+00  0.00000000000E+00  0.45593999997E+02  0.45594000000E+02  0.51100000000E-03 0.  1.
         11   -1    0    0    0    0 -0.00000000000E+00 -0.00000000000E+00 -0.45593999997E+02  0.45594000000E+02  0.51100000000E-03 0. -1.
    9900012    2    1    2    0    0 -0.99587248098E+01  0.76101362275E+01 -0.13913631072E+02  0.72461561395E+02  0.69999988406E+02 0.  0.
        -12    1    1    2    0    0  0.99587248098E+01 -0.76101362275E+01  0.13913631072E+02  0.18726438605E+02  0.00000000000E+00 0.  1.
         11    1    3    3    0    0  0.18123053031E+02  0.13614200159E+02  0.85434592574E+00  0.22683064263E+02  0.51100000000E-03 0. -1.
        -11    1    3    3    0    0  0.92116094651E+01  0.18253908525E+01 -0.37438474371E+01  0.10109510107E+02  0.51100000000E-03 0.  1.
        -12    1    3    3    0    0 -0.37293387306E+02 -0.78294547842E+01 -0.11024129561E+02  0.39668987025E+02  0.00000000000E+00 0.  1.
</event>
<event>
 7    1  0.1358622E-013  0.7246155E+02  0.7816164E-02  0.1226708E+00
        -11   -1    0    0    0    0  0.00000000000E+00  0.00000000000E+00  0.45593999997E+02  0.45594000000E+02  0.51100000000E-03 0.  1.
         11   -1    0    0    0    0 -0.00000000000E+00 -0.00000000000E+00 -0.45593999997E+02  0.45594000000E+02  0.51100000000E-03 0. -1.
    9900012    2    1    2    0    0  0.32684581581E+01 -0.18351053886E+02  0.17988582906E+01  0.72461551095E+02  0.69999974989E+02 0.  0.
        -12    1    1    2    0    0 -0.32684581581E+01  0.18351053886E+02 -0.17988582906E+01  0.18726448905E+02  0.00000000000E+00 0.  1.
         11    1    3    3    0    0 -0.16703609200E+02 -0.94150960143E+00  0.22537716896E+01  0.16881246628E+02  0.51100000000E-03 0.  1.
        -11    1    3    3    0    0  0.52694741002E+01 -0.16753510926E+02 -0.22827045625E+02  0.28801414859E+02  0.51100000000E-03 0. -1.
         12    1    3    3    0    0  0.14702593258E+02 -0.65603335835E+00  0.22372132226E+02  0.26778889607E+02  0.00000000000E+00 0. -1.
</event>
<event>
 7    1  0.1358622E-013  0.7246162E+02  0.7816164E-02  0.1226708E+00
        -11   -1    0    0    0    0  0.00000000000E+00  0.00000000000E+00  0.45593999997E+02  0.45594000000E+02  0.51100000000E-03 0.  1.
         11   -1    0    0    0    0 -0.00000000000E+00 -0.00000000000E+00 -0.45593999997E+02  0.45594000000E+02  0.51100000000E-03 0. -1.
    9900012    2    1    2    0    0  0.13233211575E+02  0.36672336374E+01 -0.12732272417E+02  0.72461621492E+02  0.70000066694E+02 0.  0.
        -12    1    1    2    0    0 -0.13233211575E+02 -0.36672336374E+01  0.12732272417E+02  0.18726378508E+02  0.00000000000E+00 0.  1.
         11    1    3    3    0    0  0.23241768231E+02  0.48335567681E+01  0.47230247249E+01  0.24204338957E+02  0.51100000000E-03 0.  1.
        -11    1    3    3    0    0  0.13705851400E+02  0.82620783709E+01 -0.16101001426E+02  0.22701421735E+02  0.51100000000E-03 0. -1.
        -12    1    3    3    0    0 -0.23714408056E+02 -0.94284015016E+01 -0.13542957159E+01  0.25555860800E+02  0.00000000000E+00 0.  1.
</event>
<event>
 7    1  0.1358622E-013  0.7246168E+02  0.7816164E-02  0.1226708E+00
        -11   -1    0    0    0    0  0.00000000000E+00  0.00000000000E+00  0.45593999997E+02  0.45594000000E+02  0.51100000000E-03 0. -1.
         11   -1    0    0    0    0 -0.00000000000E+00 -0.00000000000E+00 -0.45593999997E+02  0.45594000000E+02  0.51100000000E-03 0.  1.
    9900012    2    1    2    0    0  0.67131034807E+01 -0.16515762718E+02  0.57305377653E+01  0.72461675225E+02  0.70000136691E+02 0.  0.
        -12    1    1    2    0    0 -0.67131034807E+01  0.16515762718E+02 -0.57305377653E+01  0.18726324775E+02  0.00000000000E+00 0.  1.
         11    1    3    3    0    0  0.17161341033E+02 -0.55986856823E+00 -0.30856638788E+01  0.17445526667E+02  0.51100000000E-03 0. -1.
        -11    1    3    3    0    0  0.15903866803E+02 -0.36935146361E+01 -0.11134468994E+02  0.19762374091E+02  0.51100000000E-03 0.  1.
         12    1    3    3    0    0 -0.26352104355E+02 -0.12262379514E+02  0.19950670638E+02  0.35253774467E+02  0.00000000000E+00 0. -1.
</event>
<event>
 7    1  0.1358622E-013  0.7246160E+02  0.7816164E-02  0.1226708E+00
        -11   -1    0    0    0    0  0.00000000000E+00  0.00000000000E+00  0.45593999997E+02  0.45594000000E+02  0.51100000000E-03 0. -1.
         11   -1    0    0    0    0 -0.00000000000E+00 -0.00000000000E+00 -0.45593999997E+02  0.45594000000E+02  0.51100000000E-03 0.  1.
    9900012    2    1    2    0    0 -0.67031456654E+01  0.10399002510E+01  0.17454640048E+02  0.72461601159E+02  0.70000040207E+02 0.  0.
        -12    1    1    2    0    0  0.67031456654E+01 -0.10399002510E+01 -0.17454640048E+02  0.18726398841E+02  0.00000000000E+00 0.  1.
         11    1    3    3    0    0 -0.27172220560E+02 -0.32520807621E+01  0.74916553722E+01  0.28373059403E+02  0.51100000000E-03 0. -1.
        -11    1    3    3    0    0 -0.10368426858E+02 -0.23764730250E+01  0.62061991990E+01  0.12315389084E+02  0.51100000000E-03 0.  1.
        -12    1    3    3    0    0  0.30837501752E+02  0.66684540381E+01  0.37567854770E+01  0.31773152671E+02  0.00000000000E+00 0.  1.
</event>
<event>
 7    1  0.1358622E-013  0.7246158E+02  0.7816164E-02  0.1226708E+00
        -11   -1    0    0    0    0  0.00000000000E+00  0.00000000000E+00  0.45593999997E+02  0.45594000000E+02  0.51100000000E-03 0. -1.
         11   -1    0    0    0    0 -0.00000000000E+00 -0.00000000000E+00 -0.45593999997E+02  0.45594000000E+02  0.51100000000E-03 0.  1.
    9900012    2    1    2    0    0 -0.19780870512E+01  0.78095764675E+01  0.16904925677E+02  0.72461579489E+02  0.70000011978E+02 0.  0.
        -12    1    1    2    0    0  0.19780870512E+01 -0.78095764675E+01 -0.16904925677E+02  0.18726420511E+02  0.00000000000E+00 0.  1.
         11    1    3    3    0    0 -0.21837567583E+02  0.11376943932E+02  0.97173801209E+01  0.26471525982E+02  0.51100000000E-03 0. -1.
        -11    1    3    3    0    0  0.47683845717E+01  0.15176227293E+02 -0.77208513433E+01  0.17682389884E+02  0.51100000000E-03 0.  1.
         12    1    3    3    0    0  0.15091095960E+02 -0.18743594758E+02  0.14908396900E+02  0.28307663623E+02  0.00000000000E+00 0. -1.
</event>
<event>
 7    1  0.1358622E-013  0.7246169E+02  0.7816164E-02  0.1226708E+00
        -11   -1    0    0    0    0  0.00000000000E+00  0.00000000000E+00  0.45593999997E+02  0.45594000000E+02  0.51100000000E-03 0.  1.
         11   -1    0    0    0    0 -0.00000000000E+00 -0.00000000000E+00 -0.45593999997E+02  0.45594000000E+02  0.51100000000E-03 0. -1.
    9900012    2    1    2    0    0  0.85390920931E+01  0.10115855672E+02 -0.13244925685E+02  0.72461690002E+02  0.70000155941E+02 0.  0.
        -12    1    1    2    0    0 -0.85390920931E+01 -0.10115855672E+02  0.13244925685E+02  0.18726309998E+02  0.00000000000E+00 0.  1.
         11    1    3    3    0    0  0.22880606319E+01 -0.87717902827E+01 -0.10373347460E+01  0.91244501124E+01  0.51100000000E-03 0. -1.
        -11    1    3    3    0    0  0.10462605746E+02  0.11105687640E+02  0.22685743918E+02  0.27339447587E+02  0.51100000000E-03 0.  1.
        -12    1    3    3    0    0 -0.42115742847E+01  0.77819583143E+01 -0.34893334857E+02  0.35997792302E+02  0.00000000000E+00 0.  1.
</event>
<event>
 7    1  0.1358622E-013  0.7246158E+02  0.7816164E-02  0.1226708E+00
        -11   -1    0    0    0    0  0.00000000000E+00  0.00000000000E+00  0.45593999997E+02  0.45594000000E+02  0.51100000000E-03 0.  1.
         11   -1    0    0    0    0 -0.00000000000E+00 -0.00000000000E+00 -0.45593999997E+02  0.45594000000E+02  0.51100000000E-03 0. -1.
    9900012    2    1    2    0    0  0.71740223128E+00  0.18602899375E+02 -0.20239637772E+01  0.72461575875E+02  0.70000007270E+02 0.  0.
        -12    1    1    2    0    0 -0.71740223128E+00 -0.18602899375E+02  0.20239637772E+01  0.18726424125E+02  0.00000000000E+00 0.  1.
         11    1    3    3    0    0  0.46616807253E+01 -0.32413570301E+01 -0.50633252144E-01  0.56780477780E+01  0.51100000000E-03 0. -1.
        -11    1    3    3    0    0  0.27609959855E+02 -0.11134948603E+01  0.98000374184E+00  0.27649776881E+02  0.51100000000E-03 0.  1.
         12    1    3    3    0    0 -0.31554238349E+02  0.22957751266E+02 -0.29533342669E+01  0.39133751216E+02  0.00000000000E+00 0. -1.
</event>
<event>
 7    1  0.1358622E-013  0.7246158E+02  0.7816164E-02  0.1226708E+00
        -11   -1    0    0    0    0  0.00000000000E+00  0.00000000000E+00  0.45593999997E+02  0.45594000000E+02  0.51100000000E-03 0.  1.
         11   -1    0    0    0    0 -0.00000000000E+00 -0.00000000000E+00 -0.45593999997E+02  0.45594000000E+02  0.51100000000E-03 0. -1.
    9900012    2    1    2    0    0  0.25918819233E+01  0.61638589210E+01 -0.17491935732E+02  0.72461579510E+02  0.70000012005E+02 0.  0.
        -12    1    1    2    0    0 -0.25918819233E+01 -0.61638589210E+01  0.17491935732E+02  0.18726420490E+02  0.00000000000E+00 0.  1.
         11    1    3    3    0    0 -0.13583797885E+02 -0.20257933769E+01 -0.84197087824E+00  0.13759808103E+02  0.51100000000E-03 0. -1.
        -11    1    3    3    0    0 -0.13271914107E+02 -0.31457652672E+01 -0.22786337473E+02  0.26556669950E+02  0.51100000000E-03 0.  1.
         12    1    3    3    0    0  0.29447593915E+02  0.11335417565E+02  0.61363726186E+01  0.32145101457E+02  0.00000000000E+00 0. -1.
</event>
<event>
 7    1  0.1358622E-013  0.7246155E+02  0.7816164E-02  0.1226708E+00
        -11   -1    0    0    0    0  0.00000000000E+00  0.00000000000E+00  0.45593999997E+02  0.45594000000E+02  0.51100000000E-03 0.  1.
         11   -1    0    0    0    0 -0.00000000000E+00 -0.00000000000E+00 -0.45593999997E+02  0.45594000000E+02  0.51100000000E-03 0. -1.
    9900012    2    1    2    0    0 -0.35905691176E+01 -0.17645288214E+02  0.51411574779E+01  0.72461551245E+02  0.69999975185E+02 0.  0.
        -12    1    1    2    0    0  0.35905691176E+01  0.17645288214E+02 -0.51411574779E+01  0.18726448755E+02  0.00000000000E+00 0.  1.
         11    1    3    3    0    0  0.40558104009E+01  0.19119419871E+02 -0.48435542593E+01  0.20136082845E+02  0.51100000000E-03 0. -1.
        -11    1    3    3    0    0  0.10137505294E+02 -0.20863573367E+00  0.51918353612E+01  0.11391562542E+02  0.51100000000E-03 0.  1.
         12    1    3    3    0    0 -0.17783884813E+02 -0.36556072352E+02  0.47928763760E+01  0.40933905858E+02  0.00000000000E+00 0. -1.
</event>
<event>
 7    1  0.1358622E-013  0.7246166E+02  0.7816164E-02  0.1226708E+00
        -11   -1    0    0    0    0  0.00000000000E+00  0.00000000000E+00  0.45593999997E+02  0.45594000000E+02  0.51100000000E-03 0. -1.
         11   -1    0    0    0    0 -0.00000000000E+00 -0.00000000000E+00 -0.45593999997E+02  0.45594000000E+02  0.51100000000E-03 0.  1.
    9900012    2    1    2    0    0  0.16244909523E+02  0.91136192591E+01  0.19289078085E+01  0.72461659548E+02  0.70000116269E+02 0.  0.
        -12    1    1    2    0    0 -0.16244909523E+02 -0.91136192591E+01 -0.19289078085E+01  0.18726340452E+02  0.00000000000E+00 0.  1.
         11    1    3    3    0    0  0.32176051950E+02  0.25330724057E+01  0.39288204740E+01  0.32513849441E+02  0.51100000000E-03 0. -1.
        -11    1    3    3    0    0 -0.86064688198E-02  0.19432581569E+02 -0.12159903868E+01  0.19470591501E+02  0.51100000000E-03 0.  1.
        -12    1    3    3    0    0 -0.15922535958E+02 -0.12852034716E+02 -0.78392227871E+00  0.20477218606E+02  0.00000000000E+00 0.  1.
</event>
<event>
 7    1  0.1358622E-013  0.7246164E+02  0.7816164E-02  0.1226708E+00
        -11   -1    0    0    0    0  0.00000000000E+00  0.00000000000E+00  0.45593999997E+02  0.45594000000E+02  0.51100000000E-03 0.  1.
         11   -1    0    0    0    0 -0.00000000000E+00 -0.00000000000E+00 -0.45593999997E+02  0.45594000000E+02  0.51100000000E-03 0. -1.
    9900012    2    1    2    0    0 -0.14592207459E+02 -0.59516727799E+01 -0.10115415338E+02  0.72461640107E+02  0.70000090943E+02 0.  0.
        -12    1    1    2    0    0  0.14592207459E+02  0.59516727799E+01  0.10115415338E+02  0.18726359893E+02  0.00000000000E+00 0.  1.
         11    1    3    3    0    0 -0.30589188752E+01 -0.41330566835E+01 -0.27744808040E+02  0.28217255637E+02  0.51100000000E-03 0. -1.
        -11    1    3    3    0    0  0.11064501370E+02  0.77267222956E+01 -0.86457183824E+00  0.13523051162E+02  0.51100000000E-03 0.  1.
        -12    1    3    3    0    0 -0.22597789953E+02 -0.95453383920E+01  0.18493964540E+02  0.30721333308E+02  0.00000000000E+00 0.  1.
</event>
<event>
 7    1  0.1358622E-013  0.7246158E+02  0.7816164E-02  0.1226708E+00
        -11   -1    0    0    0    0  0.00000000000E+00  0.00000000000E+00  0.45593999997E+02  0.45594000000E+02  0.51100000000E-03 0.  1.
         11   -1    0    0    0    0 -0.00000000000E+00 -0.00000000000E+00 -0.45593999997E+02  0.45594000000E+02  0.51100000000E-03 0. -1.
    9900012    2    1    2    0    0 -0.21085102224E+00  0.12085043806E+02 -0.14303354291E+02  0.72461583206E+02  0.70000016820E+02 0.  0.
        -12    1    1    2    0    0  0.21085102224E+00 -0.12085043806E+02  0.14303354291E+02  0.18726416794E+02  0.00000000000E+00 0.  1.
         11    1    3    3    0    0 -0.12538830959E+02  0.19895588700E+02  0.30496490075E+00  0.23519135515E+02  0.51100000000E-03 0. -1.
        -11    1    3    3    0    0 -0.16093850247E+02 -0.84547878773E+01 -0.72879949550E+01  0.19585972648E+02  0.51100000000E-03 0.  1.
         12    1    3    3    0    0  0.28421830184E+02  0.64424298349E+00 -0.73203242373E+01  0.29356475043E+02  0.00000000000E+00 0. -1.
</event>
<event>
 7    1  0.1358622E-013  0.7246156E+02  0.7816164E-02  0.1226708E+00
        -11   -1    0    0    0    0  0.00000000000E+00  0.00000000000E+00  0.45593999997E+02  0.45594000000E+02  0.51100000000E-03 0.  1.
         11   -1    0    0    0    0 -0.00000000000E+00 -0.00000000000E+00 -0.45593999997E+02  0.45594000000E+02  0.51100000000E-03 0. -1.
    9900012    2    1    2    0    0  0.57706587564E+01 -0.17449650148E+02 -0.35900852529E+01  0.72461561340E+02  0.69999988335E+02 0.  0.
        -12    1    1    2    0    0 -0.57706587564E+01  0.17449650148E+02  0.35900852529E+01  0.18726438660E+02  0.00000000000E+00 0.  1.
         11    1    3    3    0    0  0.37400370454E+01 -0.39195800503E+02 -0.13245856078E+02  0.41542163613E+02  0.51100000000E-03 0. -1.
        -11    1    3    3    0    0 -0.27712466636E+01  0.37267507088E+01 -0.52766701540E+01  0.70293475580E+01  0.51100000000E-03 0.  1.
        -12    1    3    3    0    0  0.48018683746E+01  0.18019399646E+02  0.14932440979E+02  0.23890050169E+02  0.00000000000E+00 0.  1.
</event>
<event>
 7    1  0.1358622E-013  0.7246157E+02  0.7816164E-02  0.1226708E+00
        -11   -1    0    0    0    0  0.00000000000E+00  0.00000000000E+00  0.45593999997E+02  0.45594000000E+02  0.51100000000E-03 0.  1.
         11   -1    0    0    0    0 -0.00000000000E+00 -0.00000000000E+00 -0.45593999997E+02  0.45594000000E+02  0.51100000000E-03 0. -1.
    9900012    2    1    2    0    0 -0.95509498465E+01 -0.14709100340E+02 -0.65651240437E+01  0.72461571363E+02  0.70000001392E+02 0.  0.
        -12    1    1    2    0    0  0.95509498465E+01  0.14709100340E+02  0.65651240437E+01  0.18726428637E+02  0.00000000000E+00 0.  1.
         11    1    3    3    0    0  0.24828288606E+02 -0.87763781183E+01 -0.10824907783E+02  0.28471869569E+02  0.51100000000E-03 0. -1.
        -11    1    3    3    0    0  0.24126738998E+01  0.26001960409E+01  0.50996013774E+01  0.62119199341E+01  0.51100000000E-03 0.  1.
         12    1    3    3    0    0 -0.36791912352E+02 -0.85329182631E+01 -0.83981763782E+00  0.37777781860E+02  0.00000000000E+00 0. -1.
</event>
<event>
 7    1  0.1358622E-013  0.7246157E+02  0.7816164E-02  0.1226708E+00
        -11   -1    0    0    0    0  0.00000000000E+00  0.00000000000E+00  0.45593999997E+02  0.45594000000E+02  0.51100000000E-03 0.  1.
         11   -1    0    0    0    0 -0.00000000000E+00 -0.00000000000E+00 -0.45593999997E+02  0.45594000000E+02  0.51100000000E-03 0. -1.
    9900012    2    1    2    0    0 -0.16865056623E+02  0.79581280390E+01  0.17080000588E+01  0.72461569455E+02  0.69999998906E+02 0.  0.
        -12    1    1    2    0    0  0.16865056623E+02 -0.79581280390E+01 -0.17080000588E+01  0.18726430545E+02  0.00000000000E+00 0.  1.
         11    1    3    3    0    0 -0.24503562702E+02  0.10183076738E+02  0.15836359932E+02  0.30901616998E+02  0.51100000000E-03 0. -1.
        -11    1    3    3    0    0 -0.83935461757E+01  0.12980879534E+02 -0.11585585299E+02  0.19317883887E+02  0.51100000000E-03 0.  1.
        -12    1    3    3    0    0  0.16032052255E+02 -0.15205828233E+02 -0.25427745744E+01  0.22242068570E+02  0.00000000000E+00 0.  1.
</event>
<event>
 7    1  0.1358622E-013  0.7246156E+02  0.7816164E-02  0.1226708E+00
        -11   -1    0    0    0    0  0.00000000000E+00  0.00000000000E+00  0.45593999997E+02  0.45594000000E+02  0.51100000000E-03 0. -1.
         11   -1    0    0    0    0 -0.00000000000E+00 -0.00000000000E+00 -0.45593999997E+02  0.45594000000E+02  0.51100000000E-03 0.  1.
    9900012    2    1    2    0    0  0.20169702550E+01 -0.17872061582E+02  0.52154417945E+01  0.72461559139E+02  0.69999985468E+02 0.  0.
        -12    1    1    2    0    0 -0.20169702550E+01  0.17872061582E+02 -0.52154417945E+01  0.18726440861E+02  0.00000000000E+00 0.  1.
         11    1    3    3    0    0 -0.36006600153E+00 -0.76800034530E+01 -0.14438366165E+02  0.16357827433E+02  0.51100000000E-03 0. -1.
        -11    1    3    3    0    0 -0.11314076318E+01 -0.28669267700E+02 -0.28687322037E+00  0.28693018144E+02  0.51100000000E-03 0.  1.
         12    1    3    3    0    0  0.35084438883E+01  0.18477209571E+02  0.19940681180E+02  0.27410713562E+02  0.00000000000E+00 0. -1.
</event>
<event>
 7    1  0.1358622E-013  0.7246157E+02  0.7816164E-02  0.1226708E+00
        -11   -1    0    0    0    0  0.00000000000E+00  0.00000000000E+00  0.45593999997E+02  0.45594000000E+02  0.51100000000E-03 0. -1.
         11   -1    0    0    0    0 -0.00000000000E+00 -0.00000000000E+00 -0.45593999997E+02  0.45594000000E+02  0.51100000000E-03 0.  1.
    9900012    2    1    2    0    0 -0.84287192048E+01  0.10337795662E+02  0.13144048456E+02  0.72461565838E+02  0.69999994195E+02 0.  0.
        -12    1    1    2    0    0  0.84287192048E+01 -0.10337795662E+02 -0.13144048456E+02  0.18726434162E+02  0.00000000000E+00 0.  1.
         11    1    3    3    0    0  0.21697012826E+02  0.88762206889E+01  0.14229851415E+02  0.27423280818E+02  0.51100000000E-03 0. -1.
        -11    1    3    3    0    0  0.37156430680E+01  0.93501978254E+01  0.15920494046E+01  0.10186600235E+02  0.51100000000E-03 0.  1.
        -12    1    3    3    0    0 -0.33841375099E+02 -0.78886228520E+01 -0.26778523633E+01  0.34851684785E+02  0.00000000000E+00 0.  1.
</event>
<event>
 7    1  0.1358622E-013  0.7246158E+02  0.7816164E-02  0.1226708E+00
        -11   -1    0    0    0    0  0.00000000000E+00  0.00000000000E+00  0.45593999997E+02  0.45594000000E+02  0.51100000000E-03 0. -1.
         11   -1    0    0    0    0 -0.00000000000E+00 -0.00000000000E+00 -0.45593999997E+02  0.45594000000E+02  0.51100000000E-03 0.  1.
    9900012    2    1    2    0    0  0.44774033507E+01 -0.11293619937E+01  0.18148177299E+02  0.72461576461E+02  0.70000008034E+02 0.  0.
        -12    1    1    2    0    0 -0.44774033507E+01  0.11293619937E+01 -0.18148177299E+02  0.18726423539E+02  0.00000000000E+00 0.  1.
         11    1    3    3    0    0 -0.20787813508E-01 -0.75179386860E+01  0.36827652824E+01  0.83715347819E+01  0.51100000000E-03 0. -1.
        -11    1    3    3    0    0  0.30246087501E+02  0.69204335745E+01 -0.54905098908E+01  0.31509743082E+02  0.51100000000E-03 0.  1.
         12    1    3    3    0    0 -0.25747896337E+02 -0.53185688227E+00  0.19955921907E+02  0.32580298597E+02  0.00000000000E+00 0. -1.
</event>
<event>
 7    1  0.1358622E-013  0.7246190E+02  0.7816164E-02  0.1226707E+00
        -11   -1    0    0    0    0  0.00000000000E+00  0.00000000000E+00  0.45593999997E+02  0.45594000000E+02  0.51100000000E-03 0. -1.
         11   -1    0    0    0    0 -0.00000000000E+00 -0.00000000000E+00 -0.45593999997E+02  0.45594000000E+02  0.51100000000E-03 0.  1.
    9900012    2    1    2    0    0  0.48433457333E+01 -0.54453389439E+00  0.18080717670E+02  0.72461898790E+02  0.70000427925E+02 0.  0.
        -12    1    1    2    0    0 -0.48433457333E+01  0.54453389439E+00 -0.18080717670E+02  0.18726101210E+02  0.00000000000E+00 0.  1.
         11    1    3    3    0    0 -0.14535142351E+02  0.15591555883E+02  0.30432971101E+02  0.37155520563E+02  0.51100000000E-03 0. -1.
        -11    1    3    3    0    0  0.33390981524E+01 -0.63562266092E+01  0.57647840469E+01  0.92078188811E+01  0.51100000000E-03 0.  1.
        -12    1    3    3    0    0  0.16039389932E+02 -0.97798631680E+01 -0.18117037477E+02  0.26098559346E+02  0.00000000000E+00 0.  1.
</event>
<event>
 7    1  0.1358622E-013  0.7246157E+02  0.7816164E-02  0.1226708E+00
        -11   -1    0    0    0    0  0.00000000000E+00  0.00000000000E+00  0.45593999997E+02  0.45594000000E+02  0.51100000000E-03 0.  1.
         11   -1    0    0    0    0 -0.00000000000E+00 -0.00000000000E+00 -0.45593999997E+02  0.45594000000E+02  0.51100000000E-03 0. -1.
    9900012    2    1    2    0    0  0.10338868079E+02 -0.10591367401E+02 -0.11472131241E+02  0.72461573438E+02  0.70000004095E+02 0.  0.
        -12    1    1    2    0    0 -0.10338868079E+02  0.10591367401E+02  0.11472131241E+02  0.18726426562E+02  0.00000000000E+00 0.  1.
         11    1    3    3    0    0  0.14753401295E+01  0.78840335854E+01  0.65975109518E+00  0.80479740210E+01  0.51100000000E-03 0. -1.
        -11    1    3    3    0    0  0.31256244189E+02 -0.11134571870E+02 -0.20963321596E+02  0.39247832349E+02  0.51100000000E-03 0.  1.
         12    1    3    3    0    0 -0.22392716239E+02 -0.73408291165E+01  0.88314392598E+01  0.25165767068E+02  0.00000000000E+00 0. -1.
</event>
<event>
 7    1  0.1358622E-013  0.7246157E+02  0.7816164E-02  0.1226708E+00
        -11   -1    0    0    0    0  0.00000000000E+00  0.00000000000E+00  0.45593999997E+02  0.45594000000E+02  0.51100000000E-03 0.  1.
         11   -1    0    0    0    0 -0.00000000000E+00 -0.00000000000E+00 -0.45593999997E+02  0.45594000000E+02  0.51100000000E-03 0. -1.
    9900012    2    1    2    0    0  0.98406667995E+01 -0.13233977796E+02 -0.88714306066E+01  0.72461570218E+02  0.69999999901E+02 0.  0.
        -12    1    1    2    0    0 -0.98406667995E+01  0.13233977796E+02  0.88714306066E+01  0.18726429782E+02  0.00000000000E+00 0.  1.
         11    1    3    3    0    0  0.11578830622E+02 -0.10155290371E+02 -0.16703388824E+02  0.22720088898E+02  0.51100000000E-03 0. -1.
        -11    1    3    3    0    0 -0.15836603569E+02 -0.73983135688E+01 -0.14682748044E+02  0.22827968518E+02  0.51100000000E-03 0.  1.
         12    1    3    3    0    0  0.14098439746E+02  0.43196261438E+01  0.22514706262E+02  0.26913512802E+02  0.00000000000E+00 0. -1.
</event>
<event>
 7    1  0.1358622E-013  0.7246173E+02  0.7816164E-02  0.1226708E+00
        -11   -1    0    0    0    0  0.00000000000E+00  0.00000000000E+00  0.45593999997E+02  0.45594000000E+02  0.51100000000E-03 0. -1.
         11   -1    0    0    0    0 -0.00000000000E+00 -0.00000000000E+00 -0.45593999997E+02  0.45594000000E+02  0.51100000000E-03 0.  1.
    9900012    2    1    2    0    0 -0.12092083201E+01 -0.34219023865E+01  0.18371214396E+02  0.72461731843E+02  0.70000210446E+02 0.  0.
        -12    1    1    2    0    0  0.12092083201E+01  0.34219023865E+01 -0.18371214396E+02  0.18726268157E+02  0.00000000000E+00 0.  1.
         11    1    3    3    0    0 -0.12966302472E+02  0.46331230928E+01 -0.65342576994E+01  0.15240976128E+02  0.51100000000E-03 0. -1.
        -11    1    3    3    0    0 -0.12954753943E+02  0.90588086514E+01 -0.31322040490E+01  0.16115159521E+02  0.51100000000E-03 0.  1.
         12    1    3    3    0    0  0.24711848095E+02 -0.17113834131E+02  0.28037676145E+02  0.41105596194E+02  0.00000000000E+00 0. -1.
</event>
<event>
 7    1  0.1358622E-013  0.7246148E+02  0.7816164E-02  0.1226708E+00
        -11   -1    0    0    0    0  0.00000000000E+00  0.00000000000E+00  0.45593999997E+02  0.45594000000E+02  0.51100000000E-03 0.  1.
         11   -1    0    0    0    0 -0.00000000000E+00 -0.00000000000E+00 -0.45593999997E+02  0.45594000000E+02  0.51100000000E-03 0. -1.
    9900012    2    1    2    0    0 -0.16385939468E+02  0.89606920731E+01 -0.13745841846E+01  0.72461481467E+02  0.69999884286E+02 0.  0.
        -12    1    1    2    0    0  0.16385939468E+02 -0.89606920731E+01  0.13745841846E+01  0.18726518533E+02  0.00000000000E+00 0.  1.
         11    1    3    3    0    0 -0.13506459269E+01 -0.15797453015E+02 -0.17543387704E+01  0.15951848512E+02  0.51100000000E-03 0. -1.
        -11    1    3    3    0    0 -0.13141779931E+02  0.39850869620E+01  0.22338980240E+02  0.26222458623E+02  0.51100000000E-03 0.  1.
         12    1    3    3    0    0 -0.18935136101E+01  0.20773058126E+02 -0.21959225654E+02  0.30287174332E+02  0.00000000000E+00 0. -1.
</event>
<event>
 7    1  0.1358622E-013  0.7246159E+02  0.7816164E-02  0.1226708E+00
        -11   -1    0    0    0    0  0.00000000000E+00  0.00000000000E+00  0.45593999997E+02  0.45594000000E+02  0.51100000000E-03 0.  1.
         11   -1    0    0    0    0 -0.00000000000E+00 -0.00000000000E+00 -0.45593999997E+02  0.45594000000E+02  0.51100000000E-03 0. -1.
    9900012    2    1    2    0    0  0.15521603517E+01 -0.10380266333E+02 -0.15508689512E+02  0.72461586000E+02  0.70000020460E+02 0.  0.
        -12    1    1    2    0    0 -0.15521603517E+01  0.10380266333E+02  0.15508689512E+02  0.18726414000E+02  0.00000000000E+00 0.  1.
         11    1    3    3    0    0 -0.10481262319E+02  0.62016864356E+01  0.14408393569E+01  0.12263514698E+02  0.51100000000E-03 0. -1.
        -11    1    3    3    0    0 -0.20041632555E+02 -0.46843991143E-01  0.64276241168E+00  0.20051991762E+02  0.51100000000E-03 0.  1.
         12    1    3    3    0    0  0.32075055225E+02 -0.16535108778E+02 -0.17592291280E+02  0.40146079541E+02  0.00000000000E+00 0. -1.
</event>
<event>
 7    1  0.1358622E-013  0.7246154E+02  0.7816164E-02  0.1226708E+00
        -11   -1    0    0    0    0  0.00000000000E+00  0.00000000000E+00  0.45593999997E+02  0.45594000000E+02  0.51100000000E-03 0. -1.
         11   -1    0    0    0    0 -0.00000000000E+00 -0.00000000000E+00 -0.45593999997E+02  0.45594000000E+02  0.51100000000E-03 0.  1.
    9900012    2    1    2    0    0 -0.18018745146E+02 -0.19803828067E+01 -0.46992787241E+01  0.72461539758E+02  0.69999960220E+02 0.  0.
        -12    1    1    2    0    0  0.18018745146E+02  0.19803828067E+01  0.46992787241E+01  0.18726460242E+02  0.00000000000E+00 0.  1.
         11    1    3    3    0    0  0.53111047831E+01  0.87798061561E+01  0.22559195531E+02  0.24783263171E+02  0.51100000000E-03 0. -1.
        -11    1    3    3    0    0 -0.37712319144E+01  0.57691138833E+01  0.34385304387E+01  0.77024903109E+01  0.51100000000E-03 0.  1.
        -12    1    3    3    0    0 -0.19558618014E+02 -0.16529302846E+02 -0.30697004694E+02  0.39975786276E+02  0.00000000000E+00 0.  1.
</event>
<event>
 7    1  0.1358622E-013  0.7246157E+02  0.7816164E-02  0.1226708E+00
        -11   -1    0    0    0    0  0.00000000000E+00  0.00000000000E+00  0.45593999997E+02  0.45594000000E+02  0.51100000000E-03 0. -1.
         11   -1    0    0    0    0 -0.00000000000E+00 -0.00000000000E+00 -0.45593999997E+02  0.45594000000E+02  0.51100000000E-03 0.  1.
    9900012    2    1    2    0    0 -0.86814716498E+01 -0.11024195220E+02  0.12400736095E+02  0.72461572525E+02  0.70000002906E+02 0.  0.
        -12    1    1    2    0    0  0.86814716498E+01  0.11024195220E+02 -0.12400736095E+02  0.18726427475E+02  0.00000000000E+00 0.  1.
         11    1    3    3    0    0 -0.39788114736E+01 -0.19716713208E+02  0.13012948061E+02  0.23956555219E+02  0.51100000000E-03 0. -1.
        -11    1    3    3    0    0 -0.17163941116E+02 -0.95083829536E+01  0.12093694439E+02  0.23049244379E+02  0.51100000000E-03 0.  1.
        -12    1    3    3    0    0  0.12461280939E+02  0.18200900941E+02 -0.12705906405E+02  0.25455772927E+02  0.00000000000E+00 0.  1.
</event>
<event>
 7    1  0.1358622E-013  0.7246157E+02  0.7816164E-02  0.1226708E+00
        -11   -1    0    0    0    0  0.00000000000E+00  0.00000000000E+00  0.45593999997E+02  0.45594000000E+02  0.51100000000E-03 0. -1.
         11   -1    0    0    0    0 -0.00000000000E+00 -0.00000000000E+00 -0.45593999997E+02  0.45594000000E+02  0.51100000000E-03 0.  1.
    9900012    2    1    2    0    0  0.27016497719E+01 -0.30440553683E+01  0.18278782105E+02  0.72461573223E+02  0.70000003816E+02 0.  0.
        -12    1    1    2    0    0 -0.27016497719E+01  0.30440553683E+01 -0.18278782105E+02  0.18726426777E+02  0.00000000000E+00 0.  1.
         11    1    3    3    0    0  0.24271018399E+01  0.62021312517E+01 -0.15668590152E+02  0.17025333272E+02  0.51100000000E-03 0. -1.
        -11    1    3    3    0    0  0.13098079309E+02  0.10703637161E+02  0.42680645959E+01  0.17445455160E+02  0.51100000000E-03 0.  1.
         12    1    3    3    0    0 -0.12823531377E+02 -0.19949823781E+02  0.29679307661E+02  0.37990784792E+02  0.00000000000E+00 0. -1.
</event>
<event>
 7    1  0.1358622E-013  0.7246153E+02  0.7816164E-02  0.1226708E+00
        -11   -1    0    0    0    0  0.00000000000E+00  0.00000000000E+00  0.45593999997E+02  0.45594000000E+02  0.51100000000E-03 0.  1.
         11   -1    0    0    0    0 -0.00000000000E+00 -0.00000000000E+00 -0.45593999997E+02  0.45594000000E+02  0.51100000000E-03 0. -1.
    9900012    2    1    2    0    0 -0.31985602427E+01  0.16360363701E+02  0.85316153557E+01  0.72461528132E+02  0.69999945075E+02 0.  0.
        -12    1    1    2    0    0  0.31985602427E+01 -0.16360363701E+02 -0.85316153557E+01  0.18726471868E+02  0.00000000000E+00 0.  1.
         11    1    3    3    0    0  0.39261919046E+01  0.33432352766E+01 -0.97283809278E+01  0.11010613095E+02  0.51100000000E-03 0. -1.
        -11    1    3    3    0    0 -0.69831197958E+01  0.31859696506E+02 -0.33404452559E+01  0.32786625296E+02  0.51100000000E-03 0.  1.
         12    1    3    3    0    0 -0.14163235147E+00 -0.18842568082E+02  0.21600441539E+02  0.28664289741E+02  0.00000000000E+00 0. -1.
</event>
<event>
 7    1  0.1358622E-013  0.7246160E+02  0.7816164E-02  0.1226708E+00
        -11   -1    0    0    0    0  0.00000000000E+00  0.00000000000E+00  0.45593999997E+02  0.45594000000E+02  0.51100000000E-03 0. -1.
         11   -1    0    0    0    0 -0.00000000000E+00 -0.00000000000E+00 -0.45593999997E+02  0.45594000000E+02  0.51100000000E-03 0.  1.
    9900012    2    1    2    0    0  0.95307056783E+01 -0.15654505781E+02  0.38445126462E+01  0.72461596729E+02  0.70000034437E+02 0.  0.
        -12    1    1    2    0    0 -0.95307056783E+01  0.15654505781E+02 -0.38445126462E+01  0.18726403271E+02  0.00000000000E+00 0.  1.
         11    1    3    3    0    0 -0.80101141269E+01 -0.57325133895E+00 -0.19314496226E+02  0.20917464238E+02  0.51100000000E-03 0. -1.
        -11    1    3    3    0    0  0.28519080203E+02 -0.70332911990E+01  0.65955663654E+01  0.30104926783E+02  0.51100000000E-03 0.  1.
         12    1    3    3    0    0 -0.10978260397E+02 -0.80479632428E+01  0.16563442507E+02  0.21439205708E+02  0.00000000000E+00 0. -1.
</event>
<event>
 7    1  0.1358622E-013  0.7246156E+02  0.7816164E-02  0.1226708E+00
        -11   -1    0    0    0    0  0.00000000000E+00  0.00000000000E+00  0.45593999997E+02  0.45594000000E+02  0.51100000000E-03 0. -1.
         11   -1    0    0    0    0 -0.00000000000E+00 -0.00000000000E+00 -0.45593999997E+02  0.45594000000E+02  0.51100000000E-03 0.  1.
    9900012    2    1    2    0    0 -0.14998448593E+02  0.63628819028E+01  0.92325413398E+01  0.72461560245E+02  0.69999986909E+02 0.  0.
        -12    1    1    2    0    0  0.14998448593E+02 -0.63628819028E+01 -0.92325413398E+01  0.18726439755E+02  0.00000000000E+00 0.  1.
         11    1    3    3    0    0 -0.10763579692E+02  0.77946281221E+01  0.13192703811E+02  0.18725872729E+02  0.51100000000E-03 0. -1.
        -11    1    3    3    0    0  0.16684196954E+02  0.17954541768E+02 -0.56932307585E+01  0.25162290731E+02  0.51100000000E-03 0.  1.
        -12    1    3    3    0    0 -0.20919065855E+02 -0.19386287987E+02  0.17330682871E+01  0.28573396786E+02  0.00000000000E+00 0.  1.
</event>
<event>
 7    1  0.1358622E-013  0.7246166E+02  0.7816164E-02  0.1226708E+00
        -11   -1    0    0    0    0  0.00000000000E+00  0.00000000000E+00  0.45593999997E+02  0.45594000000E+02  0.51100000000E-03 0.  1.
         11   -1    0    0    0    0 -0.00000000000E+00 -0.00000000000E+00 -0.45593999997E+02  0.45594000000E+02  0.51100000000E-03 0. -1.
    9900012    2    1    2    0    0 -0.74540742238E+01 -0.16693586417E+02 -0.40542413254E+01  0.72461656985E+02  0.70000112931E+02 0.  0.
        -12    1    1    2    0    0  0.74540742238E+01  0.16693586417E+02  0.40542413254E+01  0.18726343015E+02  0.00000000000E+00 0.  1.
         11    1    3    3    0    0 -0.14996189049E+02 -0.21170826136E+02  0.31519315983E-01  0.25943988880E+02  0.51100000000E-03 0. -1.
        -11    1    3    3    0    0 -0.71284471900E+01 -0.66856692233E+01 -0.19938053835E+02  0.22204479803E+02  0.51100000000E-03 0.  1.
        -12    1    3    3    0    0  0.14670562015E+02  0.11162908943E+02  0.15852293194E+02  0.24313188302E+02  0.00000000000E+00 0.  1.
</event>
<event>
 7    1  0.1358622E-013  0.7246161E+02  0.7816164E-02  0.1226708E+00
        -11   -1    0    0    0    0  0.00000000000E+00  0.00000000000E+00  0.45593999997E+02  0.45594000000E+02  0.51100000000E-03 0.  1.
         11   -1    0    0    0    0 -0.00000000000E+00 -0.00000000000E+00 -0.45593999997E+02  0.45594000000E+02  0.51100000000E-03 0. -1.
    9900012    2    1    2    0    0 -0.13893913517E+02 -0.12376452567E+02  0.21119349944E+01  0.72461610055E+02  0.70000051795E+02 0.  0.
        -12    1    1    2    0    0  0.13893913517E+02  0.12376452567E+02 -0.21119349944E+01  0.18726389945E+02  0.00000000000E+00 0.  1.
         11    1    3    3    0    0  0.22241097264E+01 -0.15951473320E+02  0.41085054976E+01  0.16621551758E+02  0.51100000000E-03 0. -1.
        -11    1    3    3    0    0  0.54552103102E+01  0.23550888838E+02  0.68685409716E+01  0.25131266182E+02  0.51100000000E-03 0.  1.
         12    1    3    3    0    0 -0.21573233554E+02 -0.19975868085E+02 -0.88651114748E+01  0.30708792115E+02  0.00000000000E+00 0. -1.
</event>
<event>
 7    1  0.1358622E-013  0.7246162E+02  0.7816164E-02  0.1226708E+00
        -11   -1    0    0    0    0  0.00000000000E+00  0.00000000000E+00  0.45593999997E+02  0.45594000000E+02  0.51100000000E-03 0. -1.
         11   -1    0    0    0    0 -0.00000000000E+00 -0.00000000000E+00 -0.45593999997E+02  0.45594000000E+02  0.51100000000E-03 0.  1.
    9900012    2    1    2    0    0 -0.10954064613E-01  0.18329718048E+02  0.38338718366E+01  0.72461621360E+02  0.70000066522E+02 0.  0.
        -12    1    1    2    0    0  0.10954064613E-01 -0.18329718048E+02 -0.38338718366E+01  0.18726378640E+02  0.00000000000E+00 0.  1.
         11    1    3    3    0    0  0.39854675493E+01  0.10945624520E+01  0.13330014258E+02  0.13956048829E+02  0.51100000000E-03 0. -1.
        -11    1    3    3    0    0  0.13120169806E+02  0.26141549888E+01  0.18343316242E+02  0.22703522041E+02  0.51100000000E-03 0.  1.
        -12    1    3    3    0    0 -0.17116591420E+02  0.14621000608E+02 -0.27839458663E+02  0.35802050490E+02  0.00000000000E+00 0.  1.
</event>
<event>
 7    1  0.1358622E-013  0.7246156E+02  0.7816164E-02  0.1226708E+00
        -11   -1    0    0    0    0  0.00000000000E+00  0.00000000000E+00  0.45593999997E+02  0.45594000000E+02  0.51100000000E-03 0. -1.
         11   -1    0    0    0    0 -0.00000000000E+00 -0.00000000000E+00 -0.45593999997E+02  0.45594000000E+02  0.51100000000E-03 0.  1.
    9900012    2    1    2    0    0 -0.16630307299E+02  0.84900879349E+01  0.14250134998E+01  0.72461564742E+02  0.69999992767E+02 0.  0.
        -12    1    1    2    0    0  0.16630307299E+02 -0.84900879349E+01 -0.14250134998E+01  0.18726435258E+02  0.00000000000E+00 0.  1.
         11    1    3    3    0    0 -0.14760162910E+02  0.12702680216E+02 -0.95751974626E+01  0.21700343327E+02  0.51100000000E-03 0. -1.
        -11    1    3    3    0    0 -0.54829044707E+01  0.14969524251E+02 -0.12466454979E+02  0.20237623322E+02  0.51100000000E-03 0.  1.
         12    1    3    3    0    0  0.36127600813E+01 -0.19182116532E+02  0.23466665942E+02  0.30523598092E+02  0.00000000000E+00 0. -1.
</event>
<event>
 7    1  0.1358622E-013  0.7246112E+02  0.7816164E-02  0.1226709E+00
        -11   -1    0    0    0    0  0.00000000000E+00  0.00000000000E+00  0.45593999997E+02  0.45594000000E+02  0.51100000000E-03 0.  1.
         11   -1    0    0    0    0 -0.00000000000E+00 -0.00000000000E+00 -0.45593999997E+02  0.45594000000E+02  0.51100000000E-03 0. -1.
    9900012    2    1    2    0    0 -0.16520535646E+02  0.73764502540E+01 -0.48328116106E+01  0.72461115997E+02  0.69999408191E+02 0.  0.
        -12    1    1    2    0    0  0.16520535646E+02 -0.73764502540E+01  0.48328116106E+01  0.18726884003E+02  0.00000000000E+00 0.  1.
         11    1    3    3    0    0 -0.15783146465E+02 -0.31855078060E+01 -0.11063615793E+01  0.16139368281E+02  0.51100000000E-03 0. -1.
        -11    1    3    3    0    0 -0.23680722067E+02 -0.95788271884E+01  0.16550564939E+00  0.25545213257E+02  0.51100000000E-03 0.  1.
        -12    1    3    3    0    0  0.22943332886E+02  0.20140785248E+02 -0.38919556807E+01  0.30776534460E+02  0.00000000000E+00 0.  1.
</event>
<event>
 7    1  0.1358622E-013  0.7246159E+02  0.7816164E-02  0.1226708E+00
        -11   -1    0    0    0    0  0.00000000000E+00  0.00000000000E+00  0.45593999997E+02  0.45594000000E+02  0.51100000000E-03 0.  1.
         11   -1    0    0    0    0 -0.00000000000E+00 -0.00000000000E+00 -0.45593999997E+02  0.45594000000E+02  0.51100000000E-03 0. -1.
    9900012    2    1    2    0    0  0.13388480221E+02  0.11689378197E+02 -0.58979281910E+01  0.72461587578E+02  0.70000022515E+02 0.  0.
        -12    1    1    2    0    0 -0.13388480221E+02 -0.11689378197E+02  0.58979281910E+01  0.18726412422E+02  0.00000000000E+00 0.  1.
         11    1    3    3    0    0 -0.12555756607E+01  0.26853391926E+02 -0.24361118053E+02  0.36278715540E+02  0.51100000000E-03 0. -1.
        -11    1    3    3    0    0  0.62509784525E-01  0.97385932515E+00  0.13931979547E+02  0.13966114844E+02  0.51100000000E-03 0.  1.
        -12    1    3    3    0    0  0.14581546097E+02 -0.16137873055E+02  0.45312103145E+01  0.22216757194E+02  0.00000000000E+00 0.  1.
</event>
<event>
 7    1  0.1358622E-013  0.7246157E+02  0.7816164E-02  0.1226708E+00
        -11   -1    0    0    0    0  0.00000000000E+00  0.00000000000E+00  0.45593999997E+02  0.45594000000E+02  0.51100000000E-03 0.  1.
         11   -1    0    0    0    0 -0.00000000000E+00 -0.00000000000E+00 -0.45593999997E+02  0.45594000000E+02  0.51100000000E-03 0. -1.
    9900012    2    1    2    0    0  0.12808358620E+02 -0.84430830016E+01 -0.10739616584E+02  0.72461573072E+02  0.70000003619E+02 0.  0.
        -12    1    1    2    0    0 -0.12808358620E+02  0.84430830016E+01  0.10739616584E+02  0.18726426928E+02  0.00000000000E+00 0.  1.
         11    1    3    3    0    0  0.66978157090E+01 -0.14706318401E+01  0.10853136829E+02  0.12837993324E+02  0.51100000000E-03 0. -1.
        -11    1    3    3    0    0  0.22202204743E+01 -0.24879883680E+02  0.67481687295E+01  0.25874229889E+02  0.51100000000E-03 0.  1.
         12    1    3    3    0    0  0.38903224364E+01  0.17907432518E+02 -0.28340922143E+02  0.33749349860E+02  0.00000000000E+00 0. -1.
</event>
<event>
 7    1  0.1358622E-013  0.7246155E+02  0.7816164E-02  0.1226708E+00
        -11   -1    0    0    0    0  0.00000000000E+00  0.00000000000E+00  0.45593999997E+02  0.45594000000E+02  0.51100000000E-03 0.  1.
         11   -1    0    0    0    0 -0.00000000000E+00 -0.00000000000E+00 -0.45593999997E+02  0.45594000000E+02  0.51100000000E-03 0. -1.
    9900012    2    1    2    0    0 -0.98005617285E+01 -0.92598465243E+01 -0.12995550168E+02  0.72461545663E+02  0.69999967913E+02 0.  0.
        -12    1    1    2    0    0  0.98005617285E+01  0.92598465243E+01  0.12995550168E+02  0.18726454337E+02  0.00000000000E+00 0.  1.
         11    1    3    3    0    0 -0.13864366673E+02  0.33752213617E+01  0.84665042137E+01  0.16592000372E+02  0.51100000000E-03 0. -1.
        -11    1    3    3    0    0 -0.19353599940E+02 -0.54870343612E+01  0.40385085245E+01  0.20517771031E+02  0.51100000000E-03 0.  1.
        -12    1    3    3    0    0  0.23417404884E+02 -0.71480335248E+01 -0.25500562907E+02  0.35351774260E+02  0.00000000000E+00 0.  1.
</event>
<event>
 7    1  0.1358622E-013  0.7246159E+02  0.7816164E-02  0.1226708E+00
        -11   -1    0    0    0    0  0.00000000000E+00  0.00000000000E+00  0.45593999997E+02  0.45594000000E+02  0.51100000000E-03 0.  1.
         11   -1    0    0    0    0 -0.00000000000E+00 -0.00000000000E+00 -0.45593999997E+02  0.45594000000E+02  0.51100000000E-03 0. -1.
    9900012    2    1    2    0    0 -0.49464331395E+01 -0.10346250568E+02 -0.14804271326E+02  0.72461586806E+02  0.70000021510E+02 0.  0.
        -12    1    1    2    0    0  0.49464331395E+01  0.10346250568E+02  0.14804271326E+02  0.18726413194E+02  0.00000000000E+00 0.  1.
         11    1    3    3    0    0 -0.10436424918E+02  0.15228425006E+02  0.48282686396E+01  0.19082349739E+02  0.51100000000E-03 0. -1.
        -11    1    3    3    0    0 -0.88996721613E+01 -0.30008181383E+02 -0.37997937169E+01  0.31529883397E+02  0.51100000000E-03 0.  1.
         12    1    3    3    0    0  0.14389663940E+02  0.44335058083E+01 -0.15832746248E+02  0.21849353670E+02  0.00000000000E+00 0. -1.
</event>
<event>
 7    1  0.1358622E-013  0.7246157E+02  0.7816164E-02  0.1226708E+00
        -11   -1    0    0    0    0  0.00000000000E+00  0.00000000000E+00  0.45593999997E+02  0.45594000000E+02  0.51100000000E-03 0. -1.
         11   -1    0    0    0    0 -0.00000000000E+00 -0.00000000000E+00 -0.45593999997E+02  0.45594000000E+02  0.51100000000E-03 0.  1.
    9900012    2    1    2    0    0  0.39901065578E+01 -0.90454930034E+01  0.15903997175E+02  0.72461574282E+02  0.70000005195E+02 0.  0.
        -12    1    1    2    0    0 -0.39901065578E+01  0.90454930034E+01 -0.15903997175E+02  0.18726425718E+02  0.00000000000E+00 0.  1.
         11    1    3    3    0    0  0.14024287060E+02 -0.79259362374E+01  0.10233836414E+02  0.19084876232E+02  0.51100000000E-03 0. -1.
        -11    1    3    3    0    0 -0.13640941005E+02  0.24048403273E+02  0.31727039872E+01  0.27829247606E+02  0.51100000000E-03 0.  1.
         12    1    3    3    0    0  0.36067605028E+01 -0.25167960039E+02  0.24974567737E+01  0.25547450444E+02  0.00000000000E+00 0. -1.
</event>
<event>
 7    1  0.1358622E-013  0.7246167E+02  0.7816164E-02  0.1226708E+00
        -11   -1    0    0    0    0  0.00000000000E+00  0.00000000000E+00  0.45593999997E+02  0.45594000000E+02  0.51100000000E-03 0. -1.
         11   -1    0    0    0    0 -0.00000000000E+00 -0.00000000000E+00 -0.45593999997E+02  0.45594000000E+02  0.51100000000E-03 0.  1.
    9900012    2    1    2    0    0  0.10672457988E+02 -0.14798303431E+02 -0.42171501722E+01  0.72461668285E+02  0.70000127650E+02 0.  0.
        -12    1    1    2    0    0 -0.10672457988E+02  0.14798303431E+02  0.42171501722E+01  0.18726331715E+02  0.00000000000E+00 0.  1.
         11    1    3    3    0    0 -0.42879570594E+01  0.17422131260E+02  0.69136156360E+01  0.19227982598E+02  0.51100000000E-03 0. -1.
        -11    1    3    3    0    0 -0.12258127653E+01  0.89834097846E+00 -0.15981286229E+02  0.16053384168E+02  0.51100000000E-03 0.  1.
        -12    1    3    3    0    0  0.16186227812E+02 -0.33118775669E+02  0.48505204211E+01  0.37180301518E+02  0.00000000000E+00 0.  1.
</event>
<event>
 7    1  0.1358622E-013  0.7246177E+02  0.7816164E-02  0.1226707E+00
        -11   -1    0    0    0    0  0.00000000000E+00  0.00000000000E+00  0.45593999997E+02  0.45594000000E+02  0.51100000000E-03 0.  1.
         11   -1    0    0    0    0 -0.00000000000E+00 -0.00000000000E+00 -0.45593999997E+02  0.45594000000E+02  0.51100000000E-03 0. -1.
    9900012    2    1    2    0    0 -0.50809719140E+01 -0.15354784080E+02 -0.94385438311E+01  0.72461767614E+02  0.70000257045E+02 0.  0.
        -12    1    1    2    0    0  0.50809719140E+01  0.15354784080E+02  0.94385438311E+01  0.18726232386E+02  0.00000000000E+00 0.  1.
         11    1    3    3    0    0 -0.16026905748E+02  0.10544044224E+01  0.71832132711E+01  0.17594659125E+02  0.51100000000E-03 0. -1.
        -11    1    3    3    0    0 -0.75742651941E+01  0.12546763635E+02 -0.14204970923E+02  0.20410094810E+02  0.51100000000E-03 0.  1.
         12    1    3    3    0    0  0.18520199028E+02 -0.28955952138E+02 -0.24167861793E+01  0.34457013680E+02  0.00000000000E+00 0. -1.
</event>
<event>
 7    1  0.1358622E-013  0.7246161E+02  0.7816164E-02  0.1226708E+00
        -11   -1    0    0    0    0  0.00000000000E+00  0.00000000000E+00  0.45593999997E+02  0.45594000000E+02  0.51100000000E-03 0.  1.
         11   -1    0    0    0    0 -0.00000000000E+00 -0.00000000000E+00 -0.45593999997E+02  0.45594000000E+02  0.51100000000E-03 0. -1.
    9900012    2    1    2    0    0 -0.19337761695E+01  0.92525976748E+00 -0.18603286056E+02  0.72461605579E+02  0.70000045965E+02 0.  0.
        -12    1    1    2    0    0  0.19337761695E+01 -0.92525976748E+00  0.18603286056E+02  0.18726394421E+02  0.00000000000E+00 0.  1.
         11    1    3    3    0    0  0.66298802169E+01 -0.23444006366E+02 -0.96007091946E+01  0.26186835690E+02  0.51100000000E-03 0. -1.
        -11    1    3    3    0    0 -0.14129618116E+02 -0.50433124984E+01 -0.61156045754E+01  0.16201287870E+02  0.51100000000E-03 0.  1.
        -12    1    3    3    0    0  0.55659617301E+01  0.29412578632E+02 -0.28869722860E+01  0.30073482019E+02  0.00000000000E+00 0.  1.
</event>
<event>
 7    1  0.1358622E-013  0.7246160E+02  0.7816164E-02  0.1226708E+00
        -11   -1    0    0    0    0  0.00000000000E+00  0.00000000000E+00  0.45593999997E+02  0.45594000000E+02  0.51100000000E-03 0.  1.
         11   -1    0    0    0    0 -0.00000000000E+00 -0.00000000000E+00 -0.45593999997E+02  0.45594000000E+02  0.51100000000E-03 0. -1.
    9900012    2    1    2    0    0 -0.10899335636E+02 -0.43971947978E+01 -0.14578998300E+02  0.72461600697E+02  0.70000039606E+02 0.  0.
        -12    1    1    2    0    0  0.10899335636E+02  0.43971947978E+01  0.14578998300E+02  0.18726399303E+02  0.00000000000E+00 0.  1.
         11    1    3    3    0    0 -0.16506259532E+02  0.36508524089E+01  0.70638283739E+01  0.18321653818E+02  0.51100000000E-03 0. -1.
        -11    1    3    3    0    0  0.88650435020E+01 -0.11337241615E+02  0.12876643801E+02  0.19311395588E+02  0.51100000000E-03 0.  1.
         12    1    3    3    0    0 -0.32581196061E+01  0.32891944082E+01 -0.34519470475E+02  0.34828551292E+02  0.00000000000E+00 0. -1.
</event>
<event>
 7    1  0.1358622E-013  0.7246159E+02  0.7816164E-02  0.1226708E+00
        -11   -1    0    0    0    0  0.00000000000E+00  0.00000000000E+00  0.45593999997E+02  0.45594000000E+02  0.51100000000E-03 0.  1.
         11   -1    0    0    0    0 -0.00000000000E+00 -0.00000000000E+00 -0.45593999997E+02  0.45594000000E+02  0.51100000000E-03 0. -1.
    9900012    2    1    2    0    0 -0.10746807956E+01  0.36572347678E+01 -0.18334344418E+02  0.72461588432E+02  0.70000023628E+02 0.  0.
        -12    1    1    2    0    0  0.10746807956E+01 -0.36572347678E+01  0.18334344418E+02  0.18726411568E+02  0.00000000000E+00 0.  1.
         11    1    3    3    0    0  0.25501233114E+02  0.16957694143E+02 -0.18950334176E+02  0.36013767460E+02  0.51100000000E-03 0. -1.
        -11    1    3    3    0    0 -0.28154284596E+01  0.39981211722E+01  0.46909375736E+01  0.67761719207E+01  0.51100000000E-03 0.  1.
        -12    1    3    3    0    0 -0.23760485450E+02 -0.17298580548E+02 -0.40749478154E+01  0.29671649052E+02  0.00000000000E+00 0.  1.
</event>
<event>
 7    1  0.1358622E-013  0.7246155E+02  0.7816164E-02  0.1226708E+00
        -11   -1    0    0    0    0  0.00000000000E+00  0.00000000000E+00  0.45593999997E+02  0.45594000000E+02  0.51100000000E-03 0.  1.
         11   -1    0    0    0    0 -0.00000000000E+00 -0.00000000000E+00 -0.45593999997E+02  0.45594000000E+02  0.51100000000E-03 0. -1.
    9900012    2    1    2    0    0  0.54500835930E+01 -0.42750299311E+01 -0.17398289020E+02  0.72461554718E+02  0.69999979709E+02 0.  0.
        -12    1    1    2    0    0 -0.54500835930E+01  0.42750299311E+01  0.17398289020E+02  0.18726445282E+02  0.00000000000E+00 0.  1.
         11    1    3    3    0    0  0.32362324086E+01  0.42954036306E+01 -0.11085025822E+02  0.12320774744E+02  0.51100000000E-03 0. -1.
        -11    1    3    3    0    0  0.18644225571E+02 -0.13346375544E+02 -0.25594036950E+02  0.34362590341E+02  0.51100000000E-03 0.  1.
        -12    1    3    3    0    0 -0.16430374386E+02  0.47759419823E+01  0.19280773752E+02  0.25778189634E+02  0.00000000000E+00 0.  1.
</event>
<event>
 7    1  0.1358622E-013  0.7246152E+02  0.7816164E-02  0.1226708E+00
        -11   -1    0    0    0    0  0.00000000000E+00  0.00000000000E+00  0.45593999997E+02  0.45594000000E+02  0.51100000000E-03 0.  1.
         11   -1    0    0    0    0 -0.00000000000E+00 -0.00000000000E+00 -0.45593999997E+02  0.45594000000E+02  0.51100000000E-03 0. -1.
    9900012    2    1    2    0    0 -0.95675639479E+01 -0.94931444478E+01 -0.13000886639E+02  0.72461518088E+02  0.69999931992E+02 0.  0.
        -12    1    1    2    0    0  0.95675639479E+01  0.94931444478E+01  0.13000886639E+02  0.18726481912E+02  0.00000000000E+00 0.  1.
         11    1    3    3    0    0  0.90682368867E+01 -0.15984670106E+02 -0.19481217210E+02  0.26781718072E+02  0.51100000000E-03 0. -1.
        -11    1    3    3    0    0 -0.76942865897E+01  0.72327564819E+01 -0.16858519423E+02  0.19892825084E+02  0.51100000000E-03 0.  1.
        -12    1    3    3    0    0 -0.10941514245E+02 -0.74123082372E+00  0.23338849994E+02  0.25786974932E+02  0.00000000000E+00 0.  1.
</event>
<event>
 7    1  0.1358622E-013  0.7246154E+02  0.7816164E-02  0.1226708E+00
        -11   -1    0    0    0    0  0.00000000000E+00  0.00000000000E+00  0.45593999997E+02  0.45594000000E+02  0.51100000000E-03 0.  1.
         11   -1    0    0    0    0 -0.00000000000E+00 -0.00000000000E+00 -0.45593999997E+02  0.45594000000E+02  0.51100000000E-03 0. -1.
    9900012    2    1    2    0    0  0.43138106935E+00 -0.26822244485E+01 -0.18528357922E+02  0.72461535707E+02  0.69999954943E+02 0.  0.
        -12    1    1    2    0    0 -0.43138106935E+00  0.26822244485E+01  0.18528357922E+02  0.18726464293E+02  0.00000000000E+00 0.  1.
         11    1    3    3    0    0 -0.55575036374E+01 -0.10486992064E+02 -0.18227886333E+02  0.21751291678E+02  0.51100000000E-03 0. -1.
        -11    1    3    3    0    0 -0.13425181346E+02 -0.60412177150E+01 -0.16323275920E+02  0.21981381728E+02  0.51100000000E-03 0.  1.
        -12    1    3    3    0    0  0.19414066053E+02  0.13845985330E+02  0.16022804331E+02  0.28728862301E+02  0.00000000000E+00 0.  1.
</event>
<event>
 7    1  0.1358622E-013  0.7246157E+02  0.7816164E-02  0.1226708E+00
        -11   -1    0    0    0    0  0.00000000000E+00  0.00000000000E+00  0.45593999997E+02  0.45594000000E+02  0.51100000000E-03 0.  1.
         11   -1    0    0    0    0 -0.00000000000E+00 -0.00000000000E+00 -0.45593999997E+02  0.45594000000E+02  0.51100000000E-03 0. -1.
    9900012    2    1    2    0    0 -0.10374393963E+02 -0.20192656855E+01 -0.15458770694E+02  0.72461572808E+02  0.70000003275E+02 0.  0.
        -12    1    1    2    0    0  0.10374393963E+02  0.20192656855E+01  0.15458770694E+02  0.18726427192E+02  0.00000000000E+00 0.  1.
         11    1    3    3    0    0 -0.39908829831E+01  0.40218158220E+01 -0.16253104134E+02  0.17212366013E+02  0.51100000000E-03 0.  1.
        -11    1    3    3    0    0 -0.15720796368E+02 -0.19900988192E+02 -0.17237009671E+02  0.30664430080E+02  0.51100000000E-03 0. -1.
         12    1    3    3    0    0  0.93372853882E+01  0.13859906685E+02  0.18031343111E+02  0.24584776715E+02  0.00000000000E+00 0. -1.
</event>
<event>
 7    1  0.1358622E-013  0.7246154E+02  0.7816164E-02  0.1226708E+00
        -11   -1    0    0    0    0  0.00000000000E+00  0.00000000000E+00  0.45593999997E+02  0.45594000000E+02  0.51100000000E-03 0.  1.
         11   -1    0    0    0    0 -0.00000000000E+00 -0.00000000000E+00 -0.45593999997E+02  0.45594000000E+02  0.51100000000E-03 0. -1.
    9900012    2    1    2    0    0 -0.18493294962E+02 -0.14864697711E+01 -0.25433645246E+01  0.72461541337E+02  0.69999962278E+02 0.  0.
        -12    1    1    2    0    0  0.18493294962E+02  0.14864697711E+01  0.25433645246E+01  0.18726458663E+02  0.00000000000E+00 0.  1.
         11    1    3    3    0    0 -0.10329570555E+02  0.11516615400E+02  0.23134944637E+01  0.15642401191E+02  0.51100000000E-03 0. -1.
        -11    1    3    3    0    0 -0.25761691397E+02  0.23111896531E+00 -0.17766476891E+02  0.31294821632E+02  0.51100000000E-03 0.  1.
        -12    1    3    3    0    0  0.17597966989E+02 -0.13234204136E+02  0.12909617902E+02  0.25524318515E+02  0.00000000000E+00 0.  1.
</event>
<event>
 7    1  0.1358622E-013  0.7246096E+02  0.7816164E-02  0.1226710E+00
        -11   -1    0    0    0    0  0.00000000000E+00  0.00000000000E+00  0.45593999997E+02  0.45594000000E+02  0.51100000000E-03 0.  1.
         11   -1    0    0    0    0 -0.00000000000E+00 -0.00000000000E+00 -0.45593999997E+02  0.45594000000E+02  0.51100000000E-03 0. -1.
    9900012    2    1    2    0    0 -0.53482030208E+01 -0.13730204050E+02 -0.11557697976E+02  0.72460956418E+02  0.69999200308E+02 0.  0.
        -12    1    1    2    0    0  0.53482030208E+01  0.13730204050E+02  0.11557697976E+02  0.18727043582E+02  0.00000000000E+00 0.  1.
         11    1    3    3    0    0 -0.17426501479E+02 -0.19029328935E+02  0.12626859881E+02  0.28726919504E+02  0.51100000000E-03 0. -1.
        -11    1    3    3    0    0  0.10779643810E+02  0.14169445676E+02  0.14606142245E+00  0.17804360298E+02  0.51100000000E-03 0.  1.
        -12    1    3    3    0    0  0.12986546487E+01 -0.88703207921E+01 -0.24330619279E+02  0.25929676615E+02  0.00000000000E+00 0.  1.
</event>
<event>
 7    1  0.1358622E-013  0.7246157E+02  0.7816164E-02  0.1226708E+00
        -11   -1    0    0    0    0  0.00000000000E+00  0.00000000000E+00  0.45593999997E+02  0.45594000000E+02  0.51100000000E-03 0.  1.
         11   -1    0    0    0    0 -0.00000000000E+00 -0.00000000000E+00 -0.45593999997E+02  0.45594000000E+02  0.51100000000E-03 0. -1.
    9900012    2    1    2    0    0 -0.86355865012E+01 -0.13405433537E+02 -0.98183596770E+01  0.72461569767E+02  0.69999999313E+02 0.  0.
        -12    1    1    2    0    0  0.86355865012E+01  0.13405433537E+02  0.98183596770E+01  0.18726430233E+02  0.00000000000E+00 0.  1.
         11    1    3    3    0    0 -0.18495338288E+02  0.13494549333E+01 -0.57262059351E+01  0.19408451810E+02  0.51100000000E-03 0. -1.
        -11    1    3    3    0    0  0.33891416157E+01  0.13914634041E+02  0.12753613865E+02  0.19177017189E+02  0.51100000000E-03 0.  1.
         12    1    3    3    0    0  0.64706101709E+01 -0.28669522511E+02 -0.16845767607E+02  0.33876100768E+02  0.00000000000E+00 0. -1.
</event>
<event>
 7    1  0.1358622E-013  0.7246154E+02  0.7816164E-02  0.1226708E+00
        -11   -1    0    0    0    0  0.00000000000E+00  0.00000000000E+00  0.45593999997E+02  0.45594000000E+02  0.51100000000E-03 0.  1.
         11   -1    0    0    0    0 -0.00000000000E+00 -0.00000000000E+00 -0.45593999997E+02  0.45594000000E+02  0.51100000000E-03 0. -1.
    9900012    2    1    2    0    0 -0.50223968176E+01 -0.75042199989E+01 -0.16405565175E+02  0.72461538608E+02  0.69999958722E+02 0.  0.
        -12    1    1    2    0    0  0.50223968176E+01  0.75042199989E+01  0.16405565175E+02  0.18726461392E+02  0.00000000000E+00 0.  1.
         11    1    3    3    0    0  0.93360691230E+01  0.14147271507E+02 -0.83871290546E+01  0.18911673956E+02  0.51100000000E-03 0. -1.
        -11    1    3    3    0    0  0.40942662512E+01 -0.31670270112E+02 -0.54644714790E+01  0.32397985646E+02  0.51100000000E-03 0.  1.
         12    1    3    3    0    0 -0.18452732192E+02  0.10018778606E+02 -0.25539646410E+01  0.21151879006E+02  0.00000000000E+00 0. -1.
</event>
<event>
 7    1  0.1358622E-013  0.7246154E+02  0.7816164E-02  0.1226708E+00
        -11   -1    0    0    0    0  0.00000000000E+00  0.00000000000E+00  0.45593999997E+02  0.45594000000E+02  0.51100000000E-03 0.  1.
         11   -1    0    0    0    0 -0.00000000000E+00 -0.00000000000E+00 -0.45593999997E+02  0.45594000000E+02  0.51100000000E-03 0. -1.
    9900012    2    1    2    0    0 -0.95699824692E+01 -0.14632918116E+02 -0.67062248646E+01  0.72461539870E+02  0.69999960367E+02 0.  0.
        -12    1    1    2    0    0  0.95699824692E+01  0.14632918116E+02  0.67062248646E+01  0.18726460130E+02  0.00000000000E+00 0.  1.
         11    1    3    3    0    0 -0.64257356765E+01  0.32614887648E+01 -0.23552804201E+02  0.24630509007E+02  0.51100000000E-03 0. -1.
        -11    1    3    3    0    0 -0.41953606070E+01  0.73571549228E+01 -0.85269016244E+01  0.12018187499E+02  0.51100000000E-03 0.  1.
         12    1    3    3    0    0  0.10511138144E+01 -0.25251561804E+02  0.25373480961E+02  0.35812843365E+02  0.00000000000E+00 0. -1.
</event>
<event>
 7    1  0.1358622E-013  0.7246157E+02  0.7816164E-02  0.1226708E+00
        -11   -1    0    0    0    0  0.00000000000E+00  0.00000000000E+00  0.45593999997E+02  0.45594000000E+02  0.51100000000E-03 0. -1.
         11   -1    0    0    0    0 -0.00000000000E+00 -0.00000000000E+00 -0.45593999997E+02  0.45594000000E+02  0.51100000000E-03 0.  1.
    9900012    2    1    2    0    0  0.54272368324E+01  0.20934753566E+01  0.17800044321E+02  0.72461571709E+02  0.70000001843E+02 0.  0.
        -12    1    1    2    0    0 -0.54272368324E+01 -0.20934753566E+01 -0.17800044321E+02  0.18726428291E+02  0.00000000000E+00 0.  1.
         11    1    3    3    0    0 -0.62483387364E+01  0.27905770584E+02  0.14451816438E+01  0.28633238013E+02  0.51100000000E-03 0. -1.
        -11    1    3    3    0    0  0.71892989429E+01  0.17138916889E+01 -0.48093144676E+01  0.88177633174E+01  0.51100000000E-03 0.  1.
         12    1    3    3    0    0  0.44862766259E+01 -0.27526186916E+02  0.21164177144E+02  0.35010570380E+02  0.00000000000E+00 0. -1.
</event>
<event>
 7    1  0.1358622E-013  0.7246158E+02  0.7816164E-02  0.1226708E+00
        -11   -1    0    0    0    0  0.00000000000E+00  0.00000000000E+00  0.45593999997E+02  0.45594000000E+02  0.51100000000E-03 0.  1.
         11   -1    0    0    0    0 -0.00000000000E+00 -0.00000000000E+00 -0.45593999997E+02  0.45594000000E+02  0.51100000000E-03 0. -1.
    9900012    2    1    2    0    0 -0.70167575846E-01 -0.89130143810E+01 -0.16469129560E+02  0.72461575427E+02  0.70000006686E+02 0.  0.
        -12    1    1    2    0    0  0.70167575846E-01  0.89130143810E+01  0.16469129560E+02  0.18726424573E+02  0.00000000000E+00 0.  1.
         11    1    3    3    0    0  0.21889750671E+02  0.13874406635E+02 -0.37217576583E+01  0.26182280730E+02  0.51100000000E-03 0. -1.
        -11    1    3    3    0    0  0.27418385775E+01  0.55399195408E+01 -0.48907959506E+01  0.78821489833E+01  0.51100000000E-03 0.  1.
         12    1    3    3    0    0 -0.24701756825E+02 -0.28327340557E+02 -0.78565759508E+01  0.38397145713E+02  0.00000000000E+00 0. -1.
</event>
<event>
 7    1  0.1358622E-013  0.7246173E+02  0.7816164E-02  0.1226708E+00
        -11   -1    0    0    0    0  0.00000000000E+00  0.00000000000E+00  0.45593999997E+02  0.45594000000E+02  0.51100000000E-03 0. -1.
         11   -1    0    0    0    0 -0.00000000000E+00 -0.00000000000E+00 -0.45593999997E+02  0.45594000000E+02  0.51100000000E-03 0.  1.
    9900012    2    1    2    0    0  0.15964980587E+02 -0.40484909687E+01  0.89107966233E+01  0.72461730197E+02  0.70000208302E+02 0.  0.
        -12    1    1    2    0    0 -0.15964980587E+02  0.40484909687E+01 -0.89107966233E+01  0.18726269803E+02  0.00000000000E+00 0.  1.
         11    1    3    3    0    0  0.29293210765E+02  0.86801409577E+00  0.68423368364E+01  0.30094238967E+02  0.51100000000E-03 0. -1.
        -11    1    3    3    0    0  0.43672441271E+01 -0.18035852756E+02 -0.50247264839E+01  0.19225313584E+02  0.51100000000E-03 0.  1.
         12    1    3    3    0    0 -0.17695474304E+02  0.13119347692E+02  0.70931862708E+01  0.23142177646E+02  0.00000000000E+00 0. -1.
</event>
<event>
 7    1  0.1358622E-013  0.7246184E+02  0.7816164E-02  0.1226707E+00
        -11   -1    0    0    0    0  0.00000000000E+00  0.00000000000E+00  0.45593999997E+02  0.45594000000E+02  0.51100000000E-03 0.  1.
         11   -1    0    0    0    0 -0.00000000000E+00 -0.00000000000E+00 -0.45593999997E+02  0.45594000000E+02  0.51100000000E-03 0. -1.
    9900012    2    1    2    0    0  0.16188243906E+01  0.56385704141E+01 -0.17783559403E+02  0.72461840390E+02  0.70000351849E+02 0.  0.
        -12    1    1    2    0    0 -0.16188243906E+01 -0.56385704141E+01  0.17783559403E+02  0.18726159610E+02  0.00000000000E+00 0.  1.
         11    1    3    3    0    0  0.57835036075E+00  0.11457435134E+02  0.22175778270E+02  0.24967427804E+02  0.51100000000E-03 0. -1.
        -11    1    3    3    0    0 -0.30155269379E+01  0.20707741506E+01  0.22953214296E+01  0.43185656209E+01  0.51100000000E-03 0.  1.
        -12    1    3    3    0    0  0.40560009677E+01 -0.78896388706E+01 -0.42254659102E+02  0.43175846965E+02  0.00000000000E+00 0.  1.
</event>
<event>
 7    1  0.1358622E-013  0.7246159E+02  0.7816164E-02  0.1226708E+00
        -11   -1    0    0    0    0  0.00000000000E+00  0.00000000000E+00  0.45593999997E+02  0.45594000000E+02  0.51100000000E-03 0.  1.
         11   -1    0    0    0    0 -0.00000000000E+00 -0.00000000000E+00 -0.45593999997E+02  0.45594000000E+02  0.51100000000E-03 0. -1.
    9900012    2    1    2    0    0 -0.81212020000E+01 -0.16392603193E+02 -0.40008944765E+01  0.72461587690E+02  0.70000022661E+02 0.  0.
        -12    1    1    2    0    0  0.81212020000E+01  0.16392603193E+02  0.40008944765E+01  0.18726412310E+02  0.00000000000E+00 0.  1.
         11    1    3    3    0    0 -0.22913873492E+02 -0.31867184794E+01 -0.17933986920E+02  0.29271635762E+02  0.51100000000E-03 0. -1.
        -11    1    3    3    0    0 -0.10506649416E+02 -0.21876164677E+01 -0.25721818281E+01  0.11035917152E+02  0.51100000000E-03 0.  1.
         12    1    3    3    0    0  0.25299320909E+02 -0.11018268246E+02  0.16505274271E+02  0.32154034776E+02  0.00000000000E+00 0. -1.
</event>
<event>
 7    1  0.1358622E-013  0.7246159E+02  0.7816164E-02  0.1226708E+00
        -11   -1    0    0    0    0  0.00000000000E+00  0.00000000000E+00  0.45593999997E+02  0.45594000000E+02  0.51100000000E-03 0. -1.
         11   -1    0    0    0    0 -0.00000000000E+00 -0.00000000000E+00 -0.45593999997E+02  0.45594000000E+02  0.51100000000E-03 0.  1.
    9900012    2    1    2    0    0 -0.33008874521E+01  0.18410477154E+02  0.91479402890E+00  0.72461591505E+02  0.70000027631E+02 0.  0.
        -12    1    1    2    0    0  0.33008874521E+01 -0.18410477154E+02 -0.91479402890E+00  0.18726408495E+02  0.00000000000E+00 0.  1.
         11    1    3    3    0    0 -0.84874413461E+01  0.16562770251E+02  0.75671493671E+00  0.18626181486E+02  0.51100000000E-03 0. -1.
        -11    1    3    3    0    0 -0.75652181204E+01  0.23925557258E+02  0.92839791804E+01  0.26755505695E+02  0.51100000000E-03 0.  1.
         12    1    3    3    0    0  0.12751772014E+02 -0.22077850355E+02 -0.91259000882E+01  0.27079904325E+02  0.00000000000E+00 0. -1.
</event>
<event>
 7    1  0.1358622E-013  0.7246163E+02  0.7816164E-02  0.1226708E+00
        -11   -1    0    0    0    0  0.00000000000E+00  0.00000000000E+00  0.45593999997E+02  0.45594000000E+02  0.51100000000E-03 0.  1.
         11   -1    0    0    0    0 -0.00000000000E+00 -0.00000000000E+00 -0.45593999997E+02  0.45594000000E+02  0.51100000000E-03 0. -1.
    9900012    2    1    2    0    0  0.53035792467E+01  0.16053518057E+02  0.80519173645E+01  0.72461634413E+02  0.70000083527E+02 0.  0.
        -12    1    1    2    0    0 -0.53035792467E+01 -0.16053518057E+02 -0.80519173645E+01  0.18726365587E+02  0.00000000000E+00 0.  1.
         11    1    3    3    0    0  0.16335716947E+02 -0.29004580215E+01  0.16342467440E+02  0.23288292062E+02  0.51100000000E-03 0. -1.
        -11    1    3    3    0    0 -0.19390545072E+02 -0.73957974709E+01 -0.22250362644E+01  0.20872035001E+02  0.51100000000E-03 0.  1.
        -12    1    3    3    0    0  0.83584073725E+01  0.26349773550E+02 -0.60655138110E+01  0.28301307350E+02  0.00000000000E+00 0.  1.
</event>
<event>
 7    1  0.1358622E-013  0.7246155E+02  0.7816164E-02  0.1226708E+00
        -11   -1    0    0    0    0  0.00000000000E+00  0.00000000000E+00  0.45593999997E+02  0.45594000000E+02  0.51100000000E-03 0. -1.
         11   -1    0    0    0    0 -0.00000000000E+00 -0.00000000000E+00 -0.45593999997E+02  0.45594000000E+02  0.51100000000E-03 0.  1.
    9900012    2    1    2    0    0  0.16456806468E+02 -0.48550886835E+01  0.75020966038E+01  0.72461552961E+02  0.69999977421E+02 0.  0.
        -12    1    1    2    0    0 -0.16456806468E+02  0.48550886835E+01 -0.75020966038E+01  0.18726447039E+02  0.00000000000E+00 0.  1.
         11    1    3    3    0    0 -0.12375980281E+02 -0.12199665349E+02 -0.16569473827E+01  0.17456866771E+02  0.51100000000E-03 0. -1.
        -11    1    3    3    0    0  0.35119801647E+01  0.12934692542E+02 -0.14611415263E+02  0.19827600260E+02  0.51100000000E-03 0.  1.
         12    1    3    3    0    0  0.25320806584E+02 -0.55901158764E+01  0.23770459250E+02  0.35177085930E+02  0.00000000000E+00 0. -1.
</event>
<event>
 7    1  0.1358622E-013  0.7246153E+02  0.7816164E-02  0.1226708E+00
        -11   -1    0    0    0    0  0.00000000000E+00  0.00000000000E+00  0.45593999997E+02  0.45594000000E+02  0.51100000000E-03 0.  1.
         11   -1    0    0    0    0 -0.00000000000E+00 -0.00000000000E+00 -0.45593999997E+02  0.45594000000E+02  0.51100000000E-03 0. -1.
    9900012    2    1    2    0    0  0.15486084915E+02 -0.50120338351E+01 -0.92596672929E+01  0.72461528161E+02  0.69999945113E+02 0.  0.
        -12    1    1    2    0    0 -0.15486084915E+02  0.50120338351E+01  0.92596672929E+01  0.18726471839E+02  0.00000000000E+00 0.  1.
         11    1    3    3    0    0 -0.13335539629E+01  0.80533665931E+01  0.79976655959E+00  0.82021159749E+01  0.51100000000E-03 0. -1.
        -11    1    3    3    0    0 -0.30857815874E+01  0.21694811921E+02  0.30236030025E+01  0.22120784066E+02  0.51100000000E-03 0.  1.
         12    1    3    3    0    0  0.19905420465E+02 -0.34760212350E+02 -0.13083036855E+02  0.42138628120E+02  0.00000000000E+00 0. -1.
</event>
<event>
 7    1  0.1358622E-013  0.7246152E+02  0.7816164E-02  0.1226708E+00
        -11   -1    0    0    0    0  0.00000000000E+00  0.00000000000E+00  0.45593999997E+02  0.45594000000E+02  0.51100000000E-03 0.  1.
         11   -1    0    0    0    0 -0.00000000000E+00 -0.00000000000E+00 -0.45593999997E+02  0.45594000000E+02  0.51100000000E-03 0. -1.
    9900012    2    1    2    0    0 -0.12771047450E+02  0.37571118109E+01 -0.13170632622E+02  0.72461518596E+02  0.69999932653E+02 0.  0.
        -12    1    1    2    0    0  0.12771047450E+02 -0.37571118109E+01  0.13170632622E+02  0.18726481404E+02  0.00000000000E+00 0.  1.
         11    1    3    3    0    0  0.46652872241E+01  0.55343072750E+01 -0.25914501070E+02  0.26906408677E+02  0.51100000000E-03 0. -1.
        -11    1    3    3    0    0  0.58610314282E+01 -0.23205955355E+01 -0.10751297715E+02  0.12463035580E+02  0.51100000000E-03 0.  1.
        -12    1    3    3    0    0 -0.23297366103E+02  0.54340007138E+00  0.23495166164E+02  0.33092074339E+02  0.00000000000E+00 0.  1.
</event>
<event>
 7    1  0.1358622E-013  0.7246159E+02  0.7816164E-02  0.1226708E+00
        -11   -1    0    0    0    0  0.00000000000E+00  0.00000000000E+00  0.45593999997E+02  0.45594000000E+02  0.51100000000E-03 0.  1.
         11   -1    0    0    0    0 -0.00000000000E+00 -0.00000000000E+00 -0.45593999997E+02  0.45594000000E+02  0.51100000000E-03 0. -1.
    9900012    2    1    2    0    0 -0.52233710847E+00  0.17318992971E+02 -0.71033917715E+01  0.72461587417E+02  0.70000022305E+02 0.  0.
        -12    1    1    2    0    0  0.52233710847E+00 -0.17318992971E+02  0.71033917715E+01  0.18726412583E+02  0.00000000000E+00 0.  1.
         11    1    3    3    0    0 -0.71316691397E+00  0.32478126483E+01  0.46214200172E+01  0.56933660766E+01  0.51100000000E-03 0. -1.
        -11    1    3    3    0    0 -0.21620588889E+02  0.29663354698E+02 -0.15206551999E+02  0.39731646075E+02  0.51100000000E-03 0.  1.
         12    1    3    3    0    0  0.21811418694E+02 -0.15592174376E+02  0.34817402102E+01  0.27036575266E+02  0.00000000000E+00 0. -1.
</event>
<event>
 7    1  0.1358622E-013  0.7246157E+02  0.7816164E-02  0.1226708E+00
        -11   -1    0    0    0    0  0.00000000000E+00  0.00000000000E+00  0.45593999997E+02  0.45594000000E+02  0.51100000000E-03 0.  1.
         11   -1    0    0    0    0 -0.00000000000E+00 -0.00000000000E+00 -0.45593999997E+02  0.45594000000E+02  0.51100000000E-03 0. -1.
    9900012    2    1    2    0    0 -0.15886089407E+02  0.71093094531E+01  0.69115196975E+01  0.72461568891E+02  0.69999998172E+02 0.  0.
        -12    1    1    2    0    0  0.15886089407E+02 -0.71093094531E+01 -0.69115196975E+01  0.18726431109E+02  0.00000000000E+00 0.  1.
         11    1    3    3    0    0  0.86148335943E+01 -0.16650612777E+02  0.19037313779E+02  0.26718487604E+02  0.51100000000E-03 0. -1.
        -11    1    3    3    0    0  0.20005551436E+01  0.27706621181E+01  0.63545234665E+01  0.72151755490E+01  0.51100000000E-03 0.  1.
         12    1    3    3    0    0 -0.26501478145E+02  0.20989260112E+02 -0.18480317548E+02  0.38527905738E+02  0.00000000000E+00 0. -1.
</event>
<event>
 7    1  0.1358622E-013  0.7246154E+02  0.7816164E-02  0.1226708E+00
        -11   -1    0    0    0    0  0.00000000000E+00  0.00000000000E+00  0.45593999997E+02  0.45594000000E+02  0.51100000000E-03 0.  1.
         11   -1    0    0    0    0 -0.00000000000E+00 -0.00000000000E+00 -0.45593999997E+02  0.45594000000E+02  0.51100000000E-03 0. -1.
    9900012    2    1    2    0    0 -0.16417442851E+02  0.89863343483E+01  0.62729698667E+00  0.72461544481E+02  0.69999966373E+02 0.  0.
        -12    1    1    2    0    0  0.16417442851E+02 -0.89863343483E+01 -0.62729698667E+00  0.18726455519E+02  0.00000000000E+00 0.  1.
         11    1    3    3    0    0 -0.14193045917E+02  0.77985049594E+01  0.64365417130E+01  0.17426654914E+02  0.51100000000E-03 0. -1.
        -11    1    3    3    0    0 -0.14418221183E+02 -0.10204357746E+02  0.18480957973E+02  0.25564816192E+02  0.51100000000E-03 0.  1.
         12    1    3    3    0    0  0.12193824249E+02  0.11392187135E+02 -0.24290202699E+02  0.29470073374E+02  0.00000000000E+00 0. -1.
</event>
<event>
 7    1  0.1358622E-013  0.7246158E+02  0.7816164E-02  0.1226708E+00
        -11   -1    0    0    0    0  0.00000000000E+00  0.00000000000E+00  0.45593999997E+02  0.45594000000E+02  0.51100000000E-03 0.  1.
         11   -1    0    0    0    0 -0.00000000000E+00 -0.00000000000E+00 -0.45593999997E+02  0.45594000000E+02  0.51100000000E-03 0. -1.
    9900012    2    1    2    0    0 -0.15346604873E+02 -0.10546344106E+02 -0.19837417671E+01  0.72461577850E+02  0.70000009843E+02 0.  0.
        -12    1    1    2    0    0  0.15346604873E+02  0.10546344106E+02  0.19837417671E+01  0.18726422150E+02  0.00000000000E+00 0.  1.
         11    1    3    3    0    0 -0.17509366493E+02 -0.16110406617E+02 -0.17871938185E+02  0.29757844194E+02  0.51100000000E-03 0. -1.
        -11    1    3    3    0    0 -0.10142245714E+02 -0.10735197917E+02 -0.27877875396E+01  0.15029350687E+02  0.51100000000E-03 0.  1.
        -12    1    3    3    0    0  0.12305007334E+02  0.16299260427E+02  0.18675983957E+02  0.27674382969E+02  0.00000000000E+00 0.  1.
</event>
<event>
 7    1  0.1358622E-013  0.7246151E+02  0.7816164E-02  0.1226708E+00
        -11   -1    0    0    0    0  0.00000000000E+00  0.00000000000E+00  0.45593999997E+02  0.45594000000E+02  0.51100000000E-03 0. -1.
         11   -1    0    0    0    0 -0.00000000000E+00 -0.00000000000E+00 -0.45593999997E+02  0.45594000000E+02  0.51100000000E-03 0.  1.
    9900012    2    1    2    0    0 -0.52740418252E+01 -0.59290945550E+01  0.16962067109E+02  0.72461510739E+02  0.69999922418E+02 0.  0.
        -12    1    1    2    0    0  0.52740418252E+01  0.59290945550E+01 -0.16962067109E+02  0.18726489261E+02  0.00000000000E+00 0.  1.
         11    1    3    3    0    0 -0.14730951499E+02  0.19455455991E+02  0.27327691069E+01  0.24555726973E+02  0.51100000000E-03 0. -1.
        -11    1    3    3    0    0  0.11067274422E+02  0.64729013832E+01 -0.36756208719E+00  0.12826461616E+02  0.51100000000E-03 0.  1.
         12    1    3    3    0    0 -0.16103647474E+01 -0.31857451929E+02  0.14596860090E+02  0.35079322150E+02  0.00000000000E+00 0. -1.
</event>
<event>
 7    1  0.1760073E-013  0.7246158E+02  0.7816164E-02  0.1226708E+00
        -11   -1    0    0    0    0  0.00000000000E+00  0.00000000000E+00  0.45593999997E+02  0.45594000000E+02  0.51100000000E-03 0. -1.
         11   -1    0    0    0    0 -0.00000000000E+00 -0.00000000000E+00 -0.45593999997E+02  0.45594000000E+02  0.51100000000E-03 0.  1.
    9900012    2    1    2    0    0  0.81599511138E+01  0.91317527683E+01  0.14167048217E+02  0.72461575729E+02  0.70000007080E+02 0.  0.
        -12    1    1    2    0    0 -0.81599511138E+01 -0.91317527683E+01 -0.14167048217E+02  0.18726424271E+02  0.00000000000E+00 0.  1.
         11    1    3    3    0    0  0.26293673260E+02  0.23669153735E+02  0.19310092522E+02  0.40304661833E+02  0.51100000000E-03 0. -1.
        -11    1    3    3    0    0 -0.18507271946E+00  0.47261066659E+01 -0.32918679908E+01  0.57625282003E+01  0.51100000000E-03 0.  1.
        -12    1    3    3    0    0 -0.17948649426E+02 -0.19263507632E+02 -0.18511763140E+01  0.26394385696E+02  0.00000000000E+00 0.  1.
</event>
<event>
 7    1  0.1358622E-013  0.7246157E+02  0.7816164E-02  0.1226708E+00
        -11   -1    0    0    0    0  0.00000000000E+00  0.00000000000E+00  0.45593999997E+02  0.45594000000E+02  0.51100000000E-03 0. -1.
         11   -1    0    0    0    0 -0.00000000000E+00 -0.00000000000E+00 -0.45593999997E+02  0.45594000000E+02  0.51100000000E-03 0.  1.
    9900012    2    1    2    0    0 -0.45474128851E+01 -0.18122885557E+02  0.12495177426E+01  0.72461568427E+02  0.69999997568E+02 0.  0.
        -12    1    1    2    0    0  0.45474128851E+01  0.18122885557E+02 -0.12495177426E+01  0.18726431573E+02  0.00000000000E+00 0.  1.
         11    1    3    3    0    0 -0.20617996211E+02 -0.18611465762E+02 -0.12103839919E+02  0.30298372343E+02  0.51100000000E-03 0. -1.
        -11    1    3    3    0    0 -0.71756879330E+01 -0.90593401297E+01 -0.32959257207E+01  0.12017706417E+02  0.51100000000E-03 0.  1.
        -12    1    3    3    0    0  0.23246271259E+02  0.95479203346E+01  0.16649283383E+02  0.30145489668E+02  0.00000000000E+00 0.  1.
</event>
<event>
 7    1  0.1358622E-013  0.7246153E+02  0.7816164E-02  0.1226708E+00
        -11   -1    0    0    0    0  0.00000000000E+00  0.00000000000E+00  0.45593999997E+02  0.45594000000E+02  0.51100000000E-03 0.  1.
         11   -1    0    0    0    0 -0.00000000000E+00 -0.00000000000E+00 -0.45593999997E+02  0.45594000000E+02  0.51100000000E-03 0. -1.
    9900012    2    1    2    0    0  0.93963033441E+01 -0.42742744576E+01 -0.15624361186E+02  0.72461532070E+02  0.69999950205E+02 0.  0.
        -12    1    1    2    0    0 -0.93963033441E+01  0.42742744576E+01  0.15624361186E+02  0.18726467930E+02  0.00000000000E+00 0.  1.
         11    1    3    3    0    0  0.69459138224E+01  0.25506625307E+02 -0.19967961617E+02  0.33129339636E+02  0.51100000000E-03 0. -1.
        -11    1    3    3    0    0 -0.22990969332E+01  0.40714805780E+01 -0.86082654392E+00  0.47543478423E+01  0.51100000000E-03 0.  1.
        -12    1    3    3    0    0  0.47494864550E+01 -0.33852380342E+02  0.52044269744E+01  0.34577844591E+02  0.00000000000E+00 0.  1.
</event>
<event>
 7    1  0.1358622E-013  0.7246157E+02  0.7816164E-02  0.1226708E+00
        -11   -1    0    0    0    0  0.00000000000E+00  0.00000000000E+00  0.45593999997E+02  0.45594000000E+02  0.51100000000E-03 0.  1.
         11   -1    0    0    0    0 -0.00000000000E+00 -0.00000000000E+00 -0.45593999997E+02  0.45594000000E+02  0.51100000000E-03 0. -1.
    9900012    2    1    2    0    0  0.77362045659E+01 -0.16406526547E+02 -0.46536133792E+01  0.72461572367E+02  0.70000002700E+02 0.  0.
        -12    1    1    2    0    0 -0.77362045659E+01  0.16406526547E+02  0.46536133792E+01  0.18726427633E+02  0.00000000000E+00 0.  1.
         11    1    3    3    0    0  0.66379426403E+01  0.78932997335E+01  0.23281027233E+01  0.10572914723E+02  0.51100000000E-03 0. -1.
        -11    1    3    3    0    0  0.10142894719E+02  0.13582107406E+02  0.96878566595E+01  0.19524510795E+02  0.51100000000E-03 0.  1.
         12    1    3    3    0    0 -0.90446327933E+01 -0.37881933686E+02 -0.16669572762E+02  0.42364146849E+02  0.00000000000E+00 0. -1.
</event>
<event>
 7    1  0.1358622E-013  0.7246159E+02  0.7816164E-02  0.1226708E+00
        -11   -1    0    0    0    0  0.00000000000E+00  0.00000000000E+00  0.45593999997E+02  0.45594000000E+02  0.51100000000E-03 0. -1.
         11   -1    0    0    0    0 -0.00000000000E+00 -0.00000000000E+00 -0.45593999997E+02  0.45594000000E+02  0.51100000000E-03 0.  1.
    9900012    2    1    2    0    0  0.15633848965E+01  0.78849036034E+01  0.16913386829E+02  0.72461587338E+02  0.70000022203E+02 0.  0.
        -12    1    1    2    0    0 -0.15633848965E+01 -0.78849036034E+01 -0.16913386829E+02  0.18726412662E+02  0.00000000000E+00 0.  1.
         11    1    3    3    0    0 -0.73313341859E+01  0.11447020823E+02 -0.31987050233E+01  0.13964757812E+02  0.51100000000E-03 0. -1.
        -11    1    3    3    0    0 -0.14427187414E+02  0.17639627690E+02  0.41360770696E+01  0.23160469241E+02  0.51100000000E-03 0.  1.
         12    1    3    3    0    0  0.23321906496E+02 -0.21201744910E+02  0.15976014782E+02  0.35336360284E+02  0.00000000000E+00 0. -1.
</event>
<event>
 7    1  0.1358622E-013  0.7246154E+02  0.7816164E-02  0.1226708E+00
        -11   -1    0    0    0    0  0.00000000000E+00  0.00000000000E+00  0.45593999997E+02  0.45594000000E+02  0.51100000000E-03 0. -1.
         11   -1    0    0    0    0 -0.00000000000E+00 -0.00000000000E+00 -0.45593999997E+02  0.45594000000E+02  0.51100000000E-03 0.  1.
    9900012    2    1    2    0    0 -0.73294043413E+01  0.16103378554E+02  0.61352463468E+01  0.72461542337E+02  0.69999963581E+02 0.  0.
        -12    1    1    2    0    0  0.73294043413E+01 -0.16103378554E+02 -0.61352463468E+01  0.18726457663E+02  0.00000000000E+00 0.  1.
         11    1    3    3    0    0 -0.99520040863E-01  0.29914917478E+02  0.14404656205E+02  0.33202504613E+02  0.51100000000E-03 0. -1.
        -11    1    3    3    0    0 -0.24110022545E+01  0.82853383888E+01  0.77064329816E+01  0.11569307397E+02  0.51100000000E-03 0.  1.
        -12    1    3    3    0    0 -0.48188820460E+01 -0.22096877313E+02 -0.15975842840E+02  0.27689730327E+02  0.00000000000E+00 0.  1.
</event>
<event>
 7    1  0.1358622E-013  0.7246128E+02  0.7816164E-02  0.1226709E+00
        -11   -1    0    0    0    0  0.00000000000E+00  0.00000000000E+00  0.45593999997E+02  0.45594000000E+02  0.51100000000E-03 0.  1.
         11   -1    0    0    0    0 -0.00000000000E+00 -0.00000000000E+00 -0.45593999997E+02  0.45594000000E+02  0.51100000000E-03 0. -1.
    9900012    2    1    2    0    0 -0.29612853836E+01 -0.24736272162E+01 -0.18324905548E+02  0.72461275618E+02  0.69999616129E+02 0.  0.
        -12    1    1    2    0    0  0.29612853836E+01  0.24736272162E+01  0.18324905548E+02  0.18726724382E+02  0.00000000000E+00 0.  1.
         11    1    3    3    0    0  0.63397979062E+00  0.68941713008E+01 -0.28905546313E+02  0.29723090960E+02  0.51100000000E-03 0. -1.
        -11    1    3    3    0    0 -0.69344096302E+01  0.13888556354E+02 -0.26895667251E+01  0.15754739095E+02  0.51100000000E-03 0.  1.
        -12    1    3    3    0    0  0.33391444559E+01 -0.23256354872E+02  0.13270207490E+02  0.26983445563E+02  0.00000000000E+00 0.  1.
</event>
<event>
 7    1  0.1358622E-013  0.7246157E+02  0.7816164E-02  0.1226708E+00
        -11   -1    0    0    0    0  0.00000000000E+00  0.00000000000E+00  0.45593999997E+02  0.45594000000E+02  0.51100000000E-03 0. -1.
         11   -1    0    0    0    0 -0.00000000000E+00 -0.00000000000E+00 -0.45593999997E+02  0.45594000000E+02  0.51100000000E-03 0.  1.
    9900012    2    1    2    0    0  0.12385854995E+01 -0.16770530867E+02  0.82398034387E+01  0.72461570540E+02  0.70000000320E+02 0.  0.
        -12    1    1    2    0    0 -0.12385854995E+01  0.16770530867E+02 -0.82398034387E+01  0.18726429460E+02  0.00000000000E+00 0.  1.
         11    1    3    3    0    0 -0.20782327598E+01 -0.51866724275E+01 -0.17053078985E+02  0.17945142111E+02  0.51100000000E-03 0. -1.
        -11    1    3    3    0    0 -0.48879476997E+01 -0.25207965155E+02  0.12735055277E+01  0.25709052035E+02  0.51100000000E-03 0.  1.
         12    1    3    3    0    0  0.82047659590E+01  0.13624106715E+02  0.24019376896E+02  0.28807376394E+02  0.00000000000E+00 0. -1.
</event>
<event>
 7    1  0.1358622E-013  0.7246155E+02  0.7816164E-02  0.1226708E+00
        -11   -1    0    0    0    0  0.00000000000E+00  0.00000000000E+00  0.45593999997E+02  0.45594000000E+02  0.51100000000E-03 0.  1.
         11   -1    0    0    0    0 -0.00000000000E+00 -0.00000000000E+00 -0.45593999997E+02  0.45594000000E+02  0.51100000000E-03 0. -1.
    9900012    2    1    2    0    0  0.17104112990E+02 -0.60159073921E+01  0.46838182472E+01  0.72461548754E+02  0.69999971939E+02 0.  0.
        -12    1    1    2    0    0 -0.17104112990E+02  0.60159073921E+01 -0.46838182472E+01  0.18726451246E+02  0.00000000000E+00 0.  1.
         11    1    3    3    0    0 -0.58153478468E+01  0.85093680265E+01  0.79923325093E+01  0.13042430525E+02  0.51100000000E-03 0. -1.
        -11    1    3    3    0    0  0.23870971854E+02 -0.18065209769E+02  0.19884386822E+02  0.35938335254E+02  0.51100000000E-03 0.  1.
         12    1    3    3    0    0 -0.95151101739E+00  0.35399343500E+01 -0.23192901085E+02  0.23480782975E+02  0.00000000000E+00 0. -1.
</event>
<event>
 7    1  0.1358622E-013  0.7246151E+02  0.7816164E-02  0.1226708E+00
        -11   -1    0    0    0    0  0.00000000000E+00  0.00000000000E+00  0.45593999997E+02  0.45594000000E+02  0.51100000000E-03 0.  1.
         11   -1    0    0    0    0 -0.00000000000E+00 -0.00000000000E+00 -0.45593999997E+02  0.45594000000E+02  0.51100000000E-03 0. -1.
    9900012    2    1    2    0    0 -0.10354142461E+02 -0.11670546793E+02 -0.10357193247E+02  0.72461511261E+02  0.69999923097E+02 0.  0.
        -12    1    1    2    0    0  0.10354142461E+02  0.11670546793E+02  0.10357193247E+02  0.18726488739E+02  0.00000000000E+00 0.  1.
         11    1    3    3    0    0  0.41872296322E+01 -0.31196560501E+01 -0.39321407263E+01  0.65365799021E+01  0.51100000000E-03 0. -1.
        -11    1    3    3    0    0 -0.74836273782E+01  0.25600839561E+02 -0.14168956741E+02  0.30202102582E+02  0.51100000000E-03 0.  1.
         12    1    3    3    0    0 -0.70577447151E+01 -0.34151730304E+02  0.77439042210E+01  0.35722828777E+02  0.00000000000E+00 0. -1.
</event>
<event>
 7    1  0.1358622E-013  0.7246162E+02  0.7816164E-02  0.1226708E+00
        -11   -1    0    0    0    0  0.00000000000E+00  0.00000000000E+00  0.45593999997E+02  0.45594000000E+02  0.51100000000E-03 0.  1.
         11   -1    0    0    0    0 -0.00000000000E+00 -0.00000000000E+00 -0.45593999997E+02  0.45594000000E+02  0.51100000000E-03 0. -1.
    9900012    2    1    2    0    0  0.14485476015E+02 -0.79290994318E+01  0.88305041649E+01  0.72461616554E+02  0.70000060261E+02 0.  0.
        -12    1    1    2    0    0 -0.14485476015E+02  0.79290994318E+01 -0.88305041649E+01  0.18726383446E+02  0.00000000000E+00 0.  1.
         11    1    3    3    0    0  0.24539070023E+02  0.46640572586E+01  0.67885947672E+01  0.25884443338E+02  0.51100000000E-03 0. -1.
        -11    1    3    3    0    0 -0.63906703823E+01  0.16240533274E+02  0.13254062340E+01  0.17502922353E+02  0.51100000000E-03 0.  1.
        -12    1    3    3    0    0 -0.36629236262E+01 -0.28833689964E+02  0.71650316368E+00  0.29074250863E+02  0.00000000000E+00 0.  1.
</event>
<event>
 7    1  0.1358622E-013  0.7246156E+02  0.7816164E-02  0.1226708E+00
        -11   -1    0    0    0    0  0.00000000000E+00  0.00000000000E+00  0.45593999997E+02  0.45594000000E+02  0.51100000000E-03 0.  1.
         11   -1    0    0    0    0 -0.00000000000E+00 -0.00000000000E+00 -0.45593999997E+02  0.45594000000E+02  0.51100000000E-03 0. -1.
    9900012    2    1    2    0    0  0.14115590479E+02 -0.11682665362E+02 -0.38658976751E+01  0.72461555347E+02  0.69999980528E+02 0.  0.
        -12    1    1    2    0    0 -0.14115590479E+02  0.11682665362E+02  0.38658976751E+01  0.18726444653E+02  0.00000000000E+00 0.  1.
         11    1    3    3    0    0  0.28462358108E+02 -0.50946715649E-01 -0.26605717820E+02  0.38961168433E+02  0.51100000000E-03 0. -1.
        -11    1    3    3    0    0  0.42712452703E-01  0.12166021516E+01 -0.18697443895E+01  0.22311184397E+01  0.51100000000E-03 0.  1.
        -12    1    3    3    0    0 -0.14389480082E+02 -0.12848320797E+02  0.24609564535E+02  0.31269268475E+02  0.00000000000E+00 0.  1.
</event>
<event>
 7    1  0.1358622E-013  0.7246159E+02  0.7816164E-02  0.1226708E+00
        -11   -1    0    0    0    0  0.00000000000E+00  0.00000000000E+00  0.45593999997E+02  0.45594000000E+02  0.51100000000E-03 0. -1.
         11   -1    0    0    0    0 -0.00000000000E+00 -0.00000000000E+00 -0.45593999997E+02  0.45594000000E+02  0.51100000000E-03 0.  1.
    9900012    2    1    2    0    0 -0.13560483454E+02  0.12168544752E+02  0.43264479770E+01  0.72461592310E+02  0.70000028679E+02 0.  0.
        -12    1    1    2    0    0  0.13560483454E+02 -0.12168544752E+02 -0.43264479770E+01  0.18726407690E+02  0.00000000000E+00 0.  1.
         11    1    3    3    0    0  0.19754085582E+02 -0.17121453460E+01  0.33441247877E+01  0.20108170223E+02  0.51100000000E-03 0. -1.
        -11    1    3    3    0    0 -0.50300877929E+01 -0.69522107903E+01 -0.12129112077E+02  0.14857670683E+02  0.51100000000E-03 0.  1.
         12    1    3    3    0    0 -0.28284481243E+02  0.20832900888E+02  0.13111435267E+02  0.37495751404E+02  0.00000000000E+00 0. -1.
</event>
<event>
 7    1  0.1358622E-013  0.7246155E+02  0.7816164E-02  0.1226708E+00
        -11   -1    0    0    0    0  0.00000000000E+00  0.00000000000E+00  0.45593999997E+02  0.45594000000E+02  0.51100000000E-03 0.  1.
         11   -1    0    0    0    0 -0.00000000000E+00 -0.00000000000E+00 -0.45593999997E+02  0.45594000000E+02  0.51100000000E-03 0. -1.
    9900012    2    1    2    0    0  0.75149610005E+01  0.27100320453E+01 -0.16936972432E+02  0.72461549517E+02  0.69999972934E+02 0.  0.
        -12    1    1    2    0    0 -0.75149610005E+01 -0.27100320453E+01  0.16936972432E+02  0.18726450483E+02  0.00000000000E+00 0.  1.
         11    1    3    3    0    0  0.27144294664E+02  0.20611515044E+02 -0.17975910628E+02  0.38532851548E+02  0.51100000000E-03 0. -1.
        -11    1    3    3    0    0 -0.52349274773E+01 -0.10507773879E+02 -0.90816055947E+01  0.14842282103E+02  0.51100000000E-03 0.  1.
        -12    1    3    3    0    0 -0.14394406186E+02 -0.73937091201E+01  0.10120543791E+02  0.19086415866E+02  0.00000000000E+00 0.  1.
</event>
<event>
 7    1  0.1358622E-013  0.7246157E+02  0.7816164E-02  0.1226708E+00
        -11   -1    0    0    0    0  0.00000000000E+00  0.00000000000E+00  0.45593999997E+02  0.45594000000E+02  0.51100000000E-03 0.  1.
         11   -1    0    0    0    0 -0.00000000000E+00 -0.00000000000E+00 -0.45593999997E+02  0.45594000000E+02  0.51100000000E-03 0. -1.
    9900012    2    1    2    0    0 -0.13366869109E+02  0.18781921189E+01  0.12979918183E+02  0.72461572913E+02  0.70000003411E+02 0.  0.
        -12    1    1    2    0    0  0.13366869109E+02 -0.18781921189E+01 -0.12979918183E+02  0.18726427087E+02  0.00000000000E+00 0.  1.
         11    1    3    3    0    0 -0.84795161788E+00  0.56552954449E+00  0.67983082940E+01  0.68742884383E+01  0.51100000000E-03 0. -1.
        -11    1    3    3    0    0 -0.29220434975E+02  0.21324138007E+02  0.13342658960E+02  0.38556182776E+02  0.51100000000E-03 0.  1.
         12    1    3    3    0    0  0.16701517484E+02 -0.20011475432E+02 -0.71610490712E+01  0.27031101699E+02  0.00000000000E+00 0. -1.
</event>
<event>
 7    1  0.1358622E-013  0.7246155E+02  0.7816164E-02  0.1226708E+00
        -11   -1    0    0    0    0  0.00000000000E+00  0.00000000000E+00  0.45593999997E+02  0.45594000000E+02  0.51100000000E-03 0.  1.
         11   -1    0    0    0    0 -0.00000000000E+00 -0.00000000000E+00 -0.45593999997E+02  0.45594000000E+02  0.51100000000E-03 0. -1.
    9900012    2    1    2    0    0 -0.84189616381E+01 -0.16711533308E+02 -0.72515048545E+00  0.72461545349E+02  0.69999967504E+02 0.  0.
        -12    1    1    2    0    0  0.84189616381E+01  0.16711533308E+02  0.72515048545E+00  0.18726454651E+02  0.00000000000E+00 0.  1.
         11    1    3    3    0    0 -0.53666913868E+01  0.63964263048E+01 -0.12752969619E+00  0.83505634539E+01  0.51100000000E-03 0. -1.
        -11    1    3    3    0    0 -0.11789944694E+02 -0.41435208947E+02 -0.48965094258E+01  0.43357296286E+02  0.51100000000E-03 0.  1.
         12    1    3    3    0    0  0.87376744431E+01  0.18327249335E+02  0.42988886366E+01  0.20753685609E+02  0.00000000000E+00 0. -1.
</event>
<event>
 7    1  0.1358622E-013  0.7246149E+02  0.7816164E-02  0.1226708E+00
        -11   -1    0    0    0    0  0.00000000000E+00  0.00000000000E+00  0.45593999997E+02  0.45594000000E+02  0.51100000000E-03 0.  1.
         11   -1    0    0    0    0 -0.00000000000E+00 -0.00000000000E+00 -0.45593999997E+02  0.45594000000E+02  0.51100000000E-03 0. -1.
    9900012    2    1    2    0    0  0.97896044146E+00 -0.17926433936E+02  0.53260622098E+01  0.72461485752E+02  0.69999889868E+02 0.  0.
        -12    1    1    2    0    0 -0.97896044146E+00  0.17926433936E+02 -0.53260622098E+01  0.18726514248E+02  0.00000000000E+00 0.  1.
         11    1    3    3    0    0 -0.23700017964E+02 -0.93910123316E+01 -0.78825471350E+01  0.26683637565E+02  0.51100000000E-03 0. -1.
        -11    1    3    3    0    0 -0.84124788811E+01 -0.64436225097E+01  0.20507975328E+01  0.10793323990E+02  0.51100000000E-03 0.  1.
        -12    1    3    3    0    0  0.33091457287E+02 -0.20917990949E+01  0.11157811812E+02  0.34984524197E+02  0.00000000000E+00 0.  1.
</event>
<event>
 7    1  0.1358622E-013  0.7246163E+02  0.7816164E-02  0.1226708E+00
        -11   -1    0    0    0    0  0.00000000000E+00  0.00000000000E+00  0.45593999997E+02  0.45594000000E+02  0.51100000000E-03 0.  1.
         11   -1    0    0    0    0 -0.00000000000E+00 -0.00000000000E+00 -0.45593999997E+02  0.45594000000E+02  0.51100000000E-03 0. -1.
    9900012    2    1    2    0    0 -0.11641612588E+02  0.94826833750E+00 -0.14637305271E+02  0.72461626563E+02  0.70000073301E+02 0.  0.
        -12    1    1    2    0    0  0.11641612588E+02 -0.94826833750E+00  0.14637305271E+02  0.18726373437E+02  0.00000000000E+00 0.  1.
         11    1    3    3    0    0  0.23866166221E+01  0.51744468927E+01 -0.11669343328E+02  0.12986316395E+02  0.51100000000E-03 0. -1.
        -11    1    3    3    0    0  0.20312662170E+02 -0.12632970214E+02 -0.30960364500E+01  0.24120149726E+02  0.51100000000E-03 0.  1.
         12    1    3    3    0    0 -0.34340891380E+02  0.84067916587E+01  0.12807450653E+00  0.35355160442E+02  0.00000000000E+00 0. -1.
</event>
<event>
 7    1  0.1358622E-013  0.7246148E+02  0.7816164E-02  0.1226708E+00
        -11   -1    0    0    0    0  0.00000000000E+00  0.00000000000E+00  0.45593999997E+02  0.45594000000E+02  0.51100000000E-03 0.  1.
         11   -1    0    0    0    0 -0.00000000000E+00 -0.00000000000E+00 -0.45593999997E+02  0.45594000000E+02  0.51100000000E-03 0. -1.
    9900012    2    1    2    0    0 -0.33772433218E+01  0.16402759431E+02 -0.83801028674E+01  0.72461483681E+02  0.69999887169E+02 0.  0.
        -12    1    1    2    0    0  0.33772433218E+01 -0.16402759431E+02  0.83801028674E+01  0.18726516319E+02  0.00000000000E+00 0.  1.
         11    1    3    3    0    0  0.96840398011E+01  0.44827247905E+01 -0.14588367989E+02  0.18074731789E+02  0.51100000000E-03 0. -1.
        -11    1    3    3    0    0  0.22529323273E+01  0.89709155073E+01 -0.21044311424E+02  0.22987302423E+02  0.51100000000E-03 0.  1.
        -12    1    3    3    0    0 -0.15314215450E+02  0.29491191329E+01  0.27252576546E+02  0.31399449468E+02  0.00000000000E+00 0.  1.
</event>
<event>
 7    1  0.1358622E-013  0.7246150E+02  0.7816164E-02  0.1226708E+00
        -11   -1    0    0    0    0  0.00000000000E+00  0.00000000000E+00  0.45593999997E+02  0.45594000000E+02  0.51100000000E-03 0.  1.
         11   -1    0    0    0    0 -0.00000000000E+00 -0.00000000000E+00 -0.45593999997E+02  0.45594000000E+02  0.51100000000E-03 0. -1.
    9900012    2    1    2    0    0 -0.79915303324E+01  0.55381166640E+01 -0.16004575023E+02  0.72461502332E+02  0.69999911466E+02 0.  0.
        -12    1    1    2    0    0  0.79915303324E+01 -0.55381166640E+01  0.16004575023E+02  0.18726497668E+02  0.00000000000E+00 0.  1.
         11    1    3    3    0    0  0.78436797991E+01 -0.89794839165E+01 -0.28055109169E+02  0.30483497092E+02  0.51100000000E-03 0. -1.
        -11    1    3    3    0    0 -0.14676348419E+02 -0.85252180872E+01  0.32293811638E+01  0.17277252365E+02  0.51100000000E-03 0.  1.
        -12    1    3    3    0    0 -0.11588617129E+01  0.23042818668E+02  0.88211529824E+01  0.24700752874E+02  0.00000000000E+00 0.  1.
</event>
<event>
 7    1  0.1358622E-013  0.7246157E+02  0.7816164E-02  0.1226708E+00
        -11   -1    0    0    0    0  0.00000000000E+00  0.00000000000E+00  0.45593999997E+02  0.45594000000E+02  0.51100000000E-03 0.  1.
         11   -1    0    0    0    0 -0.00000000000E+00 -0.00000000000E+00 -0.45593999997E+02  0.45594000000E+02  0.51100000000E-03 0. -1.
    9900012    2    1    2    0    0  0.15336256288E+02 -0.76580429784E+01 -0.75387591296E+01  0.72461567654E+02  0.69999996560E+02 0.  0.
        -12    1    1    2    0    0 -0.15336256288E+02  0.76580429784E+01  0.75387591296E+01  0.18726432346E+02  0.00000000000E+00 0.  1.
         11    1    3    3    0    0  0.62447592487E+01 -0.43846662048E+01 -0.22032196231E+01  0.79420710631E+01  0.51100000000E-03 0. -1.
        -11    1    3    3    0    0 -0.88113743615E+01 -0.28001987050E+02  0.91220126276E+01  0.30740245795E+02  0.51100000000E-03 0.  1.
         12    1    3    3    0    0  0.17902871401E+02  0.24728610277E+02 -0.14457552134E+02  0.33779250796E+02  0.00000000000E+00 0. -1.
</event>
<event>
 7    1  0.1358622E-013  0.7246154E+02  0.7816164E-02  0.1226708E+00
        -11   -1    0    0    0    0  0.00000000000E+00  0.00000000000E+00  0.45593999997E+02  0.45594000000E+02  0.51100000000E-03 0.  1.
         11   -1    0    0    0    0 -0.00000000000E+00 -0.00000000000E+00 -0.45593999997E+02  0.45594000000E+02  0.51100000000E-03 0. -1.
    9900012    2    1    2    0    0 -0.12204616807E+02 -0.13756014991E+02 -0.35354763114E+01  0.72461542445E+02  0.69999963720E+02 0.  0.
        -12    1    1    2    0    0  0.12204616807E+02  0.13756014991E+02  0.35354763114E+01  0.18726457555E+02  0.00000000000E+00 0.  1.
         11    1    3    3    0    0 -0.27333754316E+01 -0.23010029727E+02 -0.30052998234E+02  0.37948853901E+02  0.51100000000E-03 0. -1.
        -11    1    3    3    0    0 -0.22264665634E+01  0.88576961417E+01  0.25667727246E+01  0.94870573297E+01  0.51100000000E-03 0.  1.
        -12    1    3    3    0    0 -0.72447748119E+01  0.39631859457E+00  0.23950749198E+02  0.25025631214E+02  0.00000000000E+00 0.  1.
</event>
<event>
 7    1  0.1358622E-013  0.7246159E+02  0.7816164E-02  0.1226708E+00
        -11   -1    0    0    0    0  0.00000000000E+00  0.00000000000E+00  0.45593999997E+02  0.45594000000E+02  0.51100000000E-03 0. -1.
         11   -1    0    0    0    0 -0.00000000000E+00 -0.00000000000E+00 -0.45593999997E+02  0.45594000000E+02  0.51100000000E-03 0.  1.
    9900012    2    1    2    0    0  0.15318536937E+02 -0.10735156408E+02 -0.88169900143E+00  0.72461586832E+02  0.70000021543E+02 0.  0.
        -12    1    1    2    0    0 -0.15318536937E+02  0.10735156408E+02  0.88169900143E+00  0.18726413168E+02  0.00000000000E+00 0.  1.
         11    1    3    3    0    0 -0.61656010518E+01 -0.32544322072E+02  0.11196286450E+02  0.34964329909E+02  0.51100000000E-03 0. -1.
        -11    1    3    3    0    0 -0.16288660935E+01  0.59223366183E+00  0.23860239097E+01  0.29490771132E+01  0.51100000000E-03 0.  1.
        -12    1    3    3    0    0  0.23113004083E+02  0.21216932002E+02 -0.14464009361E+02  0.34548179809E+02  0.00000000000E+00 0.  1.
</event>
<event>
 7    1  0.1358622E-013  0.7246155E+02  0.7816164E-02  0.1226708E+00
        -11   -1    0    0    0    0  0.00000000000E+00  0.00000000000E+00  0.45593999997E+02  0.45594000000E+02  0.51100000000E-03 0.  1.
         11   -1    0    0    0    0 -0.00000000000E+00 -0.00000000000E+00 -0.45593999997E+02  0.45594000000E+02  0.51100000000E-03 0. -1.
    9900012    2    1    2    0    0 -0.68121066579E+01 -0.68283846606E+01 -0.16051421644E+02  0.72461554235E+02  0.69999979080E+02 0.  0.
        -12    1    1    2    0    0  0.68121066579E+01  0.68283846606E+01  0.16051421644E+02  0.18726445765E+02  0.00000000000E+00 0.  1.
         11    1    3    3    0    0 -0.10865705169E+02  0.14760351099E+02 -0.82049381381E+01  0.20081148461E+02  0.51100000000E-03 0. -1.
        -11    1    3    3    0    0  0.49258870442E+01  0.14661564986E+02 -0.35199872110E+01  0.15862413475E+02  0.51100000000E-03 0.  1.
         12    1    3    3    0    0 -0.87228853327E+00 -0.36250300746E+02 -0.43264962945E+01  0.36517992300E+02  0.00000000000E+00 0. -1.
</event>
<event>
 7    1  0.1358622E-013  0.7246166E+02  0.7816164E-02  0.1226708E+00
        -11   -1    0    0    0    0  0.00000000000E+00  0.00000000000E+00  0.45593999997E+02  0.45594000000E+02  0.51100000000E-03 0.  1.
         11   -1    0    0    0    0 -0.00000000000E+00 -0.00000000000E+00 -0.45593999997E+02  0.45594000000E+02  0.51100000000E-03 0. -1.
    9900012    2    1    2    0    0  0.17397573848E+02  0.48342299361E+01  0.49629146944E+01  0.72461658202E+02  0.70000114516E+02 0.  0.
        -12    1    1    2    0    0 -0.17397573848E+02 -0.48342299361E+01 -0.49629146944E+01  0.18726341798E+02  0.00000000000E+00 0.  1.
         11    1    3    3    0    0  0.25548413593E+02 -0.24174480467E+01 -0.14267880217E+01  0.25702163654E+02  0.51100000000E-03 0. -1.
        -11    1    3    3    0    0  0.88582108855E+01 -0.12440423410E+02  0.12838484630E+02  0.19951409037E+02  0.51100000000E-03 0.  1.
         12    1    3    3    0    0 -0.17009050630E+02  0.19692101393E+02 -0.64487819140E+01  0.26808085511E+02  0.00000000000E+00 0. -1.
</event>
<event>
 7    1  0.1358622E-013  0.7246158E+02  0.7816164E-02  0.1226708E+00
        -11   -1    0    0    0    0  0.00000000000E+00  0.00000000000E+00  0.45593999997E+02  0.45594000000E+02  0.51100000000E-03 0.  1.
         11   -1    0    0    0    0 -0.00000000000E+00 -0.00000000000E+00 -0.45593999997E+02  0.45594000000E+02  0.51100000000E-03 0. -1.
    9900012    2    1    2    0    0  0.18381436505E+02  0.32909609387E+01 -0.14039828575E+01  0.72461580167E+02  0.70000012862E+02 0.  0.
        -12    1    1    2    0    0 -0.18381436505E+02 -0.32909609387E+01  0.14039828575E+01  0.18726419833E+02  0.00000000000E+00 0.  1.
         11    1    3    3    0    0  0.99421063602E+01 -0.19120643028E+02  0.77757791738E+01  0.22910853556E+02  0.51100000000E-03 0. -1.
        -11    1    3    3    0    0 -0.46700739933E+01 -0.36038621607E+01 -0.18137639466E+02  0.19072791596E+02  0.51100000000E-03 0.  1.
        -12    1    3    3    0    0  0.13109404138E+02  0.26015466127E+02  0.89578774351E+01  0.30477935015E+02  0.00000000000E+00 0.  1.
</event>
<event>
 7    1  0.1358622E-013  0.7246161E+02  0.7816164E-02  0.1226708E+00
        -11   -1    0    0    0    0  0.00000000000E+00  0.00000000000E+00  0.45593999997E+02  0.45594000000E+02  0.51100000000E-03 0.  1.
         11   -1    0    0    0    0 -0.00000000000E+00 -0.00000000000E+00 -0.45593999997E+02  0.45594000000E+02  0.51100000000E-03 0. -1.
    9900012    2    1    2    0    0  0.26030337165E+01  0.53500936877E+01 -0.17756076093E+02  0.72461614197E+02  0.70000057192E+02 0.  0.
        -12    1    1    2    0    0 -0.26030337165E+01 -0.53500936877E+01  0.17756076093E+02  0.18726385803E+02  0.00000000000E+00 0.  1.
         11    1    3    3    0    0  0.16436819567E+02 -0.58217393916E+01 -0.34163134144E+02  0.38355982869E+02  0.51100000000E-03 0. -1.
        -11    1    3    3    0    0 -0.11592323038E+02  0.46399136329E+01 -0.35551386797E+01  0.12982671652E+02  0.51100000000E-03 0.  1.
        -12    1    3    3    0    0 -0.22414628123E+01  0.65319194464E+01  0.19962196730E+02  0.21122959676E+02  0.00000000000E+00 0.  1.
</event>
<event>
 7    1  0.1358622E-013  0.7246153E+02  0.7816164E-02  0.1226708E+00
        -11   -1    0    0    0    0  0.00000000000E+00  0.00000000000E+00  0.45593999997E+02  0.45594000000E+02  0.51100000000E-03 0.  1.
         11   -1    0    0    0    0 -0.00000000000E+00 -0.00000000000E+00 -0.45593999997E+02  0.45594000000E+02  0.51100000000E-03 0. -1.
    9900012    2    1    2    0    0  0.13663345103E+02  0.11585459466E+02 -0.54562627131E+01  0.72461530145E+02  0.69999947698E+02 0.  0.
        -12    1    1    2    0    0 -0.13663345103E+02 -0.11585459466E+02  0.54562627131E+01  0.18726469855E+02  0.00000000000E+00 0.  1.
         11    1    3    3    0    0  0.87220603301E+01  0.86618163963E+01  0.34914298431E+01  0.12778555564E+02  0.51100000000E-03 0. -1.
        -11    1    3    3    0    0  0.71160626545E+01  0.16391922763E+01  0.24793935494E+02  0.25846944434E+02  0.51100000000E-03 0.  1.
         12    1    3    3    0    0 -0.21747778821E+01  0.12844507933E+01 -0.33741628050E+02  0.33836030148E+02  0.00000000000E+00 0. -1.
</event>
<event>
 7    1  0.1358622E-013  0.7246160E+02  0.7816164E-02  0.1226708E+00
        -11   -1    0    0    0    0  0.00000000000E+00  0.00000000000E+00  0.45593999997E+02  0.45594000000E+02  0.51100000000E-03 0. -1.
         11   -1    0    0    0    0 -0.00000000000E+00 -0.00000000000E+00 -0.45593999997E+02  0.45594000000E+02  0.51100000000E-03 0.  1.
    9900012    2    1    2    0    0 -0.76147198081E+01  0.16138851524E+02 -0.56772986751E+01  0.72461596007E+02  0.70000033496E+02 0.  0.
        -12    1    1    2    0    0  0.76147198081E+01 -0.16138851524E+02  0.56772986751E+01  0.18726403993E+02  0.00000000000E+00 0.  1.
         11    1    3    3    0    0 -0.23104523321E+02 -0.13473355659E+01 -0.19423560594E+02  0.30214384280E+02  0.51100000000E-03 0. -1.
        -11    1    3    3    0    0  0.51068381580E+01  0.13505661461E+02 -0.89398216645E+01  0.16982435018E+02  0.51100000000E-03 0.  1.
         12    1    3    3    0    0  0.10382965355E+02  0.39805256280E+01  0.22686083583E+02  0.25264776709E+02  0.00000000000E+00 0. -1.
</event>
<event>
 7    1  0.1358622E-013  0.7246159E+02  0.7816164E-02  0.1226708E+00
        -11   -1    0    0    0    0  0.00000000000E+00  0.00000000000E+00  0.45593999997E+02  0.45594000000E+02  0.51100000000E-03 0.  1.
         11   -1    0    0    0    0 -0.00000000000E+00 -0.00000000000E+00 -0.45593999997E+02  0.45594000000E+02  0.51100000000E-03 0. -1.
    9900012    2    1    2    0    0 -0.11169684006E+02 -0.14461276791E+02 -0.40973100161E+01  0.72461593068E+02  0.70000029666E+02 0.  0.
        -12    1    1    2    0    0  0.11169684006E+02  0.14461276791E+02  0.40973100161E+01  0.18726406932E+02  0.00000000000E+00 0.  1.
         11    1    3    3    0    0 -0.12576523792E+02 -0.28612919102E+02 -0.24956596526E+02  0.39996247332E+02  0.51100000000E-03 0. -1.
        -11    1    3    3    0    0  0.27985606267E+00 -0.34944009189E+01  0.12358472175E+02  0.12846049664E+02  0.51100000000E-03 0.  1.
        -12    1    3    3    0    0  0.11269837231E+01  0.17646043230E+02  0.85008143350E+01  0.19619296071E+02  0.00000000000E+00 0.  1.
</event>
<event>
 7    1  0.1358622E-013  0.7246158E+02  0.7816164E-02  0.1226708E+00
        -11   -1    0    0    0    0  0.00000000000E+00  0.00000000000E+00  0.45593999997E+02  0.45594000000E+02  0.51100000000E-03 0. -1.
         11   -1    0    0    0    0 -0.00000000000E+00 -0.00000000000E+00 -0.45593999997E+02  0.45594000000E+02  0.51100000000E-03 0.  1.
    9900012    2    1    2    0    0  0.10473049261E+02 -0.31512043319E+01  0.15200784158E+02  0.72461583135E+02  0.70000016728E+02 0.  0.
        -12    1    1    2    0    0 -0.10473049261E+02  0.31512043319E+01 -0.15200784158E+02  0.18726416865E+02  0.00000000000E+00 0.  1.
         11    1    3    3    0    0  0.25802564380E+01  0.13544810131E+02 -0.13101377975E+02  0.19020139586E+02  0.51100000000E-03 0. -1.
        -11    1    3    3    0    0 -0.11423822958E+02 -0.34038519691E+00 -0.42618114120E+01  0.12197648537E+02  0.51100000000E-03 0.  1.
         12    1    3    3    0    0  0.19316615781E+02 -0.16355629266E+02  0.32563973546E+02  0.41243795012E+02  0.00000000000E+00 0. -1.
</event>
<event>
 7    1  0.1358622E-013  0.7246181E+02  0.7816164E-02  0.1226707E+00
        -11   -1    0    0    0    0  0.00000000000E+00  0.00000000000E+00  0.45593999997E+02  0.45594000000E+02  0.51100000000E-03 0. -1.
         11   -1    0    0    0    0 -0.00000000000E+00 -0.00000000000E+00 -0.45593999997E+02  0.45594000000E+02  0.51100000000E-03 0.  1.
    9900012    2    1    2    0    0 -0.12507749805E+02 -0.57516189931E+01  0.12694293678E+02  0.72461814638E+02  0.70000318302E+02 0.  0.
        -12    1    1    2    0    0  0.12507749805E+02  0.57516189931E+01 -0.12694293678E+02  0.18726185362E+02  0.00000000000E+00 0.  1.
         11    1    3    3    0    0 -0.15445012757E+02 -0.94862066024E+01 -0.93348306999E+01  0.20388123975E+02  0.51100000000E-03 0. -1.
        -11    1    3    3    0    0  0.19014220054E+02 -0.11674431146E+02  0.24949543413E+01  0.22451229460E+02  0.51100000000E-03 0.  1.
         12    1    3    3    0    0 -0.16076957101E+02  0.15409018756E+02  0.19534170037E+02  0.29622461202E+02  0.00000000000E+00 0. -1.
</event>
<event>
 7    1  0.1358622E-013  0.7246153E+02  0.7816164E-02  0.1226708E+00
        -11   -1    0    0    0    0  0.00000000000E+00  0.00000000000E+00  0.45593999997E+02  0.45594000000E+02  0.51100000000E-03 0. -1.
         11   -1    0    0    0    0 -0.00000000000E+00 -0.00000000000E+00 -0.45593999997E+02  0.45594000000E+02  0.51100000000E-03 0.  1.
    9900012    2    1    2    0    0  0.12655203985E+02 -0.13437050882E+02 -0.31578434942E+01  0.72461534774E+02  0.69999953729E+02 0.  0.
        -12    1    1    2    0    0 -0.12655203985E+02  0.13437050882E+02  0.31578434942E+01  0.18726465226E+02  0.00000000000E+00 0.  1.
         11    1    3    3    0    0 -0.24784946951E+01  0.29170444826E+01 -0.16884782261E+01  0.41836638785E+01  0.51100000000E-03 0. -1.
        -11    1    3    3    0    0 -0.15073451253E+02 -0.21233961019E+02 -0.19706698625E+02  0.32656454250E+02  0.51100000000E-03 0.  1.
         12    1    3    3    0    0  0.30207149933E+02  0.48798656539E+01  0.18237333357E+02  0.35621416646E+02  0.00000000000E+00 0. -1.
</event>
<event>
 7    1  0.1358622E-013  0.7246152E+02  0.7816164E-02  0.1226708E+00
        -11   -1    0    0    0    0  0.00000000000E+00  0.00000000000E+00  0.45593999997E+02  0.45594000000E+02  0.51100000000E-03 0.  1.
         11   -1    0    0    0    0 -0.00000000000E+00 -0.00000000000E+00 -0.45593999997E+02  0.45594000000E+02  0.51100000000E-03 0. -1.
    9900012    2    1    2    0    0 -0.18551932028E+02  0.24238599737E+01  0.79489991406E+00  0.72461517548E+02  0.69999931288E+02 0.  0.
        -12    1    1    2    0    0  0.18551932028E+02 -0.24238599737E+01 -0.79489991406E+00  0.18726482452E+02  0.00000000000E+00 0.  1.
         11    1    3    3    0    0  0.31465297437E+00 -0.50093744561E+01 -0.14691898601E+02  0.15525615083E+02  0.51100000000E-03 0. -1.
        -11    1    3    3    0    0  0.68010342787E+00  0.11402200180E+01 -0.17786613409E+02  0.17836094281E+02  0.51100000000E-03 0.  1.
        -12    1    3    3    0    0 -0.19546688431E+02  0.62930144118E+01  0.33273411924E+02  0.39099808184E+02  0.00000000000E+00 0.  1.
</event>
<event>
 7    1  0.1358622E-013  0.7246152E+02  0.7816164E-02  0.1226708E+00
        -11   -1    0    0    0    0  0.00000000000E+00  0.00000000000E+00  0.45593999997E+02  0.45594000000E+02  0.51100000000E-03 0.  1.
         11   -1    0    0    0    0 -0.00000000000E+00 -0.00000000000E+00 -0.45593999997E+02  0.45594000000E+02  0.51100000000E-03 0. -1.
    9900012    2    1    2    0    0 -0.11150355497E+02  0.27454595590E+00 -0.15042447204E+02  0.72461520857E+02  0.69999935599E+02 0.  0.
        -12    1    1    2    0    0  0.11150355497E+02 -0.27454595590E+00  0.15042447204E+02  0.18726479143E+02  0.00000000000E+00 0.  1.
         11    1    3    3    0    0 -0.37623179731E+01 -0.63602408834E+01 -0.49692467879E+00  0.74063914981E+01  0.51100000000E-03 0. -1.
        -11    1    3    3    0    0  0.10399658404E+02  0.28760413938E+02  0.44386702247E+01  0.30903334746E+02  0.51100000000E-03 0.  1.
         12    1    3    3    0    0 -0.17787695928E+02 -0.22125627099E+02 -0.18984192750E+02  0.34151794613E+02  0.00000000000E+00 0. -1.
</event>
<event>
 7    1  0.1358622E-013  0.7246158E+02  0.7816164E-02  0.1226708E+00
        -11   -1    0    0    0    0  0.00000000000E+00  0.00000000000E+00  0.45593999997E+02  0.45594000000E+02  0.51100000000E-03 0. -1.
         11   -1    0    0    0    0 -0.00000000000E+00 -0.00000000000E+00 -0.45593999997E+02  0.45594000000E+02  0.51100000000E-03 0.  1.
    9900012    2    1    2    0    0  0.55394699204E+00 -0.18689294157E+02  0.10403894357E+01  0.72461575260E+02  0.70000006469E+02 0.  0.
        -12    1    1    2    0    0 -0.55394699204E+00  0.18689294157E+02 -0.10403894357E+01  0.18726424740E+02  0.00000000000E+00 0.  1.
         11    1    3    3    0    0 -0.38229827414E+01 -0.21369770199E+02 -0.12843753906E+02  0.25223883327E+02  0.51100000000E-03 0. -1.
        -11    1    3    3    0    0 -0.14904678150E+02  0.89659728848E+01 -0.64196026136E+01  0.18540479997E+02  0.51100000000E-03 0.  1.
        -12    1    3    3    0    0  0.19281607883E+02 -0.62854968425E+01  0.20303745956E+02  0.28697211937E+02  0.00000000000E+00 0.  1.
</event>
<event>
 7    1  0.1358622E-013  0.7246130E+02  0.7816164E-02  0.1226709E+00
        -11   -1    0    0    0    0  0.00000000000E+00  0.00000000000E+00  0.45593999997E+02  0.45594000000E+02  0.51100000000E-03 0.  1.
         11   -1    0    0    0    0 -0.00000000000E+00 -0.00000000000E+00 -0.45593999997E+02  0.45594000000E+02  0.51100000000E-03 0. -1.
    9900012    2    1    2    0    0  0.84083710260E+01  0.54550984302E+01  0.15818669812E+02  0.72461304702E+02  0.69999654015E+02 0.  0.
        -12    1    1    2    0    0 -0.84083710260E+01 -0.54550984302E+01 -0.15818669812E+02  0.18726695298E+02  0.00000000000E+00 0.  1.
         11    1    3    3    0    0 -0.25363744923E+01  0.23458740008E+02 -0.14452776107E+02  0.27669991250E+02  0.51100000000E-03 0. -1.
        -11    1    3    3    0    0  0.10512052404E+02  0.23325430824E+01  0.18175766651E+02  0.21125872683E+02  0.51100000000E-03 0.  1.
        -12    1    3    3    0    0  0.43269311422E+00 -0.20336184660E+02  0.12095679267E+02  0.23665440769E+02  0.00000000000E+00 0.  1.
</event>
<event>
 7    1  0.1358622E-013  0.7246162E+02  0.7816164E-02  0.1226708E+00
        -11   -1    0    0    0    0  0.00000000000E+00  0.00000000000E+00  0.45593999997E+02  0.45594000000E+02  0.51100000000E-03 0. -1.
         11   -1    0    0    0    0 -0.00000000000E+00 -0.00000000000E+00 -0.45593999997E+02  0.45594000000E+02  0.51100000000E-03 0.  1.
    9900012    2    1    2    0    0 -0.14972758454E+02  0.56981481874E+01  0.96966351900E+01  0.72461624950E+02  0.70000071199E+02 0.  0.
        -12    1    1    2    0    0  0.14972758454E+02 -0.56981481874E+01 -0.96966351900E+01  0.18726375050E+02  0.00000000000E+00 0.  1.
         11    1    3    3    0    0  0.69471901445E+01  0.32543032066E+01  0.14189011110E+02  0.16130157371E+02  0.51100000000E-03 0. -1.
        -11    1    3    3    0    0  0.12851155546E+02 -0.80969244810E-01 -0.15159074946E+02  0.19873507702E+02  0.51100000000E-03 0.  1.
         12    1    3    3    0    0 -0.34771104145E+02  0.25248142256E+01  0.10666699026E+02  0.36457959878E+02  0.00000000000E+00 0. -1.
</event>
<event>
 7    1  0.1358622E-013  0.7246162E+02  0.7816164E-02  0.1226708E+00
        -11   -1    0    0    0    0  0.00000000000E+00  0.00000000000E+00  0.45593999997E+02  0.45594000000E+02  0.51100000000E-03 0.  1.
         11   -1    0    0    0    0 -0.00000000000E+00 -0.00000000000E+00 -0.45593999997E+02  0.45594000000E+02  0.51100000000E-03 0. -1.
    9900012    2    1    2    0    0  0.75356657901E+01 -0.48645055801E+01 -0.16438596573E+02  0.72461624731E+02  0.70000070913E+02 0.  0.
        -12    1    1    2    0    0 -0.75356657901E+01  0.48645055801E+01  0.16438596573E+02  0.18726375269E+02  0.00000000000E+00 0.  1.
         11    1    3    3    0    0 -0.24765496603E+02  0.17109024156E+00 -0.89537698248E+01  0.26334940444E+02  0.51100000000E-03 0. -1.
        -11    1    3    3    0    0  0.10731021354E+02 -0.10316568123E+02  0.99398943934E+01  0.17899382613E+02  0.51100000000E-03 0.  1.
        -12    1    3    3    0    0  0.21570141039E+02  0.52809723013E+01 -0.17424721142E+02  0.28227301673E+02  0.00000000000E+00 0.  1.
</event>
<event>
 7    1  0.1358622E-013  0.7246172E+02  0.7816164E-02  0.1226708E+00
        -11   -1    0    0    0    0  0.00000000000E+00  0.00000000000E+00  0.45593999997E+02  0.45594000000E+02  0.51100000000E-03 0.  1.
         11   -1    0    0    0    0 -0.00000000000E+00 -0.00000000000E+00 -0.45593999997E+02  0.45594000000E+02  0.51100000000E-03 0. -1.
    9900012    2    1    2    0    0 -0.86454179846E+01 -0.95413163688E+01 -0.13597563581E+02  0.72461716185E+02  0.70000190050E+02 0.  0.
        -12    1    1    2    0    0  0.86454179846E+01  0.95413163688E+01  0.13597563581E+02  0.18726283815E+02  0.00000000000E+00 0.  1.
         11    1    3    3    0    0 -0.21269249935E+02  0.22756765570E+02 -0.13830788425E+02  0.34081403737E+02  0.51100000000E-03 0. -1.
        -11    1    3    3    0    0 -0.62946928423E+00 -0.35377601632E+01 -0.51289334947E+01  0.62624226628E+01  0.51100000000E-03 0.  1.
        -12    1    3    3    0    0  0.13253301234E+02 -0.28760321775E+02  0.53621583389E+01  0.32117889785E+02  0.00000000000E+00 0.  1.
</event>
<event>
 7    1  0.1358622E-013  0.7246157E+02  0.7816164E-02  0.1226708E+00
        -11   -1    0    0    0    0  0.00000000000E+00  0.00000000000E+00  0.45593999997E+02  0.45594000000E+02  0.51100000000E-03 0. -1.
         11   -1    0    0    0    0 -0.00000000000E+00 -0.00000000000E+00 -0.45593999997E+02  0.45594000000E+02  0.51100000000E-03 0.  1.
    9900012    2    1    2    0    0  0.85111216215E+00  0.52061162709E+01  0.17968054537E+02  0.72461574223E+02  0.70000005118E+02 0.  0.
        -12    1    1    2    0    0 -0.85111216215E+00 -0.52061162709E+01 -0.17968054537E+02  0.18726425777E+02  0.00000000000E+00 0.  1.
         11    1    3    3    0    0 -0.14547483464E+02  0.13367144603E+02  0.34277866688E+01  0.20051422685E+02  0.51100000000E-03 0. -1.
        -11    1    3    3    0    0  0.12690382377E+02 -0.22838996875E+02 -0.62039631054E+01  0.26854324448E+02  0.51100000000E-03 0.  1.
         12    1    3    3    0    0  0.27082132496E+01  0.14677968543E+02  0.20744230974E+02  0.25555827090E+02  0.00000000000E+00 0. -1.
</event>
<event>
 7    1  0.1358622E-013  0.7246155E+02  0.7816164E-02  0.1226708E+00
        -11   -1    0    0    0    0  0.00000000000E+00  0.00000000000E+00  0.45593999997E+02  0.45594000000E+02  0.51100000000E-03 0.  1.
         11   -1    0    0    0    0 -0.00000000000E+00 -0.00000000000E+00 -0.45593999997E+02  0.45594000000E+02  0.51100000000E-03 0. -1.
    9900012    2    1    2    0    0 -0.91481717369E+01  0.50270816786E+01 -0.15547330194E+02  0.72461546185E+02  0.69999968593E+02 0.  0.
        -12    1    1    2    0    0  0.91481717369E+01 -0.50270816786E+01  0.15547330194E+02  0.18726453815E+02  0.00000000000E+00 0.  1.
         11    1    3    3    0    0 -0.13622155016E+02  0.28710625130E+02 -0.27727867964E+02  0.42174610427E+02  0.51100000000E-03 0. -1.
        -11    1    3    3    0    0  0.45179821547E+01 -0.81647606168E+00  0.37050337444E+01  0.58996670429E+01  0.51100000000E-03 0.  1.
        -12    1    3    3    0    0 -0.43998875926E-01 -0.22867067389E+02  0.84755040258E+01  0.24387268715E+02  0.00000000000E+00 0.  1.
</event>
<event>
 7    1  0.1358622E-013  0.7246135E+02  0.7816164E-02  0.1226709E+00
        -11   -1    0    0    0    0  0.00000000000E+00  0.00000000000E+00  0.45593999997E+02  0.45594000000E+02  0.51100000000E-03 0.  1.
         11   -1    0    0    0    0 -0.00000000000E+00 -0.00000000000E+00 -0.45593999997E+02  0.45594000000E+02  0.51100000000E-03 0. -1.
    9900012    2    1    2    0    0  0.90192763215E+01  0.59218874277E+01 -0.15305923466E+02  0.72461350828E+02  0.69999714103E+02 0.  0.
        -12    1    1    2    0    0 -0.90192763215E+01 -0.59218874277E+01  0.15305923466E+02  0.18726649172E+02  0.00000000000E+00 0.  1.
         11    1    3    3    0    0  0.20829628599E+02 -0.44767476615E+00  0.64708710693E+01  0.21816186948E+02  0.51100000000E-03 0. -1.
        -11    1    3    3    0    0 -0.34589710984E+00  0.17587217206E+02 -0.28306801778E+02  0.33327239325E+02  0.51100000000E-03 0.  1.
         12    1    3    3    0    0 -0.11464455168E+02 -0.11217655012E+02  0.65300072429E+01  0.17317924554E+02  0.00000000000E+00 0. -1.
</event>
<event>
 7    1  0.1358622E-013  0.7246157E+02  0.7816164E-02  0.1226708E+00
        -11   -1    0    0    0    0  0.00000000000E+00  0.00000000000E+00  0.45593999997E+02  0.45594000000E+02  0.51100000000E-03 0. -1.
         11   -1    0    0    0    0 -0.00000000000E+00 -0.00000000000E+00 -0.45593999997E+02  0.45594000000E+02  0.51100000000E-03 0.  1.
    9900012    2    1    2    0    0  0.14444928380E+01 -0.38099921947E+01  0.18277761753E+02  0.72461570154E+02  0.69999999817E+02 0.  0.
        -12    1    1    2    0    0 -0.14444928380E+01  0.38099921947E+01 -0.18277761753E+02  0.18726429846E+02  0.00000000000E+00 0.  1.
         11    1    3    3    0    0 -0.18074223934E+01  0.12979937130E+02  0.20765268191E+02  0.24554875420E+02  0.51100000000E-03 0. -1.
        -11    1    3    3    0    0 -0.18199096744E+02  0.32211491940E+01 -0.17052993878E+01  0.18560467955E+02  0.51100000000E-03 0.  1.
        -12    1    3    3    0    0  0.21451011976E+02 -0.20011078518E+02 -0.78220705025E+00  0.29346226778E+02  0.00000000000E+00 0.  1.
</event>
<event>
 7    1  0.1358622E-013  0.7246151E+02  0.7816164E-02  0.1226708E+00
        -11   -1    0    0    0    0  0.00000000000E+00  0.00000000000E+00  0.45593999997E+02  0.45594000000E+02  0.51100000000E-03 0. -1.
         11   -1    0    0    0    0 -0.00000000000E+00 -0.00000000000E+00 -0.45593999997E+02  0.45594000000E+02  0.51100000000E-03 0.  1.
    9900012    2    1    2    0    0 -0.99428164242E+01 -0.11577528246E-02  0.15868894654E+02  0.72461510278E+02  0.69999921817E+02 0.  0.
        -12    1    1    2    0    0  0.99428164242E+01  0.11577528246E-02 -0.15868894654E+02  0.18726489722E+02  0.00000000000E+00 0.  1.
         11    1    3    3    0    0  0.61862542453E+00  0.53765507205E+01 -0.62010149669E+01  0.82305881896E+01  0.51100000000E-03 0. -1.
        -11    1    3    3    0    0 -0.27699905512E+02 -0.18630848543E+02  0.25872395978E+02  0.42234750582E+02  0.51100000000E-03 0.  1.
         12    1    3    3    0    0  0.17138463663E+02  0.13253140069E+02 -0.38024863574E+01  0.21996171506E+02  0.00000000000E+00 0. -1.
</event>
<event>
 7    1  0.1358622E-013  0.7246157E+02  0.7816164E-02  0.1226708E+00
        -11   -1    0    0    0    0  0.00000000000E+00  0.00000000000E+00  0.45593999997E+02  0.45594000000E+02  0.51100000000E-03 0.  1.
         11   -1    0    0    0    0 -0.00000000000E+00 -0.00000000000E+00 -0.45593999997E+02  0.45594000000E+02  0.51100000000E-03 0. -1.
    9900012    2    1    2    0    0 -0.93366836660E+01 -0.57529465658E+01 -0.15179237261E+02  0.72461566814E+02  0.69999995466E+02 0.  0.
        -12    1    1    2    0    0  0.93366836660E+01  0.57529465658E+01  0.15179237261E+02  0.18726433186E+02  0.00000000000E+00 0.  1.
         11    1    3    3    0    0  0.14161134942E+02  0.58183568082E+01 -0.23237196007E+02  0.27827294107E+02  0.51100000000E-03 0. -1.
        -11    1    3    3    0    0 -0.89783737514E+01  0.11652251486E+02  0.89718332670E+01  0.17230204652E+02  0.51100000000E-03 0.  1.
        -12    1    3    3    0    0 -0.14519444856E+02 -0.23223554860E+02 -0.91387452050E+00  0.27404068054E+02  0.00000000000E+00 0.  1.
</event>
<event>
 7    1  0.1358622E-013  0.7246157E+02  0.7816164E-02  0.1226708E+00
        -11   -1    0    0    0    0  0.00000000000E+00  0.00000000000E+00  0.45593999997E+02  0.45594000000E+02  0.51100000000E-03 0. -1.
         11   -1    0    0    0    0 -0.00000000000E+00 -0.00000000000E+00 -0.45593999997E+02  0.45594000000E+02  0.51100000000E-03 0.  1.
    9900012    2    1    2    0    0 -0.13671646374E+02 -0.71370687143E+01  0.10622030682E+02  0.72461569475E+02  0.69999998933E+02 0.  0.
        -12    1    1    2    0    0  0.13671646374E+02  0.71370687143E+01 -0.10622030682E+02  0.18726430525E+02  0.00000000000E+00 0.  1.
         11    1    3    3    0    0 -0.18599398837E+01 -0.35600607622E+01  0.99228142376E+01  0.10704935855E+02  0.51100000000E-03 0. -1.
        -11    1    3    3    0    0 -0.33171565321E+02  0.97656424639E+01 -0.72817797132E+01  0.35337583882E+02  0.51100000000E-03 0.  1.
         12    1    3    3    0    0  0.21359858831E+02 -0.13342650416E+02  0.79809961572E+01  0.26419049738E+02  0.00000000000E+00 0. -1.
</event>
<event>
 7    1  0.1358622E-013  0.7246172E+02  0.7816164E-02  0.1226708E+00
        -11   -1    0    0    0    0  0.00000000000E+00  0.00000000000E+00  0.45593999997E+02  0.45594000000E+02  0.51100000000E-03 0. -1.
         11   -1    0    0    0    0 -0.00000000000E+00 -0.00000000000E+00 -0.45593999997E+02  0.45594000000E+02  0.51100000000E-03 0.  1.
    9900012    2    1    2    0    0 -0.98266456635E+01  0.93096217133E+01  0.12939914388E+02  0.72461724187E+02  0.70000200474E+02 0.  0.
        -12    1    1    2    0    0  0.98266456635E+01 -0.93096217133E+01 -0.12939914388E+02  0.18726275813E+02  0.00000000000E+00 0.  1.
         11    1    3    3    0    0  0.10909429841E+02  0.83861295026E+01  0.13061010939E+02  0.18971895912E+02  0.51100000000E-03 0. -1.
        -11    1    3    3    0    0 -0.16550866380E+00  0.42370573858E+01 -0.22509865366E+02  0.22905765376E+02  0.51100000000E-03 0.  1.
         12    1    3    3    0    0 -0.20570566841E+02 -0.33135651751E+01  0.22388768816E+02  0.30584062899E+02  0.00000000000E+00 0. -1.
</event>
<event>
 7    1  0.1358622E-013  0.7246155E+02  0.7816164E-02  0.1226708E+00
        -11   -1    0    0    0    0  0.00000000000E+00  0.00000000000E+00  0.45593999997E+02  0.45594000000E+02  0.51100000000E-03 0.  1.
         11   -1    0    0    0    0 -0.00000000000E+00 -0.00000000000E+00 -0.45593999997E+02  0.45594000000E+02  0.51100000000E-03 0. -1.
    9900012    2    1    2    0    0  0.12491747265E+02  0.45889714033E+01 -0.13174882414E+02  0.72461549859E+02  0.69999973379E+02 0.  0.
        -12    1    1    2    0    0 -0.12491747265E+02 -0.45889714033E+01  0.13174882414E+02  0.18726450141E+02  0.00000000000E+00 0.  1.
         11    1    3    3    0    0  0.61115542196E+01 -0.62417305786E+01  0.41057582342E+01  0.96523337351E+01  0.51100000000E-03 0. -1.
        -11    1    3    3    0    0  0.18062355649E+02 -0.15814235938E+02  0.68999825400E+01  0.24978961332E+02  0.51100000000E-03 0.  1.
         12    1    3    3    0    0 -0.11682162604E+02  0.26644937920E+02 -0.24180623188E+02  0.37830254792E+02  0.00000000000E+00 0. -1.
</event>
<event>
 7    1  0.1358622E-013  0.7246158E+02  0.7816164E-02  0.1226708E+00
        -11   -1    0    0    0    0  0.00000000000E+00  0.00000000000E+00  0.45593999997E+02  0.45594000000E+02  0.51100000000E-03 0. -1.
         11   -1    0    0    0    0 -0.00000000000E+00 -0.00000000000E+00 -0.45593999997E+02  0.45594000000E+02  0.51100000000E-03 0.  1.
    9900012    2    1    2    0    0  0.10645483820E+02  0.89613000870E+01  0.12531860191E+02  0.72461581632E+02  0.70000014770E+02 0.  0.
        -12    1    1    2    0    0 -0.10645483820E+02 -0.89613000870E+01 -0.12531860191E+02  0.18726418368E+02  0.00000000000E+00 0.  1.
         11    1    3    3    0    0  0.49723154974E+01  0.83722986528E+00 -0.48989030001E+01  0.70302294499E+01  0.51100000000E-03 0. -1.
        -11    1    3    3    0    0  0.28006338196E+02  0.36314355249E+01 -0.98323366084E+01  0.29903463788E+02  0.51100000000E-03 0.  1.
         12    1    3    3    0    0 -0.22333169872E+02  0.44926346968E+01  0.27263099800E+02  0.35527888394E+02  0.00000000000E+00 0. -1.
</event>
<event>
 7    1  0.1358622E-013  0.7246159E+02  0.7816164E-02  0.1226708E+00
        -11   -1    0    0    0    0  0.00000000000E+00  0.00000000000E+00  0.45593999997E+02  0.45594000000E+02  0.51100000000E-03 0.  1.
         11   -1    0    0    0    0 -0.00000000000E+00 -0.00000000000E+00 -0.45593999997E+02  0.45594000000E+02  0.51100000000E-03 0. -1.
    9900012    2    1    2    0    0 -0.60708596605E+01 -0.17547040592E+02 -0.24340199722E+01  0.72461590206E+02  0.70000025938E+02 0.  0.
        -12    1    1    2    0    0  0.60708596605E+01  0.17547040592E+02  0.24340199722E+01  0.18726409794E+02  0.00000000000E+00 0.  1.
         11    1    3    3    0    0 -0.79520689478E+01 -0.22306024732E+02  0.66031328197E+01  0.24584456536E+02  0.51100000000E-03 0. -1.
        -11    1    3    3    0    0 -0.11956709254E+02 -0.74568211262E+01  0.12971463163E+02  0.19152700445E+02  0.51100000000E-03 0.  1.
         12    1    3    3    0    0  0.13837918541E+02  0.12215805266E+02 -0.22008615954E+02  0.28724433225E+02  0.00000000000E+00 0. -1.
</event>
<event>
 7    1  0.1358622E-013  0.7246158E+02  0.7816164E-02  0.1226708E+00
        -11   -1    0    0    0    0  0.00000000000E+00  0.00000000000E+00  0.45593999997E+02  0.45594000000E+02  0.51100000000E-03 0. -1.
         11   -1    0    0    0    0 -0.00000000000E+00 -0.00000000000E+00 -0.45593999997E+02  0.45594000000E+02  0.51100000000E-03 0.  1.
    9900012    2    1    2    0    0 -0.49392563941E+01 -0.95938694448E+01  0.15304907457E+02  0.72461580777E+02  0.70000013655E+02 0.  0.
        -12    1    1    2    0    0  0.49392563941E+01  0.95938694448E+01 -0.15304907457E+02  0.18726419223E+02  0.00000000000E+00 0.  1.
         11    1    3    3    0    0 -0.15965128426E+02 -0.82630439741E+01 -0.19262925617E+00  0.17977773157E+02  0.51100000000E-03 0. -1.
        -11    1    3    3    0    0 -0.37068616074E+00 -0.21411248514E+02  0.21791369848E+02  0.30552295679E+02  0.51100000000E-03 0.  1.
        -12    1    3    3    0    0  0.11396558193E+02  0.20080423043E+02 -0.62938331350E+01  0.23931511941E+02  0.00000000000E+00 0.  1.
</event>
<event>
 7    1  0.1358622E-013  0.7246156E+02  0.7816164E-02  0.1226708E+00
        -11   -1    0    0    0    0  0.00000000000E+00  0.00000000000E+00  0.45593999997E+02  0.45594000000E+02  0.51100000000E-03 0.  1.
         11   -1    0    0    0    0 -0.00000000000E+00 -0.00000000000E+00 -0.45593999997E+02  0.45594000000E+02  0.51100000000E-03 0. -1.
    9900012    2    1    2    0    0  0.37024588430E+01  0.97032691074E+01 -0.15582614194E+02  0.72461561525E+02  0.69999988576E+02 0.  0.
        -12    1    1    2    0    0 -0.37024588430E+01 -0.97032691074E+01  0.15582614194E+02  0.18726438475E+02  0.00000000000E+00 0.  1.
         11    1    3    3    0    0  0.82119113927E+01 -0.23226359429E+01 -0.18515959228E+02  0.20388008065E+02  0.51100000000E-03 0. -1.
        -11    1    3    3    0    0 -0.11298864374E+02 -0.17483520589E+02 -0.35222671540E+01  0.21112654842E+02  0.51100000000E-03 0.  1.
        -12    1    3    3    0    0  0.67894118242E+01  0.29509425639E+02  0.64556121884E+01  0.30960898618E+02  0.00000000000E+00 0.  1.
</event>
<event>
 7    1  0.1358622E-013  0.7246160E+02  0.7816164E-02  0.1226708E+00
        -11   -1    0    0    0    0  0.00000000000E+00  0.00000000000E+00  0.45593999997E+02  0.45594000000E+02  0.51100000000E-03 0.  1.
         11   -1    0    0    0    0 -0.00000000000E+00 -0.00000000000E+00 -0.45593999997E+02  0.45594000000E+02  0.51100000000E-03 0. -1.
    9900012    2    1    2    0    0 -0.64099070302E+01  0.10914446534E+01 -0.17561320205E+02  0.72461598132E+02  0.70000036264E+02 0.  0.
        -12    1    1    2    0    0  0.64099070302E+01 -0.10914446534E+01  0.17561320205E+02  0.18726401868E+02  0.00000000000E+00 0.  1.
         11    1    3    3    0    0  0.95860429752E+00 -0.11195985452E+02 -0.21653457386E+02  0.24395516585E+02  0.51100000000E-03 0. -1.
        -11    1    3    3    0    0 -0.17732769322E+02 -0.11165422006E+02 -0.36742875537E+01  0.21274824222E+02  0.51100000000E-03 0.  1.
         12    1    3    3    0    0  0.10364257994E+02  0.23452852111E+02  0.77664247345E+01  0.26791257325E+02  0.00000000000E+00 0. -1.
</event>
<event>
 7    1  0.1358622E-013  0.7246151E+02  0.7816164E-02  0.1226708E+00
        -11   -1    0    0    0    0  0.00000000000E+00  0.00000000000E+00  0.45593999997E+02  0.45594000000E+02  0.51100000000E-03 0. -1.
         11   -1    0    0    0    0 -0.00000000000E+00 -0.00000000000E+00 -0.45593999997E+02  0.45594000000E+02  0.51100000000E-03 0.  1.
    9900012    2    1    2    0    0 -0.83949978314E+01 -0.11961069389E+02  0.11710597629E+02  0.72461514309E+02  0.69999927068E+02 0.  0.
        -12    1    1    2    0    0  0.83949978314E+01  0.11961069389E+02 -0.11710597629E+02  0.18726485691E+02  0.00000000000E+00 0.  1.
         11    1    3    3    0    0 -0.11657990089E+02 -0.20885116502E+02 -0.14431203357E+02  0.27934860923E+02  0.51100000000E-03 0. -1.
        -11    1    3    3    0    0 -0.10810881840E+02  0.31676709513E+00 -0.28366622394E+01  0.11181330890E+02  0.51100000000E-03 0.  1.
        -12    1    3    3    0    0  0.14073874097E+02  0.86072800183E+01  0.28978463225E+02  0.33345322495E+02  0.00000000000E+00 0.  1.
</event>
<event>
 7    1  0.1358622E-013  0.7246099E+02  0.7816164E-02  0.1226710E+00
        -11   -1    0    0    0    0  0.00000000000E+00  0.00000000000E+00  0.45593999997E+02  0.45594000000E+02  0.51100000000E-03 0.  1.
         11   -1    0    0    0    0 -0.00000000000E+00 -0.00000000000E+00 -0.45593999997E+02  0.45594000000E+02  0.51100000000E-03 0. -1.
    9900012    2    1    2    0    0 -0.77014699210E+01 -0.16761196874E+02 -0.32327125729E+01  0.72460993026E+02  0.69999247997E+02 0.  0.
        -12    1    1    2    0    0  0.77014699210E+01  0.16761196874E+02  0.32327125729E+01  0.18727006974E+02  0.00000000000E+00 0.  1.
         11    1    3    3    0    0 -0.26176624083E+02 -0.13005301658E+02 -0.12270608753E+01  0.29255071325E+02  0.51100000000E-03 0. -1.
        -11    1    3    3    0    0 -0.19670111703E+01 -0.14698912359E+02  0.92014868652E+01  0.17452636427E+02  0.51100000000E-03 0.  1.
        -12    1    3    3    0    0  0.20442165332E+02  0.10943017142E+02 -0.11207138563E+02  0.25753285274E+02  0.00000000000E+00 0.  1.
</event>
<event>
 7    1  0.1358622E-013  0.7246161E+02  0.7816164E-02  0.1226708E+00
        -11   -1    0    0    0    0  0.00000000000E+00  0.00000000000E+00  0.45593999997E+02  0.45594000000E+02  0.51100000000E-03 0. -1.
         11   -1    0    0    0    0 -0.00000000000E+00 -0.00000000000E+00 -0.45593999997E+02  0.45594000000E+02  0.51100000000E-03 0.  1.
    9900012    2    1    2    0    0  0.18088892437E+02  0.25893746697E+00 -0.48376386224E+01  0.72461606176E+02  0.70000046743E+02 0.  0.
        -12    1    1    2    0    0 -0.18088892437E+02 -0.25893746697E+00  0.48376386224E+01  0.18726393824E+02  0.00000000000E+00 0.  1.
         11    1    3    3    0    0  0.14734511247E+02  0.10461248603E+02  0.11334016221E+02  0.21330810298E+02  0.51100000000E-03 0. -1.
        -11    1    3    3    0    0  0.33943755394E+00  0.17564450855E+02  0.21930426628E+01  0.17704083938E+02  0.51100000000E-03 0.  1.
        -12    1    3    3    0    0  0.30149436354E+01 -0.27766761992E+02 -0.18364697506E+02  0.33426711940E+02  0.00000000000E+00 0.  1.
</event>
<event>
 7    1  0.1358622E-013  0.7246152E+02  0.7816164E-02  0.1226708E+00
        -11   -1    0    0    0    0  0.00000000000E+00  0.00000000000E+00  0.45593999997E+02  0.45594000000E+02  0.51100000000E-03 0. -1.
         11   -1    0    0    0    0 -0.00000000000E+00 -0.00000000000E+00 -0.45593999997E+02  0.45594000000E+02  0.51100000000E-03 0.  1.
    9900012    2    1    2    0    0 -0.42894822979E+01  0.60314528442E+01  0.17201831363E+02  0.72461519177E+02  0.69999933410E+02 0.  0.
        -12    1    1    2    0    0  0.42894822979E+01 -0.60314528442E+01 -0.17201831363E+02  0.18726480823E+02  0.00000000000E+00 0.  1.
         11    1    3    3    0    0 -0.16993712910E+02 -0.21362351043E+02 -0.11199569486E+01  0.27320150519E+02  0.51100000000E-03 0.  1.
        -11    1    3    3    0    0 -0.69377547093E+01  0.13138014027E+02  0.21107666097E+00  0.14858815787E+02  0.51100000000E-03 0. -1.
        -12    1    3    3    0    0  0.19641985321E+02  0.14255789861E+02  0.18110711650E+02  0.30282552871E+02  0.00000000000E+00 0.  1.
</event>
<event>
 7    1  0.1358622E-013  0.7246155E+02  0.7816164E-02  0.1226708E+00
        -11   -1    0    0    0    0  0.00000000000E+00  0.00000000000E+00  0.45593999997E+02  0.45594000000E+02  0.51100000000E-03 0.  1.
         11   -1    0    0    0    0 -0.00000000000E+00 -0.00000000000E+00 -0.45593999997E+02  0.45594000000E+02  0.51100000000E-03 0. -1.
    9900012    2    1    2    0    0  0.10584548501E+02 -0.13183808561E+02 -0.80519774532E+01  0.72461553032E+02  0.69999977513E+02 0.  0.
        -12    1    1    2    0    0 -0.10584548501E+02  0.13183808561E+02  0.80519774532E+01  0.18726446968E+02  0.00000000000E+00 0.  1.
         11    1    3    3    0    0 -0.81312562828E+01  0.27320340506E+00 -0.16253536518E+00  0.81374680855E+01  0.51100000000E-03 0. -1.
        -11    1    3    3    0    0 -0.16098143075E+02  0.37188897696E+01  0.12271362282E+02  0.20580735752E+02  0.51100000000E-03 0.  1.
         12    1    3    3    0    0  0.34813947859E+02 -0.17175901735E+02 -0.20160804370E+02  0.43743349195E+02  0.00000000000E+00 0. -1.
</event>
<event>
 7    1  0.1358622E-013  0.7246148E+02  0.7816164E-02  0.1226708E+00
        -11   -1    0    0    0    0  0.00000000000E+00  0.00000000000E+00  0.45593999997E+02  0.45594000000E+02  0.51100000000E-03 0.  1.
         11   -1    0    0    0    0 -0.00000000000E+00 -0.00000000000E+00 -0.45593999997E+02  0.45594000000E+02  0.51100000000E-03 0. -1.
    9900012    2    1    2    0    0  0.98092270071E+01  0.15915217444E+02 -0.10804467131E+01  0.72461482815E+02  0.69999886042E+02 0.  0.
        -12    1    1    2    0    0 -0.98092270071E+01 -0.15915217444E+02  0.10804467131E+01  0.18726517185E+02  0.00000000000E+00 0.  1.
         11    1    3    3    0    0 -0.94768692442E+01  0.19343612046E+02  0.20078412710E+02  0.29447054774E+02  0.51100000000E-03 0. -1.
        -11    1    3    3    0    0 -0.77686098162E+01 -0.80055460190E+00  0.10931506185E+01  0.78858838872E+01  0.51100000000E-03 0.  1.
         12    1    3    3    0    0  0.27054706067E+02 -0.26278399994E+01 -0.22252010042E+02  0.35128544154E+02  0.00000000000E+00 0. -1.
</event>
<event>
 7    1  0.1358622E-013  0.7246146E+02  0.7816164E-02  0.1226708E+00
        -11   -1    0    0    0    0  0.00000000000E+00  0.00000000000E+00  0.45593999997E+02  0.45594000000E+02  0.51100000000E-03 0. -1.
         11   -1    0    0    0    0 -0.00000000000E+00 -0.00000000000E+00 -0.45593999997E+02  0.45594000000E+02  0.51100000000E-03 0.  1.
    9900012    2    1    2    0    0 -0.71461542091E+01  0.11325443662E+02  0.13090073535E+02  0.72461462165E+02  0.69999859142E+02 0.  0.
        -12    1    1    2    0    0  0.71461542091E+01 -0.11325443662E+02 -0.13090073535E+02  0.18726537835E+02  0.00000000000E+00 0.  1.
         11    1    3    3    0    0  0.15179445365E+01  0.21171160368E+01 -0.15494763075E+02  0.15712225143E+02  0.51100000000E-03 0. -1.
        -11    1    3    3    0    0 -0.70999606467E+01 -0.68981352866E+00 -0.12536817311E+02  0.14424183597E+02  0.51100000000E-03 0.  1.
         12    1    3    3    0    0 -0.15641380989E+01  0.98981411536E+01  0.41121653921E+02  0.42325053426E+02  0.00000000000E+00 0. -1.
</event>
<event>
 7    1  0.1885121E-013  0.7246158E+02  0.7816164E-02  0.1226708E+00
        -11   -1    0    0    0    0  0.00000000000E+00  0.00000000000E+00  0.45593999997E+02  0.45594000000E+02  0.51100000000E-03 0.  1.
         11   -1    0    0    0    0 -0.00000000000E+00 -0.00000000000E+00 -0.45593999997E+02  0.45594000000E+02  0.51100000000E-03 0. -1.
    9900012    2    1    2    0    0  0.59908488657E+01 -0.73550365344E+01  0.16145953620E+02  0.72461584143E+02  0.70000018040E+02 0.  0.
        -12    1    1    2    0    0 -0.59908488657E+01  0.73550365344E+01 -0.16145953620E+02  0.18726415857E+02  0.00000000000E+00 0.  1.
         11    1    3    3    0    0  0.20602419410E+02 -0.19119184247E+01  0.18291143283E+02  0.27616680475E+02  0.51100000000E-03 0. -1.
        -11    1    3    3    0    0  0.11597348498E+02  0.67717839595E+01 -0.75827307781E+01  0.15422495145E+02  0.51100000000E-03 0.  1.
        -12    1    3    3    0    0 -0.26208919042E+02 -0.12214902069E+02  0.54375411154E+01  0.29422408523E+02  0.00000000000E+00 0.  1.
</event>
<event>
 7    1  0.1358622E-013  0.7246154E+02  0.7816164E-02  0.1226708E+00
        -11   -1    0    0    0    0  0.00000000000E+00  0.00000000000E+00  0.45593999997E+02  0.45594000000E+02  0.51100000000E-03 0. -1.
         11   -1    0    0    0    0 -0.00000000000E+00 -0.00000000000E+00 -0.45593999997E+02  0.45594000000E+02  0.51100000000E-03 0.  1.
    9900012    2    1    2    0    0  0.18113688244E+02  0.68919214736E-01  0.47507808954E+01  0.72461538220E+02  0.69999958218E+02 0.  0.
        -12    1    1    2    0    0 -0.18113688244E+02 -0.68919214736E-01 -0.47507808954E+01  0.18726461780E+02  0.00000000000E+00 0.  1.
         11    1    3    3    0    0  0.21821901462E+02  0.43421996057E+00 -0.12893593851E+02  0.25350122150E+02  0.51100000000E-03 0.  1.
        -11    1    3    3    0    0  0.44510836338E+00  0.14563683054E+02 -0.83906715187E+01  0.16813754915E+02  0.51100000000E-03 0. -1.
        -12    1    3    3    0    0 -0.41533215807E+01 -0.14928983800E+02  0.26035046265E+02  0.30297661155E+02  0.00000000000E+00 0.  1.
</event>
<event>
 7    1  0.1358622E-013  0.7246174E+02  0.7816164E-02  0.1226708E+00
        -11   -1    0    0    0    0  0.00000000000E+00  0.00000000000E+00  0.45593999997E+02  0.45594000000E+02  0.51100000000E-03 0. -1.
         11   -1    0    0    0    0 -0.00000000000E+00 -0.00000000000E+00 -0.45593999997E+02  0.45594000000E+02  0.51100000000E-03 0.  1.
    9900012    2    1    2    0    0  0.42174377858E+01 -0.17002990861E+02  0.66169603998E+01  0.72461744511E+02  0.70000226950E+02 0.  0.
        -12    1    1    2    0    0 -0.42174377858E+01  0.17002990861E+02 -0.66169603998E+01  0.18726255489E+02  0.00000000000E+00 0.  1.
         11    1    3    3    0    0 -0.40540536734E+01 -0.95702378078E+01  0.36560870527E+01  0.11017793594E+02  0.51100000000E-03 0. -1.
        -11    1    3    3    0    0 -0.25832735043E+02 -0.55371446691E+01  0.61894449599E+01  0.27134837388E+02  0.51100000000E-03 0.  1.
        -12    1    3    3    0    0  0.34104226503E+02 -0.18956083840E+01 -0.32285716128E+01  0.34309113529E+02  0.00000000000E+00 0.  1.
</event>
<event>
 7    1  0.1358622E-013  0.7246148E+02  0.7816164E-02  0.1226708E+00
        -11   -1    0    0    0    0  0.00000000000E+00  0.00000000000E+00  0.45593999997E+02  0.45594000000E+02  0.51100000000E-03 0.  1.
         11   -1    0    0    0    0 -0.00000000000E+00 -0.00000000000E+00 -0.45593999997E+02  0.45594000000E+02  0.51100000000E-03 0. -1.
    9900012    2    1    2    0    0 -0.12143057645E+02  0.25593266554E+01 -0.14024210000E+02  0.72461482223E+02  0.69999885271E+02 0.  0.
        -12    1    1    2    0    0  0.12143057645E+02 -0.25593266554E+01  0.14024210000E+02  0.18726517777E+02  0.00000000000E+00 0.  1.
         11    1    3    3    0    0  0.50072989953E+00  0.81859977572E+01  0.52508638196E+01  0.97382165116E+01  0.51100000000E-03 0. -1.
        -11    1    3    3    0    0 -0.28995413300E+02 -0.83008578568E+01  0.76439195828E+01  0.31113786984E+02  0.51100000000E-03 0.  1.
         12    1    3    3    0    0  0.16351625756E+02  0.26741867549E+01 -0.26918993403E+02  0.31609478728E+02  0.00000000000E+00 0. -1.
</event>
<event>
 7    1  0.1358622E-013  0.7246157E+02  0.7816164E-02  0.1226708E+00
        -11   -1    0    0    0    0  0.00000000000E+00  0.00000000000E+00  0.45593999997E+02  0.45594000000E+02  0.51100000000E-03 0.  1.
         11   -1    0    0    0    0 -0.00000000000E+00 -0.00000000000E+00 -0.45593999997E+02  0.45594000000E+02  0.51100000000E-03 0. -1.
    9900012    2    1    2    0    0 -0.77123345778E+01 -0.13672537560E+02 -0.10210817316E+02  0.72461570062E+02  0.69999999697E+02 0.  0.
        -12    1    1    2    0    0  0.77123345778E+01  0.13672537560E+02  0.10210817316E+02  0.18726429938E+02  0.00000000000E+00 0.  1.
         11    1    3    3    0    0 -0.71579759213E+01 -0.29931252609E+02 -0.40194338405E+00  0.30777882656E+02  0.51100000000E-03 0. -1.
        -11    1    3    3    0    0  0.10434302151E+02 -0.17893545922E+01  0.86153067684E+01  0.13649174415E+02  0.51100000000E-03 0.  1.
        -12    1    3    3    0    0 -0.10988660808E+02  0.18048069642E+02 -0.18424180701E+02  0.28034512991E+02  0.00000000000E+00 0.  1.
</event>
<event>
 7    1  0.1358622E-013  0.7246157E+02  0.7816164E-02  0.1226708E+00
        -11   -1    0    0    0    0  0.00000000000E+00  0.00000000000E+00  0.45593999997E+02  0.45594000000E+02  0.51100000000E-03 0. -1.
         11   -1    0    0    0    0 -0.00000000000E+00 -0.00000000000E+00 -0.45593999997E+02  0.45594000000E+02  0.51100000000E-03 0.  1.
    9900012    2    1    2    0    0 -0.30362097152E+01 -0.94454175573E+01 -0.15882209175E+02  0.72461573471E+02  0.70000004138E+02 0.  0.
        -12    1    1    2    0    0  0.30362097152E+01  0.94454175573E+01  0.15882209175E+02  0.18726426529E+02  0.00000000000E+00 0.  1.
         11    1    3    3    0    0  0.21715180230E+02  0.50811169719E+01 -0.34147991484E+01  0.22561641243E+02  0.51100000000E-03 0. -1.
        -11    1    3    3    0    0  0.10003003803E+02 -0.78588645752E+01 -0.12784818622E+01  0.12785005030E+02  0.51100000000E-03 0.  1.
        -12    1    3    3    0    0 -0.34754393748E+02 -0.66676699540E+01 -0.11188928165E+02  0.37114927197E+02  0.00000000000E+00 0.  1.
</event>
<event>
 7    1  0.1358622E-013  0.7246159E+02  0.7816164E-02  0.1226708E+00
        -11   -1    0    0    0    0  0.00000000000E+00  0.00000000000E+00  0.45593999997E+02  0.45594000000E+02  0.51100000000E-03 0.  1.
         11   -1    0    0    0    0 -0.00000000000E+00 -0.00000000000E+00 -0.45593999997E+02  0.45594000000E+02  0.51100000000E-03 0. -1.
    9900012    2    1    2    0    0 -0.12291934855E+02 -0.13928708394E+02 -0.23617443948E+01  0.72461590398E+02  0.70000026189E+02 0.  0.
        -12    1    1    2    0    0  0.12291934855E+02  0.13928708394E+02  0.23617443948E+01  0.18726409602E+02  0.00000000000E+00 0.  1.
         11    1    3    3    0    0  0.73503122014E+01  0.52479650639E+01 -0.61683538128E+01  0.10936947279E+02  0.51100000000E-03 0. -1.
        -11    1    3    3    0    0 -0.17590154931E+02  0.17413529128E+02  0.10657516183E+01  0.24774591297E+02  0.51100000000E-03 0.  1.
        -12    1    3    3    0    0 -0.20520921257E+01 -0.36590202586E+02  0.27408577998E+01  0.36750051821E+02  0.00000000000E+00 0.  1.
</event>
<event>
 7    1  0.1358622E-013  0.7246161E+02  0.7816164E-02  0.1226708E+00
        -11   -1    0    0    0    0  0.00000000000E+00  0.00000000000E+00  0.45593999997E+02  0.45594000000E+02  0.51100000000E-03 0.  1.
         11   -1    0    0    0    0 -0.00000000000E+00 -0.00000000000E+00 -0.45593999997E+02  0.45594000000E+02  0.51100000000E-03 0. -1.
    9900012    2    1    2    0    0  0.15521459535E+02 -0.10473398041E+02 -0.26438379686E+00  0.72461610294E+02  0.70000052107E+02 0.  0.
        -12    1    1    2    0    0 -0.15521459535E+02  0.10473398041E+02  0.26438379686E+00  0.18726389706E+02  0.00000000000E+00 0.  1.
         11    1    3    3    0    0 -0.42378856583E+01 -0.47589990527E+01 -0.85487805707E+01  0.10662522982E+02  0.51100000000E-03 0. -1.
        -11    1    3    3    0    0 -0.15496872940E+02  0.10243403111E+02  0.13200044504E+02  0.22788627720E+02  0.51100000000E-03 0.  1.
        -12    1    3    3    0    0  0.35256218133E+02 -0.15957802100E+02 -0.49156477300E+01  0.39010459591E+02  0.00000000000E+00 0.  1.
</event>
<event>
 7    1  0.1358622E-013  0.7246150E+02  0.7816164E-02  0.1226708E+00
        -11   -1    0    0    0    0  0.00000000000E+00  0.00000000000E+00  0.45593999997E+02  0.45594000000E+02  0.51100000000E-03 0. -1.
         11   -1    0    0    0    0 -0.00000000000E+00 -0.00000000000E+00 -0.45593999997E+02  0.45594000000E+02  0.51100000000E-03 0.  1.
    9900012    2    1    2    0    0 -0.73103412033E+01 -0.17113972231E+02  0.20863316835E+01  0.72461497018E+02  0.69999904544E+02 0.  0.
        -12    1    1    2    0    0  0.73103412033E+01  0.17113972231E+02 -0.20863316835E+01  0.18726502982E+02  0.00000000000E+00 0.  1.
         11    1    3    3    0    0 -0.16408618785E+02 -0.21916193314E+01  0.88740301072E+01  0.18782821309E+02  0.51100000000E-03 0. -1.
        -11    1    3    3    0    0 -0.19822610476E+01  0.18206304604E+02 -0.21566665996E+01  0.18440447318E+02  0.51100000000E-03 0.  1.
         12    1    3    3    0    0  0.11080538630E+02 -0.33128657504E+02 -0.46310318240E+01  0.35238228391E+02  0.00000000000E+00 0. -1.
</event>
<event>
 7    1  0.1358622E-013  0.7246156E+02  0.7816164E-02  0.1226708E+00
        -11   -1    0    0    0    0  0.00000000000E+00  0.00000000000E+00  0.45593999997E+02  0.45594000000E+02  0.51100000000E-03 0.  1.
         11   -1    0    0    0    0 -0.00000000000E+00 -0.00000000000E+00 -0.45593999997E+02  0.45594000000E+02  0.51100000000E-03 0. -1.
    9900012    2    1    2    0    0 -0.52332470861E+01  0.17877678484E+02  0.19186628649E+01  0.72461560664E+02  0.69999987454E+02 0.  0.
        -12    1    1    2    0    0  0.52332470861E+01 -0.17877678484E+02 -0.19186628649E+01  0.18726439336E+02  0.00000000000E+00 0.  1.
         11    1    3    3    0    0 -0.13349643161E+02  0.12737016807E+02  0.12776485563E+02  0.22442886474E+02  0.51100000000E-03 0. -1.
        -11    1    3    3    0    0  0.21789103271E+02  0.49636923346E+01  0.10474340072E+02  0.24680256546E+02  0.51100000000E-03 0.  1.
         12    1    3    3    0    0 -0.13672707196E+02  0.17696934217E+00 -0.21332162770E+02  0.25338417644E+02  0.00000000000E+00 0. -1.
</event>
<event>
 7    1  0.1358622E-013  0.7246157E+02  0.7816164E-02  0.1226708E+00
        -11   -1    0    0    0    0  0.00000000000E+00  0.00000000000E+00  0.45593999997E+02  0.45594000000E+02  0.51100000000E-03 0.  1.
         11   -1    0    0    0    0 -0.00000000000E+00 -0.00000000000E+00 -0.45593999997E+02  0.45594000000E+02  0.51100000000E-03 0. -1.
    9900012    2    1    2    0    0  0.17786088137E+02 -0.58366432402E+01 -0.51771627852E+00  0.72461565057E+02  0.69999993178E+02 0.  0.
        -12    1    1    2    0    0 -0.17786088137E+02  0.58366432402E+01  0.51771627852E+00  0.18726434943E+02  0.00000000000E+00 0.  1.
         11    1    3    3    0    0 -0.68760697154E+01  0.15696841644E+02  0.18192669018E+01  0.17233133918E+02  0.51100000000E-03 0. -1.
        -11    1    3    3    0    0 -0.24511064533E+01 -0.66559847961E+01  0.17229072199E+02  0.18631988234E+02  0.51100000000E-03 0.  1.
         12    1    3    3    0    0  0.27113264305E+02 -0.14877500088E+02 -0.19566055380E+02  0.36596442905E+02  0.00000000000E+00 0. -1.
</event>
<event>
 7    1  0.1358622E-013  0.7246177E+02  0.7816164E-02  0.1226707E+00
        -11   -1    0    0    0    0  0.00000000000E+00  0.00000000000E+00  0.45593999997E+02  0.45594000000E+02  0.51100000000E-03 0. -1.
         11   -1    0    0    0    0 -0.00000000000E+00 -0.00000000000E+00 -0.45593999997E+02  0.45594000000E+02  0.51100000000E-03 0.  1.
    9900012    2    1    2    0    0 -0.15502965997E+02 -0.90262375290E+01 -0.53718378679E+01  0.72461773452E+02  0.70000264651E+02 0.  0.
        -12    1    1    2    0    0  0.15502965997E+02  0.90262375290E+01  0.53718378679E+01  0.18726226548E+02  0.00000000000E+00 0.  1.
         11    1    3    3    0    0  0.10749121160E+02 -0.29129191616E+01 -0.15937779975E+02  0.19443290220E+02  0.51100000000E-03 0. -1.
        -11    1    3    3    0    0 -0.12297700981E+02 -0.20652972002E+02 -0.82836977624E+01  0.25424365298E+02  0.51100000000E-03 0.  1.
         12    1    3    3    0    0 -0.13954386176E+02  0.14539653635E+02  0.18849639870E+02  0.27594117935E+02  0.00000000000E+00 0. -1.
</event>
<event>
 7    1  0.1358622E-013  0.7246161E+02  0.7816164E-02  0.1226708E+00
        -11   -1    0    0    0    0  0.00000000000E+00  0.00000000000E+00  0.45593999997E+02  0.45594000000E+02  0.51100000000E-03 0.  1.
         11   -1    0    0    0    0 -0.00000000000E+00 -0.00000000000E+00 -0.45593999997E+02  0.45594000000E+02  0.51100000000E-03 0. -1.
    9900012    2    1    2    0    0  0.31024531377E+01  0.18455017606E+02 -0.68183787587E+00  0.72461607043E+02  0.70000047871E+02 0.  0.
        -12    1    1    2    0    0 -0.31024531377E+01 -0.18455017606E+02  0.68183787587E+00  0.18726392957E+02  0.00000000000E+00 0.  1.
         11    1    3    3    0    0 -0.20572120060E+02  0.25910987217E+01 -0.11448032409E+01  0.20766234398E+02  0.51100000000E-03 0. -1.
        -11    1    3    3    0    0  0.61191977170E+01  0.63962126431E+01 -0.20761418963E+02  0.22569728277E+02  0.51100000000E-03 0.  1.
        -12    1    3    3    0    0  0.17555375481E+02  0.94677062411E+01  0.21224384328E+02  0.29125644368E+02  0.00000000000E+00 0.  1.
</event>
<event>
 7    1  0.1358622E-013  0.7246160E+02  0.7816164E-02  0.1226708E+00
        -11   -1    0    0    0    0  0.00000000000E+00  0.00000000000E+00  0.45593999997E+02  0.45594000000E+02  0.51100000000E-03 0.  1.
         11   -1    0    0    0    0 -0.00000000000E+00 -0.00000000000E+00 -0.45593999997E+02  0.45594000000E+02  0.51100000000E-03 0. -1.
    9900012    2    1    2    0    0 -0.16958198012E+02  0.78871086615E+01  0.94393546612E+00  0.72461602134E+02  0.70000041478E+02 0.  0.
        -12    1    1    2    0    0  0.16958198012E+02 -0.78871086615E+01 -0.94393546612E+00  0.18726397866E+02  0.00000000000E+00 0.  1.
         11    1    3    3    0    0 -0.26229840035E+02  0.24317865789E+02  0.77868846072E+01  0.36605992364E+02  0.51100000000E-03 0. -1.
        -11    1    3    3    0    0 -0.57362668867E+01  0.54452761169E+01  0.14902840524E+01  0.80483996299E+01  0.51100000000E-03 0.  1.
        -12    1    3    3    0    0  0.15007908910E+02 -0.21876033244E+02 -0.83332331934E+01  0.27807210141E+02  0.00000000000E+00 0.  1.
</event>
<event>
 7    1  0.1358622E-013  0.7246155E+02  0.7816164E-02  0.1226708E+00
        -11   -1    0    0    0    0  0.00000000000E+00  0.00000000000E+00  0.45593999997E+02  0.45594000000E+02  0.51100000000E-03 0.  1.
         11   -1    0    0    0    0 -0.00000000000E+00 -0.00000000000E+00 -0.45593999997E+02  0.45594000000E+02  0.51100000000E-03 0. -1.
    9900012    2    1    2    0    0 -0.80070176809E+00  0.11924584924E+02 -0.14416769382E+02  0.72461545761E+02  0.69999968041E+02 0.  0.
        -12    1    1    2    0    0  0.80070176809E+00 -0.11924584924E+02  0.14416769382E+02  0.18726454239E+02  0.00000000000E+00 0.  1.
         11    1    3    3    0    0  0.15348766132E+02  0.11610142345E+02 -0.31131209461E+02  0.36599620624E+02  0.51100000000E-03 0. -1.
        -11    1    3    3    0    0 -0.90222239168E+01  0.74138487836E+01 -0.43956050945E+01  0.12477460583E+02  0.51100000000E-03 0.  1.
        -12    1    3    3    0    0 -0.71272439830E+01 -0.70994062050E+01  0.21110045173E+02  0.23384464554E+02  0.00000000000E+00 0.  1.
</event>
<event>
 7    1  0.1358622E-013  0.7246152E+02  0.7816164E-02  0.1226708E+00
        -11   -1    0    0    0    0  0.00000000000E+00  0.00000000000E+00  0.45593999997E+02  0.45594000000E+02  0.51100000000E-03 0.  1.
         11   -1    0    0    0    0 -0.00000000000E+00 -0.00000000000E+00 -0.45593999997E+02  0.45594000000E+02  0.51100000000E-03 0. -1.
    9900012    2    1    2    0    0  0.15502191861E+01  0.78726065207E+01 -0.16920396580E+02  0.72461523199E+02  0.69999938649E+02 0.  0.
        -12    1    1    2    0    0 -0.15502191861E+01 -0.78726065207E+01  0.16920396580E+02  0.18726476801E+02  0.00000000000E+00 0.  1.
         11    1    3    3    0    0  0.17205596906E+02  0.80142808864E+01 -0.44615752873E+01  0.19497869559E+02  0.51100000000E-03 0. -1.
        -11    1    3    3    0    0  0.85455317675E+01 -0.65198269221E+01  0.13265411786E+02  0.17073529406E+02  0.51100000000E-03 0.  1.
         12    1    3    3    0    0 -0.24200909487E+02  0.63781525564E+01 -0.25724233079E+02  0.35890124234E+02  0.00000000000E+00 0. -1.
</event>
<event>
 7    1  0.1358622E-013  0.7246139E+02  0.7816164E-02  0.1226709E+00
        -11   -1    0    0    0    0  0.00000000000E+00  0.00000000000E+00  0.45593999997E+02  0.45594000000E+02  0.51100000000E-03 0. -1.
         11   -1    0    0    0    0 -0.00000000000E+00 -0.00000000000E+00 -0.45593999997E+02  0.45594000000E+02  0.51100000000E-03 0.  1.
    9900012    2    1    2    0    0  0.12406272272E+02  0.47652415505E+01  0.13193291327E+02  0.72461386458E+02  0.69999760519E+02 0.  0.
        -12    1    1    2    0    0 -0.12406272272E+02 -0.47652415505E+01 -0.13193291327E+02  0.18726613542E+02  0.00000000000E+00 0.  1.
         11    1    3    3    0    0  0.97704652347E+01 -0.17813346501E+02  0.26792422760E+02  0.33624562778E+02  0.51100000000E-03 0. -1.
        -11    1    3    3    0    0  0.35328151752E+01 -0.34632537559E+01  0.48355197918E+01  0.69178870732E+01  0.51100000000E-03 0.  1.
        -12    1    3    3    0    0 -0.89700813813E+00  0.26041841807E+02 -0.18434651225E+02  0.31918936606E+02  0.00000000000E+00 0.  1.
</event>
<event>
 7    1  0.1598333E-013  0.7246156E+02  0.7816164E-02  0.1226708E+00
        -11   -1    0    0    0    0  0.00000000000E+00  0.00000000000E+00  0.45593999997E+02  0.45594000000E+02  0.51100000000E-03 0.  1.
         11   -1    0    0    0    0 -0.00000000000E+00 -0.00000000000E+00 -0.45593999997E+02  0.45594000000E+02  0.51100000000E-03 0. -1.
    9900012    2    1    2    0    0 -0.61401210635E+01 -0.12017642453E+02  0.12982863032E+02  0.72461560154E+02  0.69999986790E+02 0.  0.
        -12    1    1    2    0    0  0.61401210635E+01  0.12017642453E+02 -0.12982863032E+02  0.18726439846E+02  0.00000000000E+00 0.  1.
         11    1    3    3    0    0 -0.21893589474E+02 -0.25202799152E+02  0.10237253224E+02  0.34918644003E+02  0.51100000000E-03 0. -1.
        -11    1    3    3    0    0 -0.91211782465E+01 -0.13735589174E+00 -0.51930983699E+00  0.91369821174E+01  0.51100000000E-03 0.  1.
        -12    1    3    3    0    0  0.24874646657E+02  0.13322512591E+02  0.32649196450E+01  0.28405934034E+02  0.00000000000E+00 0.  1.
</event>
<event>
 7    1  0.1358622E-013  0.7246186E+02  0.7816164E-02  0.1226707E+00
        -11   -1    0    0    0    0  0.00000000000E+00  0.00000000000E+00  0.45593999997E+02  0.45594000000E+02  0.51100000000E-03 0. -1.
         11   -1    0    0    0    0 -0.00000000000E+00 -0.00000000000E+00 -0.45593999997E+02  0.45594000000E+02  0.51100000000E-03 0.  1.
    9900012    2    1    2    0    0  0.80288316640E+01 -0.10038961236E+02  0.13617104230E+02  0.72461857627E+02  0.70000374303E+02 0.  0.
        -12    1    1    2    0    0 -0.80288316640E+01  0.10038961236E+02 -0.13617104230E+02  0.18726142373E+02  0.00000000000E+00 0.  1.
         11    1    3    3    0    0  0.23010207212E+02  0.69965033047E+01  0.99409644788E+01  0.26023901888E+02  0.51100000000E-03 0. -1.
        -11    1    3    3    0    0 -0.88828378776E+00 -0.23873890392E+02  0.13987721435E+02  0.27684075599E+02  0.51100000000E-03 0.  1.
        -12    1    3    3    0    0 -0.14093091760E+02  0.68384258518E+01 -0.10311581684E+02  0.18753880140E+02  0.00000000000E+00 0.  1.
</event>
<event>
 7    1  0.1358622E-013  0.7246161E+02  0.7816164E-02  0.1226708E+00
        -11   -1    0    0    0    0  0.00000000000E+00  0.00000000000E+00  0.45593999997E+02  0.45594000000E+02  0.51100000000E-03 0. -1.
         11   -1    0    0    0    0 -0.00000000000E+00 -0.00000000000E+00 -0.45593999997E+02  0.45594000000E+02  0.51100000000E-03 0.  1.
    9900012    2    1    2    0    0  0.12575035118E+02 -0.72142321453E+01  0.11853310046E+02  0.72461611862E+02  0.70000054149E+02 0.  0.
        -12    1    1    2    0    0 -0.12575035118E+02  0.72142321453E+01 -0.11853310046E+02  0.18726388138E+02  0.00000000000E+00 0.  1.
         11    1    3    3    0    0 -0.22844614389E+02  0.64361460563E+01  0.14140858038E+02  0.27627237447E+02  0.51100000000E-03 0. -1.
        -11    1    3    3    0    0  0.35841659188E+01 -0.57729956407E+01  0.79686243723E+01  0.10472473378E+02  0.51100000000E-03 0.  1.
        -12    1    3    3    0    0  0.31835483588E+02 -0.78773825609E+01 -0.10256172365E+02  0.34361901037E+02  0.00000000000E+00 0.  1.
</event>
<event>
 7    1  0.1358622E-013  0.7246165E+02  0.7816164E-02  0.1226708E+00
        -11   -1    0    0    0    0  0.00000000000E+00  0.00000000000E+00  0.45593999997E+02  0.45594000000E+02  0.51100000000E-03 0.  1.
         11   -1    0    0    0    0 -0.00000000000E+00 -0.00000000000E+00 -0.45593999997E+02  0.45594000000E+02  0.51100000000E-03 0. -1.
    9900012    2    1    2    0    0  0.13672787739E+02 -0.56978479105E-01 -0.12795619335E+02  0.72461648373E+02  0.70000101711E+02 0.  0.
        -12    1    1    2    0    0 -0.13672787739E+02  0.56978479105E-01  0.12795619335E+02  0.18726351627E+02  0.00000000000E+00 0.  1.
         11    1    3    3    0    0  0.96256103961E+01  0.21636504860E+02 -0.17966315975E+02  0.29725060606E+02  0.51100000000E-03 0. -1.
        -11    1    3    3    0    0  0.19531993788E+02 -0.81354332352E+01 -0.11973409493E+01  0.21192396770E+02  0.51100000000E-03 0.  1.
        -12    1    3    3    0    0 -0.15484816445E+02 -0.13558050104E+02  0.63680375889E+01  0.21544190997E+02  0.00000000000E+00 0.  1.
</event>
<event>
 7    1  0.1358622E-013  0.7246156E+02  0.7816164E-02  0.1226708E+00
        -11   -1    0    0    0    0  0.00000000000E+00  0.00000000000E+00  0.45593999997E+02  0.45594000000E+02  0.51100000000E-03 0.  1.
         11   -1    0    0    0    0 -0.00000000000E+00 -0.00000000000E+00 -0.45593999997E+02  0.45594000000E+02  0.51100000000E-03 0. -1.
    9900012    2    1    2    0    0 -0.78250638424E+01 -0.17002845999E+02 -0.59260651602E+00  0.72461559370E+02  0.69999985768E+02 0.  0.
        -12    1    1    2    0    0  0.78250638424E+01  0.17002845999E+02  0.59260651602E+00  0.18726440630E+02  0.00000000000E+00 0.  1.
         11    1    3    3    0    0  0.50350385998E+01 -0.70134961711E+00 -0.17640304681E+02  0.18358209458E+02  0.51100000000E-03 0. -1.
        -11    1    3    3    0    0 -0.60880199063E+01 -0.19656275684E+02 -0.12181584152E+02  0.23912844934E+02  0.51100000000E-03 0.  1.
        -12    1    3    3    0    0 -0.67720825359E+01  0.33547793022E+01  0.29229282317E+02  0.30190504977E+02  0.00000000000E+00 0.  1.
</event>
<event>
 7    1  0.1358622E-013  0.7246159E+02  0.7816164E-02  0.1226708E+00
        -11   -1    0    0    0    0  0.00000000000E+00  0.00000000000E+00  0.45593999997E+02  0.45594000000E+02  0.51100000000E-03 0. -1.
         11   -1    0    0    0    0 -0.00000000000E+00 -0.00000000000E+00 -0.45593999997E+02  0.45594000000E+02  0.51100000000E-03 0.  1.
    9900012    2    1    2    0    0 -0.28753113463E+01 -0.23543581117E+01  0.18353962835E+02  0.72461591663E+02  0.70000027837E+02 0.  0.
        -12    1    1    2    0    0  0.28753113463E+01  0.23543581117E+01 -0.18353962835E+02  0.18726408337E+02  0.00000000000E+00 0.  1.
         11    1    3    3    0    0  0.86300678552E+01  0.65133247486E+01  0.28950581062E+01  0.11192981380E+02  0.51100000000E-03 0. -1.
        -11    1    3    3    0    0 -0.26453137816E+02  0.14088117827E+02  0.15784421913E+02  0.33873168432E+02  0.51100000000E-03 0.  1.
         12    1    3    3    0    0  0.14947758615E+02 -0.22955800687E+02 -0.32551718448E+00  0.27395441851E+02  0.00000000000E+00 0. -1.
</event>
<event>
 7    1  0.1358622E-013  0.7246162E+02  0.7816164E-02  0.1226708E+00
        -11   -1    0    0    0    0  0.00000000000E+00  0.00000000000E+00  0.45593999997E+02  0.45594000000E+02  0.51100000000E-03 0. -1.
         11   -1    0    0    0    0 -0.00000000000E+00 -0.00000000000E+00 -0.45593999997E+02  0.45594000000E+02  0.51100000000E-03 0.  1.
    9900012    2    1    2    0    0 -0.89813339806E+00 -0.15907685200E+02  0.98395247716E+01  0.72461619150E+02  0.70000063643E+02 0.  0.
        -12    1    1    2    0    0  0.89813339806E+00  0.15907685200E+02 -0.98395247716E+01  0.18726380850E+02  0.00000000000E+00 0.  1.
         11    1    3    3    0    0 -0.20818768203E+02 -0.19464562589E+02  0.23789225811E+02  0.37124352806E+02  0.51100000000E-03 0. -1.
        -11    1    3    3    0    0 -0.61670861503E+01  0.91867690640E+00 -0.30522888358E+01  0.69421456512E+01  0.51100000000E-03 0.  1.
        -12    1    3    3    0    0  0.26087720956E+02  0.26382004833E+01 -0.10897412203E+02  0.28395120693E+02  0.00000000000E+00 0.  1.
</event>
<event>
 7    1  0.1358622E-013  0.7246165E+02  0.7816164E-02  0.1226708E+00
        -11   -1    0    0    0    0  0.00000000000E+00  0.00000000000E+00  0.45593999997E+02  0.45594000000E+02  0.51100000000E-03 0.  1.
         11   -1    0    0    0    0 -0.00000000000E+00 -0.00000000000E+00 -0.45593999997E+02  0.45594000000E+02  0.51100000000E-03 0. -1.
    9900012    2    1    2    0    0 -0.10632246958E+02 -0.65031763945E+01 -0.13976411346E+02  0.72461653514E+02  0.70000108409E+02 0.  0.
        -12    1    1    2    0    0  0.10632246958E+02  0.65031763945E+01  0.13976411346E+02  0.18726346486E+02  0.00000000000E+00 0.  1.
         11    1    3    3    0    0 -0.22355987242E+02  0.18515533880E+02 -0.67860006989E+01  0.29810484165E+02  0.51100000000E-03 0. -1.
        -11    1    3    3    0    0 -0.52445462907E+00  0.37957591544E+00  0.97400083970E+01  0.97615006208E+01  0.51100000000E-03 0.  1.
         12    1    3    3    0    0  0.12248194912E+02 -0.25398286190E+02 -0.16930419044E+02  0.32889668728E+02  0.00000000000E+00 0. -1.
</event>
<event>
 7    1  0.1358622E-013  0.7246155E+02  0.7816164E-02  0.1226708E+00
        -11   -1    0    0    0    0  0.00000000000E+00  0.00000000000E+00  0.45593999997E+02  0.45594000000E+02  0.51100000000E-03 0. -1.
         11   -1    0    0    0    0 -0.00000000000E+00 -0.00000000000E+00 -0.45593999997E+02  0.45594000000E+02  0.51100000000E-03 0.  1.
    9900012    2    1    2    0    0  0.12732004034E+02 -0.13687803874E+02  0.11045442209E+01  0.72461550269E+02  0.69999973913E+02 0.  0.
        -12    1    1    2    0    0 -0.12732004034E+02  0.13687803874E+02 -0.11045442209E+01  0.18726449731E+02  0.00000000000E+00 0.  1.
         11    1    3    3    0    0 -0.41569047365E+01  0.19779351610E+02  0.80888109977E+01  0.21769967173E+02  0.51100000000E-03 0. -1.
        -11    1    3    3    0    0 -0.37984121564E+01  0.50187988835E+01  0.68026637458E+00  0.63308008770E+01  0.51100000000E-03 0.  1.
        -12    1    3    3    0    0  0.20687320926E+02 -0.38485954367E+02 -0.76645331514E+01  0.44360782219E+02  0.00000000000E+00 0.  1.
</event>
<event>
 7    1  0.1358622E-013  0.7246156E+02  0.7816164E-02  0.1226708E+00
        -11   -1    0    0    0    0  0.00000000000E+00  0.00000000000E+00  0.45593999997E+02  0.45594000000E+02  0.51100000000E-03 0. -1.
         11   -1    0    0    0    0 -0.00000000000E+00 -0.00000000000E+00 -0.45593999997E+02  0.45594000000E+02  0.51100000000E-03 0.  1.
    9900012    2    1    2    0    0 -0.46771440873E+01  0.12403501943E+01  0.18090477965E+02  0.72461560444E+02  0.69999987169E+02 0.  0.
        -12    1    1    2    0    0  0.46771440873E+01 -0.12403501943E+01 -0.18090477965E+02  0.18726439556E+02  0.00000000000E+00 0.  1.
         11    1    3    3    0    0  0.40527871890E+01  0.96646360124E+00 -0.11190195020E+02  0.11940670029E+02  0.51100000000E-03 0. -1.
        -11    1    3    3    0    0  0.20319209289E+02  0.46375588982E+01  0.29069654569E+01  0.21043470890E+02  0.51100000000E-03 0.  1.
         12    1    3    3    0    0 -0.29049140566E+02 -0.43636723052E+01  0.26373707528E+02  0.39477419525E+02  0.00000000000E+00 0. -1.
</event>
<event>
 7    1  0.1358622E-013  0.7246157E+02  0.7816164E-02  0.1226708E+00
        -11   -1    0    0    0    0  0.00000000000E+00  0.00000000000E+00  0.45593999997E+02  0.45594000000E+02  0.51100000000E-03 0. -1.
         11   -1    0    0    0    0 -0.00000000000E+00 -0.00000000000E+00 -0.45593999997E+02  0.45594000000E+02  0.51100000000E-03 0.  1.
    9900012    2    1    2    0    0 -0.35399581930E+01  0.86269063603E+01  0.16239593637E+02  0.72461568978E+02  0.69999998285E+02 0.  0.
        -12    1    1    2    0    0  0.35399581930E+01 -0.86269063603E+01 -0.16239593637E+02  0.18726431022E+02  0.00000000000E+00 0.  1.
         11    1    3    3    0    0 -0.19449366617E+02 -0.36613691651E+00  0.27024834882E+01  0.19639636842E+02  0.51100000000E-03 0. -1.
        -11    1    3    3    0    0 -0.84671861937E+00 -0.41342716695E+01 -0.15925103108E+02  0.16474769920E+02  0.51100000000E-03 0.  1.
        -12    1    3    3    0    0  0.16756127043E+02  0.13127314946E+02  0.29462213256E+02  0.36347162216E+02  0.00000000000E+00 0.  1.
</event>
<event>
 7    1  0.1358622E-013  0.7246158E+02  0.7816164E-02  0.1226708E+00
        -11   -1    0    0    0    0  0.00000000000E+00  0.00000000000E+00  0.45593999997E+02  0.45594000000E+02  0.51100000000E-03 0. -1.
         11   -1    0    0    0    0 -0.00000000000E+00 -0.00000000000E+00 -0.45593999997E+02  0.45594000000E+02  0.51100000000E-03 0.  1.
    9900012    2    1    2    0    0  0.15907971890E+01 -0.18580765887E+02  0.17038582135E+01  0.72461584714E+02  0.70000018784E+02 0.  0.
        -12    1    1    2    0    0 -0.15907971890E+01  0.18580765887E+02 -0.17038582135E+01  0.18726415286E+02  0.00000000000E+00 0.  1.
         11    1    3    3    0    0 -0.35870120284E+01  0.57193658567E+01 -0.24266613477E+02  0.25188218099E+02  0.51100000000E-03 0. -1.
        -11    1    3    3    0    0 -0.39842906107E+01  0.17591405694E+01 -0.44198064049E+01  0.62051459396E+01  0.51100000000E-03 0.  1.
        -12    1    3    3    0    0  0.91620998280E+01 -0.26059272314E+02  0.30390278095E+02  0.41068220676E+02  0.00000000000E+00 0.  1.
</event>
<event>
 7    1  0.1358622E-013  0.7246147E+02  0.7816164E-02  0.1226708E+00
        -11   -1    0    0    0    0  0.00000000000E+00  0.00000000000E+00  0.45593999997E+02  0.45594000000E+02  0.51100000000E-03 0.  1.
         11   -1    0    0    0    0 -0.00000000000E+00 -0.00000000000E+00 -0.45593999997E+02  0.45594000000E+02  0.51100000000E-03 0. -1.
    9900012    2    1    2    0    0 -0.14741510033E+02  0.22193396075E+01  0.11333376191E+02  0.72461467960E+02  0.69999866690E+02 0.  0.
        -12    1    1    2    0    0  0.14741510033E+02 -0.22193396075E+01 -0.11333376191E+02  0.18726532040E+02  0.00000000000E+00 0.  1.
         11    1    3    3    0    0 -0.24676728042E+02  0.87732318879E+01 -0.98874243047E+01  0.27994136247E+02  0.51100000000E-03 0. -1.
        -11    1    3    3    0    0  0.92041537606E+01  0.92436632148E+01 -0.48980622151E+01  0.13933871314E+02  0.51100000000E-03 0.  1.
        -12    1    3    3    0    0  0.73106424765E+00 -0.15797555495E+02  0.26118862711E+02  0.30533460398E+02  0.00000000000E+00 0.  1.
</event>
<event>
 7    1  0.1358622E-013  0.7246157E+02  0.7816164E-02  0.1226708E+00
        -11   -1    0    0    0    0  0.00000000000E+00  0.00000000000E+00  0.45593999997E+02  0.45594000000E+02  0.51100000000E-03 0.  1.
         11   -1    0    0    0    0 -0.00000000000E+00 -0.00000000000E+00 -0.45593999997E+02  0.45594000000E+02  0.51100000000E-03 0. -1.
    9900012    2    1    2    0    0  0.16175051990E+02 -0.21623360501E+01 -0.91853692916E+01  0.72461574471E+02  0.70000005441E+02 0.  0.
        -12    1    1    2    0    0 -0.16175051990E+02  0.21623360501E+01  0.91853692916E+01  0.18726425529E+02  0.00000000000E+00 0.  1.
         11    1    3    3    0    0 -0.35225910339E+01 -0.13001476368E+02 -0.35355284735E+01  0.13926485457E+02  0.51100000000E-03 0. -1.
        -11    1    3    3    0    0  0.26015299105E+02 -0.15711771739E+02  0.11324712516E+01  0.30412794184E+02  0.51100000000E-03 0.  1.
         12    1    3    3    0    0 -0.63176560808E+01  0.26550912058E+02 -0.67823120696E+01  0.28122294829E+02  0.00000000000E+00 0. -1.
</event>
<event>
 7    1  0.1358622E-013  0.7246156E+02  0.7816164E-02  0.1226708E+00
        -11   -1    0    0    0    0  0.00000000000E+00  0.00000000000E+00  0.45593999997E+02  0.45594000000E+02  0.51100000000E-03 0.  1.
         11   -1    0    0    0    0 -0.00000000000E+00 -0.00000000000E+00 -0.45593999997E+02  0.45594000000E+02  0.51100000000E-03 0. -1.
    9900012    2    1    2    0    0 -0.13590477562E+02  0.12404358359E+02  0.34799817924E+01  0.72461562540E+02  0.69999989899E+02 0.  0.
        -12    1    1    2    0    0  0.13590477562E+02 -0.12404358359E+02 -0.34799817924E+01  0.18726437460E+02  0.00000000000E+00 0.  1.
         11    1    3    3    0    0  0.61236466310E+01  0.41129155645E+00 -0.89863678696E+00  0.62028829702E+01  0.51100000000E-03 0. -1.
        -11    1    3    3    0    0  0.61931380378E+01 -0.21535555656E+02 -0.47705049499E+01  0.22910539799E+02  0.51100000000E-03 0.  1.
         12    1    3    3    0    0 -0.25907262231E+02  0.33528622458E+02  0.91491235293E+01  0.43348139771E+02  0.00000000000E+00 0. -1.
</event>
<event>
 7    1  0.1358622E-013  0.7246156E+02  0.7816164E-02  0.1226708E+00
        -11   -1    0    0    0    0  0.00000000000E+00  0.00000000000E+00  0.45593999997E+02  0.45594000000E+02  0.51100000000E-03 0.  1.
         11   -1    0    0    0    0 -0.00000000000E+00 -0.00000000000E+00 -0.45593999997E+02  0.45594000000E+02  0.51100000000E-03 0. -1.
    9900012    2    1    2    0    0 -0.82592209659E+01 -0.16536277719E+02  0.30027108762E+01  0.72461561888E+02  0.69999989049E+02 0.  0.
        -12    1    1    2    0    0  0.82592209659E+01  0.16536277719E+02 -0.30027108762E+01  0.18726438112E+02  0.00000000000E+00 0.  1.
         11    1    3    3    0    0  0.21537942487E+02  0.45310031152E+01 -0.99971939408E+00  0.22032076500E+02  0.51100000000E-03 0. -1.
        -11    1    3    3    0    0  0.63361118010E+01  0.25325546520E+01 -0.13041508388E+01  0.69470105435E+01  0.51100000000E-03 0.  1.
        -12    1    3    3    0    0 -0.36133275254E+02 -0.23599835486E+02  0.53065811090E+01  0.43482474844E+02  0.00000000000E+00 0.  1.
</event>
<event>
 7    1  0.1358622E-013  0.7246157E+02  0.7816164E-02  0.1226708E+00
        -11   -1    0    0    0    0  0.00000000000E+00  0.00000000000E+00  0.45593999997E+02  0.45594000000E+02  0.51100000000E-03 0. -1.
         11   -1    0    0    0    0 -0.00000000000E+00 -0.00000000000E+00 -0.45593999997E+02  0.45594000000E+02  0.51100000000E-03 0.  1.
    9900012    2    1    2    0    0  0.41197618870E+01  0.18110592302E+02  0.23902264067E+01  0.72461570180E+02  0.69999999851E+02 0.  0.
        -12    1    1    2    0    0 -0.41197618870E+01 -0.18110592302E+02 -0.23902264067E+01  0.18726429820E+02  0.00000000000E+00 0.  1.
         11    1    3    3    0    0 -0.97793084076E+00 -0.33280096521E+01  0.23073772057E+02  0.23333044254E+02  0.51100000000E-03 0. -1.
        -11    1    3    3    0    0  0.42948474790E+01 -0.43000427498E+01  0.83454095453E+01  0.10323853121E+02  0.51100000000E-03 0.  1.
        -12    1    3    3    0    0  0.80284524867E+00  0.25738644704E+02 -0.29028955196E+02  0.38804672804E+02  0.00000000000E+00 0.  1.
</event>
<event>
 7    1  0.1358622E-013  0.7246170E+02  0.7816164E-02  0.1226708E+00
        -11   -1    0    0    0    0  0.00000000000E+00  0.00000000000E+00  0.45593999997E+02  0.45594000000E+02  0.51100000000E-03 0.  1.
         11   -1    0    0    0    0 -0.00000000000E+00 -0.00000000000E+00 -0.45593999997E+02  0.45594000000E+02  0.51100000000E-03 0. -1.
    9900012    2    1    2    0    0 -0.92605605697E+01 -0.12341595653E+02 -0.10611382200E+02  0.72461697708E+02  0.70000165980E+02 0.  0.
        -12    1    1    2    0    0  0.92605605697E+01  0.12341595653E+02  0.10611382200E+02  0.18726302292E+02  0.00000000000E+00 0.  1.
         11    1    3    3    0    0  0.53976289594E+01 -0.15360232141E+02 -0.13907164956E+02  0.21412154660E+02  0.51100000000E-03 0. -1.
        -11    1    3    3    0    0  0.10114409685E+02 -0.14659186185E+02 -0.66822530487E+01  0.19022237748E+02  0.51100000000E-03 0.  1.
        -12    1    3    3    0    0 -0.24772599214E+02  0.17677822673E+02  0.99780358046E+01  0.32027305300E+02  0.00000000000E+00 0.  1.
</event>
<event>
 7    1  0.1358622E-013  0.7246156E+02  0.7816164E-02  0.1226708E+00
        -11   -1    0    0    0    0  0.00000000000E+00  0.00000000000E+00  0.45593999997E+02  0.45594000000E+02  0.51100000000E-03 0. -1.
         11   -1    0    0    0    0 -0.00000000000E+00 -0.00000000000E+00 -0.45593999997E+02  0.45594000000E+02  0.51100000000E-03 0.  1.
    9900012    2    1    2    0    0  0.80796280332E+01  0.14063793833E+02  0.93599577804E+01  0.72461561583E+02  0.69999988652E+02 0.  0.
        -12    1    1    2    0    0 -0.80796280332E+01 -0.14063793833E+02 -0.93599577804E+01  0.18726438417E+02  0.00000000000E+00 0.  1.
         11    1    3    3    0    0  0.43624058712E+00  0.13104607370E+01  0.35383984690E+01  0.37984045571E+01  0.51100000000E-03 0. -1.
        -11    1    3    3    0    0  0.12112404770E+02 -0.15079703150E+02  0.27135205738E+02  0.33323072894E+02  0.51100000000E-03 0.  1.
         12    1    3    3    0    0 -0.44690173235E+01  0.27833036246E+02 -0.21313646426E+02  0.35340084132E+02  0.00000000000E+00 0. -1.
</event>
<event>
 7    1  0.1358622E-013  0.7246159E+02  0.7816164E-02  0.1226708E+00
        -11   -1    0    0    0    0  0.00000000000E+00  0.00000000000E+00  0.45593999997E+02  0.45594000000E+02  0.51100000000E-03 0. -1.
         11   -1    0    0    0    0 -0.00000000000E+00 -0.00000000000E+00 -0.45593999997E+02  0.45594000000E+02  0.51100000000E-03 0.  1.
    9900012    2    1    2    0    0 -0.12496090139E+02 -0.59437583280E+01  0.12617362830E+02  0.72461591465E+02  0.70000027579E+02 0.  0.
        -12    1    1    2    0    0  0.12496090139E+02  0.59437583280E+01 -0.12617362830E+02  0.18726408535E+02  0.00000000000E+00 0.  1.
         11    1    3    3    0    0  0.14006141610E+02 -0.10022872362E+02 -0.31132845394E+01  0.17502071708E+02  0.51100000000E-03 0. -1.
        -11    1    3    3    0    0 -0.71204164206E+01  0.19942052597E+02 -0.57741276196E+01  0.21948265121E+02  0.51100000000E-03 0.  1.
         12    1    3    3    0    0 -0.19381815329E+02 -0.15862938563E+02  0.21504774989E+02  0.33011254636E+02  0.00000000000E+00 0. -1.
</event>
<event>
 7    1  0.1358622E-013  0.7246158E+02  0.7816164E-02  0.1226708E+00
        -11   -1    0    0    0    0  0.00000000000E+00  0.00000000000E+00  0.45593999997E+02  0.45594000000E+02  0.51100000000E-03 0. -1.
         11   -1    0    0    0    0 -0.00000000000E+00 -0.00000000000E+00 -0.45593999997E+02  0.45594000000E+02  0.51100000000E-03 0.  1.
    9900012    2    1    2    0    0 -0.13832683832E+02 -0.11718518327E+02 -0.46916828930E+01  0.72461582773E+02  0.70000016256E+02 0.  0.
        -12    1    1    2    0    0  0.13832683832E+02  0.11718518327E+02  0.46916828930E+01  0.18726417227E+02  0.00000000000E+00 0.  1.
         11    1    3    3    0    0 -0.73010019677E+01 -0.11518025798E+02  0.19094780478E+02  0.23464445227E+02  0.51100000000E-03 0. -1.
        -11    1    3    3    0    0  0.11221934042E+02 -0.18663267325E+01  0.70447509484E+01  0.13380713557E+02  0.51100000000E-03 0.  1.
        -12    1    3    3    0    0 -0.17753615907E+02  0.16658342040E+01 -0.30831214319E+02  0.35616423989E+02  0.00000000000E+00 0.  1.
</event>
<event>
 7    1  0.1358622E-013  0.7246156E+02  0.7816164E-02  0.1226708E+00
        -11   -1    0    0    0    0  0.00000000000E+00  0.00000000000E+00  0.45593999997E+02  0.45594000000E+02  0.51100000000E-03 0.  1.
         11   -1    0    0    0    0 -0.00000000000E+00 -0.00000000000E+00 -0.45593999997E+02  0.45594000000E+02  0.51100000000E-03 0. -1.
    9900012    2    1    2    0    0 -0.19587078916E+01  0.55444956293E+01 -0.17779247559E+02  0.72461558476E+02  0.69999984604E+02 0.  0.
        -12    1    1    2    0    0  0.19587078916E+01 -0.55444956293E+01  0.17779247559E+02  0.18726441524E+02  0.00000000000E+00 0.  1.
         11    1    3    3    0    0  0.15142665563E+02  0.14428383772E+02 -0.58884195018E+00  0.20924275704E+02  0.51100000000E-03 0. -1.
        -11    1    3    3    0    0  0.15686370873E+01  0.10965640498E+02  0.85953490087E+01  0.14020910052E+02  0.51100000000E-03 0.  1.
        -12    1    3    3    0    0 -0.18670010542E+02 -0.19849528640E+02 -0.25785754618E+02  0.37516372720E+02  0.00000000000E+00 0.  1.
</event>
<event>
 7    1  0.1358622E-013  0.7246144E+02  0.7816164E-02  0.1226708E+00
        -11   -1    0    0    0    0  0.00000000000E+00  0.00000000000E+00  0.45593999997E+02  0.45594000000E+02  0.51100000000E-03 0.  1.
         11   -1    0    0    0    0 -0.00000000000E+00 -0.00000000000E+00 -0.45593999997E+02  0.45594000000E+02  0.51100000000E-03 0. -1.
    9900012    2    1    2    0    0  0.30938110736E+01 -0.18242371418E+02 -0.28858721251E+01  0.72461440256E+02  0.69999830601E+02 0.  0.
        -12    1    1    2    0    0 -0.30938110736E+01  0.18242371418E+02  0.28858721251E+01  0.18726559744E+02  0.00000000000E+00 0.  1.
         11    1    3    3    0    0  0.72740202072E+01 -0.13319495772E+02 -0.10152432309E+02  0.18259031180E+02  0.51100000000E-03 0. -1.
        -11    1    3    3    0    0 -0.84115313265E+01  0.35095609415E+01  0.29059306487E+02  0.30455117320E+02  0.51100000000E-03 0.  1.
         12    1    3    3    0    0  0.42313221929E+01 -0.84324365877E+01 -0.21792746303E+02  0.23747291755E+02  0.00000000000E+00 0. -1.
</event>
<event>
 7    1  0.1358622E-013  0.7246158E+02  0.7816164E-02  0.1226708E+00
        -11   -1    0    0    0    0  0.00000000000E+00  0.00000000000E+00  0.45593999997E+02  0.45594000000E+02  0.51100000000E-03 0.  1.
         11   -1    0    0    0    0 -0.00000000000E+00 -0.00000000000E+00 -0.45593999997E+02  0.45594000000E+02  0.51100000000E-03 0. -1.
    9900012    2    1    2    0    0 -0.14961162291E+02  0.83894310541E+01  0.75139818392E+01  0.72461578729E+02  0.70000010988E+02 0.  0.
        -12    1    1    2    0    0  0.14961162291E+02 -0.83894310541E+01 -0.75139818392E+01  0.18726421271E+02  0.00000000000E+00 0.  1.
         11    1    3    3    0    0 -0.12786222505E+02  0.17202206101E+02  0.15776289532E+02  0.26613806423E+02  0.51100000000E-03 0. -1.
        -11    1    3    3    0    0 -0.29420238632E+01 -0.10301670439E+02  0.17236103415E+02  0.20294412517E+02  0.51100000000E-03 0.  1.
         12    1    3    3    0    0  0.76708407681E+00  0.14888953926E+01 -0.25498411108E+02  0.25553359789E+02  0.00000000000E+00 0. -1.
</event>
<event>
 7    1  0.1358622E-013  0.7246159E+02  0.7816164E-02  0.1226708E+00
        -11   -1    0    0    0    0  0.00000000000E+00  0.00000000000E+00  0.45593999997E+02  0.45594000000E+02  0.51100000000E-03 0.  1.
         11   -1    0    0    0    0 -0.00000000000E+00 -0.00000000000E+00 -0.45593999997E+02  0.45594000000E+02  0.51100000000E-03 0. -1.
    9900012    2    1    2    0    0  0.10362953555E+01 -0.18685981782E+02 -0.66231233705E+00  0.72461588682E+02  0.70000023953E+02 0.  0.
        -12    1    1    2    0    0 -0.10362953555E+01  0.18685981782E+02  0.66231233705E+00  0.18726411318E+02  0.00000000000E+00 0.  1.
         11    1    3    3    0    0 -0.14847379699E+02 -0.56938741525E+01 -0.22723642532E+02  0.27734974617E+02  0.51100000000E-03 0. -1.
        -11    1    3    3    0    0 -0.99633689215E+01 -0.66716134563E+01  0.43175273812E+01  0.12744417967E+02  0.51100000000E-03 0.  1.
        -12    1    3    3    0    0  0.25847043976E+02 -0.63204941736E+01  0.17743802814E+02  0.31982196097E+02  0.00000000000E+00 0.  1.
</event>
<event>
 7    1  0.1358622E-013  0.7246155E+02  0.7816164E-02  0.1226708E+00
        -11   -1    0    0    0    0  0.00000000000E+00  0.00000000000E+00  0.45593999997E+02  0.45594000000E+02  0.51100000000E-03 0.  1.
         11   -1    0    0    0    0 -0.00000000000E+00 -0.00000000000E+00 -0.45593999997E+02  0.45594000000E+02  0.51100000000E-03 0. -1.
    9900012    2    1    2    0    0 -0.18209307823E+02  0.32292484772E+01 -0.29450001679E+01  0.72461549105E+02  0.69999972398E+02 0.  0.
        -12    1    1    2    0    0  0.18209307823E+02 -0.32292484772E+01  0.29450001679E+01  0.18726450895E+02  0.00000000000E+00 0.  1.
         11    1    3    3    0    0  0.10368642124E+02 -0.21213178748E+02 -0.16302239254E+02  0.28692694140E+02  0.51100000000E-03 0. -1.
        -11    1    3    3    0    0 -0.48736074719E+01 -0.25873461075E+01  0.33319352062E+01  0.64457894900E+01  0.51100000000E-03 0.  1.
        -12    1    3    3    0    0 -0.23704342475E+02  0.27029773332E+02  0.10025303880E+02  0.37323065475E+02  0.00000000000E+00 0.  1.
</event>
<event>
 7    1  0.1358622E-013  0.7246157E+02  0.7816164E-02  0.1226708E+00
        -11   -1    0    0    0    0  0.00000000000E+00  0.00000000000E+00  0.45593999997E+02  0.45594000000E+02  0.51100000000E-03 0. -1.
         11   -1    0    0    0    0 -0.00000000000E+00 -0.00000000000E+00 -0.45593999997E+02  0.45594000000E+02  0.51100000000E-03 0.  1.
    9900012    2    1    2    0    0  0.40783309478E+01  0.18235358155E+02  0.12320933566E+01  0.72461571499E+02  0.70000001570E+02 0.  0.
        -12    1    1    2    0    0 -0.40783309478E+01 -0.18235358155E+02 -0.12320933566E+01  0.18726428501E+02  0.00000000000E+00 0.  1.
         11    1    3    3    0    0 -0.18492348109E+02 -0.48130002200E+01  0.13344678925E+02  0.23306916690E+02  0.51100000000E-03 0. -1.
        -11    1    3    3    0    0 -0.47282073358E+01  0.17990127906E+01  0.77565394795E+01  0.92604695664E+01  0.51100000000E-03 0.  1.
        -12    1    3    3    0    0  0.27298886393E+02  0.21249345584E+02 -0.19869125048E+02  0.39894185243E+02  0.00000000000E+00 0.  1.
</event>
<event>
 7    1  0.1358622E-013  0.7246155E+02  0.7816164E-02  0.1226708E+00
        -11   -1    0    0    0    0  0.00000000000E+00  0.00000000000E+00  0.45593999997E+02  0.45594000000E+02  0.51100000000E-03 0. -1.
         11   -1    0    0    0    0 -0.00000000000E+00 -0.00000000000E+00 -0.45593999997E+02  0.45594000000E+02  0.51100000000E-03 0.  1.
    9900012    2    1    2    0    0  0.82528504275E+01  0.13676216286E+02  0.97740304519E+01  0.72461545361E+02  0.69999967519E+02 0.  0.
        -12    1    1    2    0    0 -0.82528504275E+01 -0.13676216286E+02 -0.97740304519E+01  0.18726454639E+02  0.00000000000E+00 0.  1.
         11    1    3    3    0    0  0.14731255563E+02  0.10681159504E+02  0.11445062990E+01  0.18232030983E+02  0.51100000000E-03 0.  1.
        -11    1    3    3    0    0 -0.16724203987E+02  0.21341993803E+02 -0.70438824765E+01  0.28014210307E+02  0.51100000000E-03 0. -1.
        -12    1    3    3    0    0  0.10245798852E+02 -0.18346937022E+02  0.15673406629E+02  0.26215304071E+02  0.00000000000E+00 0.  1.
</event>
<event>
 7    1  0.1358622E-013  0.7246145E+02  0.7816164E-02  0.1226708E+00
        -11   -1    0    0    0    0  0.00000000000E+00  0.00000000000E+00  0.45593999997E+02  0.45594000000E+02  0.51100000000E-03 0. -1.
         11   -1    0    0    0    0 -0.00000000000E+00 -0.00000000000E+00 -0.45593999997E+02  0.45594000000E+02  0.51100000000E-03 0.  1.
    9900012    2    1    2    0    0  0.11413085114E+02 -0.73772894290E+01  0.12884126125E+02  0.72461451543E+02  0.69999845304E+02 0.  0.
        -12    1    1    2    0    0 -0.11413085114E+02  0.73772894290E+01 -0.12884126125E+02  0.18726548457E+02  0.00000000000E+00 0.  1.
         11    1    3    3    0    0  0.10341769122E+02 -0.99083783347E+01 -0.95909174994E+01  0.17236990704E+02  0.51100000000E-03 0. -1.
        -11    1    3    3    0    0 -0.17820951500E+00  0.22406693514E+02 -0.33032820454E+01  0.22649577157E+02  0.51100000000E-03 0.  1.
         12    1    3    3    0    0  0.12495255070E+01 -0.19875604609E+02  0.25778325669E+02  0.32574883681E+02  0.00000000000E+00 0. -1.
</event>
<event>
 7    1  0.1358622E-013  0.7246160E+02  0.7816164E-02  0.1226708E+00
        -11   -1    0    0    0    0  0.00000000000E+00  0.00000000000E+00  0.45593999997E+02  0.45594000000E+02  0.51100000000E-03 0.  1.
         11   -1    0    0    0    0 -0.00000000000E+00 -0.00000000000E+00 -0.45593999997E+02  0.45594000000E+02  0.51100000000E-03 0. -1.
    9900012    2    1    2    0    0 -0.76578740168E+01 -0.17056370173E+02 -0.10559791100E+01  0.72461604463E+02  0.70000044511E+02 0.  0.
        -12    1    1    2    0    0  0.76578740168E+01  0.17056370173E+02  0.10559791100E+01  0.18726395537E+02  0.00000000000E+00 0.  1.
         11    1    3    3    0    0 -0.12850255861E+02  0.11787272189E+02 -0.92834474178E+01  0.19754778095E+02  0.51100000000E-03 0. -1.
        -11    1    3    3    0    0 -0.79524876220E+01  0.81430994138E+01 -0.32014034118E+01  0.11823752006E+02  0.51100000000E-03 0.  1.
        -12    1    3    3    0    0  0.13144869466E+02 -0.36986741776E+02  0.11428871720E+02  0.40883074362E+02  0.00000000000E+00 0.  1.
</event>
<event>
 7    1  0.1358622E-013  0.7246149E+02  0.7816164E-02  0.1226708E+00
        -11   -1    0    0    0    0  0.00000000000E+00  0.00000000000E+00  0.45593999997E+02  0.45594000000E+02  0.51100000000E-03 0. -1.
         11   -1    0    0    0    0 -0.00000000000E+00 -0.00000000000E+00 -0.45593999997E+02  0.45594000000E+02  0.51100000000E-03 0.  1.
    9900012    2    1    2    0    0 -0.12345506127E+01  0.18306582397E+02 -0.37452716643E+01  0.72461491139E+02  0.69999896886E+02 0.  0.
        -12    1    1    2    0    0  0.12345506127E+01 -0.18306582397E+02  0.37452716643E+01  0.18726508861E+02  0.00000000000E+00 0.  1.
         11    1    3    3    0    0 -0.12636967905E-02 -0.96584836263E+01 -0.56989391264E+01  0.11214464543E+02  0.51100000000E-03 0. -1.
        -11    1    3    3    0    0 -0.11605133638E+02 -0.13279754670E+02  0.57480676982E+01  0.18549158832E+02  0.51100000000E-03 0.  1.
         12    1    3    3    0    0  0.10371846722E+02  0.41244820694E+02 -0.37944002361E+01  0.42697867764E+02  0.00000000000E+00 0. -1.
</event>
<event>
 7    1  0.1358622E-013  0.7246150E+02  0.7816164E-02  0.1226708E+00
        -11   -1    0    0    0    0  0.00000000000E+00  0.00000000000E+00  0.45593999997E+02  0.45594000000E+02  0.51100000000E-03 0. -1.
         11   -1    0    0    0    0 -0.00000000000E+00 -0.00000000000E+00 -0.45593999997E+02  0.45594000000E+02  0.51100000000E-03 0.  1.
    9900012    2    1    2    0    0  0.13211784249E+02  0.10415457509E+02 -0.82248807365E+01  0.72461503764E+02  0.69999913332E+02 0.  0.
        -12    1    1    2    0    0 -0.13211784249E+02 -0.10415457509E+02  0.82248807365E+01  0.18726496236E+02  0.00000000000E+00 0.  1.
         11    1    3    3    0    0  0.21003593082E+01 -0.13951017497E+02 -0.16165478735E+02  0.21456120372E+02  0.51100000000E-03 0. -1.
        -11    1    3    3    0    0  0.20551670564E+02  0.18993288002E+02 -0.10263383979E+02  0.29806932131E+02  0.51100000000E-03 0.  1.
         12    1    3    3    0    0 -0.94402456235E+01  0.53731870034E+01  0.18203981977E+02  0.21198451260E+02  0.00000000000E+00 0. -1.
</event>
<event>
 7    1  0.1358622E-013  0.7246159E+02  0.7816164E-02  0.1226708E+00
        -11   -1    0    0    0    0  0.00000000000E+00  0.00000000000E+00  0.45593999997E+02  0.45594000000E+02  0.51100000000E-03 0. -1.
         11   -1    0    0    0    0 -0.00000000000E+00 -0.00000000000E+00 -0.45593999997E+02  0.45594000000E+02  0.51100000000E-03 0.  1.
    9900012    2    1    2    0    0  0.11199996082E+02 -0.49853276882E+01  0.14155736102E+02  0.72461594339E+02  0.70000031322E+02 0.  0.
        -12    1    1    2    0    0 -0.11199996082E+02  0.49853276882E+01 -0.14155736102E+02  0.18726405661E+02  0.00000000000E+00 0.  1.
         11    1    3    3    0    0 -0.40392967121E+01 -0.30866793359E+02  0.17531637364E+02  0.35727204748E+02  0.51100000000E-03 0. -1.
        -11    1    3    3    0    0  0.93373805167E+01  0.88979703141E+00 -0.56580472146E+01  0.10954081989E+02  0.51100000000E-03 0.  1.
        -12    1    3    3    0    0  0.59019122771E+01  0.24991668639E+02  0.22821459534E+01  0.25780307602E+02  0.00000000000E+00 0.  1.
</event>
<event>
 7    1  0.1358622E-013  0.7246153E+02  0.7816164E-02  0.1226708E+00
        -11   -1    0    0    0    0  0.00000000000E+00  0.00000000000E+00  0.45593999997E+02  0.45594000000E+02  0.51100000000E-03 0.  1.
         11   -1    0    0    0    0 -0.00000000000E+00 -0.00000000000E+00 -0.45593999997E+02  0.45594000000E+02  0.51100000000E-03 0. -1.
    9900012    2    1    2    0    0  0.84553175782E+01  0.26198625108E+01  0.16502265259E+02  0.72461525863E+02  0.69999942120E+02 0.  0.
        -12    1    1    2    0    0 -0.84553175782E+01 -0.26198625108E+01 -0.16502265259E+02  0.18726474137E+02  0.00000000000E+00 0.  1.
         11    1    3    3    0    0 -0.49271254631E+01 -0.18318351849E+02  0.84429326623E+01  0.20763470134E+02  0.51100000000E-03 0. -1.
        -11    1    3    3    0    0  0.20057134903E+02 -0.65752623644E+01  0.99264285342E+01  0.23325023460E+02  0.51100000000E-03 0.  1.
         12    1    3    3    0    0 -0.66746918618E+01  0.27513476725E+02 -0.18670959378E+01  0.28373032270E+02  0.00000000000E+00 0. -1.
</event>
<event>
 7    1  0.1358622E-013  0.7246162E+02  0.7816164E-02  0.1226708E+00
        -11   -1    0    0    0    0  0.00000000000E+00  0.00000000000E+00  0.45593999997E+02  0.45594000000E+02  0.51100000000E-03 0. -1.
         11   -1    0    0    0    0 -0.00000000000E+00 -0.00000000000E+00 -0.45593999997E+02  0.45594000000E+02  0.51100000000E-03 0.  1.
    9900012    2    1    2    0    0 -0.13969973076E+02  0.11244730802E+02 -0.53919545199E+01  0.72461620422E+02  0.70000065301E+02 0.  0.
        -12    1    1    2    0    0  0.13969973076E+02 -0.11244730802E+02  0.53919545199E+01  0.18726379578E+02  0.00000000000E+00 0.  1.
         11    1    3    3    0    0  0.65497890218E+01 -0.23048748935E+01  0.95711622018E+01  0.11824522428E+02  0.51100000000E-03 0. -1.
        -11    1    3    3    0    0  0.78114784173E+01  0.99964125672E+01  0.14731814223E+02  0.19441548545E+02  0.51100000000E-03 0.  1.
         12    1    3    3    0    0 -0.28331240515E+02  0.35531931278E+01 -0.29694930945E+02  0.41195549448E+02  0.00000000000E+00 0. -1.
</event>
<event>
 7    1  0.1358622E-013  0.7246180E+02  0.7816164E-02  0.1226707E+00
        -11   -1    0    0    0    0  0.00000000000E+00  0.00000000000E+00  0.45593999997E+02  0.45594000000E+02  0.51100000000E-03 0. -1.
         11   -1    0    0    0    0 -0.00000000000E+00 -0.00000000000E+00 -0.45593999997E+02  0.45594000000E+02  0.51100000000E-03 0.  1.
    9900012    2    1    2    0    0 -0.44796572464E+01  0.11088844428E+02  0.14409741650E+02  0.72461802997E+02  0.70000303138E+02 0.  0.
        -12    1    1    2    0    0  0.44796572464E+01 -0.11088844428E+02 -0.14409741650E+02  0.18726197003E+02  0.00000000000E+00 0.  1.
         11    1    3    3    0    0  0.13407652479E+02  0.25181670555E+01 -0.26454720833E+01  0.13896216504E+02  0.51100000000E-03 0. -1.
        -11    1    3    3    0    0  0.17895627405E+02 -0.31002028742E+01  0.31067108467E+01  0.18425970548E+02  0.51100000000E-03 0.  1.
         12    1    3    3    0    0 -0.35782937131E+02  0.11670880246E+02  0.13948502887E+02  0.40139615945E+02  0.00000000000E+00 0. -1.
</event>
<event>
 7    1  0.1358622E-013  0.7246166E+02  0.7816164E-02  0.1226708E+00
        -11   -1    0    0    0    0  0.00000000000E+00  0.00000000000E+00  0.45593999997E+02  0.45594000000E+02  0.51100000000E-03 0. -1.
         11   -1    0    0    0    0 -0.00000000000E+00 -0.00000000000E+00 -0.45593999997E+02  0.45594000000E+02  0.51100000000E-03 0.  1.
    9900012    2    1    2    0    0  0.15532373998E+02  0.63925455087E+01  0.82798781139E+01  0.72461663955E+02  0.70000122010E+02 0.  0.
        -12    1    1    2    0    0 -0.15532373998E+02 -0.63925455087E+01 -0.82798781139E+01  0.18726336045E+02  0.00000000000E+00 0.  1.
         11    1    3    3    0    0  0.16201493321E+02  0.23707759968E+02  0.18811333194E+02  0.34328013711E+02  0.51100000000E-03 0. -1.
        -11    1    3    3    0    0  0.14800242062E+02 -0.10443193925E+02  0.15703720412E+00  0.18114417611E+02  0.51100000000E-03 0.  1.
        -12    1    3    3    0    0 -0.15469361385E+02 -0.68720205349E+01 -0.10688492284E+02  0.20019232633E+02  0.00000000000E+00 0.  1.
</event>
<event>
 7    1  0.1358622E-013  0.7246170E+02  0.7816164E-02  0.1226708E+00
        -11   -1    0    0    0    0  0.00000000000E+00  0.00000000000E+00  0.45593999997E+02  0.45594000000E+02  0.51100000000E-03 0.  1.
         11   -1    0    0    0    0 -0.00000000000E+00 -0.00000000000E+00 -0.45593999997E+02  0.45594000000E+02  0.51100000000E-03 0. -1.
    9900012    2    1    2    0    0  0.10301409705E+01  0.16029882571E+02 -0.96257918264E+01  0.72461703144E+02  0.70000173061E+02 0.  0.
        -12    1    1    2    0    0 -0.10301409705E+01 -0.16029882571E+02  0.96257918264E+01  0.18726296856E+02  0.00000000000E+00 0.  1.
         11    1    3    3    0    0  0.14418776312E+01 -0.52144340878E+01 -0.11945873723E+02  0.13113856536E+02  0.51100000000E-03 0. -1.
        -11    1    3    3    0    0  0.21583708668E+02  0.42706649402E+01 -0.14981024341E+02  0.26618154509E+02  0.51100000000E-03 0.  1.
        -12    1    3    3    0    0 -0.21995445329E+02  0.16973651718E+02  0.17301106238E+02  0.32729692099E+02  0.00000000000E+00 0.  1.
</event>
<event>
 7    1  0.1358622E-013  0.7246156E+02  0.7816164E-02  0.1226708E+00
        -11   -1    0    0    0    0  0.00000000000E+00  0.00000000000E+00  0.45593999997E+02  0.45594000000E+02  0.51100000000E-03 0. -1.
         11   -1    0    0    0    0 -0.00000000000E+00 -0.00000000000E+00 -0.45593999997E+02  0.45594000000E+02  0.51100000000E-03 0.  1.
    9900012    2    1    2    0    0 -0.36776905987E+01  0.63433906532E+01  0.17231241670E+02  0.72461556061E+02  0.69999981458E+02 0.  0.
        -12    1    1    2    0    0  0.36776905987E+01 -0.63433906532E+01 -0.17231241670E+02  0.18726443939E+02  0.00000000000E+00 0.  1.
         11    1    3    3    0    0 -0.13602427416E+02  0.15567685965E+01  0.19580007530E+02  0.23891970518E+02  0.51100000000E-03 0. -1.
        -11    1    3    3    0    0  0.68265215005E+01 -0.34738837606E+01  0.21668888290E+02  0.22982819326E+02  0.51100000000E-03 0.  1.
         12    1    3    3    0    0  0.30982153169E+01  0.82605058173E+01 -0.24017654151E+02  0.25586766217E+02  0.00000000000E+00 0. -1.
</event>
<event>
 7    1  0.1358622E-013  0.7246148E+02  0.7816164E-02  0.1226708E+00
        -11   -1    0    0    0    0  0.00000000000E+00  0.00000000000E+00  0.45593999997E+02  0.45594000000E+02  0.51100000000E-03 0.  1.
         11   -1    0    0    0    0 -0.00000000000E+00 -0.00000000000E+00 -0.45593999997E+02  0.45594000000E+02  0.51100000000E-03 0. -1.
    9900012    2    1    2    0    0 -0.17435249066E+02 -0.55942455556E+01  0.39241857370E+01  0.72461475308E+02  0.69999876263E+02 0.  0.
        -12    1    1    2    0    0  0.17435249066E+02  0.55942455556E+01 -0.39241857370E+01  0.18726524692E+02  0.00000000000E+00 0.  1.
         11    1    3    3    0    0  0.51728428553E+01 -0.12361594652E+02  0.54210093782E+01  0.14455264386E+02  0.51100000000E-03 0. -1.
        -11    1    3    3    0    0  0.11852396200E+02  0.17868563337E+02  0.24752282866E+01  0.21584522388E+02  0.51100000000E-03 0.  1.
         12    1    3    3    0    0 -0.34460488121E+02 -0.11101214240E+02 -0.39720519278E+01  0.36421688534E+02  0.00000000000E+00 0. -1.
</event>
<event>
 7    1  0.1358622E-013  0.7246157E+02  0.7816164E-02  0.1226708E+00
        -11   -1    0    0    0    0  0.00000000000E+00  0.00000000000E+00  0.45593999997E+02  0.45594000000E+02  0.51100000000E-03 0.  1.
         11   -1    0    0    0    0 -0.00000000000E+00 -0.00000000000E+00 -0.45593999997E+02  0.45594000000E+02  0.51100000000E-03 0. -1.
    9900012    2    1    2    0    0  0.94624493406E+01  0.12260792449E+02 -0.10526829797E+02  0.72461571494E+02  0.70000001563E+02 0.  0.
        -12    1    1    2    0    0 -0.94624493406E+01 -0.12260792449E+02  0.10526829797E+02  0.18726428506E+02  0.00000000000E+00 0.  1.
         11    1    3    3    0    0 -0.14306957070E+02 -0.16500826199E+01  0.30305516535E+01  0.14717202072E+02  0.51100000000E-03 0. -1.
        -11    1    3    3    0    0 -0.62605807906E+01  0.19901999692E+02  0.56275749329E+01  0.21609119914E+02  0.51100000000E-03 0.  1.
         12    1    3    3    0    0  0.30029987201E+02 -0.59911246235E+01 -0.19184956384E+02  0.36135249508E+02  0.00000000000E+00 0. -1.
</event>
<event>
 7    1  0.1358622E-013  0.7246126E+02  0.7816164E-02  0.1226709E+00
        -11   -1    0    0    0    0  0.00000000000E+00  0.00000000000E+00  0.45593999997E+02  0.45594000000E+02  0.51100000000E-03 0.  1.
         11   -1    0    0    0    0 -0.00000000000E+00 -0.00000000000E+00 -0.45593999997E+02  0.45594000000E+02  0.51100000000E-03 0. -1.
    9900012    2    1    2    0    0 -0.13575128187E+02 -0.11236753092E+01 -0.12850832300E+02  0.72461263971E+02  0.69999600956E+02 0.  0.
        -12    1    1    2    0    0  0.13575128187E+02  0.11236753092E+01  0.12850832300E+02  0.18726736029E+02  0.00000000000E+00 0.  1.
         11    1    3    3    0    0  0.22413546165E+02 -0.30430777887E+01 -0.23904042155E+02  0.32909430346E+02  0.51100000000E-03 0. -1.
        -11    1    3    3    0    0 -0.12453050362E+01 -0.23849793562E+01 -0.39321130272E+00  0.27191039981E+01  0.51100000000E-03 0.  1.
        -12    1    3    3    0    0 -0.34743369316E+02  0.43043818357E+01  0.11446421158E+02  0.36832729626E+02  0.00000000000E+00 0.  1.
</event>
<event>
 7    1  0.1358622E-013  0.7246155E+02  0.7816164E-02  0.1226708E+00
        -11   -1    0    0    0    0  0.00000000000E+00  0.00000000000E+00  0.45593999997E+02  0.45594000000E+02  0.51100000000E-03 0.  1.
         11   -1    0    0    0    0 -0.00000000000E+00 -0.00000000000E+00 -0.45593999997E+02  0.45594000000E+02  0.51100000000E-03 0. -1.
    9900012    2    1    2    0    0 -0.81110677865E+01  0.31608152687E+01 -0.16580097612E+02  0.72461553176E+02  0.69999977701E+02 0.  0.
        -12    1    1    2    0    0  0.81110677865E+01 -0.31608152687E+01  0.16580097612E+02  0.18726446824E+02  0.00000000000E+00 0.  1.
         11    1    3    3    0    0 -0.11589577075E+02  0.22765460588E+02 -0.16293895725E+02  0.30299761232E+02  0.51100000000E-03 0. -1.
        -11    1    3    3    0    0 -0.53427159882E+01 -0.74743932866E+01 -0.17234161539E+02  0.19530168800E+02  0.51100000000E-03 0.  1.
        -12    1    3    3    0    0  0.88212252769E+01 -0.12130252033E+02  0.16947959652E+02  0.22631623144E+02  0.00000000000E+00 0.  1.
</event>
<event>
 7    1  0.1358622E-013  0.7246155E+02  0.7816164E-02  0.1226708E+00
        -11   -1    0    0    0    0  0.00000000000E+00  0.00000000000E+00  0.45593999997E+02  0.45594000000E+02  0.51100000000E-03 0. -1.
         11   -1    0    0    0    0 -0.00000000000E+00 -0.00000000000E+00 -0.45593999997E+02  0.45594000000E+02  0.51100000000E-03 0.  1.
    9900012    2    1    2    0    0  0.12375138638E+02 -0.31191761018E+01  0.13704257293E+02  0.72461548553E+02  0.69999971677E+02 0.  0.
        -12    1    1    2    0    0 -0.12375138638E+02  0.31191761018E+01 -0.13704257293E+02  0.18726451447E+02  0.00000000000E+00 0.  1.
         11    1    3    3    0    0  0.16727327028E+02 -0.74638578097E+01  0.35658771323E+01  0.18660871440E+02  0.51100000000E-03 0. -1.
        -11    1    3    3    0    0 -0.10210504631E+02 -0.22118966792E+02 -0.12660641860E+01  0.24394794845E+02  0.51100000000E-03 0.  1.
         12    1    3    3    0    0  0.58583162404E+01  0.26463648500E+02  0.11404444347E+02  0.29405882268E+02  0.00000000000E+00 0. -1.
</event>
<event>
 7    1  0.1358622E-013  0.7246184E+02  0.7816164E-02  0.1226707E+00
        -11   -1    0    0    0    0  0.00000000000E+00  0.00000000000E+00  0.45593999997E+02  0.45594000000E+02  0.51100000000E-03 0. -1.
         11   -1    0    0    0    0 -0.00000000000E+00 -0.00000000000E+00 -0.45593999997E+02  0.45594000000E+02  0.51100000000E-03 0.  1.
    9900012    2    1    2    0    0 -0.10435226998E+02  0.66185143109E+01  0.14070198494E+02  0.72461837023E+02  0.70000347462E+02 0.  0.
        -12    1    1    2    0    0  0.10435226998E+02 -0.66185143109E+01 -0.14070198494E+02  0.18726162977E+02  0.00000000000E+00 0.  1.
         11    1    3    3    0    0  0.23997143035E+01  0.16059895557E+02  0.89716242273E+01  0.18551790091E+02  0.51100000000E-03 0. -1.
        -11    1    3    3    0    0 -0.90307995352E+01  0.15767455496E+02  0.17791848477E+02  0.25430648155E+02  0.51100000000E-03 0.  1.
        -12    1    3    3    0    0 -0.38041417666E+01 -0.25208836743E+02 -0.12693274210E+02  0.28479398777E+02  0.00000000000E+00 0.  1.
</event>
<event>
 7    1  0.1358622E-013  0.7246149E+02  0.7816164E-02  0.1226708E+00
        -11   -1    0    0    0    0  0.00000000000E+00  0.00000000000E+00  0.45593999997E+02  0.45594000000E+02  0.51100000000E-03 0.  1.
         11   -1    0    0    0    0 -0.00000000000E+00 -0.00000000000E+00 -0.45593999997E+02  0.45594000000E+02  0.51100000000E-03 0. -1.
    9900012    2    1    2    0    0 -0.62463301874E+01 -0.78668348514E+00 -0.17636517877E+02  0.72461487390E+02  0.69999892001E+02 0.  0.
        -12    1    1    2    0    0  0.62463301874E+01  0.78668348514E+00  0.17636517877E+02  0.18726512610E+02  0.00000000000E+00 0.  1.
         11    1    3    3    0    0 -0.12758597075E+02 -0.18990160542E+02 -0.17409936630E+01  0.22944259760E+02  0.51100000000E-03 0. -1.
        -11    1    3    3    0    0  0.30787669398E+01 -0.96640313149E+01  0.77854157495E+01  0.12786125519E+02  0.51100000000E-03 0.  1.
         12    1    3    3    0    0  0.34334999482E+01  0.27867508372E+02 -0.23680939963E+02  0.36731102111E+02  0.00000000000E+00 0. -1.
</event>
<event>
 7    1  0.1358622E-013  0.7246153E+02  0.7816164E-02  0.1226708E+00
        -11   -1    0    0    0    0  0.00000000000E+00  0.00000000000E+00  0.45593999997E+02  0.45594000000E+02  0.51100000000E-03 0. -1.
         11   -1    0    0    0    0 -0.00000000000E+00 -0.00000000000E+00 -0.45593999997E+02  0.45594000000E+02  0.51100000000E-03 0.  1.
    9900012    2    1    2    0    0 -0.27876527119E+01  0.15652367917E+02  0.98951048317E+01  0.72461528664E+02  0.69999945769E+02 0.  0.
        -12    1    1    2    0    0  0.27876527119E+01 -0.15652367917E+02 -0.98951048317E+01  0.18726471336E+02  0.00000000000E+00 0.  1.
         11    1    3    3    0    0  0.12553808032E+01 -0.28554127964E+01  0.26771514097E+01  0.41105356257E+01  0.51100000000E-03 0. -1.
        -11    1    3    3    0    0  0.16182046810E+02  0.11800387336E+01  0.29472942458E+02  0.33643802814E+02  0.51100000000E-03 0.  1.
         12    1    3    3    0    0 -0.20225080325E+02  0.17327741980E+02 -0.22254989036E+02  0.34707190225E+02  0.00000000000E+00 0. -1.
</event>
<event>
 7    1  0.1358622E-013  0.7246159E+02  0.7816164E-02  0.1226708E+00
        -11   -1    0    0    0    0  0.00000000000E+00  0.00000000000E+00  0.45593999997E+02  0.45594000000E+02  0.51100000000E-03 0.  1.
         11   -1    0    0    0    0 -0.00000000000E+00 -0.00000000000E+00 -0.45593999997E+02  0.45594000000E+02  0.51100000000E-03 0. -1.
    9900012    2    1    2    0    0 -0.40691160740E+01  0.11534165121E+02 -0.14180405383E+02  0.72461586369E+02  0.70000020940E+02 0.  0.
        -12    1    1    2    0    0  0.40691160740E+01 -0.11534165121E+02  0.14180405383E+02  0.18726413631E+02  0.00000000000E+00 0.  1.
         11    1    3    3    0    0 -0.11369351116E+02  0.89858105684E+01  0.39592480125E+01  0.15022735485E+02  0.51100000000E-03 0. -1.
        -11    1    3    3    0    0 -0.86301558911E+01  0.97701506739E+01  0.15057095670E+02  0.19916113204E+02  0.51100000000E-03 0.  1.
         12    1    3    3    0    0  0.15930390933E+02 -0.72217961212E+01 -0.33196749065E+02  0.37522737680E+02  0.00000000000E+00 0. -1.
</event>
<event>
 7    1  0.1358622E-013  0.7246105E+02  0.7816164E-02  0.1226709E+00
        -11   -1    0    0    0    0  0.00000000000E+00  0.00000000000E+00  0.45593999997E+02  0.45594000000E+02  0.51100000000E-03 0.  1.
         11   -1    0    0    0    0 -0.00000000000E+00 -0.00000000000E+00 -0.45593999997E+02  0.45594000000E+02  0.51100000000E-03 0. -1.
    9900012    2    1    2    0    0  0.57533399123E+01 -0.22595117182E+01 -0.17677456347E+02  0.72461046797E+02  0.69999318045E+02 0.  0.
        -12    1    1    2    0    0 -0.57533399123E+01  0.22595117182E+01  0.17677456347E+02  0.18726953203E+02  0.00000000000E+00 0.  1.
         11    1    3    3    0    0  0.30516573853E+02 -0.38912100262E+00 -0.17801880887E+02  0.35331567447E+02  0.51100000000E-03 0.  1.
        -11    1    3    3    0    0 -0.16603751375E+02 -0.11393580224E+02 -0.85542990420E+01  0.21878625697E+02  0.51100000000E-03 0. -1.
        -12    1    3    3    0    0 -0.81594825656E+01  0.95231895086E+01  0.86787235818E+01  0.15250853654E+02  0.00000000000E+00 0.  1.
</event>
<event>
 7    1  0.1358622E-013  0.7246157E+02  0.7816164E-02  0.1226708E+00
        -11   -1    0    0    0    0  0.00000000000E+00  0.00000000000E+00  0.45593999997E+02  0.45594000000E+02  0.51100000000E-03 0.  1.
         11   -1    0    0    0    0 -0.00000000000E+00 -0.00000000000E+00 -0.45593999997E+02  0.45594000000E+02  0.51100000000E-03 0. -1.
    9900012    2    1    2    0    0 -0.11083351128E+02 -0.11712566829E+02 -0.95212622211E+01  0.72461566056E+02  0.69999994479E+02 0.  0.
        -12    1    1    2    0    0  0.11083351128E+02  0.11712566829E+02  0.95212622211E+01  0.18726433944E+02  0.00000000000E+00 0.  1.
         11    1    3    3    0    0 -0.22297771412E+02 -0.25345475150E+02 -0.45095411457E+01  0.34057593605E+02  0.51100000000E-03 0. -1.
        -11    1    3    3    0    0 -0.14308864880E+01 -0.79769067576E+01 -0.10002627269E+02  0.12873656439E+02  0.51100000000E-03 0.  1.
        -12    1    3    3    0    0  0.12645306772E+02  0.21609815078E+02  0.49909061939E+01  0.25530316013E+02  0.00000000000E+00 0.  1.
</event>
<event>
 7    1  0.1358622E-013  0.7246159E+02  0.7816164E-02  0.1226708E+00
        -11   -1    0    0    0    0  0.00000000000E+00  0.00000000000E+00  0.45593999997E+02  0.45594000000E+02  0.51100000000E-03 0.  1.
         11   -1    0    0    0    0 -0.00000000000E+00 -0.00000000000E+00 -0.45593999997E+02  0.45594000000E+02  0.51100000000E-03 0. -1.
    9900012    2    1    2    0    0  0.10893112130E+02  0.12599710465E+02 -0.85595436586E+01  0.72461591286E+02  0.70000027345E+02 0.  0.
        -12    1    1    2    0    0 -0.10893112130E+02 -0.12599710465E+02  0.85595436586E+01  0.18726408714E+02  0.00000000000E+00 0.  1.
         11    1    3    3    0    0  0.14310292645E+02 -0.15612928599E+02 -0.18742789688E+02  0.28281445871E+02  0.51100000000E-03 0. -1.
        -11    1    3    3    0    0  0.23130392947E+01 -0.46523833241E+01 -0.52819148373E+01  0.74090111339E+01  0.51100000000E-03 0.  1.
        -12    1    3    3    0    0 -0.57302198089E+01  0.32865022388E+02  0.15465160867E+02  0.36771134281E+02  0.00000000000E+00 0.  1.
</event>
<event>
 7    1  0.1358622E-013  0.7246158E+02  0.7816164E-02  0.1226708E+00
        -11   -1    0    0    0    0  0.00000000000E+00  0.00000000000E+00  0.45593999997E+02  0.45594000000E+02  0.51100000000E-03 0.  1.
         11   -1    0    0    0    0 -0.00000000000E+00 -0.00000000000E+00 -0.45593999997E+02  0.45594000000E+02  0.51100000000E-03 0. -1.
    9900012    2    1    2    0    0 -0.73546653470E+00 -0.13407031678E+02 -0.13053324843E+02  0.72461582861E+02  0.70000016370E+02 0.  0.
        -12    1    1    2    0    0  0.73546653470E+00  0.13407031678E+02  0.13053324843E+02  0.18726417139E+02  0.00000000000E+00 0.  1.
         11    1    3    3    0    0 -0.27262002676E+02 -0.25513026671E+01 -0.12631171543E+02  0.30154144491E+02  0.51100000000E-03 0. -1.
        -11    1    3    3    0    0 -0.11310393741E+01 -0.14223729766E+02  0.16756681783E+01  0.14366683773E+02  0.51100000000E-03 0.  1.
        -12    1    3    3    0    0  0.27657575515E+02  0.33680007557E+01 -0.20978214782E+01  0.27940754596E+02  0.00000000000E+00 0.  1.
</event>
<event>
 7    1  0.1358622E-013  0.7246151E+02  0.7816164E-02  0.1226708E+00
        -11   -1    0    0    0    0  0.00000000000E+00  0.00000000000E+00  0.45593999997E+02  0.45594000000E+02  0.51100000000E-03 0.  1.
         11   -1    0    0    0    0 -0.00000000000E+00 -0.00000000000E+00 -0.45593999997E+02  0.45594000000E+02  0.51100000000E-03 0. -1.
    9900012    2    1    2    0    0 -0.14606213329E+02 -0.53562585324E+01 -0.10423557421E+02  0.72461507467E+02  0.69999918156E+02 0.  0.
        -12    1    1    2    0    0  0.14606213329E+02  0.53562585324E+01  0.10423557421E+02  0.18726492533E+02  0.00000000000E+00 0.  1.
         11    1    3    3    0    0 -0.16863173024E+02 -0.10486970083E+02 -0.13945548608E+02  0.24265643865E+02  0.51100000000E-03 0. -1.
        -11    1    3    3    0    0  0.59265514851E+01 -0.16871962084E+01  0.24799390257E+02  0.25553481190E+02  0.51100000000E-03 0.  1.
         12    1    3    3    0    0 -0.36695917903E+01  0.68179077585E+01 -0.21277399070E+02  0.22642382412E+02  0.00000000000E+00 0. -1.
</event>
<event>
 7    1  0.1358622E-013  0.7246129E+02  0.7816164E-02  0.1226709E+00
        -11   -1    0    0    0    0  0.00000000000E+00  0.00000000000E+00  0.45593999997E+02  0.45594000000E+02  0.51100000000E-03 0.  1.
         11   -1    0    0    0    0 -0.00000000000E+00 -0.00000000000E+00 -0.45593999997E+02  0.45594000000E+02  0.51100000000E-03 0. -1.
    9900012    2    1    2    0    0  0.16594368836E+02  0.65876225846E+01  0.56497462906E+01  0.72461294964E+02  0.69999641330E+02 0.  0.
        -12    1    1    2    0    0 -0.16594368836E+02 -0.65876225846E+01 -0.56497462906E+01  0.18726705036E+02  0.00000000000E+00 0.  1.
         11    1    3    3    0    0 -0.32486562017E+01 -0.16156828330E+01  0.55595582747E+01  0.66387413419E+01  0.51100000000E-03 0. -1.
        -11    1    3    3    0    0  0.25670224474E+01 -0.18459391952E+02  0.20776836043E+02  0.27910852221E+02  0.51100000000E-03 0.  1.
         12    1    3    3    0    0  0.17276002590E+02  0.26662697370E+02 -0.20686648027E+02  0.37911701401E+02  0.00000000000E+00 0. -1.
</event>
<event>
 7    1  0.1358622E-013  0.7246156E+02  0.7816164E-02  0.1226708E+00
        -11   -1    0    0    0    0  0.00000000000E+00  0.00000000000E+00  0.45593999997E+02  0.45594000000E+02  0.51100000000E-03 0. -1.
         11   -1    0    0    0    0 -0.00000000000E+00 -0.00000000000E+00 -0.45593999997E+02  0.45594000000E+02  0.51100000000E-03 0.  1.
    9900012    2    1    2    0    0  0.14522105086E+02 -0.10726628898E+02  0.49726597617E+01  0.72461562839E+02  0.69999990288E+02 0.  0.
        -12    1    1    2    0    0 -0.14522105086E+02  0.10726628898E+02 -0.49726597617E+01  0.18726437161E+02  0.00000000000E+00 0.  1.
         11    1    3    3    0    0  0.55063405511E+01 -0.37340067612E+02 -0.65874411742E+01  0.38314420484E+02  0.51100000000E-03 0. -1.
        -11    1    3    3    0    0  0.40463202345E+01  0.14219873190E+00  0.49858372274E+01  0.64227331440E+01  0.51100000000E-03 0.  1.
        -12    1    3    3    0    0  0.49694443001E+01  0.26471239982E+02  0.65742637085E+01  0.27724409212E+02  0.00000000000E+00 0.  1.
</event>
<event>
 7    1  0.1358622E-013  0.7246159E+02  0.7816164E-02  0.1226708E+00
        -11   -1    0    0    0    0  0.00000000000E+00  0.00000000000E+00  0.45593999997E+02  0.45594000000E+02  0.51100000000E-03 0. -1.
         11   -1    0    0    0    0 -0.00000000000E+00 -0.00000000000E+00 -0.45593999997E+02  0.45594000000E+02  0.51100000000E-03 0.  1.
    9900012    2    1    2    0    0 -0.42855644515E+01 -0.71626297347E+01  0.16763324005E+02  0.72461591933E+02  0.70000028189E+02 0.  0.
        -12    1    1    2    0    0  0.42855644515E+01  0.71626297347E+01 -0.16763324005E+02  0.18726408067E+02  0.00000000000E+00 0.  1.
         11    1    3    3    0    0  0.18376704676E+02 -0.69900260126E+01  0.11966933231E+02  0.23016759755E+02  0.51100000000E-03 0. -1.
        -11    1    3    3    0    0 -0.77815891502E+01 -0.20456985322E+02 -0.49941200962E+01  0.22449557100E+02  0.51100000000E-03 0.  1.
         12    1    3    3    0    0 -0.14880679977E+02  0.20284381600E+02  0.97905108707E+01  0.26995275079E+02  0.00000000000E+00 0. -1.
</event>
<event>
 7    1  0.1358622E-013  0.7246159E+02  0.7816164E-02  0.1226708E+00
        -11   -1    0    0    0    0  0.00000000000E+00  0.00000000000E+00  0.45593999997E+02  0.45594000000E+02  0.51100000000E-03 0. -1.
         11   -1    0    0    0    0 -0.00000000000E+00 -0.00000000000E+00 -0.45593999997E+02  0.45594000000E+02  0.51100000000E-03 0.  1.
    9900012    2    1    2    0    0 -0.10808284393E+01  0.10464105491E+02 -0.15492339289E+02  0.72461594299E+02  0.70000031270E+02 0.  0.
        -12    1    1    2    0    0  0.10808284393E+01 -0.10464105491E+02  0.15492339289E+02  0.18726405701E+02  0.00000000000E+00 0.  1.
         11    1    3    3    0    0 -0.59079929713E+01 -0.57918985469E+01  0.22476628437E+01  0.85733574664E+01  0.51100000000E-03 0. -1.
        -11    1    3    3    0    0 -0.73350262411E+01  0.85484927412E+01 -0.37660397468E+02  0.39308839665E+02  0.51100000000E-03 0.  1.
         12    1    3    3    0    0  0.12162190773E+02  0.77075112964E+01  0.19920395335E+02  0.24579397167E+02  0.00000000000E+00 0. -1.
</event>
<event>
 7    1  0.1358622E-013  0.7246154E+02  0.7816164E-02  0.1226708E+00
        -11   -1    0    0    0    0  0.00000000000E+00  0.00000000000E+00  0.45593999997E+02  0.45594000000E+02  0.51100000000E-03 0.  1.
         11   -1    0    0    0    0 -0.00000000000E+00 -0.00000000000E+00 -0.45593999997E+02  0.45594000000E+02  0.51100000000E-03 0. -1.
    9900012    2    1    2    0    0  0.92156527771E+01  0.12701395431E+00 -0.16301403569E+02  0.72461544196E+02  0.69999966003E+02 0.  0.
        -12    1    1    2    0    0 -0.92156527771E+01 -0.12701395431E+00  0.16301403569E+02  0.18726455804E+02  0.00000000000E+00 0.  1.
         11    1    3    3    0    0 -0.21219748811E+01  0.51901272094E+01 -0.10547561771E+02  0.11945344592E+02  0.51100000000E-03 0. -1.
        -11    1    3    3    0    0 -0.19416893742E+02 -0.36371912737E+01 -0.18621457957E+02  0.27147810586E+02  0.51100000000E-03 0.  1.
         12    1    3    3    0    0  0.30754521400E+02 -0.14259219814E+01  0.12867616159E+02  0.33368389018E+02  0.00000000000E+00 0. -1.
</event>
<event>
 7    1  0.1358622E-013  0.7246151E+02  0.7816164E-02  0.1226708E+00
        -11   -1    0    0    0    0  0.00000000000E+00  0.00000000000E+00  0.45593999997E+02  0.45594000000E+02  0.51100000000E-03 0.  1.
         11   -1    0    0    0    0 -0.00000000000E+00 -0.00000000000E+00 -0.45593999997E+02  0.45594000000E+02  0.51100000000E-03 0. -1.
    9900012    2    1    2    0    0  0.12842773038E+02 -0.66912547217E+01 -0.11873150707E+02  0.72461510292E+02  0.69999921836E+02 0.  0.
        -12    1    1    2    0    0 -0.12842773038E+02  0.66912547217E+01  0.11873150707E+02  0.18726489708E+02  0.00000000000E+00 0.  1.
         11    1    3    3    0    0  0.59257536302E+01  0.17244976150E+02  0.13948406161E+01  0.18287956122E+02  0.51100000000E-03 0. -1.
        -11    1    3    3    0    0 -0.28666179380E+01  0.12521548426E+02  0.28019953504E+01  0.13147541656E+02  0.51100000000E-03 0.  1.
         12    1    3    3    0    0  0.97836373460E+01 -0.36457779298E+02 -0.16069986674E+02  0.41026012514E+02  0.00000000000E+00 0. -1.
</event>
<event>
 7    1  0.1358622E-013  0.7246151E+02  0.7816164E-02  0.1226708E+00
        -11   -1    0    0    0    0  0.00000000000E+00  0.00000000000E+00  0.45593999997E+02  0.45594000000E+02  0.51100000000E-03 0.  1.
         11   -1    0    0    0    0 -0.00000000000E+00 -0.00000000000E+00 -0.45593999997E+02  0.45594000000E+02  0.51100000000E-03 0. -1.
    9900012    2    1    2    0    0 -0.47331940512E+01  0.17461089504E+02 -0.48361683421E+01  0.72461513495E+02  0.69999926008E+02 0.  0.
        -12    1    1    2    0    0  0.47331940512E+01 -0.17461089504E+02  0.48361683421E+01  0.18726486505E+02  0.00000000000E+00 0.  1.
         11    1    3    3    0    0  0.30269657282E+02  0.23437960939E+01 -0.37297147561E+00  0.30362553254E+02  0.51100000000E-03 0. -1.
        -11    1    3    3    0    0  0.18780822767E+01  0.16149807889E+01 -0.10016865263E+01  0.26718405912E+01  0.51100000000E-03 0.  1.
        -12    1    3    3    0    0 -0.36880933610E+02  0.13502312621E+02 -0.34615103401E+01  0.39427119650E+02  0.00000000000E+00 0.  1.
</event>
<event>
 7    1  0.1358622E-013  0.7246164E+02  0.7816164E-02  0.1226708E+00
        -11   -1    0    0    0    0  0.00000000000E+00  0.00000000000E+00  0.45593999997E+02  0.45594000000E+02  0.51100000000E-03 0.  1.
         11   -1    0    0    0    0 -0.00000000000E+00 -0.00000000000E+00 -0.45593999997E+02  0.45594000000E+02  0.51100000000E-03 0. -1.
    9900012    2    1    2    0    0 -0.11347907617E+02 -0.14829170185E+02 -0.14132029009E+01  0.72461643225E+02  0.70000095005E+02 0.  0.
        -12    1    1    2    0    0  0.11347907617E+02  0.14829170185E+02  0.14132029009E+01  0.18726356775E+02  0.00000000000E+00 0.  1.
         11    1    3    3    0    0 -0.13480475813E+02 -0.23336752308E+02 -0.25309344965E+02  0.36971477915E+02  0.51100000000E-03 0. -1.
        -11    1    3    3    0    0  0.67635020834E+01  0.91292147931E+01  0.22668398382E+00  0.11363930177E+02  0.51100000000E-03 0.  1.
        -12    1    3    3    0    0 -0.46309338871E+01 -0.62163267024E+00  0.23669458081E+02  0.24126235133E+02  0.00000000000E+00 0.  1.
</event>
<event>
 7    1  0.1358622E-013  0.7246161E+02  0.7816164E-02  0.1226708E+00
        -11   -1    0    0    0    0  0.00000000000E+00  0.00000000000E+00  0.45593999997E+02  0.45594000000E+02  0.51100000000E-03 0.  1.
         11   -1    0    0    0    0 -0.00000000000E+00 -0.00000000000E+00 -0.45593999997E+02  0.45594000000E+02  0.51100000000E-03 0. -1.
    9900012    2    1    2    0    0 -0.17139910572E+02  0.71994373284E+01 -0.22515091409E+01  0.72461608846E+02  0.70000050220E+02 0.  0.
        -12    1    1    2    0    0  0.17139910572E+02 -0.71994373284E+01  0.22515091409E+01  0.18726391154E+02  0.00000000000E+00 0.  1.
         11    1    3    3    0    0 -0.16661475222E+02  0.15181533798E+02 -0.14411847581E+02  0.26754159975E+02  0.51100000000E-03 0. -1.
        -11    1    3    3    0    0 -0.14872273632E+02  0.95080391537E+01  0.14623681959E+02  0.22922465090E+02  0.51100000000E-03 0.  1.
        -12    1    3    3    0    0  0.14393838282E+02 -0.17490135623E+02 -0.24633435186E+01  0.22784983780E+02  0.00000000000E+00 0.  1.
</event>
<event>
 7    1  0.1358622E-013  0.7246157E+02  0.7816164E-02  0.1226708E+00
        -11   -1    0    0    0    0  0.00000000000E+00  0.00000000000E+00  0.45593999997E+02  0.45594000000E+02  0.51100000000E-03 0.  1.
         11   -1    0    0    0    0 -0.00000000000E+00 -0.00000000000E+00 -0.45593999997E+02  0.45594000000E+02  0.51100000000E-03 0. -1.
    9900012    2    1    2    0    0 -0.47950355583E+00 -0.44872664952E+01  0.18174538568E+02  0.72461565839E+02  0.69999994196E+02 0.  0.
        -12    1    1    2    0    0  0.47950355583E+00  0.44872664952E+01 -0.18174538568E+02  0.18726434161E+02  0.00000000000E+00 0.  1.
         11    1    3    3    0    0 -0.17097758318E+02 -0.36975434368E+01  0.20076084357E+02  0.26628074102E+02  0.51100000000E-03 0. -1.
        -11    1    3    3    0    0 -0.48686905539E+01  0.13494114117E+02  0.99315502957E+01  0.17447949881E+02  0.51100000000E-03 0.  1.
         12    1    3    3    0    0  0.21486945317E+02 -0.14283837176E+02 -0.11833096085E+02  0.28385541856E+02  0.00000000000E+00 0. -1.
</event>
<event>
 7    1  0.1358622E-013  0.7246088E+02  0.7816164E-02  0.1226710E+00
        -11   -1    0    0    0    0  0.00000000000E+00  0.00000000000E+00  0.45593999997E+02  0.45594000000E+02  0.51100000000E-03 0.  1.
         11   -1    0    0    0    0 -0.00000000000E+00 -0.00000000000E+00 -0.45593999997E+02  0.45594000000E+02  0.51100000000E-03 0. -1.
    9900012    2    1    2    0    0  0.67106430507E+01 -0.57294354466E+01 -0.16518050692E+02  0.72460876373E+02  0.69999096033E+02 0.  0.
        -12    1    1    2    0    0 -0.67106430507E+01  0.57294354466E+01  0.16518050692E+02  0.18727123627E+02  0.00000000000E+00 0.  1.
         11    1    3    3    0    0  0.18174796191E+02  0.14161592295E+02 -0.13588837417E+02  0.26749400283E+02  0.51100000000E-03 0. -1.
        -11    1    3    3    0    0  0.66276814323E+01 -0.93190832171E+01 -0.16987709849E+02  0.20478128805E+02  0.51100000000E-03 0.  1.
        -12    1    3    3    0    0 -0.18091834573E+02 -0.10571944524E+02  0.14058496575E+02  0.25233347284E+02  0.00000000000E+00 0.  1.
</event>
<event>
 7    1  0.1358622E-013  0.7246157E+02  0.7816164E-02  0.1226708E+00
        -11   -1    0    0    0    0  0.00000000000E+00  0.00000000000E+00  0.45593999997E+02  0.45594000000E+02  0.51100000000E-03 0.  1.
         11   -1    0    0    0    0 -0.00000000000E+00 -0.00000000000E+00 -0.45593999997E+02  0.45594000000E+02  0.51100000000E-03 0. -1.
    9900012    2    1    2    0    0  0.82624426408E+01 -0.12014202006E+02 -0.11750324971E+02  0.72461570945E+02  0.70000000847E+02 0.  0.
        -12    1    1    2    0    0 -0.82624426408E+01  0.12014202006E+02  0.11750324971E+02  0.18726429055E+02  0.00000000000E+00 0.  1.
         11    1    3    3    0    0 -0.19488809056E+02 -0.18517448800E+02 -0.38836860820E+01  0.27162338013E+02  0.51100000000E-03 0. -1.
        -11    1    3    3    0    0 -0.18117680256E+01  0.85301408491E+01  0.78707413861E+01  0.11747100770E+02  0.51100000000E-03 0.  1.
         12    1    3    3    0    0  0.29563019723E+02 -0.20268940549E+01 -0.15737380276E+02  0.33552132161E+02  0.00000000000E+00 0. -1.
</event>
<event>
 7    1  0.1358622E-013  0.7246156E+02  0.7816164E-02  0.1226708E+00
        -11   -1    0    0    0    0  0.00000000000E+00  0.00000000000E+00  0.45593999997E+02  0.45594000000E+02  0.51100000000E-03 0.  1.
         11   -1    0    0    0    0 -0.00000000000E+00 -0.00000000000E+00 -0.45593999997E+02  0.45594000000E+02  0.51100000000E-03 0. -1.
    9900012    2    1    2    0    0  0.66431126014E+01 -0.56914995428E+01 -0.16557635596E+02  0.72461563910E+02  0.69999991684E+02 0.  0.
        -12    1    1    2    0    0 -0.66431126014E+01  0.56914995428E+01  0.16557635596E+02  0.18726436090E+02  0.00000000000E+00 0.  1.
         11    1    3    3    0    0  0.21300652613E+02  0.30310062524E+01  0.40804832738E+01  0.21898747559E+02  0.51100000000E-03 0. -1.
        -11    1    3    3    0    0 -0.57888737005E+01  0.73841757236E+01  0.10698551463E+02  0.14230112912E+02  0.51100000000E-03 0.  1.
        -12    1    3    3    0    0 -0.88686663109E+01 -0.16106681519E+02 -0.31336670333E+02  0.36332703439E+02  0.00000000000E+00 0.  1.
</event>
<event>
 7    1  0.1358622E-013  0.7246159E+02  0.7816164E-02  0.1226708E+00
        -11   -1    0    0    0    0  0.00000000000E+00  0.00000000000E+00  0.45593999997E+02  0.45594000000E+02  0.51100000000E-03 0. -1.
         11   -1    0    0    0    0 -0.00000000000E+00 -0.00000000000E+00 -0.45593999997E+02  0.45594000000E+02  0.51100000000E-03 0.  1.
    9900012    2    1    2    0    0 -0.15612619790E+02 -0.76148837390E+01  0.69955806328E+01  0.72461588185E+02  0.70000023306E+02 0.  0.
        -12    1    1    2    0    0  0.15612619790E+02  0.76148837390E+01 -0.69955806328E+01  0.18726411815E+02  0.00000000000E+00 0.  1.
         11    1    3    3    0    0  0.79470959382E+01 -0.11259426507E+02  0.35832139949E+01  0.14239748660E+02  0.51100000000E-03 0. -1.
        -11    1    3    3    0    0  0.14293358688E+02 -0.73445333191E+01  0.89893445719E+01  0.18413326379E+02  0.51100000000E-03 0.  1.
         12    1    3    3    0    0 -0.37853074416E+02  0.10989076087E+02 -0.55769779340E+01  0.39808513146E+02  0.00000000000E+00 0. -1.
</event>
<event>
 7    1  0.1358622E-013  0.7246157E+02  0.7816164E-02  0.1226708E+00
        -11   -1    0    0    0    0  0.00000000000E+00  0.00000000000E+00  0.45593999997E+02  0.45594000000E+02  0.51100000000E-03 0.  1.
         11   -1    0    0    0    0 -0.00000000000E+00 -0.00000000000E+00 -0.45593999997E+02  0.45594000000E+02  0.51100000000E-03 0. -1.
    9900012    2    1    2    0    0  0.16212934913E+02 -0.82676854458E+01 -0.44119466078E+01  0.72461570709E+02  0.70000000540E+02 0.  0.
        -12    1    1    2    0    0 -0.16212934913E+02  0.82676854458E+01  0.44119466078E+01  0.18726429291E+02  0.00000000000E+00 0.  1.
         11    1    3    3    0    0  0.22053567919E+01 -0.10416110862E+00  0.48872970931E+01  0.53628463761E+01  0.51100000000E-03 0. -1.
        -11    1    3    3    0    0 -0.11806920638E+02 -0.33105993524E+01  0.22639051117E+02  0.25746651797E+02  0.51100000000E-03 0.  1.
         12    1    3    3    0    0  0.25814498759E+02 -0.48529249847E+01 -0.31938294818E+02  0.41352072535E+02  0.00000000000E+00 0. -1.
</event>
<event>
 7    1  0.1358622E-013  0.7246181E+02  0.7816164E-02  0.1226707E+00
        -11   -1    0    0    0    0  0.00000000000E+00  0.00000000000E+00  0.45593999997E+02  0.45594000000E+02  0.51100000000E-03 0. -1.
         11   -1    0    0    0    0 -0.00000000000E+00 -0.00000000000E+00 -0.45593999997E+02  0.45594000000E+02  0.51100000000E-03 0.  1.
    9900012    2    1    2    0    0 -0.92884870555E+01 -0.74368446522E+01  0.14459865959E+02  0.72461805146E+02  0.70000305937E+02 0.  0.
        -12    1    1    2    0    0  0.92884870555E+01  0.74368446522E+01 -0.14459865959E+02  0.18726194854E+02  0.00000000000E+00 0.  1.
         11    1    3    3    0    0  0.20799655836E+02  0.16623829381E+02  0.51580613243E+01  0.27121633120E+02  0.51100000000E-03 0. -1.
        -11    1    3    3    0    0 -0.60201604118E+01 -0.95408558074E+01  0.12745856821E+02  0.17021372661E+02  0.51100000000E-03 0.  1.
        -12    1    3    3    0    0 -0.24067982480E+02 -0.14519818226E+02 -0.34440521860E+01  0.28318799364E+02  0.00000000000E+00 0.  1.
</event>
<event>
 7    1  0.1358622E-013  0.7246158E+02  0.7816164E-02  0.1226708E+00
        -11   -1    0    0    0    0  0.00000000000E+00  0.00000000000E+00  0.45593999997E+02  0.45594000000E+02  0.51100000000E-03 0.  1.
         11   -1    0    0    0    0 -0.00000000000E+00 -0.00000000000E+00 -0.45593999997E+02  0.45594000000E+02  0.51100000000E-03 0. -1.
    9900012    2    1    2    0    0 -0.14048215115E+01  0.77957278568E+01 -0.16968552856E+02  0.72461583303E+02  0.70000016946E+02 0.  0.
        -12    1    1    2    0    0  0.14048215115E+01 -0.77957278568E+01  0.16968552856E+02  0.18726416697E+02  0.00000000000E+00 0.  1.
         11    1    3    3    0    0 -0.32476244903E+01  0.38233675150E+01 -0.70991186102E+01  0.86926802131E+01  0.51100000000E-03 0. -1.
        -11    1    3    3    0    0 -0.22300948633E+02  0.21886628223E+02 -0.12358846562E+02  0.33602051924E+02  0.51100000000E-03 0.  1.
         12    1    3    3    0    0  0.24143751612E+02 -0.17914267881E+02  0.24894123165E+01  0.30166851166E+02  0.00000000000E+00 0. -1.
</event>
<event>
 7    1  0.1358622E-013  0.7246159E+02  0.7816164E-02  0.1226708E+00
        -11   -1    0    0    0    0  0.00000000000E+00  0.00000000000E+00  0.45593999997E+02  0.45594000000E+02  0.51100000000E-03 0. -1.
         11   -1    0    0    0    0 -0.00000000000E+00 -0.00000000000E+00 -0.45593999997E+02  0.45594000000E+02  0.51100000000E-03 0.  1.
    9900012    2    1    2    0    0 -0.44658456018E+01  0.58407322954E+01  0.17222678447E+02  0.72461585939E+02  0.70000020380E+02 0.  0.
        -12    1    1    2    0    0  0.44658456018E+01 -0.58407322954E+01 -0.17222678447E+02  0.18726414061E+02  0.00000000000E+00 0.  1.
         11    1    3    3    0    0  0.13906044615E+02  0.89645190446E+00  0.10117441716E+02  0.17220462537E+02  0.51100000000E-03 0. -1.
        -11    1    3    3    0    0  0.59983536144E+01  0.20787061308E+02 -0.72562237470E+01  0.22819617596E+02  0.51100000000E-03 0.  1.
        -12    1    3    3    0    0 -0.24370243832E+02 -0.15842780917E+02  0.14361460478E+02  0.32421505805E+02  0.00000000000E+00 0.  1.
</event>
<event>
 7    1  0.1358622E-013  0.7246150E+02  0.7816164E-02  0.1226708E+00
        -11   -1    0    0    0    0  0.00000000000E+00  0.00000000000E+00  0.45593999997E+02  0.45594000000E+02  0.51100000000E-03 0.  1.
         11   -1    0    0    0    0 -0.00000000000E+00 -0.00000000000E+00 -0.45593999997E+02  0.45594000000E+02  0.51100000000E-03 0. -1.
    9900012    2    1    2    0    0 -0.16334115842E+02  0.88893997967E+01  0.22038777924E+01  0.72461498821E+02  0.69999906893E+02 0.  0.
        -12    1    1    2    0    0  0.16334115842E+02 -0.88893997967E+01 -0.22038777924E+01  0.18726501179E+02  0.00000000000E+00 0.  1.
         11    1    3    3    0    0 -0.29000030983E+02 -0.71121443251E+01  0.55278185824E+01  0.30366777446E+02  0.51100000000E-03 0. -1.
        -11    1    3    3    0    0 -0.19838266301E+01 -0.10667860522E+02  0.24492395583E+01  0.11123739968E+02  0.51100000000E-03 0.  1.
        -12    1    3    3    0    0  0.14649741771E+02  0.26669404644E+02 -0.57731803484E+01  0.30970981407E+02  0.00000000000E+00 0.  1.
</event>
<event>
 7    1  0.1358622E-013  0.7246161E+02  0.7816164E-02  0.1226708E+00
        -11   -1    0    0    0    0  0.00000000000E+00  0.00000000000E+00  0.45593999997E+02  0.45594000000E+02  0.51100000000E-03 0.  1.
         11   -1    0    0    0    0 -0.00000000000E+00 -0.00000000000E+00 -0.45593999997E+02  0.45594000000E+02  0.51100000000E-03 0. -1.
    9900012    2    1    2    0    0  0.12026158463E+02  0.14347988305E+02 -0.42957266101E+00  0.72461607170E+02  0.70000048037E+02 0.  0.
        -12    1    1    2    0    0 -0.12026158463E+02 -0.14347988305E+02  0.42957266101E+00  0.18726392830E+02  0.00000000000E+00 0.  1.
         11    1    3    3    0    0 -0.86244195405E+01  0.22327218060E+02 -0.13187445599E+02  0.27327531912E+02  0.51100000000E-03 0. -1.
        -11    1    3    3    0    0  0.44919509265E+01  0.14221813689E+02  0.89995595516E+01  0.17419233052E+02  0.51100000000E-03 0.  1.
         12    1    3    3    0    0  0.16158627077E+02 -0.22201043444E+02  0.37583133865E+01  0.27714842206E+02  0.00000000000E+00 0. -1.
</event>
<event>
 7    1  0.1358622E-013  0.7246160E+02  0.7816164E-02  0.1226708E+00
        -11   -1    0    0    0    0  0.00000000000E+00  0.00000000000E+00  0.45593999997E+02  0.45594000000E+02  0.51100000000E-03 0.  1.
         11   -1    0    0    0    0 -0.00000000000E+00 -0.00000000000E+00 -0.45593999997E+02  0.45594000000E+02  0.51100000000E-03 0. -1.
    9900012    2    1    2    0    0  0.53282574017E+01  0.44425450617E+01 -0.17394012975E+02  0.72461595622E+02  0.70000032994E+02 0.  0.
        -12    1    1    2    0    0 -0.53282574017E+01 -0.44425450617E+01  0.17394012975E+02  0.18726404378E+02  0.00000000000E+00 0.  1.
         11    1    3    3    0    0 -0.16543751284E+02  0.14154570235E+01 -0.24167600980E+02  0.29321871743E+02  0.51100000000E-03 0. -1.
        -11    1    3    3    0    0 -0.75010392930E+01 -0.77032190676E+01  0.48890544842E+01  0.11811351679E+02  0.51100000000E-03 0.  1.
         12    1    3    3    0    0  0.29373047978E+02  0.10730307106E+02  0.18845335208E+01  0.31328372200E+02  0.00000000000E+00 0. -1.
</event>
<event>
 7    1  0.1358622E-013  0.7246159E+02  0.7816164E-02  0.1226708E+00
        -11   -1    0    0    0    0  0.00000000000E+00  0.00000000000E+00  0.45593999997E+02  0.45594000000E+02  0.51100000000E-03 0. -1.
         11   -1    0    0    0    0 -0.00000000000E+00 -0.00000000000E+00 -0.45593999997E+02  0.45594000000E+02  0.51100000000E-03 0.  1.
    9900012    2    1    2    0    0 -0.99356518726E+01  0.72562226092E+01  0.14117663363E+02  0.72461591815E+02  0.70000028034E+02 0.  0.
        -12    1    1    2    0    0  0.99356518726E+01 -0.72562226092E+01 -0.14117663363E+02  0.18726408185E+02  0.00000000000E+00 0.  1.
         11    1    3    3    0    0 -0.13018933919E+02 -0.21188444168E+02  0.15783153074E+02  0.29454214094E+02  0.51100000000E-03 0. -1.
        -11    1    3    3    0    0  0.68018191347E+00  0.19292224561E+02  0.14590492209E+02  0.24197831290E+02  0.51100000000E-03 0.  1.
        -12    1    3    3    0    0  0.24031001327E+01  0.91524422168E+01 -0.16255981920E+02  0.18809546432E+02  0.00000000000E+00 0.  1.
</event>
<event>
 7    1  0.1358622E-013  0.7246183E+02  0.7816164E-02  0.1226707E+00
        -11   -1    0    0    0    0  0.00000000000E+00  0.00000000000E+00  0.45593999997E+02  0.45594000000E+02  0.51100000000E-03 0.  1.
         11   -1    0    0    0    0 -0.00000000000E+00 -0.00000000000E+00 -0.45593999997E+02  0.45594000000E+02  0.51100000000E-03 0. -1.
    9900012    2    1    2    0    0 -0.16569034700E+02  0.74951894121E+01  0.44675034467E+01  0.72461832152E+02  0.70000341118E+02 0.  0.
        -12    1    1    2    0    0  0.16569034700E+02 -0.74951894121E+01 -0.44675034467E+01  0.18726167848E+02  0.00000000000E+00 0.  1.
         11    1    3    3    0    0  0.50985483894E+01 -0.88352317393E+01 -0.21369955307E+00  0.10203047747E+02  0.51100000000E-03 0. -1.
        -11    1    3    3    0    0  0.13142607907E+02 -0.11321261718E+02 -0.13325514407E+01  0.17397551640E+02  0.51100000000E-03 0.  1.
        -12    1    3    3    0    0 -0.34810190997E+02  0.27651682869E+02  0.60137544405E+01  0.44861232765E+02  0.00000000000E+00 0.  1.
</event>
<event>
 7    1  0.1358622E-013  0.7246159E+02  0.7816164E-02  0.1226708E+00
        -11   -1    0    0    0    0  0.00000000000E+00  0.00000000000E+00  0.45593999997E+02  0.45594000000E+02  0.51100000000E-03 0.  1.
         11   -1    0    0    0    0 -0.00000000000E+00 -0.00000000000E+00 -0.45593999997E+02  0.45594000000E+02  0.51100000000E-03 0. -1.
    9900012    2    1    2    0    0 -0.18086801695E+02 -0.34205855138E+01 -0.34417388569E+01  0.72461591718E+02  0.70000027908E+02 0.  0.
        -12    1    1    2    0    0  0.18086801695E+02  0.34205855138E+01  0.34417388569E+01  0.18726408282E+02  0.00000000000E+00 0.  1.
         11    1    3    3    0    0  0.10010801055E+02  0.13231690578E+01  0.97136476929E+00  0.10144479479E+02  0.51100000000E-03 0. -1.
        -11    1    3    3    0    0 -0.42957469470E+02 -0.12945166225E+02 -0.60229133885E+01  0.45268057147E+02  0.51100000000E-03 0.  1.
         12    1    3    3    0    0  0.14859866721E+02  0.82014116533E+01  0.16098097623E+01  0.17049055092E+02  0.00000000000E+00 0. -1.
</event>
<event>
 7    1  0.1358622E-013  0.7246152E+02  0.7816164E-02  0.1226708E+00
        -11   -1    0    0    0    0  0.00000000000E+00  0.00000000000E+00  0.45593999997E+02  0.45594000000E+02  0.51100000000E-03 0. -1.
         11   -1    0    0    0    0 -0.00000000000E+00 -0.00000000000E+00 -0.45593999997E+02  0.45594000000E+02  0.51100000000E-03 0.  1.
    9900012    2    1    2    0    0 -0.11062681095E+02  0.56432773929E+01  0.14016117267E+02  0.72461520459E+02  0.69999935080E+02 0.  0.
        -12    1    1    2    0    0  0.11062681095E+02 -0.56432773929E+01 -0.14016117267E+02  0.18726479541E+02  0.00000000000E+00 0.  1.
         11    1    3    3    0    0 -0.22616560463E+02  0.44082934800E+01  0.14752221535E+02  0.27360005465E+02  0.51100000000E-03 0. -1.
        -11    1    3    3    0    0  0.55842729046E+01 -0.15283937442E+02 -0.15261430314E+02  0.22309058768E+02  0.51100000000E-03 0.  1.
         12    1    3    3    0    0  0.59696064631E+01  0.16518921355E+02  0.14525326047E+02  0.22792456226E+02  0.00000000000E+00 0. -1.
</event>
<event>
 7    1  0.1358622E-013  0.7246148E+02  0.7816164E-02  0.1226708E+00
        -11   -1    0    0    0    0  0.00000000000E+00  0.00000000000E+00  0.45593999997E+02  0.45594000000E+02  0.51100000000E-03 0.  1.
         11   -1    0    0    0    0 -0.00000000000E+00 -0.00000000000E+00 -0.45593999997E+02  0.45594000000E+02  0.51100000000E-03 0. -1.
    9900012    2    1    2    0    0  0.64236313364E+01  0.12944224652E+02 -0.11910779530E+02  0.72461477087E+02  0.69999878581E+02 0.  0.
        -12    1    1    2    0    0 -0.64236313364E+01 -0.12944224652E+02  0.11910779530E+02  0.18726522913E+02  0.00000000000E+00 0.  1.
         11    1    3    3    0    0 -0.48010551674E+01  0.24845027402E+02 -0.12039352588E+01  0.25333278068E+02  0.51100000000E-03 0. -1.
        -11    1    3    3    0    0  0.10367144454E+02  0.12236170335E+02 -0.15724578706E+02  0.22460274361E+02  0.51100000000E-03 0.  1.
        -12    1    3    3    0    0  0.85754204957E+00 -0.24136973085E+02  0.50177344353E+01  0.24667924658E+02  0.00000000000E+00 0.  1.
</event>
<event>
 7    1  0.1358622E-013  0.7246146E+02  0.7816164E-02  0.1226708E+00
        -11   -1    0    0    0    0  0.00000000000E+00  0.00000000000E+00  0.45593999997E+02  0.45594000000E+02  0.51100000000E-03 0. -1.
         11   -1    0    0    0    0 -0.00000000000E+00 -0.00000000000E+00 -0.45593999997E+02  0.45594000000E+02  0.51100000000E-03 0.  1.
    9900012    2    1    2    0    0  0.12948532770E+02 -0.52658747662E+01  0.12461516163E+02  0.72461459395E+02  0.69999855533E+02 0.  0.
        -12    1    1    2    0    0 -0.12948532770E+02  0.52658747662E+01 -0.12461516163E+02  0.18726540605E+02  0.00000000000E+00 0.  1.
         11    1    3    3    0    0  0.78598363859E+01  0.76905537703E+00 -0.21928338065E+02  0.23307090868E+02  0.51100000000E-03 0. -1.
        -11    1    3    3    0    0  0.26515494890E+01  0.82708075597E+01 -0.28867652548E+01  0.91526163626E+01  0.51100000000E-03 0.  1.
         12    1    3    3    0    0  0.24371468947E+01 -0.14305737703E+02  0.37276619482E+02  0.40001752165E+02  0.00000000000E+00 0. -1.
</event>
<event>
 7    1  0.1358622E-013  0.7246186E+02  0.7816164E-02  0.1226707E+00
        -11   -1    0    0    0    0  0.00000000000E+00  0.00000000000E+00  0.45593999997E+02  0.45594000000E+02  0.51100000000E-03 0.  1.
         11   -1    0    0    0    0 -0.00000000000E+00 -0.00000000000E+00 -0.45593999997E+02  0.45594000000E+02  0.51100000000E-03 0. -1.
    9900012    2    1    2    0    0 -0.89666962260E+01 -0.15999680413E+02 -0.37784688897E+01  0.72461862073E+02  0.70000380095E+02 0.  0.
        -12    1    1    2    0    0  0.89666962260E+01  0.15999680413E+02  0.37784688897E+01  0.18726137927E+02  0.00000000000E+00 0.  1.
         11    1    3    3    0    0  0.51205695722E+01  0.10445506704E+02 -0.44061501227E+01  0.12439574036E+02  0.51100000000E-03 0. -1.
        -11    1    3    3    0    0  0.57701773501E+01 -0.13725856890E+02  0.23077055213E+02  0.27463513460E+02  0.51100000000E-03 0.  1.
        -12    1    3    3    0    0 -0.19857443148E+02 -0.12719330226E+02 -0.22449373980E+02  0.32558774576E+02  0.00000000000E+00 0.  1.
</event>
<event>
 7    1  0.1358622E-013  0.7246149E+02  0.7816164E-02  0.1226708E+00
        -11   -1    0    0    0    0  0.00000000000E+00  0.00000000000E+00  0.45593999997E+02  0.45594000000E+02  0.51100000000E-03 0. -1.
         11   -1    0    0    0    0 -0.00000000000E+00 -0.00000000000E+00 -0.45593999997E+02  0.45594000000E+02  0.51100000000E-03 0.  1.
    9900012    2    1    2    0    0 -0.64960919230E+01  0.52652583596E+01  0.16755889773E+02  0.72461494775E+02  0.69999901622E+02 0.  0.
        -12    1    1    2    0    0  0.64960919230E+01 -0.52652583596E+01 -0.16755889773E+02  0.18726505225E+02  0.00000000000E+00 0.  1.
         11    1    3    3    0    0  0.43563864071E+00  0.15519563724E+01 -0.12726971109E+02  0.12828645426E+02  0.51100000000E-03 0. -1.
        -11    1    3    3    0    0  0.18405722932E+02  0.10309693238E+02  0.12575154708E+01  0.21133900652E+02  0.51100000000E-03 0.  1.
         12    1    3    3    0    0 -0.25337453496E+02 -0.65963912510E+01  0.28225345411E+02  0.38498948697E+02  0.00000000000E+00 0. -1.
</event>
<event>
 7    1  0.1358622E-013  0.7246155E+02  0.7816164E-02  0.1226708E+00
        -11   -1    0    0    0    0  0.00000000000E+00  0.00000000000E+00  0.45593999997E+02  0.45594000000E+02  0.51100000000E-03 0.  1.
         11   -1    0    0    0    0 -0.00000000000E+00 -0.00000000000E+00 -0.45593999997E+02  0.45594000000E+02  0.51100000000E-03 0. -1.
    9900012    2    1    2    0    0 -0.12777181445E+02  0.13296869925E+02  0.32583460228E+01  0.72461549875E+02  0.69999973400E+02 0.  0.
        -12    1    1    2    0    0  0.12777181445E+02 -0.13296869925E+02 -0.32583460228E+01  0.18726450125E+02  0.00000000000E+00 0.  1.
         11    1    3    3    0    0 -0.87533275981E+00 -0.16765218622E+02  0.10740747972E+02  0.19929938037E+02  0.51100000000E-03 0. -1.
        -11    1    3    3    0    0  0.77400095975E+01  0.36134919951E+01  0.11641296681E+02  0.14439004870E+02  0.51100000000E-03 0.  1.
         12    1    3    3    0    0 -0.19641858283E+02  0.26448596552E+02 -0.19123698630E+02  0.38092606968E+02  0.00000000000E+00 0. -1.
</event>
<event>
 7    1  0.1358622E-013  0.7246154E+02  0.7816164E-02  0.1226708E+00
        -11   -1    0    0    0    0  0.00000000000E+00  0.00000000000E+00  0.45593999997E+02  0.45594000000E+02  0.51100000000E-03 0. -1.
         11   -1    0    0    0    0 -0.00000000000E+00 -0.00000000000E+00 -0.45593999997E+02  0.45594000000E+02  0.51100000000E-03 0.  1.
    9900012    2    1    2    0    0 -0.23357795929E+01  0.46035170537E+01  0.18000894897E+02  0.72461536034E+02  0.69999955370E+02 0.  0.
        -12    1    1    2    0    0  0.23357795929E+01 -0.46035170537E+01 -0.18000894897E+02  0.18726463966E+02  0.00000000000E+00 0.  1.
         11    1    3    3    0    0  0.20113473072E+02 -0.16743841875E+02 -0.74725310642E+01  0.27216663287E+02  0.51100000000E-03 0. -1.
        -11    1    3    3    0    0  0.32130571863E+01 -0.99421217271E+00  0.20997313401E+01  0.39649799859E+01  0.51100000000E-03 0.  1.
        -12    1    3    3    0    0 -0.25662309851E+02  0.22341571101E+02  0.23373694621E+02  0.41279892761E+02  0.00000000000E+00 0.  1.
</event>
<event>
 7    1  0.1358622E-013  0.7246156E+02  0.7816164E-02  0.1226708E+00
        -11   -1    0    0    0    0  0.00000000000E+00  0.00000000000E+00  0.45593999997E+02  0.45594000000E+02  0.51100000000E-03 0.  1.
         11   -1    0    0    0    0 -0.00000000000E+00 -0.00000000000E+00 -0.45593999997E+02  0.45594000000E+02  0.51100000000E-03 0. -1.
    9900012    2    1    2    0    0  0.31467100403E+01  0.17997740320E+02 -0.41059989606E+01  0.72461556981E+02  0.69999982656E+02 0.  0.
        -12    1    1    2    0    0 -0.31467100403E+01 -0.17997740320E+02  0.41059989606E+01  0.18726443019E+02  0.00000000000E+00 0.  1.
         11    1    3    3    0    0 -0.11064625573E+02  0.43312187475E+01 -0.21116947018E+02  0.24230370334E+02  0.51100000000E-03 0. -1.
        -11    1    3    3    0    0  0.14195419009E+02  0.22212765513E+02 -0.29420589522E+01  0.26524942671E+02  0.51100000000E-03 0.  1.
        -12    1    3    3    0    0  0.15916604747E-01 -0.85462439404E+01  0.19953007009E+02  0.21706243976E+02  0.00000000000E+00 0.  1.
</event>
<event>
 7    1  0.1358622E-013  0.7246158E+02  0.7816164E-02  0.1226708E+00
        -11   -1    0    0    0    0  0.00000000000E+00  0.00000000000E+00  0.45593999997E+02  0.45594000000E+02  0.51100000000E-03 0.  1.
         11   -1    0    0    0    0 -0.00000000000E+00 -0.00000000000E+00 -0.45593999997E+02  0.45594000000E+02  0.51100000000E-03 0. -1.
    9900012    2    1    2    0    0  0.22921645554E+01 -0.16519339381E+02 -0.85168103192E+01  0.72461584167E+02  0.70000018072E+02 0.  0.
        -12    1    1    2    0    0 -0.22921645554E+01  0.16519339381E+02  0.85168103192E+01  0.18726415833E+02  0.00000000000E+00 0.  1.
         11    1    3    3    0    0 -0.19343146400E+02  0.15769106043E+02 -0.17955201863E+02  0.30744288775E+02  0.51100000000E-03 0. -1.
        -11    1    3    3    0    0 -0.99635401532E+00 -0.48491928794E+00 -0.79540645200E+00  0.13640160280E+01  0.51100000000E-03 0.  1.
        -12    1    3    3    0    0  0.22631664971E+02 -0.31803526136E+02  0.10233797996E+02  0.40353279364E+02  0.00000000000E+00 0.  1.
</event>
<event>
 7    1  0.1358622E-013  0.7246159E+02  0.7816164E-02  0.1226708E+00
        -11   -1    0    0    0    0  0.00000000000E+00  0.00000000000E+00  0.45593999997E+02  0.45594000000E+02  0.51100000000E-03 0. -1.
         11   -1    0    0    0    0 -0.00000000000E+00 -0.00000000000E+00 -0.45593999997E+02  0.45594000000E+02  0.51100000000E-03 0.  1.
    9900012    2    1    2    0    0  0.12806278029E+02  0.66012811030E+01  0.11962467560E+02  0.72461593530E+02  0.70000030268E+02 0.  0.
        -12    1    1    2    0    0 -0.12806278029E+02 -0.66012811030E+01 -0.11962467560E+02  0.18726406470E+02  0.00000000000E+00 0.  1.
         11    1    3    3    0    0 -0.31087277690E+01  0.24941388320E+02  0.78100085001E+01  0.26319826609E+02  0.51100000000E-03 0. -1.
        -11    1    3    3    0    0 -0.19019174386E+00 -0.19377655303E+01 -0.15668549246E+02  0.15789064060E+02  0.51100000000E-03 0.  1.
        -12    1    3    3    0    0  0.16105197542E+02 -0.16402341687E+02  0.19821008306E+02  0.30352702861E+02  0.00000000000E+00 0.  1.
</event>
<event>
 7    1  0.1358622E-013  0.7246164E+02  0.7816164E-02  0.1226708E+00
        -11   -1    0    0    0    0  0.00000000000E+00  0.00000000000E+00  0.45593999997E+02  0.45594000000E+02  0.51100000000E-03 0.  1.
         11   -1    0    0    0    0 -0.00000000000E+00 -0.00000000000E+00 -0.45593999997E+02  0.45594000000E+02  0.51100000000E-03 0. -1.
    9900012    2    1    2    0    0  0.17840820602E+02 -0.56576305588E+01 -0.61056893089E+00  0.72461642700E+02  0.70000094322E+02 0.  0.
        -12    1    1    2    0    0 -0.17840820602E+02  0.56576305588E+01  0.61056893089E+00  0.18726357300E+02  0.00000000000E+00 0.  1.
         11    1    3    3    0    0  0.74775595121E+01  0.61568371161E+01 -0.25351864257E+02  0.27139225507E+02  0.51100000000E-03 0. -1.
        -11    1    3    3    0    0  0.12827103567E+02 -0.22514188562E+02  0.12158217905E+02  0.28622465572E+02  0.51100000000E-03 0.  1.
         12    1    3    3    0    0 -0.24638424770E+01  0.10699720887E+02  0.12583077421E+02  0.16699951622E+02  0.00000000000E+00 0. -1.
</event>
<event>
 7    1  0.1358622E-013  0.7246158E+02  0.7816164E-02  0.1226708E+00
        -11   -1    0    0    0    0  0.00000000000E+00  0.00000000000E+00  0.45593999997E+02  0.45594000000E+02  0.51100000000E-03 0. -1.
         11   -1    0    0    0    0 -0.00000000000E+00 -0.00000000000E+00 -0.45593999997E+02  0.45594000000E+02  0.51100000000E-03 0.  1.
    9900012    2    1    2    0    0 -0.92932742821E+01  0.86762878046E+01  0.13749032994E+02  0.72461579487E+02  0.70000011975E+02 0.  0.
        -12    1    1    2    0    0  0.92932742821E+01 -0.86762878046E+01 -0.13749032994E+02  0.18726420513E+02  0.00000000000E+00 0.  1.
         11    1    3    3    0    0 -0.61240080656E+01 -0.14712259882E+02  0.17764306774E+01  0.16034642866E+02  0.51100000000E-03 0. -1.
        -11    1    3    3    0    0 -0.15545586907E+02 -0.45548553634E+01 -0.97727205524E+01  0.18918722127E+02  0.51100000000E-03 0.  1.
        -12    1    3    3    0    0  0.12376320691E+02  0.27943403050E+02  0.21745322869E+02  0.37508214494E+02  0.00000000000E+00 0.  1.
</event>
<event>
 7    1  0.1358622E-013  0.7246161E+02  0.7816164E-02  0.1226708E+00
        -11   -1    0    0    0    0  0.00000000000E+00  0.00000000000E+00  0.45593999997E+02  0.45594000000E+02  0.51100000000E-03 0.  1.
         11   -1    0    0    0    0 -0.00000000000E+00 -0.00000000000E+00 -0.45593999997E+02  0.45594000000E+02  0.51100000000E-03 0. -1.
    9900012    2    1    2    0    0  0.95862826641E+01  0.14931590178E+02 -0.59856947978E+01  0.72461608389E+02  0.70000049625E+02 0.  0.
        -12    1    1    2    0    0 -0.95862826641E+01 -0.14931590178E+02  0.59856947978E+01  0.18726391611E+02  0.00000000000E+00 0.  1.
         11    1    3    3    0    0  0.20968190215E+01 -0.19438866451E+01 -0.33224816267E+02  0.33347620028E+02  0.51100000000E-03 0. -1.
        -11    1    3    3    0    0 -0.64237597900E+01  0.15644969153E+01  0.30401878764E+01  0.72770243247E+01  0.51100000000E-03 0.  1.
        -12    1    3    3    0    0  0.13913223433E+02  0.15310979908E+02  0.24198933593E+02  0.31836964036E+02  0.00000000000E+00 0.  1.
</event>
<event>
 7    1  0.1358622E-013  0.7246160E+02  0.7816164E-02  0.1226708E+00
        -11   -1    0    0    0    0  0.00000000000E+00  0.00000000000E+00  0.45593999997E+02  0.45594000000E+02  0.51100000000E-03 0.  1.
         11   -1    0    0    0    0 -0.00000000000E+00 -0.00000000000E+00 -0.45593999997E+02  0.45594000000E+02  0.51100000000E-03 0. -1.
    9900012    2    1    2    0    0 -0.81843586536E+01 -0.15898453297E+02 -0.55617980433E+01  0.72461597749E+02  0.70000035765E+02 0.  0.
        -12    1    1    2    0    0  0.81843586536E+01  0.15898453297E+02  0.55617980433E+01  0.18726402251E+02  0.00000000000E+00 0.  1.
         11    1    3    3    0    0 -0.13397272794E+02 -0.21494247686E+02 -0.15324265745E+02  0.29602748568E+02  0.51100000000E-03 0. -1.
        -11    1    3    3    0    0  0.26892895902E+01 -0.12963170681E+01  0.25405098392E+02  0.25579908932E+02  0.51100000000E-03 0.  1.
         12    1    3    3    0    0  0.25236245507E+01  0.68921114570E+01 -0.15642630690E+02  0.17278940248E+02  0.00000000000E+00 0. -1.
</event>
<event>
 7    1  0.1358622E-013  0.7246151E+02  0.7816164E-02  0.1226708E+00
        -11   -1    0    0    0    0  0.00000000000E+00  0.00000000000E+00  0.45593999997E+02  0.45594000000E+02  0.51100000000E-03 0. -1.
         11   -1    0    0    0    0 -0.00000000000E+00 -0.00000000000E+00 -0.45593999997E+02  0.45594000000E+02  0.51100000000E-03 0.  1.
    9900012    2    1    2    0    0  0.10376244902E+02 -0.15094413756E+02 -0.38953122861E+01  0.72461514940E+02  0.69999927891E+02 0.  0.
        -12    1    1    2    0    0 -0.10376244902E+02  0.15094413756E+02  0.38953122861E+01  0.18726485060E+02  0.00000000000E+00 0.  1.
         11    1    3    3    0    0  0.12783403038E+02 -0.83281771349E+01  0.17582414806E+02  0.23279072969E+02  0.51100000000E-03 0. -1.
        -11    1    3    3    0    0 -0.25428916885E+01 -0.24515495990E+02 -0.53957648291E+01  0.25230737606E+02  0.51100000000E-03 0.  1.
        -12    1    3    3    0    0  0.13573355170E+00  0.17749259369E+02 -0.16081962263E+02  0.23951704365E+02  0.00000000000E+00 0.  1.
</event>
<event>
 7    1  0.1358622E-013  0.7246155E+02  0.7816164E-02  0.1226708E+00
        -11   -1    0    0    0    0  0.00000000000E+00  0.00000000000E+00  0.45593999997E+02  0.45594000000E+02  0.51100000000E-03 0.  1.
         11   -1    0    0    0    0 -0.00000000000E+00 -0.00000000000E+00 -0.45593999997E+02  0.45594000000E+02  0.51100000000E-03 0. -1.
    9900012    2    1    2    0    0 -0.75830825244E+01 -0.15983731746E+02 -0.61397856497E+01  0.72461553756E+02  0.69999978456E+02 0.  0.
        -12    1    1    2    0    0  0.75830825244E+01  0.15983731746E+02  0.61397856497E+01  0.18726446244E+02  0.00000000000E+00 0.  1.
         11    1    3    3    0    0  0.11388652441E+02  0.32909315317E+01  0.75827141918E+00  0.11878830353E+02  0.51100000000E-03 0. -1.
        -11    1    3    3    0    0 -0.17627883771E+00 -0.64735661957E+01 -0.28494554562E+02  0.29221187064E+02  0.51100000000E-03 0.  1.
        -12    1    3    3    0    0 -0.18795456127E+02 -0.12801097082E+02  0.21596497493E+02  0.31361536338E+02  0.00000000000E+00 0.  1.
</event>
<event>
 7    1  0.1358622E-013  0.7246155E+02  0.7816164E-02  0.1226708E+00
        -11   -1    0    0    0    0  0.00000000000E+00  0.00000000000E+00  0.45593999997E+02  0.45594000000E+02  0.51100000000E-03 0. -1.
         11   -1    0    0    0    0 -0.00000000000E+00 -0.00000000000E+00 -0.45593999997E+02  0.45594000000E+02  0.51100000000E-03 0.  1.
    9900012    2    1    2    0    0  0.21483819209E+00  0.18543947606E+02  0.25991840282E+01  0.72461550633E+02  0.69999974388E+02 0.  0.
        -12    1    1    2    0    0 -0.21483819209E+00 -0.18543947606E+02 -0.25991840282E+01  0.18726449367E+02  0.00000000000E+00 0.  1.
         11    1    3    3    0    0  0.48405281043E+01 -0.31294868461E+00 -0.63004910092E+01  0.79514046825E+01  0.51100000000E-03 0. -1.
        -11    1    3    3    0    0  0.63010853906E+01  0.20136824126E+01 -0.24589560570E+02  0.25463799466E+02  0.51100000000E-03 0.  1.
         12    1    3    3    0    0 -0.10926775303E+02  0.16843213878E+02  0.33489235607E+02  0.39046346485E+02  0.00000000000E+00 0. -1.
</event>
<event>
 7    1  0.1358622E-013  0.7246155E+02  0.7816164E-02  0.1226708E+00
        -11   -1    0    0    0    0  0.00000000000E+00  0.00000000000E+00  0.45593999997E+02  0.45594000000E+02  0.51100000000E-03 0.  1.
         11   -1    0    0    0    0 -0.00000000000E+00 -0.00000000000E+00 -0.45593999997E+02  0.45594000000E+02  0.51100000000E-03 0. -1.
    9900012    2    1    2    0    0 -0.85782036425E+01  0.10937648227E+02  0.12548388660E+02  0.72461553876E+02  0.69999978612E+02 0.  0.
        -12    1    1    2    0    0  0.85782036425E+01 -0.10937648227E+02 -0.12548388660E+02  0.18726446124E+02  0.00000000000E+00 0.  1.
         11    1    3    3    0    0 -0.10666870679E+02  0.57058482142E+01 -0.21345847174E+01  0.12283944240E+02  0.51100000000E-03 0. -1.
        -11    1    3    3    0    0 -0.61546862749E+00  0.78882965880E+01  0.36849455391E+02  0.37689340503E+02  0.51100000000E-03 0.  1.
         12    1    3    3    0    0  0.27041356638E+01 -0.26564965755E+01 -0.22166482013E+02  0.22488269133E+02  0.00000000000E+00 0. -1.
</event>
<event>
 7    1  0.1358622E-013  0.7246154E+02  0.7816164E-02  0.1226708E+00
        -11   -1    0    0    0    0  0.00000000000E+00  0.00000000000E+00  0.45593999997E+02  0.45594000000E+02  0.51100000000E-03 0.  1.
         11   -1    0    0    0    0 -0.00000000000E+00 -0.00000000000E+00 -0.45593999997E+02  0.45594000000E+02  0.51100000000E-03 0. -1.
    9900012    2    1    2    0    0  0.39645368039E+01  0.11941801248E+02 -0.13869249698E+02  0.72461541278E+02  0.69999962200E+02 0.  0.
        -12    1    1    2    0    0 -0.39645368039E+01 -0.11941801248E+02  0.13869249698E+02  0.18726458722E+02  0.00000000000E+00 0.  1.
         11    1    3    3    0    0 -0.85990686551E+01 -0.11792507025E+01  0.20383369193E+01  0.89156845846E+01  0.51100000000E-03 0. -1.
        -11    1    3    3    0    0 -0.20845998102E+02 -0.33038919643E+01  0.37643572659E+01  0.21439256631E+02  0.51100000000E-03 0.  1.
         12    1    3    3    0    0  0.33409603561E+02  0.16424943914E+02 -0.19671943883E+02  0.42106600063E+02  0.00000000000E+00 0. -1.
</event>
<event>
 7    1  0.1358622E-013  0.7246155E+02  0.7816164E-02  0.1226708E+00
        -11   -1    0    0    0    0  0.00000000000E+00  0.00000000000E+00  0.45593999997E+02  0.45594000000E+02  0.51100000000E-03 0.  1.
         11   -1    0    0    0    0 -0.00000000000E+00 -0.00000000000E+00 -0.45593999997E+02  0.45594000000E+02  0.51100000000E-03 0. -1.
    9900012    2    1    2    0    0 -0.18124488706E+02 -0.37471261397E+01 -0.28533701305E+01  0.72461554361E+02  0.69999979244E+02 0.  0.
        -12    1    1    2    0    0  0.18124488706E+02  0.37471261397E+01  0.28533701305E+01  0.18726445639E+02  0.00000000000E+00 0.  1.
         11    1    3    3    0    0  0.82273054155E+01  0.11227040635E+02 -0.17246497885E+02  0.22162506298E+02  0.51100000000E-03 0. -1.
        -11    1    3    3    0    0 -0.11627090458E+02  0.63136401852E+01 -0.85147301510E+01  0.15733782594E+02  0.51100000000E-03 0.  1.
        -12    1    3    3    0    0 -0.14724703663E+02 -0.21287806960E+02  0.22907857906E+02  0.34565265470E+02  0.00000000000E+00 0.  1.
</event>
<event>
 7    1  0.1358622E-013  0.7246156E+02  0.7816164E-02  0.1226708E+00
        -11   -1    0    0    0    0  0.00000000000E+00  0.00000000000E+00  0.45593999997E+02  0.45594000000E+02  0.51100000000E-03 0. -1.
         11   -1    0    0    0    0 -0.00000000000E+00 -0.00000000000E+00 -0.45593999997E+02  0.45594000000E+02  0.51100000000E-03 0.  1.
    9900012    2    1    2    0    0  0.76440475019E+01 -0.81394109631E+01  0.15033232105E+02  0.72461560387E+02  0.69999987094E+02 0.  0.
        -12    1    1    2    0    0 -0.76440475019E+01  0.81394109631E+01 -0.15033232105E+02  0.18726439613E+02  0.00000000000E+00 0.  1.
         11    1    3    3    0    0 -0.80951441873E+01 -0.21355374424E+02  0.39916042022E+01  0.23184397352E+02  0.51100000000E-03 0. -1.
        -11    1    3    3    0    0 -0.11343119268E+02  0.15757828089E+02 -0.11899169422E+01  0.19452285301E+02  0.51100000000E-03 0.  1.
         12    1    3    3    0    0  0.27082310957E+02 -0.25418646282E+01  0.12231544845E+02  0.29824877734E+02  0.00000000000E+00 0. -1.
</event>
<event>
 7    1  0.1358622E-013  0.7246160E+02  0.7816164E-02  0.1226708E+00
        -11   -1    0    0    0    0  0.00000000000E+00  0.00000000000E+00  0.45593999997E+02  0.45594000000E+02  0.51100000000E-03 0. -1.
         11   -1    0    0    0    0 -0.00000000000E+00 -0.00000000000E+00 -0.45593999997E+02  0.45594000000E+02  0.51100000000E-03 0.  1.
    9900012    2    1    2    0    0  0.13082181979E+02 -0.13283274775E+02  0.17576143219E+01  0.72461599327E+02  0.70000037820E+02 0.  0.
        -12    1    1    2    0    0 -0.13082181979E+02  0.13283274775E+02 -0.17576143219E+01  0.18726400673E+02  0.00000000000E+00 0.  1.
         11    1    3    3    0    0 -0.95987569276E+01 -0.11007162897E+02  0.23075666664E+02  0.27308975847E+02  0.51100000000E-03 0. -1.
        -11    1    3    3    0    0 -0.82168979880E+01 -0.30742584642E+00 -0.14066921924E+01  0.83421044336E+01  0.51100000000E-03 0.  1.
        -12    1    3    3    0    0  0.30897836894E+02 -0.19686860322E+01 -0.19911360149E+02  0.36810519046E+02  0.00000000000E+00 0.  1.
</event>
<event>
 7    1  0.1358622E-013  0.7246154E+02  0.7816164E-02  0.1226708E+00
        -11   -1    0    0    0    0  0.00000000000E+00  0.00000000000E+00  0.45593999997E+02  0.45594000000E+02  0.51100000000E-03 0.  1.
         11   -1    0    0    0    0 -0.00000000000E+00 -0.00000000000E+00 -0.45593999997E+02  0.45594000000E+02  0.51100000000E-03 0. -1.
    9900012    2    1    2    0    0  0.14722616810E+02 -0.88711308591E+01 -0.74315396685E+01  0.72461543039E+02  0.69999964495E+02 0.  0.
        -12    1    1    2    0    0 -0.14722616810E+02  0.88711308591E+01  0.74315396685E+01  0.18726456961E+02  0.00000000000E+00 0.  1.
         11    1    3    3    0    0  0.48070507847E+01 -0.39703470209E-01 -0.23824052676E+02  0.24304213622E+02  0.51100000000E-03 0. -1.
        -11    1    3    3    0    0  0.20560130956E+02  0.10344876679E+02  0.11304665178E+02  0.25642365598E+02  0.51100000000E-03 0.  1.
         12    1    3    3    0    0 -0.10644564931E+02 -0.19176304068E+02  0.50878478293E+01  0.22514963820E+02  0.00000000000E+00 0. -1.
</event>
<event>
 7    1  0.1358622E-013  0.7246157E+02  0.7816164E-02  0.1226708E+00
        -11   -1    0    0    0    0  0.00000000000E+00  0.00000000000E+00  0.45593999997E+02  0.45594000000E+02  0.51100000000E-03 0. -1.
         11   -1    0    0    0    0 -0.00000000000E+00 -0.00000000000E+00 -0.45593999997E+02  0.45594000000E+02  0.51100000000E-03 0.  1.
    9900012    2    1    2    0    0 -0.10877124309E+02 -0.13325726258E+02  0.74021755374E+01  0.72461574387E+02  0.70000005331E+02 0.  0.
        -12    1    1    2    0    0  0.10877124309E+02  0.13325726258E+02 -0.74021755374E+01  0.18726425613E+02  0.00000000000E+00 0.  1.
         11    1    3    3    0    0  0.31188032775E+01  0.83611056500E+01 -0.13528498693E+02  0.16206643660E+02  0.51100000000E-03 0. -1.
        -11    1    3    3    0    0  0.35690294759E+01  0.12865074757E+02  0.38264681866E+01  0.13888483681E+02  0.51100000000E-03 0.  1.
         12    1    3    3    0    0 -0.17564957063E+02 -0.34551906666E+02  0.17104206044E+02  0.42366447046E+02  0.00000000000E+00 0. -1.
</event>
<event>
 7    1  0.1358622E-013  0.7246103E+02  0.7816164E-02  0.1226709E+00
        -11   -1    0    0    0    0  0.00000000000E+00  0.00000000000E+00  0.45593999997E+02  0.45594000000E+02  0.51100000000E-03 0. -1.
         11   -1    0    0    0    0 -0.00000000000E+00 -0.00000000000E+00 -0.45593999997E+02  0.45594000000E+02  0.51100000000E-03 0.  1.
    9900012    2    1    2    0    0  0.49745566537E+00  0.15734849617E+02 -0.10142305793E+02  0.72461032242E+02  0.69999299083E+02 0.  0.
        -12    1    1    2    0    0 -0.49745566537E+00 -0.15734849617E+02  0.10142305793E+02  0.18726967758E+02  0.00000000000E+00 0.  1.
         11    1    3    3    0    0 -0.30746709602E+01  0.22079773329E+02  0.18429354154E+02  0.28924230095E+02  0.51100000000E-03 0. -1.
        -11    1    3    3    0    0  0.13609380025E+02  0.10397130529E+01 -0.14954032095E+01  0.13730712251E+02  0.51100000000E-03 0.  1.
        -12    1    3    3    0    0 -0.10037253399E+02 -0.73846367648E+01 -0.27076256738E+02  0.29806089896E+02  0.00000000000E+00 0.  1.
</event>
<event>
 7    1  0.1358622E-013  0.7246158E+02  0.7816164E-02  0.1226708E+00
        -11   -1    0    0    0    0  0.00000000000E+00  0.00000000000E+00  0.45593999997E+02  0.45594000000E+02  0.51100000000E-03 0.  1.
         11   -1    0    0    0    0 -0.00000000000E+00 -0.00000000000E+00 -0.45593999997E+02  0.45594000000E+02  0.51100000000E-03 0. -1.
    9900012    2    1    2    0    0  0.70856958660E+01  0.14126421817E+02 -0.10045694722E+02  0.72461578513E+02  0.70000010706E+02 0.  0.
        -12    1    1    2    0    0 -0.70856958660E+01 -0.14126421817E+02  0.10045694722E+02  0.18726421487E+02  0.00000000000E+00 0.  1.
         11    1    3    3    0    0  0.34659094396E+02 -0.11698536913E+01  0.11791241806E+01  0.34698871972E+02  0.51100000000E-03 0. -1.
        -11    1    3    3    0    0 -0.10349666498E+02 -0.22977271386E+00  0.27205478044E+01  0.10703727049E+02  0.51100000000E-03 0.  1.
        -12    1    3    3    0    0 -0.17223732032E+02  0.15526048222E+02 -0.13945366707E+02  0.27058979491E+02  0.00000000000E+00 0.  1.
</event>
<event>
 7    1  0.1358622E-013  0.7246157E+02  0.7816164E-02  0.1226708E+00
        -11   -1    0    0    0    0  0.00000000000E+00  0.00000000000E+00  0.45593999997E+02  0.45594000000E+02  0.51100000000E-03 0. -1.
         11   -1    0    0    0    0 -0.00000000000E+00 -0.00000000000E+00 -0.45593999997E+02  0.45594000000E+02  0.51100000000E-03 0.  1.
    9900012    2    1    2    0    0 -0.45738923077E+01 -0.12427889674E+02  0.13240321959E+02  0.72461573268E+02  0.70000003874E+02 0.  0.
        -12    1    1    2    0    0  0.45738923077E+01  0.12427889674E+02 -0.13240321959E+02  0.18726426732E+02  0.00000000000E+00 0.  1.
         11    1    3    3    0    0  0.26876644720E+01  0.13126119015E+01 -0.28769559164E+01  0.41501043268E+01  0.51100000000E-03 0. -1.
        -11    1    3    3    0    0 -0.52549219850E+01  0.17474709326E+02 -0.15421714502E+02  0.23891608350E+02  0.51100000000E-03 0.  1.
         12    1    3    3    0    0 -0.20066347947E+01 -0.31215210901E+02  0.31538992377E+02  0.44419860591E+02  0.00000000000E+00 0. -1.
</event>
<event>
 7    1  0.1358622E-013  0.7246159E+02  0.7816164E-02  0.1226708E+00
        -11   -1    0    0    0    0  0.00000000000E+00  0.00000000000E+00  0.45593999997E+02  0.45594000000E+02  0.51100000000E-03 0.  1.
         11   -1    0    0    0    0 -0.00000000000E+00 -0.00000000000E+00 -0.45593999997E+02  0.45594000000E+02  0.51100000000E-03 0. -1.
    9900012    2    1    2    0    0 -0.90701721940E+01  0.14909744063E+02  0.67904172974E+01  0.72461594613E+02  0.70000031679E+02 0.  0.
        -12    1    1    2    0    0  0.90701721940E+01 -0.14909744063E+02 -0.67904172974E+01  0.18726405387E+02  0.00000000000E+00 0.  1.
         11    1    3    3    0    0  0.10904007676E+02 -0.17254373115E+02 -0.74786346596E+00  0.20424741737E+02  0.51100000000E-03 0. -1.
        -11    1    3    3    0    0  0.10687353546E+01  0.76995018550E+01  0.16760536169E+02  0.18475391660E+02  0.51100000000E-03 0.  1.
        -12    1    3    3    0    0 -0.21042915225E+02  0.24464615324E+02 -0.92222554056E+01  0.33561461215E+02  0.00000000000E+00 0.  1.
</event>
<event>
 7    1  0.1358622E-013  0.7246158E+02  0.7816164E-02  0.1226708E+00
        -11   -1    0    0    0    0  0.00000000000E+00  0.00000000000E+00  0.45593999997E+02  0.45594000000E+02  0.51100000000E-03 0. -1.
         11   -1    0    0    0    0 -0.00000000000E+00 -0.00000000000E+00 -0.45593999997E+02  0.45594000000E+02  0.51100000000E-03 0.  1.
    9900012    2    1    2    0    0  0.60080862052E+01 -0.26681640886E+01  0.17534614667E+02  0.72461577197E+02  0.70000008992E+02 0.  0.
        -12    1    1    2    0    0 -0.60080862052E+01  0.26681640886E+01 -0.17534614667E+02  0.18726422803E+02  0.00000000000E+00 0.  1.
         11    1    3    3    0    0  0.27353536173E+01 -0.87390244073E+01  0.17588830398E+02  0.19829767070E+02  0.51100000000E-03 0. -1.
        -11    1    3    3    0    0  0.22474033656E+02  0.47057180850E+01  0.15651023896E+02  0.27788136330E+02  0.51100000000E-03 0.  1.
        -12    1    3    3    0    0 -0.19201301068E+02  0.13651422337E+01 -0.15705239627E+02  0.24843673797E+02  0.00000000000E+00 0.  1.
</event>
<event>
 7    1  0.1358622E-013  0.7246158E+02  0.7816164E-02  0.1226708E+00
        -11   -1    0    0    0    0  0.00000000000E+00  0.00000000000E+00  0.45593999997E+02  0.45594000000E+02  0.51100000000E-03 0.  1.
         11   -1    0    0    0    0 -0.00000000000E+00 -0.00000000000E+00 -0.45593999997E+02  0.45594000000E+02  0.51100000000E-03 0. -1.
    9900012    2    1    2    0    0 -0.85445082302E+01  0.24895230679E+01 -0.16476421363E+02  0.72461579976E+02  0.70000012612E+02 0.  0.
        -12    1    1    2    0    0  0.85445082302E+01 -0.24895230679E+01  0.16476421363E+02  0.18726420024E+02  0.00000000000E+00 0.  1.
         11    1    3    3    0    0 -0.11312172849E+02 -0.19476573817E+02 -0.12454592228E+02  0.25737502793E+02  0.51100000000E-03 0. -1.
        -11    1    3    3    0    0 -0.44391346991E+01  0.25869695498E+01  0.16687385758E+02  0.17460445929E+02  0.51100000000E-03 0.  1.
        -12    1    3    3    0    0  0.72067993177E+01  0.19379127335E+02 -0.20709214893E+02  0.29263631254E+02  0.00000000000E+00 0.  1.
</event>
<event>
 7    1  0.1358622E-013  0.7246156E+02  0.7816164E-02  0.1226708E+00
        -11   -1    0    0    0    0  0.00000000000E+00  0.00000000000E+00  0.45593999997E+02  0.45594000000E+02  0.51100000000E-03 0.  1.
         11   -1    0    0    0    0 -0.00000000000E+00 -0.00000000000E+00 -0.45593999997E+02  0.45594000000E+02  0.51100000000E-03 0. -1.
    9900012    2    1    2    0    0 -0.87665020591E+00  0.17799714844E+02 -0.57516090521E+01  0.72461564920E+02  0.69999992999E+02 0.  0.
        -12    1    1    2    0    0  0.87665020591E+00 -0.17799714844E+02  0.57516090521E+01  0.18726435080E+02  0.00000000000E+00 0.  1.
         11    1    3    3    0    0 -0.21392960685E+02 -0.10061492355E+02 -0.20840480587E+01  0.23732586287E+02  0.51100000000E-03 0. -1.
        -11    1    3    3    0    0 -0.25152375976E+01  0.25125597862E+02 -0.24663706803E-01  0.25251191985E+02  0.51100000000E-03 0.  1.
        -12    1    3    3    0    0  0.23031548077E+02  0.27356093377E+01 -0.36428972866E+01  0.23477786648E+02  0.00000000000E+00 0.  1.
</event>
<event>
 7    1  0.1358622E-013  0.7246155E+02  0.7816164E-02  0.1226708E+00
        -11   -1    0    0    0    0  0.00000000000E+00  0.00000000000E+00  0.45593999997E+02  0.45594000000E+02  0.51100000000E-03 0. -1.
         11   -1    0    0    0    0 -0.00000000000E+00 -0.00000000000E+00 -0.45593999997E+02  0.45594000000E+02  0.51100000000E-03 0.  1.
    9900012    2    1    2    0    0  0.15350140775E+02 -0.10328155632E+02 -0.28952119396E+01  0.72461551518E+02  0.69999975540E+02 0.  0.
        -12    1    1    2    0    0 -0.15350140775E+02  0.10328155632E+02  0.28952119396E+01  0.18726448482E+02  0.00000000000E+00 0.  1.
         11    1    3    3    0    0  0.29784356598E+02  0.25746344102E+00  0.19994307426E+02  0.35874036783E+02  0.51100000000E-03 0. -1.
        -11    1    3    3    0    0  0.25444191720E+01  0.35738095623E+01 -0.10183724117E+02  0.11088481450E+02  0.51100000000E-03 0.  1.
        -12    1    3    3    0    0 -0.16978634995E+02 -0.14159428636E+02 -0.12705795249E+02  0.25499033285E+02  0.00000000000E+00 0.  1.
</event>
<event>
 7    1  0.1358622E-013  0.7246159E+02  0.7816164E-02  0.1226708E+00
        -11   -1    0    0    0    0  0.00000000000E+00  0.00000000000E+00  0.45593999997E+02  0.45594000000E+02  0.51100000000E-03 0.  1.
         11   -1    0    0    0    0 -0.00000000000E+00 -0.00000000000E+00 -0.45593999997E+02  0.45594000000E+02  0.51100000000E-03 0. -1.
    9900012    2    1    2    0    0  0.18360849199E+01 -0.17540334627E+02  0.62963446552E+01  0.72461588099E+02  0.70000023194E+02 0.  0.
        -12    1    1    2    0    0 -0.18360849199E+01  0.17540334627E+02 -0.62963446552E+01  0.18726411901E+02  0.00000000000E+00 0.  1.
         11    1    3    3    0    0 -0.15014330245E+02 -0.16789294942E+02 -0.12998198407E+01  0.22561029880E+02  0.51100000000E-03 0. -1.
        -11    1    3    3    0    0 -0.14504546370E+02 -0.67909300694E+01 -0.29250141951E+01  0.16280488473E+02  0.51100000000E-03 0.  1.
         12    1    3    3    0    0  0.31354961535E+02  0.60398903841E+01  0.10521178691E+02  0.33620069747E+02  0.00000000000E+00 0. -1.
</event>
<event>
 7    1  0.1358622E-013  0.7246158E+02  0.7816164E-02  0.1226708E+00
        -11   -1    0    0    0    0  0.00000000000E+00  0.00000000000E+00  0.45593999997E+02  0.45594000000E+02  0.51100000000E-03 0.  1.
         11   -1    0    0    0    0 -0.00000000000E+00 -0.00000000000E+00 -0.45593999997E+02  0.45594000000E+02  0.51100000000E-03 0. -1.
    9900012    2    1    2    0    0 -0.94780300303E+01  0.16135372016E+02  0.70383340709E+00  0.72461583770E+02  0.70000017555E+02 0.  0.
        -12    1    1    2    0    0  0.94780300303E+01 -0.16135372016E+02 -0.70383340709E+00  0.18726416230E+02  0.00000000000E+00 0.  1.
         11    1    3    3    0    0  0.10536697616E+02  0.14829275903E+02  0.79638833723E+01  0.19858319644E+02  0.51100000000E-03 0. -1.
        -11    1    3    3    0    0  0.28816077805E+00  0.22589132594E+02 -0.15813259785E+01  0.22646247815E+02  0.51100000000E-03 0.  1.
        -12    1    3    3    0    0 -0.20302888424E+02 -0.21283036481E+02 -0.56787239866E+01  0.29957016312E+02  0.00000000000E+00 0.  1.
</event>
<event>
 7    1  0.1358622E-013  0.7246157E+02  0.7816164E-02  0.1226708E+00
        -11   -1    0    0    0    0  0.00000000000E+00  0.00000000000E+00  0.45593999997E+02  0.45594000000E+02  0.51100000000E-03 0.  1.
         11   -1    0    0    0    0 -0.00000000000E+00 -0.00000000000E+00 -0.45593999997E+02  0.45594000000E+02  0.51100000000E-03 0. -1.
    9900012    2    1    2    0    0  0.87757072313E+01 -0.13414903622E+02 -0.96802099181E+01  0.72461571065E+02  0.70000001004E+02 0.  0.
        -12    1    1    2    0    0 -0.87757072313E+01  0.13414903622E+02  0.96802099181E+01  0.18726428935E+02  0.00000000000E+00 0.  1.
         11    1    3    3    0    0 -0.43642727185E+01 -0.21566925585E+02 -0.20829393657E+02  0.30299221045E+02  0.51100000000E-03 0. -1.
        -11    1    3    3    0    0  0.23948839832E+01 -0.11236028336E+02  0.15778305789E+02  0.19517651905E+02  0.51100000000E-03 0.  1.
        -12    1    3    3    0    0  0.10745095967E+02  0.19388050299E+02 -0.46291220498E+01  0.22644698114E+02  0.00000000000E+00 0.  1.
</event>
<event>
 7    1  0.1358622E-013  0.7246159E+02  0.7816164E-02  0.1226708E+00
        -11   -1    0    0    0    0  0.00000000000E+00  0.00000000000E+00  0.45593999997E+02  0.45594000000E+02  0.51100000000E-03 0.  1.
         11   -1    0    0    0    0 -0.00000000000E+00 -0.00000000000E+00 -0.45593999997E+02  0.45594000000E+02  0.51100000000E-03 0. -1.
    9900012    2    1    2    0    0  0.15207688810E+02 -0.84337926844E+01 -0.69480806531E+01  0.72461588631E+02  0.70000023887E+02 0.  0.
        -12    1    1    2    0    0 -0.15207688810E+02  0.84337926844E+01  0.69480806531E+01  0.18726411369E+02  0.00000000000E+00 0.  1.
         11    1    3    3    0    0 -0.69945812005E+01 -0.16504744226E+02 -0.13958539524E+02  0.22719409632E+02  0.51100000000E-03 0. -1.
        -11    1    3    3    0    0 -0.60409040157E+01 -0.12498208016E+01  0.17224394004E+02  0.18295746020E+02  0.51100000000E-03 0.  1.
         12    1    3    3    0    0  0.28243174026E+02  0.93207723435E+01 -0.10213935133E+02  0.31446432979E+02  0.00000000000E+00 0. -1.
</event>
<event>
 7    1  0.1358622E-013  0.7246156E+02  0.7816164E-02  0.1226708E+00
        -11   -1    0    0    0    0  0.00000000000E+00  0.00000000000E+00  0.45593999997E+02  0.45594000000E+02  0.51100000000E-03 0.  1.
         11   -1    0    0    0    0 -0.00000000000E+00 -0.00000000000E+00 -0.45593999997E+02  0.45594000000E+02  0.51100000000E-03 0. -1.
    9900012    2    1    2    0    0 -0.12400451362E+02  0.13993953492E+02  0.10380983607E+01  0.72461559427E+02  0.69999985844E+02 0.  0.
        -12    1    1    2    0    0  0.12400451362E+02 -0.13993953492E+02 -0.10380983607E+01  0.18726440573E+02  0.00000000000E+00 0.  1.
         11    1    3    3    0    0 -0.72219845094E+01  0.20175867098E+02 -0.85326766411E+01  0.23065759132E+02  0.51100000000E-03 0. -1.
        -11    1    3    3    0    0  0.12701072458E+02  0.14218553898E+02 -0.33363288781E+01  0.19354989206E+02  0.51100000000E-03 0.  1.
         12    1    3    3    0    0 -0.17879539310E+02 -0.20400467504E+02  0.12907103880E+02  0.30040811089E+02  0.00000000000E+00 0. -1.
</event>
<event>
 7    1  0.1499715E-013  0.7246105E+02  0.7816164E-02  0.1226709E+00
        -11   -1    0    0    0    0  0.00000000000E+00  0.00000000000E+00  0.45593999997E+02  0.45594000000E+02  0.51100000000E-03 0. -1.
         11   -1    0    0    0    0 -0.00000000000E+00 -0.00000000000E+00 -0.45593999997E+02  0.45594000000E+02  0.51100000000E-03 0.  1.
    9900012    2    1    2    0    0  0.97038563546E+01 -0.94508558919E+01  0.12931174063E+02  0.72461047021E+02  0.69999318336E+02 0.  0.
        -12    1    1    2    0    0 -0.97038563546E+01  0.94508558919E+01 -0.12931174063E+02  0.18726952979E+02  0.00000000000E+00 0.  1.
         11    1    3    3    0    0  0.99279772637E+01 -0.23283933554E+01  0.24487424354E+02  0.26525838346E+02  0.51100000000E-03 0. -1.
        -11    1    3    3    0    0  0.13123785979E+02  0.13812310628E+02 -0.13806572505E+01  0.19102876695E+02  0.51100000000E-03 0.  1.
        -12    1    3    3    0    0 -0.13347906888E+02 -0.20934773165E+02 -0.10175593041E+02  0.26832331980E+02  0.00000000000E+00 0.  1.
</event>
<event>
 7    1  0.1358622E-013  0.7246160E+02  0.7816164E-02  0.1226708E+00
        -11   -1    0    0    0    0  0.00000000000E+00  0.00000000000E+00  0.45593999997E+02  0.45594000000E+02  0.51100000000E-03 0. -1.
         11   -1    0    0    0    0 -0.00000000000E+00 -0.00000000000E+00 -0.45593999997E+02  0.45594000000E+02  0.51100000000E-03 0.  1.
    9900012    2    1    2    0    0  0.68940676808E+01 -0.23686310990E+00  0.17409588648E+02  0.72461600180E+02  0.70000038932E+02 0.  0.
        -12    1    1    2    0    0 -0.68940676808E+01  0.23686310990E+00 -0.17409588648E+02  0.18726399820E+02  0.00000000000E+00 0.  1.
         11    1    3    3    0    0 -0.20513802420E+02 -0.11464828934E+01  0.39951087222E+01  0.20930633214E+02  0.51100000000E-03 0. -1.
        -11    1    3    3    0    0 -0.58362759589E+01 -0.26852598291E+01 -0.91584372487E+01  0.11187033142E+02  0.51100000000E-03 0.  1.
         12    1    3    3    0    0  0.33244146060E+02  0.35948796126E+01  0.22572917174E+02  0.40343933825E+02  0.00000000000E+00 0. -1.
</event>
<event>
 7    1  0.1358622E-013  0.7246160E+02  0.7816164E-02  0.1226708E+00
        -11   -1    0    0    0    0  0.00000000000E+00  0.00000000000E+00  0.45593999997E+02  0.45594000000E+02  0.51100000000E-03 0. -1.
         11   -1    0    0    0    0 -0.00000000000E+00 -0.00000000000E+00 -0.45593999997E+02  0.45594000000E+02  0.51100000000E-03 0.  1.
    9900012    2    1    2    0    0 -0.16555005345E+02  0.33357003238E+01  0.80921627439E+01  0.72461596275E+02  0.70000033844E+02 0.  0.
        -12    1    1    2    0    0  0.16555005345E+02 -0.33357003238E+01 -0.80921627439E+01  0.18726403725E+02  0.00000000000E+00 0.  1.
         11    1    3    3    0    0 -0.13588041049E+02  0.19975626787E+02  0.16381644403E+02  0.29189361054E+02  0.51100000000E-03 0. -1.
        -11    1    3    3    0    0 -0.20600937447E+01  0.75812008666E+01  0.10137249799E+02  0.12825070236E+02  0.51100000000E-03 0.  1.
        -12    1    3    3    0    0 -0.90687055055E+00 -0.24221127330E+02 -0.18426731459E+02  0.30447164984E+02  0.00000000000E+00 0.  1.
</event>
<event>
 7    1  0.1358622E-013  0.7246149E+02  0.7816164E-02  0.1226708E+00
        -11   -1    0    0    0    0  0.00000000000E+00  0.00000000000E+00  0.45593999997E+02  0.45594000000E+02  0.51100000000E-03 0.  1.
         11   -1    0    0    0    0 -0.00000000000E+00 -0.00000000000E+00 -0.45593999997E+02  0.45594000000E+02  0.51100000000E-03 0. -1.
    9900012    2    1    2    0    0 -0.41508379914E+01 -0.11160585378E+02 -0.14453161457E+02  0.72461494771E+02  0.69999901617E+02 0.  0.
        -12    1    1    2    0    0  0.41508379914E+01  0.11160585378E+02  0.14453161457E+02  0.18726505229E+02  0.00000000000E+00 0.  1.
         11    1    3    3    0    0 -0.40568102771E+01 -0.68763376180E+01 -0.36150414907E+02  0.37021537338E+02  0.51100000000E-03 0. -1.
        -11    1    3    3    0    0  0.41396545315E+01 -0.73493331230E+01 -0.39153894948E+01  0.92994468734E+01  0.51100000000E-03 0.  1.
        -12    1    3    3    0    0 -0.42336822458E+01  0.30650853634E+01  0.25612642945E+02  0.26140510559E+02  0.00000000000E+00 0.  1.
</event>
<event>
 7    1  0.1358622E-013  0.7246157E+02  0.7816164E-02  0.1226708E+00
        -11   -1    0    0    0    0  0.00000000000E+00  0.00000000000E+00  0.45593999997E+02  0.45594000000E+02  0.51100000000E-03 0. -1.
         11   -1    0    0    0    0 -0.00000000000E+00 -0.00000000000E+00 -0.45593999997E+02  0.45594000000E+02  0.51100000000E-03 0.  1.
    9900012    2    1    2    0    0 -0.13544602976E+02  0.10318253189E+02  0.77946492224E+01  0.72461570144E+02  0.69999999804E+02 0.  0.
        -12    1    1    2    0    0  0.13544602976E+02 -0.10318253189E+02 -0.77946492224E+01  0.18726429856E+02  0.00000000000E+00 0.  1.
         11    1    3    3    0    0  0.52183353414E+01  0.14016844314E+02  0.38943355480E+01  0.15455380872E+02  0.51100000000E-03 0. -1.
        -11    1    3    3    0    0  0.15368902913E+02 -0.22990034263E+01  0.14484477003E+02  0.21243555912E+02  0.51100000000E-03 0.  1.
         12    1    3    3    0    0 -0.34131841230E+02 -0.13995876984E+01 -0.10584163329E+02  0.35762633360E+02  0.00000000000E+00 0. -1.
</event>
<event>
 7    1  0.1358622E-013  0.7246167E+02  0.7816164E-02  0.1226708E+00
        -11   -1    0    0    0    0  0.00000000000E+00  0.00000000000E+00  0.45593999997E+02  0.45594000000E+02  0.51100000000E-03 0.  1.
         11   -1    0    0    0    0 -0.00000000000E+00 -0.00000000000E+00 -0.45593999997E+02  0.45594000000E+02  0.51100000000E-03 0. -1.
    9900012    2    1    2    0    0  0.37606060347E+01 -0.91564241833E+01 -0.15896321408E+02  0.72461673722E+02  0.70000134733E+02 0.  0.
        -12    1    1    2    0    0 -0.37606060347E+01  0.91564241833E+01  0.15896321408E+02  0.18726326278E+02  0.00000000000E+00 0.  1.
         11    1    3    3    0    0 -0.21006132176E+02  0.11950195518E+02 -0.59082370151E+01  0.24879148435E+02  0.51100000000E-03 0. -1.
        -11    1    3    3    0    0 -0.51132855317E+01  0.46142945577E+01  0.94220749270E-01  0.68881260880E+01  0.51100000000E-03 0.  1.
        -12    1    3    3    0    0  0.29880023743E+02 -0.25720914259E+02 -0.10082305142E+02  0.40694399199E+02  0.00000000000E+00 0.  1.
</event>
<event>
 7    1  0.1358622E-013  0.7246174E+02  0.7816164E-02  0.1226708E+00
        -11   -1    0    0    0    0  0.00000000000E+00  0.00000000000E+00  0.45593999997E+02  0.45594000000E+02  0.51100000000E-03 0. -1.
         11   -1    0    0    0    0 -0.00000000000E+00 -0.00000000000E+00 -0.45593999997E+02  0.45594000000E+02  0.51100000000E-03 0.  1.
    9900012    2    1    2    0    0  0.17632568538E+02  0.58292348926E+01  0.24052614190E+01  0.72461742093E+02  0.70000223800E+02 0.  0.
        -12    1    1    2    0    0 -0.17632568538E+02 -0.58292348926E+01 -0.24052614190E+01  0.18726257907E+02  0.00000000000E+00 0.  1.
         11    1    3    3    0    0  0.11875667139E+02  0.53243397827E+01 -0.13919134822E+02  0.19055770218E+02  0.51100000000E-03 0. -1.
        -11    1    3    3    0    0  0.12738490262E+02 -0.14614613366E+02 -0.10337085100E+02  0.21970693813E+02  0.51100000000E-03 0.  1.
        -12    1    3    3    0    0 -0.69815888626E+01  0.15119508476E+02  0.26661481341E+02  0.31435278063E+02  0.00000000000E+00 0.  1.
</event>
<event>
 7    1  0.1358622E-013  0.7246157E+02  0.7816164E-02  0.1226708E+00
        -11   -1    0    0    0    0  0.00000000000E+00  0.00000000000E+00  0.45593999997E+02  0.45594000000E+02  0.51100000000E-03 0. -1.
         11   -1    0    0    0    0 -0.00000000000E+00 -0.00000000000E+00 -0.45593999997E+02  0.45594000000E+02  0.51100000000E-03 0.  1.
    9900012    2    1    2    0    0  0.40164389868E+01  0.78464481094E+01  0.16522120541E+02  0.72461574895E+02  0.70000005993E+02 0.  0.
        -12    1    1    2    0    0 -0.40164389868E+01 -0.78464481094E+01 -0.16522120541E+02  0.18726425105E+02  0.00000000000E+00 0.  1.
         11    1    3    3    0    0 -0.83147755993E+01 -0.53175272305E+01  0.77535998568E+01  0.12551091591E+02  0.51100000000E-03 0. -1.
        -11    1    3    3    0    0  0.22164705241E+02 -0.14847679048E+02 -0.50705047443E+01  0.27155805092E+02  0.51100000000E-03 0.  1.
        -12    1    3    3    0    0 -0.98334906552E+01  0.28011654388E+02  0.13839025428E+02  0.32754678213E+02  0.00000000000E+00 0.  1.
</event>
<event>
 7    1  0.1358622E-013  0.7246159E+02  0.7816164E-02  0.1226708E+00
        -11   -1    0    0    0    0  0.00000000000E+00  0.00000000000E+00  0.45593999997E+02  0.45594000000E+02  0.51100000000E-03 0. -1.
         11   -1    0    0    0    0 -0.00000000000E+00 -0.00000000000E+00 -0.45593999997E+02  0.45594000000E+02  0.51100000000E-03 0.  1.
    9900012    2    1    2    0    0  0.12790357909E+02 -0.30841040614E+01  0.13325674030E+02  0.72461587058E+02  0.70000021838E+02 0.  0.
        -12    1    1    2    0    0 -0.12790357909E+02  0.30841040614E+01 -0.13325674030E+02  0.18726412942E+02  0.00000000000E+00 0.  1.
         11    1    3    3    0    0  0.75611033809E+01  0.14126712030E+02  0.15169998637E+02  0.22064975324E+02  0.51100000000E-03 0.  1.
        -11    1    3    3    0    0  0.25193122548E+02 -0.16383732145E+02  0.17159490649E+01  0.30100906701E+02  0.51100000000E-03 0. -1.
         12    1    3    3    0    0 -0.19963868021E+02 -0.82708394629E+00 -0.35602736718E+01  0.20295705034E+02  0.00000000000E+00 0. -1.
</event>
<event>
 7    1  0.1358622E-013  0.7246150E+02  0.7816164E-02  0.1226708E+00
        -11   -1    0    0    0    0  0.00000000000E+00  0.00000000000E+00  0.45593999997E+02  0.45594000000E+02  0.51100000000E-03 0.  1.
         11   -1    0    0    0    0 -0.00000000000E+00 -0.00000000000E+00 -0.45593999997E+02  0.45594000000E+02  0.51100000000E-03 0. -1.
    9900012    2    1    2    0    0  0.10053631279E+02  0.14045750266E+02 -0.72334808192E+01  0.72461498800E+02  0.69999906865E+02 0.  0.
        -12    1    1    2    0    0 -0.10053631279E+02 -0.14045750266E+02  0.72334808192E+01  0.18726501200E+02  0.00000000000E+00 0.  1.
         11    1    3    3    0    0  0.34533528221E+01 -0.80517078049E+01  0.17373513577E+02  0.19457508025E+02  0.51100000000E-03 0. -1.
        -11    1    3    3    0    0  0.86192761167E+01 -0.13576548712E+01  0.86311732166E+01  0.12273235062E+02  0.51100000000E-03 0.  1.
         12    1    3    3    0    0 -0.20189976599E+01  0.23455112943E+02 -0.33238167613E+02  0.40730755713E+02  0.00000000000E+00 0. -1.
</event>
<event>
 7    1  0.1358622E-013  0.7246144E+02  0.7816164E-02  0.1226708E+00
        -11   -1    0    0    0    0  0.00000000000E+00  0.00000000000E+00  0.45593999997E+02  0.45594000000E+02  0.51100000000E-03 0. -1.
         11   -1    0    0    0    0 -0.00000000000E+00 -0.00000000000E+00 -0.45593999997E+02  0.45594000000E+02  0.51100000000E-03 0.  1.
    9900012    2    1    2    0    0 -0.75854954785E+01 -0.16588011087E+02  0.42405249403E+01  0.72461443850E+02  0.69999835282E+02 0.  0.
        -12    1    1    2    0    0  0.75854954785E+01  0.16588011087E+02 -0.42405249403E+01  0.18726556150E+02  0.00000000000E+00 0.  1.
         11    1    3    3    0    0 -0.13849584532E+01 -0.86306635659E+01  0.18147080388E+01  0.89274648715E+01  0.51100000000E-03 0. -1.
        -11    1    3    3    0    0 -0.17707088914E+02 -0.31915959817E+02 -0.21601084431E+01  0.36562761898E+02  0.51100000000E-03 0.  1.
         12    1    3    3    0    0  0.11506551889E+02  0.23958612296E+02  0.45859253446E+01  0.26971217080E+02  0.00000000000E+00 0. -1.
</event>
<event>
 7    1  0.1358622E-013  0.7246154E+02  0.7816164E-02  0.1226708E+00
        -11   -1    0    0    0    0  0.00000000000E+00  0.00000000000E+00  0.45593999997E+02  0.45594000000E+02  0.51100000000E-03 0.  1.
         11   -1    0    0    0    0 -0.00000000000E+00 -0.00000000000E+00 -0.45593999997E+02  0.45594000000E+02  0.51100000000E-03 0. -1.
    9900012    2    1    2    0    0 -0.14257927473E+02  0.80245577460E+01 -0.91103390547E+01  0.72461540096E+02  0.69999960662E+02 0.  0.
        -12    1    1    2    0    0  0.14257927473E+02 -0.80245577460E+01  0.91103390547E+01  0.18726459904E+02  0.00000000000E+00 0.  1.
         11    1    3    3    0    0  0.18272312062E+02  0.14989316177E+02 -0.20770636389E+02  0.31463889204E+02  0.51100000000E-03 0. -1.
        -11    1    3    3    0    0  0.16350366731E+01 -0.74278518899E+00 -0.28437032231E+01  0.33632905080E+01  0.51100000000E-03 0.  1.
         12    1    3    3    0    0 -0.34165276208E+02 -0.62219732422E+01  0.14504000558E+02  0.37634360385E+02  0.00000000000E+00 0. -1.
</event>
<event>
 7    1  0.1358622E-013  0.7246179E+02  0.7816164E-02  0.1226707E+00
        -11   -1    0    0    0    0  0.00000000000E+00  0.00000000000E+00  0.45593999997E+02  0.45594000000E+02  0.51100000000E-03 0. -1.
         11   -1    0    0    0    0 -0.00000000000E+00 -0.00000000000E+00 -0.45593999997E+02  0.45594000000E+02  0.51100000000E-03 0.  1.
    9900012    2    1    2    0    0 -0.11063447711E+02  0.14410403780E+01  0.15039766405E+02  0.72461787192E+02  0.70000282549E+02 0.  0.
        -12    1    1    2    0    0  0.11063447711E+02 -0.14410403780E+01 -0.15039766405E+02  0.18726212808E+02  0.00000000000E+00 0.  1.
         11    1    3    3    0    0 -0.97822328192E+01  0.52736897306E+01 -0.20233403621E+02  0.23084507893E+02  0.51100000000E-03 0.  1.
        -11    1    3    3    0    0  0.30033233710E+01 -0.17232972697E+02  0.92334191479E+01  0.19780074031E+02  0.51100000000E-03 0. -1.
        -12    1    3    3    0    0 -0.42845382624E+01  0.13400323344E+02  0.26039750879E+02  0.29597205268E+02  0.00000000000E+00 0.  1.
</event>
<event>
 7    1  0.1358622E-013  0.7246141E+02  0.7816164E-02  0.1226708E+00
        -11   -1    0    0    0    0  0.00000000000E+00  0.00000000000E+00  0.45593999997E+02  0.45594000000E+02  0.51100000000E-03 0. -1.
         11   -1    0    0    0    0 -0.00000000000E+00 -0.00000000000E+00 -0.45593999997E+02  0.45594000000E+02  0.51100000000E-03 0.  1.
    9900012    2    1    2    0    0  0.11640491774E+02  0.14090571305E+02  0.40792058614E+01  0.72461410110E+02  0.69999791329E+02 0.  0.
        -12    1    1    2    0    0 -0.11640491774E+02 -0.14090571305E+02 -0.40792058614E+01  0.18726589890E+02  0.00000000000E+00 0.  1.
         11    1    3    3    0    0  0.60885634458E+01  0.46524131156E+01 -0.21307935429E+02  0.22643843869E+02  0.51100000000E-03 0. -1.
        -11    1    3    3    0    0  0.89946498183E+01  0.14117132285E+01 -0.99091047291E+01  0.13456857597E+02  0.51100000000E-03 0.  1.
         12    1    3    3    0    0 -0.34427214897E+01  0.80264449613E+01  0.35296246020E+02  0.36360708644E+02  0.00000000000E+00 0. -1.
</event>
<event>
 7    1  0.1358622E-013  0.7246155E+02  0.7816164E-02  0.1226708E+00
        -11   -1    0    0    0    0  0.00000000000E+00  0.00000000000E+00  0.45593999997E+02  0.45594000000E+02  0.51100000000E-03 0.  1.
         11   -1    0    0    0    0 -0.00000000000E+00 -0.00000000000E+00 -0.45593999997E+02  0.45594000000E+02  0.51100000000E-03 0. -1.
    9900012    2    1    2    0    0  0.12272951999E+02 -0.65335566564E+01 -0.12544612054E+02  0.72461547989E+02  0.69999970943E+02 0.  0.
        -12    1    1    2    0    0 -0.12272951999E+02  0.65335566564E+01  0.12544612054E+02  0.18726452011E+02  0.00000000000E+00 0.  1.
         11    1    3    3    0    0  0.84882873196E+00 -0.81415558133E+01  0.99692203405E+01  0.12899255627E+02  0.51100000000E-03 0. -1.
        -11    1    3    3    0    0 -0.11001173024E+02 -0.20089479882E+02 -0.39164497442E+01  0.23236858409E+02  0.51100000000E-03 0.  1.
         12    1    3    3    0    0  0.22425296291E+02  0.21697479039E+02 -0.18597382651E+02  0.36325433953E+02  0.00000000000E+00 0. -1.
</event>
<event>
 7    1  0.1358622E-013  0.7246160E+02  0.7816164E-02  0.1226708E+00
        -11   -1    0    0    0    0  0.00000000000E+00  0.00000000000E+00  0.45593999997E+02  0.45594000000E+02  0.51100000000E-03 0. -1.
         11   -1    0    0    0    0 -0.00000000000E+00 -0.00000000000E+00 -0.45593999997E+02  0.45594000000E+02  0.51100000000E-03 0.  1.
    9900012    2    1    2    0    0  0.33274430155E+01 -0.98821566106E+01  0.15554716913E+02  0.72461598463E+02  0.70000036695E+02 0.  0.
        -12    1    1    2    0    0 -0.33274430155E+01  0.98821566106E+01 -0.15554716913E+02  0.18726401537E+02  0.00000000000E+00 0.  1.
         11    1    3    3    0    0 -0.71864797654E+01 -0.32149060337E+01 -0.55283486502E+00  0.78921948071E+01  0.51100000000E-03 0. -1.
        -11    1    3    3    0    0 -0.11252775612E+02  0.19036415790E+02  0.21045604485E+02  0.30527488490E+02  0.51100000000E-03 0.  1.
         12    1    3    3    0    0  0.21766698393E+02 -0.25703666366E+02 -0.49380527078E+01  0.34041915166E+02  0.00000000000E+00 0. -1.
</event>
<event>
 7    1  0.1358622E-013  0.7246159E+02  0.7816164E-02  0.1226708E+00
        -11   -1    0    0    0    0  0.00000000000E+00  0.00000000000E+00  0.45593999997E+02  0.45594000000E+02  0.51100000000E-03 0.  1.
         11   -1    0    0    0    0 -0.00000000000E+00 -0.00000000000E+00 -0.45593999997E+02  0.45594000000E+02  0.51100000000E-03 0. -1.
    9900012    2    1    2    0    0 -0.17786313449E+01  0.91125736573E+01 -0.16262716966E+02  0.72461588405E+02  0.70000023592E+02 0.  0.
        -12    1    1    2    0    0  0.17786313449E+01 -0.91125736573E+01  0.16262716966E+02  0.18726411595E+02  0.00000000000E+00 0.  1.
         11    1    3    3    0    0  0.69993151337E+01  0.36161405571E+01 -0.31461786843E+02  0.32433176170E+02  0.51100000000E-03 0. -1.
        -11    1    3    3    0    0  0.20509962785E+01  0.53417615699E+01 -0.10601441206E+02  0.12047056002E+02  0.51100000000E-03 0.  1.
        -12    1    3    3    0    0 -0.10828942757E+02  0.15467153025E+00  0.25800511083E+02  0.27981356233E+02  0.00000000000E+00 0.  1.
</event>
<event>
 7    1  0.1358622E-013  0.7246156E+02  0.7816164E-02  0.1226708E+00
        -11   -1    0    0    0    0  0.00000000000E+00  0.00000000000E+00  0.45593999997E+02  0.45594000000E+02  0.51100000000E-03 0.  1.
         11   -1    0    0    0    0 -0.00000000000E+00 -0.00000000000E+00 -0.45593999997E+02  0.45594000000E+02  0.51100000000E-03 0. -1.
    9900012    2    1    2    0    0  0.16567437359E+02 -0.87209030576E+01 -0.38128961619E+00  0.72461561135E+02  0.69999988069E+02 0.  0.
        -12    1    1    2    0    0 -0.16567437359E+02  0.87209030576E+01  0.38128961619E+00  0.18726438865E+02  0.00000000000E+00 0.  1.
         11    1    3    3    0    0 -0.76623678940E+01 -0.17854738899E+02  0.72956906118E+01  0.20754052246E+02  0.51100000000E-03 0. -1.
        -11    1    3    3    0    0  0.37302443077E+01 -0.69601693421E+01  0.15135339578E+02  0.17071531398E+02  0.51100000000E-03 0.  1.
        -12    1    3    3    0    0  0.20499560945E+02  0.16094005183E+02 -0.22812319806E+02  0.34635977491E+02  0.00000000000E+00 0.  1.
</event>
<event>
 7    1  0.1358622E-013  0.7246154E+02  0.7816164E-02  0.1226708E+00
        -11   -1    0    0    0    0  0.00000000000E+00  0.00000000000E+00  0.45593999997E+02  0.45594000000E+02  0.51100000000E-03 0. -1.
         11   -1    0    0    0    0 -0.00000000000E+00 -0.00000000000E+00 -0.45593999997E+02  0.45594000000E+02  0.51100000000E-03 0.  1.
    9900012    2    1    2    0    0  0.52788007691E+00 -0.57428386345E+01  0.17816329988E+02  0.72461535646E+02  0.69999954865E+02 0.  0.
        -12    1    1    2    0    0 -0.52788007691E+00  0.57428386345E+01 -0.17816329988E+02  0.18726464354E+02  0.00000000000E+00 0.  1.
         11    1    3    3    0    0  0.46945888778E+01 -0.31299634251E+02  0.15219773742E+02  0.35119051553E+02  0.51100000000E-03 0. -1.
        -11    1    3    3    0    0  0.13008515848E+00 -0.19169809475E+01  0.86690468442E+01  0.88794206765E+01  0.51100000000E-03 0.  1.
        -12    1    3    3    0    0 -0.42967939593E+01  0.27473776564E+02 -0.60724905990E+01  0.28463063417E+02  0.00000000000E+00 0.  1.
</event>
<event>
 7    1  0.1358622E-013  0.7246154E+02  0.7816164E-02  0.1226708E+00
        -11   -1    0    0    0    0  0.00000000000E+00  0.00000000000E+00  0.45593999997E+02  0.45594000000E+02  0.51100000000E-03 0. -1.
         11   -1    0    0    0    0 -0.00000000000E+00 -0.00000000000E+00 -0.45593999997E+02  0.45594000000E+02  0.51100000000E-03 0.  1.
    9900012    2    1    2    0    0  0.11767297726E+02  0.14529980738E+02 -0.10442733145E+01  0.72461544308E+02  0.69999966148E+02 0.  0.
        -12    1    1    2    0    0 -0.11767297726E+02 -0.14529980738E+02  0.10442733145E+01  0.18726455692E+02  0.00000000000E+00 0.  1.
         11    1    3    3    0    0  0.31300701472E+02  0.11470008001E+02  0.63218852645E+01  0.33930240638E+02  0.51100000000E-03 0. -1.
        -11    1    3    3    0    0  0.67093734788E+01  0.25301175686E+01  0.57474430976E+01  0.91896838798E+01  0.51100000000E-03 0.  1.
        -12    1    3    3    0    0 -0.26242777225E+02  0.52985516930E+00 -0.13113601677E+02  0.29341619790E+02  0.00000000000E+00 0.  1.
</event>
<event>
 7    1  0.1358622E-013  0.7246153E+02  0.7816164E-02  0.1226708E+00
        -11   -1    0    0    0    0  0.00000000000E+00  0.00000000000E+00  0.45593999997E+02  0.45594000000E+02  0.51100000000E-03 0.  1.
         11   -1    0    0    0    0 -0.00000000000E+00 -0.00000000000E+00 -0.45593999997E+02  0.45594000000E+02  0.51100000000E-03 0. -1.
    9900012    2    1    2    0    0 -0.12016182218E+02 -0.10236322331E+02 -0.10075212012E+02  0.72461526038E+02  0.69999942348E+02 0.  0.
        -12    1    1    2    0    0  0.12016182218E+02  0.10236322331E+02  0.10075212012E+02  0.18726473962E+02  0.00000000000E+00 0.  1.
         11    1    3    3    0    0  0.68294540357E+00  0.21712192089E+01  0.42341915140E-01  0.22764886067E+01  0.51100000000E-03 0. -1.
        -11    1    3    3    0    0 -0.19199716384E+02  0.19620338729E+02  0.12780286482E+02  0.30280728589E+02  0.51100000000E-03 0.  1.
         12    1    3    3    0    0  0.65005887624E+01 -0.32027880269E+02 -0.22897840409E+02  0.39904308842E+02  0.00000000000E+00 0. -1.
</event>
<event>
 7    1  0.1358622E-013  0.7246157E+02  0.7816164E-02  0.1226708E+00
        -11   -1    0    0    0    0  0.00000000000E+00  0.00000000000E+00  0.45593999997E+02  0.45594000000E+02  0.51100000000E-03 0. -1.
         11   -1    0    0    0    0 -0.00000000000E+00 -0.00000000000E+00 -0.45593999997E+02  0.45594000000E+02  0.51100000000E-03 0.  1.
    9900012    2    1    2    0    0 -0.15368448421E+02 -0.69324959385E+01 -0.81504909616E+01  0.72461569221E+02  0.69999998602E+02 0.  0.
        -12    1    1    2    0    0  0.15368448421E+02  0.69324959385E+01  0.81504909616E+01  0.18726430779E+02  0.00000000000E+00 0.  1.
         11    1    3    3    0    0 -0.14886326118E+02  0.21819651505E+02  0.12080212243E+02  0.29045333966E+02  0.51100000000E-03 0. -1.
        -11    1    3    3    0    0 -0.34588376278E+01  0.68463615269E+00  0.38847930841E+01  0.52463227088E+01  0.51100000000E-03 0.  1.
        -12    1    3    3    0    0  0.29767153250E+01 -0.29436783596E+02 -0.24115496288E+02  0.38169912547E+02  0.00000000000E+00 0.  1.
</event>
<event>
 7    1  0.1358622E-013  0.7246152E+02  0.7816164E-02  0.1226708E+00
        -11   -1    0    0    0    0  0.00000000000E+00  0.00000000000E+00  0.45593999997E+02  0.45594000000E+02  0.51100000000E-03 0.  1.
         11   -1    0    0    0    0 -0.00000000000E+00 -0.00000000000E+00 -0.45593999997E+02  0.45594000000E+02  0.51100000000E-03 0. -1.
    9900012    2    1    2    0    0 -0.13621341762E+02  0.29877998743E+01 -0.12498523833E+02  0.72461521487E+02  0.69999936419E+02 0.  0.
        -12    1    1    2    0    0  0.13621341762E+02 -0.29877998743E+01  0.12498523833E+02  0.18726478513E+02  0.00000000000E+00 0.  1.
         11    1    3    3    0    0  0.73892769793E+01 -0.89885630813E+01 -0.29114144294E+02  0.31353294544E+02  0.51100000000E-03 0. -1.
        -11    1    3    3    0    0 -0.20953764685E+01 -0.45043673261E+01 -0.56792281203E+01  0.75454330463E+01  0.51100000000E-03 0.  1.
        -12    1    3    3    0    0 -0.18915242273E+02  0.16480730282E+02  0.22294848581E+02  0.33562793896E+02  0.00000000000E+00 0.  1.
</event>
<event>
 7    1  0.1358622E-013  0.7246155E+02  0.7816164E-02  0.1226708E+00
        -11   -1    0    0    0    0  0.00000000000E+00  0.00000000000E+00  0.45593999997E+02  0.45594000000E+02  0.51100000000E-03 0.  1.
         11   -1    0    0    0    0 -0.00000000000E+00 -0.00000000000E+00 -0.45593999997E+02  0.45594000000E+02  0.51100000000E-03 0. -1.
    9900012    2    1    2    0    0  0.35255190644E+01 -0.55374489144E+01 -0.17538163528E+02  0.72461553325E+02  0.69999977894E+02 0.  0.
        -12    1    1    2    0    0 -0.35255190644E+01  0.55374489144E+01  0.17538163528E+02  0.18726446675E+02  0.00000000000E+00 0.  1.
         11    1    3    3    0    0  0.61787243438E+01  0.57079601739E+01 -0.39230212187E+02  0.40121901654E+02  0.51100000000E-03 0. -1.
        -11    1    3    3    0    0  0.31083752313E+01 -0.15878125772E+01 -0.33814348914E+01  0.48597579718E+01  0.51100000000E-03 0.  1.
        -12    1    3    3    0    0 -0.57615805108E+01 -0.96575965111E+01  0.25073483550E+02  0.27479893699E+02  0.00000000000E+00 0.  1.
</event>
<event>
 7    1  0.1358622E-013  0.7246149E+02  0.7816164E-02  0.1226708E+00
        -11   -1    0    0    0    0  0.00000000000E+00  0.00000000000E+00  0.45593999997E+02  0.45594000000E+02  0.51100000000E-03 0. -1.
         11   -1    0    0    0    0 -0.00000000000E+00 -0.00000000000E+00 -0.45593999997E+02  0.45594000000E+02  0.51100000000E-03 0.  1.
    9900012    2    1    2    0    0  0.16977430119E+02 -0.19221420734E+01  0.76651533681E+01  0.72461485649E+02  0.69999889733E+02 0.  0.
        -12    1    1    2    0    0 -0.16977430119E+02  0.19221420734E+01 -0.76651533681E+01  0.18726514351E+02  0.00000000000E+00 0.  1.
         11    1    3    3    0    0  0.12147620617E+02  0.16547597886E+02  0.17140847220E+02  0.26743154753E+02  0.51100000000E-03 0. -1.
        -11    1    3    3    0    0  0.18671081618E+02  0.32064570798E+01 -0.52174966349E+01  0.19649756415E+02  0.51100000000E-03 0.  1.
         12    1    3    3    0    0 -0.13841272116E+02 -0.21676197040E+02 -0.42581972168E+01  0.26068574480E+02  0.00000000000E+00 0. -1.
</event>
<event>
 7    1  0.1358622E-013  0.7246157E+02  0.7816164E-02  0.1226708E+00
        -11   -1    0    0    0    0  0.00000000000E+00  0.00000000000E+00  0.45593999997E+02  0.45594000000E+02  0.51100000000E-03 0.  1.
         11   -1    0    0    0    0 -0.00000000000E+00 -0.00000000000E+00 -0.45593999997E+02  0.45594000000E+02  0.51100000000E-03 0. -1.
    9900012    2    1    2    0    0  0.80227303567E+01  0.34987521887E+01 -0.16555174765E+02  0.72461567324E+02  0.69999996131E+02 0.  0.
        -12    1    1    2    0    0 -0.80227303567E+01 -0.34987521887E+01  0.16555174765E+02  0.18726432676E+02  0.00000000000E+00 0.  1.
         11    1    3    3    0    0 -0.85195406747E+01 -0.20243332916E+02 -0.22523355805E+02  0.31459126781E+02  0.51100000000E-03 0. -1.
        -11    1    3    3    0    0 -0.62920107163E+01  0.62656154434E+01 -0.50428297004E+01  0.10211633923E+02  0.51100000000E-03 0.  1.
         12    1    3    3    0    0  0.22834281748E+02  0.17476469661E+02  0.11011010740E+02  0.30790806619E+02  0.00000000000E+00 0. -1.
</event>
<event>
 7    1  0.1358622E-013  0.7246165E+02  0.7816164E-02  0.1226708E+00
        -11   -1    0    0    0    0  0.00000000000E+00  0.00000000000E+00  0.45593999997E+02  0.45594000000E+02  0.51100000000E-03 0.  1.
         11   -1    0    0    0    0 -0.00000000000E+00 -0.00000000000E+00 -0.45593999997E+02  0.45594000000E+02  0.51100000000E-03 0. -1.
    9900012    2    1    2    0    0  0.92639055897E+01  0.15349479817E+02 -0.54083107572E+01  0.72461646840E+02  0.70000099715E+02 0.  0.
        -12    1    1    2    0    0 -0.92639055897E+01 -0.15349479817E+02  0.54083107572E+01  0.18726353160E+02  0.00000000000E+00 0.  1.
         11    1    3    3    0    0  0.55383270487E+01  0.39137515624E+00 -0.46921440281E+01  0.72692817288E+01  0.51100000000E-03 0. -1.
        -11    1    3    3    0    0 -0.20794943485E+02 -0.12825073226E+02 -0.10913816128E+02  0.26758616566E+02  0.51100000000E-03 0.  1.
        -12    1    3    3    0    0  0.24520522026E+02  0.27783177887E+02  0.10197649399E+02  0.38433748545E+02  0.00000000000E+00 0.  1.
</event>
<event>
 7    1  0.1358622E-013  0.7246157E+02  0.7816164E-02  0.1226708E+00
        -11   -1    0    0    0    0  0.00000000000E+00  0.00000000000E+00  0.45593999997E+02  0.45594000000E+02  0.51100000000E-03 0.  1.
         11   -1    0    0    0    0 -0.00000000000E+00 -0.00000000000E+00 -0.45593999997E+02  0.45594000000E+02  0.51100000000E-03 0. -1.
    9900012    2    1    2    0    0  0.91643501969E+01  0.16154801046E+02 -0.23908615380E+01  0.72461571343E+02  0.70000001366E+02 0.  0.
        -12    1    1    2    0    0 -0.91643501969E+01 -0.16154801046E+02  0.23908615380E+01  0.18726428657E+02  0.00000000000E+00 0.  1.
         11    1    3    3    0    0 -0.76291089220E+01 -0.16034113569E+02  0.10046178632E+02  0.20401514803E+02  0.51100000000E-03 0. -1.
        -11    1    3    3    0    0  0.89167037261E+01  0.13862389798E+01  0.97538558649E+01  0.13287850403E+02  0.51100000000E-03 0.  1.
         12    1    3    3    0    0  0.78767553928E+01  0.30802675636E+02 -0.22190896035E+02  0.38772206136E+02  0.00000000000E+00 0. -1.
</event>
<event>
 7    1  0.1518411E-013  0.7246159E+02  0.7816164E-02  0.1226708E+00
        -11   -1    0    0    0    0  0.00000000000E+00  0.00000000000E+00  0.45593999997E+02  0.45594000000E+02  0.51100000000E-03 0. -1.
         11   -1    0    0    0    0 -0.00000000000E+00 -0.00000000000E+00 -0.45593999997E+02  0.45594000000E+02  0.51100000000E-03 0.  1.
    9900012    2    1    2    0    0 -0.59152478304E+01 -0.39712853523E+01  0.17318120646E+02  0.72461586383E+02  0.70000020959E+02 0.  0.
        -12    1    1    2    0    0  0.59152478304E+01  0.39712853523E+01 -0.17318120646E+02  0.18726413617E+02  0.00000000000E+00 0.  1.
         11    1    3    3    0    0 -0.19855733762E+01 -0.29460172979E+02  0.25495096020E+02  0.39010821767E+02  0.51100000000E-03 0. -1.
        -11    1    3    3    0    0 -0.88828569061E+01  0.57393874652E+01 -0.77037766098E+01  0.13084108285E+02  0.51100000000E-03 0.  1.
        -12    1    3    3    0    0  0.49531824520E+01  0.19749500162E+02 -0.47319876470E+00  0.20366656331E+02  0.00000000000E+00 0.  1.
</event>
<event>
 7    1  0.1358622E-013  0.7246167E+02  0.7816164E-02  0.1226708E+00
        -11   -1    0    0    0    0  0.00000000000E+00  0.00000000000E+00  0.45593999997E+02  0.45594000000E+02  0.51100000000E-03 0.  1.
         11   -1    0    0    0    0 -0.00000000000E+00 -0.00000000000E+00 -0.45593999997E+02  0.45594000000E+02  0.51100000000E-03 0. -1.
    9900012    2    1    2    0    0  0.83377217974E+01 -0.53134212250E+01 -0.15903626351E+02  0.72461671449E+02  0.70000131773E+02 0.  0.
        -12    1    1    2    0    0 -0.83377217974E+01  0.53134212250E+01  0.15903626351E+02  0.18726328551E+02  0.00000000000E+00 0.  1.
         11    1    3    3    0    0  0.11686561295E+02  0.12197526219E+02 -0.18265282435E+02  0.24879226343E+02  0.51100000000E-03 0. -1.
        -11    1    3    3    0    0  0.10572903143E+02  0.76472723536E+01 -0.98444088045E+01  0.16345624500E+02  0.51100000000E-03 0.  1.
        -12    1    3    3    0    0 -0.13921742640E+02 -0.25158219798E+02  0.12206064889E+02  0.31236820606E+02  0.00000000000E+00 0.  1.
</event>
<event>
 7    1  0.1358622E-013  0.7246115E+02  0.7816164E-02  0.1226709E+00
        -11   -1    0    0    0    0  0.00000000000E+00  0.00000000000E+00  0.45593999997E+02  0.45594000000E+02  0.51100000000E-03 0. -1.
         11   -1    0    0    0    0 -0.00000000000E+00 -0.00000000000E+00 -0.45593999997E+02  0.45594000000E+02  0.51100000000E-03 0.  1.
    9900012    2    1    2    0    0  0.11376995326E+01  0.16388629289E+02 -0.89896307664E+01  0.72461147848E+02  0.69999449683E+02 0.  0.
        -12    1    1    2    0    0 -0.11376995326E+01 -0.16388629289E+02  0.89896307664E+01  0.18726852152E+02  0.00000000000E+00 0.  1.
         11    1    3    3    0    0  0.18765310687E+02 -0.16596010698E+02  0.47545639866E+00  0.25055748149E+02  0.51100000000E-03 0. -1.
        -11    1    3    3    0    0 -0.36150544137E+01 -0.13257692847E+01 -0.96002374796E+01  0.10343637781E+02  0.51100000000E-03 0.  1.
        -12    1    3    3    0    0 -0.14012556741E+02  0.34310409272E+02  0.13515031456E+00  0.37061761918E+02  0.00000000000E+00 0.  1.
</event>
<event>
 7    1  0.1358622E-013  0.7246152E+02  0.7816164E-02  0.1226708E+00
        -11   -1    0    0    0    0  0.00000000000E+00  0.00000000000E+00  0.45593999997E+02  0.45594000000E+02  0.51100000000E-03 0. -1.
         11   -1    0    0    0    0 -0.00000000000E+00 -0.00000000000E+00 -0.45593999997E+02  0.45594000000E+02  0.51100000000E-03 0.  1.
    9900012    2    1    2    0    0  0.39051864644E+01  0.16802707428E+02  0.72869375265E+01  0.72461523643E+02  0.69999939228E+02 0.  0.
        -12    1    1    2    0    0 -0.39051864644E+01 -0.16802707428E+02 -0.72869375265E+01  0.18726476357E+02  0.00000000000E+00 0.  1.
         11    1    3    3    0    0 -0.10701731956E+02  0.26101951552E+02  0.23698779283E+02  0.36843874408E+02  0.51100000000E-03 0. -1.
        -11    1    3    3    0    0 -0.30121652388E+01  0.35680169295E+01  0.36899959159E+01  0.59514665719E+01  0.51100000000E-03 0.  1.
        -12    1    3    3    0    0  0.17619083659E+02 -0.12867261053E+02 -0.20101837672E+02  0.29666182663E+02  0.00000000000E+00 0.  1.
</event>
<event>
 7    1  0.1358622E-013  0.7246153E+02  0.7816164E-02  0.1226708E+00
        -11   -1    0    0    0    0  0.00000000000E+00  0.00000000000E+00  0.45593999997E+02  0.45594000000E+02  0.51100000000E-03 0. -1.
         11   -1    0    0    0    0 -0.00000000000E+00 -0.00000000000E+00 -0.45593999997E+02  0.45594000000E+02  0.51100000000E-03 0.  1.
    9900012    2    1    2    0    0 -0.41108559508E+01  0.15551897403E+02 -0.95874980536E+01  0.72461527604E+02  0.69999944387E+02 0.  0.
        -12    1    1    2    0    0  0.41108559508E+01 -0.15551897403E+02  0.95874980536E+01  0.18726472396E+02  0.00000000000E+00 0.  1.
         11    1    3    3    0    0  0.12880003044E+02  0.15627043557E+02 -0.24826950589E+01  0.20402518074E+02  0.51100000000E-03 0. -1.
        -11    1    3    3    0    0  0.72104140100E+01  0.12659195034E+02 -0.17528739593E+02  0.22792586538E+02  0.51100000000E-03 0.  1.
         12    1    3    3    0    0 -0.24201273005E+02 -0.12734341188E+02  0.10423936598E+02  0.29266422992E+02  0.00000000000E+00 0. -1.
</event>
<event>
 7    1  0.1358622E-013  0.7246159E+02  0.7816164E-02  0.1226708E+00
        -11   -1    0    0    0    0  0.00000000000E+00  0.00000000000E+00  0.45593999997E+02  0.45594000000E+02  0.51100000000E-03 0. -1.
         11   -1    0    0    0    0 -0.00000000000E+00 -0.00000000000E+00 -0.45593999997E+02  0.45594000000E+02  0.51100000000E-03 0.  1.
    9900012    2    1    2    0    0 -0.66206338026E+01  0.17514629181E+02  0.28880226654E+00  0.72461589932E+02  0.70000025582E+02 0.  0.
        -12    1    1    2    0    0  0.66206338026E+01 -0.17514629181E+02 -0.28880226654E+00  0.18726410068E+02  0.00000000000E+00 0.  1.
         11    1    3    3    0    0  0.44128140609E+01  0.30110070114E+02  0.70690053879E+01  0.31241960368E+02  0.51100000000E-03 0. -1.
        -11    1    3    3    0    0  0.60040691540E+01 -0.82068851282E+01 -0.17771365700E+02  0.20474941979E+02  0.51100000000E-03 0.  1.
         12    1    3    3    0    0 -0.17037517018E+02 -0.43885558052E+01  0.10991162579E+02  0.20744687585E+02  0.00000000000E+00 0. -1.
</event>
<event>
 7    1  0.1358622E-013  0.7246156E+02  0.7816164E-02  0.1226708E+00
        -11   -1    0    0    0    0  0.00000000000E+00  0.00000000000E+00  0.45593999997E+02  0.45594000000E+02  0.51100000000E-03 0. -1.
         11   -1    0    0    0    0 -0.00000000000E+00 -0.00000000000E+00 -0.45593999997E+02  0.45594000000E+02  0.51100000000E-03 0.  1.
    9900012    2    1    2    0    0  0.90013263946E+01  0.13232411125E+02  0.97241383658E+01  0.72461562859E+02  0.69999990314E+02 0.  0.
        -12    1    1    2    0    0 -0.90013263946E+01 -0.13232411125E+02 -0.97241383658E+01  0.18726437141E+02  0.00000000000E+00 0.  1.
         11    1    3    3    0    0  0.12399665672E+02 -0.26936990989E+01  0.17195927125E+02  0.21370719070E+02  0.51100000000E-03 0. -1.
        -11    1    3    3    0    0  0.12016155538E+02  0.17181071572E+02  0.13571825781E+02  0.24975421309E+02  0.51100000000E-03 0.  1.
        -12    1    3    3    0    0 -0.15414494816E+02 -0.12549613480E+01 -0.21043614540E+02  0.26115422480E+02  0.00000000000E+00 0.  1.
</event>
<event>
 7    1  0.1358622E-013  0.7246154E+02  0.7816164E-02  0.1226708E+00
        -11   -1    0    0    0    0  0.00000000000E+00  0.00000000000E+00  0.45593999997E+02  0.45594000000E+02  0.51100000000E-03 0.  1.
         11   -1    0    0    0    0 -0.00000000000E+00 -0.00000000000E+00 -0.45593999997E+02  0.45594000000E+02  0.51100000000E-03 0. -1.
    9900012    2    1    2    0    0 -0.82738529696E+01 -0.15013556261E+02 -0.75376922661E+01  0.72461539596E+02  0.69999960009E+02 0.  0.
        -12    1    1    2    0    0  0.82738529696E+01  0.15013556261E+02  0.75376922661E+01  0.18726460404E+02  0.00000000000E+00 0.  1.
         11    1    3    3    0    0  0.11628156059E+02 -0.85415521797E+01 -0.12168718182E+02  0.18874581570E+02  0.51100000000E-03 0. -1.
        -11    1    3    3    0    0 -0.88317916384E+01 -0.23802831819E+02  0.16077775096E+02  0.30051126409E+02  0.51100000000E-03 0.  1.
         12    1    3    3    0    0 -0.11070217390E+02  0.17330827738E+02 -0.11446749180E+02  0.23535831617E+02  0.00000000000E+00 0. -1.
</event>
<event>
 7    1  0.1358622E-013  0.7246158E+02  0.7816164E-02  0.1226708E+00
        -11   -1    0    0    0    0  0.00000000000E+00  0.00000000000E+00  0.45593999997E+02  0.45594000000E+02  0.51100000000E-03 0. -1.
         11   -1    0    0    0    0 -0.00000000000E+00 -0.00000000000E+00 -0.45593999997E+02  0.45594000000E+02  0.51100000000E-03 0.  1.
    9900012    2    1    2    0    0 -0.86111047256E+01  0.14635908587E+02 -0.78941697143E+01  0.72461578552E+02  0.70000010757E+02 0.  0.
        -12    1    1    2    0    0  0.86111047256E+01 -0.14635908587E+02  0.78941697143E+01  0.18726421448E+02  0.00000000000E+00 0.  1.
         11    1    3    3    0    0  0.14397549800E+01  0.15341389816E+01 -0.10592090378E+01  0.23555043757E+01  0.51100000000E-03 0. -1.
        -11    1    3    3    0    0  0.24216109491E+02  0.31573076371E+01 -0.20513298867E+02  0.31893321888E+02  0.51100000000E-03 0.  1.
         12    1    3    3    0    0 -0.34266969197E+02  0.99444619687E+01  0.13678338190E+02  0.38212752288E+02  0.00000000000E+00 0. -1.
</event>
<event>
 7    1  0.1358622E-013  0.7246156E+02  0.7816164E-02  0.1226708E+00
        -11   -1    0    0    0    0  0.00000000000E+00  0.00000000000E+00  0.45593999997E+02  0.45594000000E+02  0.51100000000E-03 0.  1.
         11   -1    0    0    0    0 -0.00000000000E+00 -0.00000000000E+00 -0.45593999997E+02  0.45594000000E+02  0.51100000000E-03 0. -1.
    9900012    2    1    2    0    0  0.13769401133E+02 -0.96350736198E+00 -0.12655234181E+02  0.72461555966E+02  0.69999981335E+02 0.  0.
        -12    1    1    2    0    0 -0.13769401133E+02  0.96350736198E+00  0.12655234181E+02  0.18726444034E+02  0.00000000000E+00 0.  1.
         11    1    3    3    0    0  0.23650097286E+02 -0.24480200690E+02 -0.20400578543E+02  0.39683635577E+02  0.51100000000E-03 0. -1.
        -11    1    3    3    0    0 -0.51210085901E+01 -0.13127073735E+01 -0.20430918928E+01  0.56676409882E+01  0.51100000000E-03 0.  1.
        -12    1    3    3    0    0 -0.47596875631E+01  0.24829400701E+02  0.97884362551E+01  0.27110279401E+02  0.00000000000E+00 0.  1.
</event>
<event>
 7    1  0.1358622E-013  0.7246156E+02  0.7816164E-02  0.1226708E+00
        -11   -1    0    0    0    0  0.00000000000E+00  0.00000000000E+00  0.45593999997E+02  0.45594000000E+02  0.51100000000E-03 0. -1.
         11   -1    0    0    0    0 -0.00000000000E+00 -0.00000000000E+00 -0.45593999997E+02  0.45594000000E+02  0.51100000000E-03 0.  1.
    9900012    2    1    2    0    0  0.48878612330E+01  0.82371607574E+01  0.16091537276E+02  0.72461559423E+02  0.69999985838E+02 0.  0.
        -12    1    1    2    0    0 -0.48878612330E+01 -0.82371607574E+01 -0.16091537276E+02  0.18726440577E+02  0.00000000000E+00 0.  1.
         11    1    3    3    0    0 -0.31674400066E+01 -0.11377414740E+02 -0.18012003876E+02  0.21538582272E+02  0.51100000000E-03 0. -1.
        -11    1    3    3    0    0 -0.41447878233E+01 -0.68540700604E+01  0.11621273599E+02  0.14114231925E+02  0.51100000000E-03 0.  1.
         12    1    3    3    0    0  0.12200089063E+02  0.26468645558E+02  0.22482267553E+02  0.36808745227E+02  0.00000000000E+00 0. -1.
</event>
<event>
 7    1  0.1358622E-013  0.7246158E+02  0.7816164E-02  0.1226708E+00
        -11   -1    0    0    0    0  0.00000000000E+00  0.00000000000E+00  0.45593999997E+02  0.45594000000E+02  0.51100000000E-03 0. -1.
         11   -1    0    0    0    0 -0.00000000000E+00 -0.00000000000E+00 -0.45593999997E+02  0.45594000000E+02  0.51100000000E-03 0.  1.
    9900012    2    1    2    0    0  0.39301182160E+00 -0.18387721817E+02  0.35236274781E+01  0.72461582229E+02  0.70000015548E+02 0.  0.
        -12    1    1    2    0    0 -0.39301182160E+00  0.18387721817E+02 -0.35236274781E+01  0.18726417771E+02  0.00000000000E+00 0.  1.
         11    1    3    3    0    0  0.34668140115E+01 -0.14114773339E+02 -0.47871795652E+01  0.15302376098E+02  0.51100000000E-03 0.  1.
        -11    1    3    3    0    0 -0.91097394334E+01  0.24971753151E+02  0.21426415905E+01  0.26667709336E+02  0.51100000000E-03 0. -1.
         12    1    3    3    0    0  0.60359372434E+01 -0.29244701629E+02  0.61681654528E+01  0.30491496796E+02  0.00000000000E+00 0. -1.
</event>
<event>
 7    1  0.1358622E-013  0.7246155E+02  0.7816164E-02  0.1226708E+00
        -11   -1    0    0    0    0  0.00000000000E+00  0.00000000000E+00  0.45593999997E+02  0.45594000000E+02  0.51100000000E-03 0.  1.
         11   -1    0    0    0    0 -0.00000000000E+00 -0.00000000000E+00 -0.45593999997E+02  0.45594000000E+02  0.51100000000E-03 0. -1.
    9900012    2    1    2    0    0  0.11966540814E+01  0.15429979691E+01 -0.18624368826E+02  0.72461549779E+02  0.69999973275E+02 0.  0.
        -12    1    1    2    0    0 -0.11966540814E+01 -0.15429979691E+01  0.18624368826E+02  0.18726450221E+02  0.00000000000E+00 0.  1.
         11    1    3    3    0    0  0.13768298950E+02  0.20832409699E+01 -0.89905623685E+01  0.16575166994E+02  0.51100000000E-03 0. -1.
        -11    1    3    3    0    0 -0.16387893433E+02  0.22903762585E+02 -0.14445238028E+02  0.31651386915E+02  0.51100000000E-03 0.  1.
         12    1    3    3    0    0  0.38162485640E+01 -0.23444005586E+02  0.48114315702E+01  0.24234995869E+02  0.00000000000E+00 0. -1.
</event>
<event>
 7    1  0.1358622E-013  0.7246162E+02  0.7816164E-02  0.1226708E+00
        -11   -1    0    0    0    0  0.00000000000E+00  0.00000000000E+00  0.45593999997E+02  0.45594000000E+02  0.51100000000E-03 0.  1.
         11   -1    0    0    0    0 -0.00000000000E+00 -0.00000000000E+00 -0.45593999997E+02  0.45594000000E+02  0.51100000000E-03 0. -1.
    9900012    2    1    2    0    0  0.15074992658E+02  0.57059733913E+01 -0.95322556512E+01  0.72461616639E+02  0.70000060372E+02 0.  0.
        -12    1    1    2    0    0 -0.15074992658E+02 -0.57059733913E+01  0.95322556512E+01  0.18726383361E+02  0.00000000000E+00 0.  1.
         11    1    3    3    0    0  0.66680724556E+00 -0.20575109513E+02 -0.47047017131E+01  0.21116675444E+02  0.51100000000E-03 0. -1.
        -11    1    3    3    0    0 -0.23831252449E+01 -0.97244660069E+01  0.37671501889E+01  0.10697473807E+02  0.51100000000E-03 0.  1.
         12    1    3    3    0    0  0.16791310657E+02  0.36005548911E+02 -0.85947041270E+01  0.40647467387E+02  0.00000000000E+00 0. -1.
</event>
<event>
 7    1  0.1358622E-013  0.7246155E+02  0.7816164E-02  0.1226708E+00
        -11   -1    0    0    0    0  0.00000000000E+00  0.00000000000E+00  0.45593999997E+02  0.45594000000E+02  0.51100000000E-03 0.  1.
         11   -1    0    0    0    0 -0.00000000000E+00 -0.00000000000E+00 -0.45593999997E+02  0.45594000000E+02  0.51100000000E-03 0. -1.
    9900012    2    1    2    0    0  0.12822921479E+02  0.58981312361E+01 -0.12307097151E+02  0.72461550587E+02  0.69999974327E+02 0.  0.
        -12    1    1    2    0    0 -0.12822921479E+02 -0.58981312361E+01  0.12307097151E+02  0.18726449413E+02  0.00000000000E+00 0.  1.
         11    1    3    3    0    0  0.14122864702E+02  0.66008234783E+01 -0.32565439844E+01  0.15925804751E+02  0.51100000000E-03 0. -1.
        -11    1    3    3    0    0  0.23064898354E+02 -0.53732371671E+01 -0.18434811754E+02  0.30011722683E+02  0.51100000000E-03 0.  1.
         12    1    3    3    0    0 -0.24364841577E+02  0.46705449249E+01  0.93842585873E+01  0.26524023153E+02  0.00000000000E+00 0. -1.
</event>
<event>
 7    1  0.1358622E-013  0.7246155E+02  0.7816164E-02  0.1226708E+00
        -11   -1    0    0    0    0  0.00000000000E+00  0.00000000000E+00  0.45593999997E+02  0.45594000000E+02  0.51100000000E-03 0.  1.
         11   -1    0    0    0    0 -0.00000000000E+00 -0.00000000000E+00 -0.45593999997E+02  0.45594000000E+02  0.51100000000E-03 0. -1.
    9900012    2    1    2    0    0  0.91403282485E+01 -0.60650582930E+01 -0.15177265955E+02  0.72461549870E+02  0.69999973394E+02 0.  0.
        -12    1    1    2    0    0 -0.91403282485E+01  0.60650582930E+01  0.15177265955E+02  0.18726450130E+02  0.00000000000E+00 0.  1.
         11    1    3    3    0    0  0.83944007090E+01 -0.30820129205E+02 -0.50833833560E+01  0.32344815877E+02  0.51100000000E-03 0. -1.
        -11    1    3    3    0    0 -0.73545566541E+01  0.83495364591E+01  0.85216253111E+01  0.14015076199E+02  0.51100000000E-03 0.  1.
        -12    1    3    3    0    0  0.81004841936E+01  0.16405534453E+02 -0.18615507910E+02  0.26101657795E+02  0.00000000000E+00 0.  1.
</event>
<event>
 7    1  0.1358622E-013  0.7246155E+02  0.7816164E-02  0.1226708E+00
        -11   -1    0    0    0    0  0.00000000000E+00  0.00000000000E+00  0.45593999997E+02  0.45594000000E+02  0.51100000000E-03 0.  1.
         11   -1    0    0    0    0 -0.00000000000E+00 -0.00000000000E+00 -0.45593999997E+02  0.45594000000E+02  0.51100000000E-03 0. -1.
    9900012    2    1    2    0    0 -0.17685690873E+02  0.15001955294E+01 -0.59704064216E+01  0.72461548090E+02  0.69999971075E+02 0.  0.
        -12    1    1    2    0    0  0.17685690873E+02 -0.15001955294E+01  0.59704064216E+01  0.18726451910E+02  0.00000000000E+00 0.  1.
         11    1    3    3    0    0 -0.35006476818E+01 -0.58495266600E+00  0.50098022806E+01  0.61396109783E+01  0.51100000000E-03 0. -1.
        -11    1    3    3    0    0 -0.15365132527E+02 -0.13282001606E+02  0.21985708820E+02  0.29931091808E+02  0.51100000000E-03 0.  1.
         12    1    3    3    0    0  0.11800893355E+01  0.15367149802E+02 -0.32965917522E+02  0.36390845304E+02  0.00000000000E+00 0. -1.
</event>
<event>
 7    1  0.1358622E-013  0.7246157E+02  0.7816164E-02  0.1226708E+00
        -11   -1    0    0    0    0  0.00000000000E+00  0.00000000000E+00  0.45593999997E+02  0.45594000000E+02  0.51100000000E-03 0. -1.
         11   -1    0    0    0    0 -0.00000000000E+00 -0.00000000000E+00 -0.45593999997E+02  0.45594000000E+02  0.51100000000E-03 0.  1.
    9900012    2    1    2    0    0  0.70073682154E+01  0.15839097014E+02  0.71203182072E+01  0.72461571219E+02  0.70000001205E+02 0.  0.
        -12    1    1    2    0    0 -0.70073682154E+01 -0.15839097014E+02 -0.71203182072E+01  0.18726428781E+02  0.00000000000E+00 0.  1.
         11    1    3    3    0    0 -0.48931153465E+01 -0.11645897165E+02  0.12540933713E+01  0.12694181700E+02  0.51100000000E-03 0. -1.
        -11    1    3    3    0    0 -0.19055307165E+02  0.36543020443E+01 -0.31958301753E+01  0.19663976845E+02  0.51100000000E-03 0.  1.
         12    1    3    3    0    0  0.30955790727E+02  0.23830692135E+02  0.90620550112E+01  0.40103412675E+02  0.00000000000E+00 0. -1.
</event>
<event>
 7    1  0.1358622E-013  0.7246157E+02  0.7816164E-02  0.1226708E+00
        -11   -1    0    0    0    0  0.00000000000E+00  0.00000000000E+00  0.45593999997E+02  0.45594000000E+02  0.51100000000E-03 0.  1.
         11   -1    0    0    0    0 -0.00000000000E+00 -0.00000000000E+00 -0.45593999997E+02  0.45594000000E+02  0.51100000000E-03 0. -1.
    9900012    2    1    2    0    0  0.58822836885E+01 -0.37373842140E+01 -0.17381304314E+02  0.72461573704E+02  0.70000004442E+02 0.  0.
        -12    1    1    2    0    0 -0.58822836885E+01  0.37373842140E+01  0.17381304314E+02  0.18726426296E+02  0.00000000000E+00 0.  1.
         11    1    3    3    0    0  0.28945063321E+01  0.42116081526E+01 -0.88978474591E+01  0.10260969730E+02  0.51100000000E-03 0. -1.
        -11    1    3    3    0    0 -0.22062084761E+02  0.70788515244E+01 -0.20188016872E+02  0.30731120195E+02  0.51100000000E-03 0.  1.
         12    1    3    3    0    0  0.25049862118E+02 -0.15027843891E+02  0.11704560017E+02  0.31469483779E+02  0.00000000000E+00 0. -1.
</event>
<event>
 7    1  0.1358622E-013  0.7246154E+02  0.7816164E-02  0.1226708E+00
        -11   -1    0    0    0    0  0.00000000000E+00  0.00000000000E+00  0.45593999997E+02  0.45594000000E+02  0.51100000000E-03 0. -1.
         11   -1    0    0    0    0 -0.00000000000E+00 -0.00000000000E+00 -0.45593999997E+02  0.45594000000E+02  0.51100000000E-03 0.  1.
    9900012    2    1    2    0    0 -0.95211977559E+01  0.11712962997E+01  0.16082762807E+02  0.72461537407E+02  0.69999957158E+02 0.  0.
        -12    1    1    2    0    0  0.95211977559E+01 -0.11712962997E+01 -0.16082762807E+02  0.18726462593E+02  0.00000000000E+00 0.  1.
         11    1    3    3    0    0 -0.23711485846E+02 -0.19528624117E+02  0.16211989132E+02  0.34733705717E+02  0.51100000000E-03 0. -1.
        -11    1    3    3    0    0 -0.10353064799E+01  0.41261151945E+01  0.11595417572E+02  0.12351129302E+02  0.51100000000E-03 0.  1.
        -12    1    3    3    0    0  0.15225594570E+02  0.16573805222E+02 -0.11724643897E+02  0.25376702388E+02  0.00000000000E+00 0.  1.
</event>
<event>
 7    1  0.1358622E-013  0.7246178E+02  0.7816164E-02  0.1226707E+00
        -11   -1    0    0    0    0  0.00000000000E+00  0.00000000000E+00  0.45593999997E+02  0.45594000000E+02  0.51100000000E-03 0. -1.
         11   -1    0    0    0    0 -0.00000000000E+00 -0.00000000000E+00 -0.45593999997E+02  0.45594000000E+02  0.51100000000E-03 0.  1.
    9900012    2    1    2    0    0  0.40302986887E+01 -0.41664027140E+01  0.17806436905E+02  0.72461777361E+02  0.70000269742E+02 0.  0.
        -12    1    1    2    0    0 -0.40302986887E+01  0.41664027140E+01 -0.17806436905E+02  0.18726222639E+02  0.00000000000E+00 0.  1.
         11    1    3    3    0    0 -0.24051521679E+02  0.73548792166E+01  0.78685665648E+01  0.26353069716E+02  0.51100000000E-03 0. -1.
        -11    1    3    3    0    0 -0.51283074869E+01  0.37700542836E+01  0.69518478893E+01  0.94255523085E+01  0.51100000000E-03 0.  1.
        -12    1    3    3    0    0  0.33210127855E+02 -0.15291336214E+02  0.29860224507E+01  0.36683155337E+02  0.00000000000E+00 0.  1.
</event>
<event>
 7    1  0.1358622E-013  0.7246160E+02  0.7816164E-02  0.1226708E+00
        -11   -1    0    0    0    0  0.00000000000E+00  0.00000000000E+00  0.45593999997E+02  0.45594000000E+02  0.51100000000E-03 0.  1.
         11   -1    0    0    0    0 -0.00000000000E+00 -0.00000000000E+00 -0.45593999997E+02  0.45594000000E+02  0.51100000000E-03 0. -1.
    9900012    2    1    2    0    0  0.82281747008E+01 -0.15501350342E+02 -0.65332457722E+01  0.72461600942E+02  0.70000039925E+02 0.  0.
        -12    1    1    2    0    0 -0.82281747008E+01  0.15501350342E+02  0.65332457722E+01  0.18726399058E+02  0.00000000000E+00 0.  1.
         11    1    3    3    0    0  0.28698068746E+02 -0.18120317845E+02  0.13569964329E+02  0.36552277640E+02  0.51100000000E-03 0. -1.
        -11    1    3    3    0    0 -0.18288051752E+01  0.22292764245E+01  0.43130144046E+01  0.51880916782E+01  0.51100000000E-03 0.  1.
        -12    1    3    3    0    0 -0.18641088870E+02  0.38969107806E+00 -0.24416224505E+02  0.30721231624E+02  0.00000000000E+00 0.  1.
</event>
<event>
 7    1  0.1358622E-013  0.7246158E+02  0.7816164E-02  0.1226708E+00
        -11   -1    0    0    0    0  0.00000000000E+00  0.00000000000E+00  0.45593999997E+02  0.45594000000E+02  0.51100000000E-03 0.  1.
         11   -1    0    0    0    0 -0.00000000000E+00 -0.00000000000E+00 -0.45593999997E+02  0.45594000000E+02  0.51100000000E-03 0. -1.
    9900012    2    1    2    0    0 -0.13831567912E+02  0.74199375438E+01 -0.10213278124E+02  0.72461580318E+02  0.70000013058E+02 0.  0.
        -12    1    1    2    0    0  0.13831567912E+02 -0.74199375438E+01  0.10213278124E+02  0.18726419682E+02  0.00000000000E+00 0.  1.
         11    1    3    3    0    0 -0.55693330520E+00  0.83007788406E+01 -0.35787473413E+01  0.90565190256E+01  0.51100000000E-03 0. -1.
        -11    1    3    3    0    0 -0.21417612836E+01 -0.27011800533E+02 -0.18301984454E+02  0.32698427251E+02  0.51100000000E-03 0.  1.
         12    1    3    3    0    0 -0.11132873323E+02  0.26130959237E+02  0.11667453671E+02  0.30706634042E+02  0.00000000000E+00 0. -1.
</event>
<event>
 8    1  0.1358622E-013  0.7246157E+02  0.7816164E-02  0.1226708E+00
        -11   -1    0    0    0    0  0.00000000000E+00  0.00000000000E+00  0.45593999997E+02  0.45594000000E+02  0.51100000000E-03 0. -1.
         11   -1    0    0    0    0 -0.00000000000E+00 -0.00000000000E+00 -0.45593999997E+02  0.45594000000E+02  0.51100000000E-03 0.  1.
    9900012    2    1    2    0    0 -0.16209923256E+02 -0.49406701669E+01 -0.79691398121E+01  0.72461574207E+02  0.70000005096E+02 0.  0.
         23    2    3    3    0    0 -0.47071373076E+01  0.23133936117E+01 -0.80199059085E+01  0.58862379265E+02  0.58077120024E+02 0.  0.
        -12    1    1    2    0    0  0.16209923256E+02  0.49406701669E+01  0.79691398121E+01  0.18726425793E+02  0.00000000000E+00 0.  1.
         11    1    4    4    0    0 -0.94109590251E+01 -0.10271838721E+01  0.24275279667E+02  0.26055910264E+02  0.51100000000E-03 0. -1.
        -11    1    4    4    0    0  0.47038217175E+01  0.33405774838E+01 -0.32295185576E+02  0.32806469001E+02  0.51100000000E-03 0.  1.
         12    1    3    3    0    0 -0.11502785948E+02 -0.72540637787E+01  0.50766096415E-01  0.13599194942E+02  0.00000000000E+00 0. -1.
</event>
<event>
 7    1  0.1358622E-013  0.7246156E+02  0.7816164E-02  0.1226708E+00
        -11   -1    0    0    0    0  0.00000000000E+00  0.00000000000E+00  0.45593999997E+02  0.45594000000E+02  0.51100000000E-03 0.  1.
         11   -1    0    0    0    0 -0.00000000000E+00 -0.00000000000E+00 -0.45593999997E+02  0.45594000000E+02  0.51100000000E-03 0. -1.
    9900012    2    1    2    0    0  0.16716708629E+01 -0.15166059187E+02 -0.10857066543E+02  0.72461555365E+02  0.69999980552E+02 0.  0.
        -12    1    1    2    0    0 -0.16716708629E+01  0.15166059187E+02  0.10857066543E+02  0.18726444635E+02  0.00000000000E+00 0.  1.
         11    1    3    3    0    0  0.56005965093E+00  0.29021440963E+01  0.10205282458E+02  0.10624683406E+02  0.51100000000E-03 0. -1.
        -11    1    3    3    0    0 -0.92178843781E+01  0.12932540588E+02 -0.24269025725E+02  0.29003544755E+02  0.51100000000E-03 0.  1.
         12    1    3    3    0    0  0.10329495590E+02 -0.31000743871E+02  0.32066767242E+01  0.32833327204E+02  0.00000000000E+00 0. -1.
</event>
<event>
 7    1  0.1358622E-013  0.7246155E+02  0.7816164E-02  0.1226708E+00
        -11   -1    0    0    0    0  0.00000000000E+00  0.00000000000E+00  0.45593999997E+02  0.45594000000E+02  0.51100000000E-03 0. -1.
         11   -1    0    0    0    0 -0.00000000000E+00 -0.00000000000E+00 -0.45593999997E+02  0.45594000000E+02  0.51100000000E-03 0.  1.
    9900012    2    1    2    0    0 -0.17154803451E+02  0.20987745344E+01  0.72102486814E+01  0.72461552872E+02  0.69999977304E+02 0.  0.
        -12    1    1    2    0    0  0.17154803451E+02 -0.20987745344E+01 -0.72102486814E+01  0.18726447128E+02  0.00000000000E+00 0.  1.
         11    1    3    3    0    0 -0.66590236007E+01  0.23290851357E+02  0.26869170357E+01  0.24372646053E+02  0.51100000000E-03 0. -1.
        -11    1    3    3    0    0  0.59338099218E+00  0.12200215624E+02  0.41535699582E+01  0.12901531146E+02  0.51100000000E-03 0.  1.
        -12    1    3    3    0    0 -0.11089160843E+02 -0.33392292446E+02  0.36976168752E+00  0.35187375672E+02  0.00000000000E+00 0.  1.
</event>
<event>
 7    1  0.1358622E-013  0.7246156E+02  0.7816164E-02  0.1226708E+00
        -11   -1    0    0    0    0  0.00000000000E+00  0.00000000000E+00  0.45593999997E+02  0.45594000000E+02  0.51100000000E-03 0.  1.
         11   -1    0    0    0    0 -0.00000000000E+00 -0.00000000000E+00 -0.45593999997E+02  0.45594000000E+02  0.51100000000E-03 0. -1.
    9900012    2    1    2    0    0 -0.14381608086E+02  0.52032010043E+01 -0.10806275873E+02  0.72461560133E+02  0.69999986763E+02 0.  0.
        -12    1    1    2    0    0  0.14381608086E+02 -0.52032010043E+01  0.10806275873E+02  0.18726439867E+02  0.00000000000E+00 0.  1.
         11    1    3    3    0    0  0.66456838645E+01 -0.21450817250E+01 -0.39159804864E+01  0.80063345586E+01  0.51100000000E-03 0. -1.
        -11    1    3    3    0    0  0.10659729646E+02 -0.17801450713E+02 -0.11526745252E+02  0.23735781849E+02  0.51100000000E-03 0.  1.
         12    1    3    3    0    0 -0.31687021597E+02  0.25149733443E+02  0.46364498651E+01  0.40719443725E+02  0.00000000000E+00 0. -1.
</event>
<event>
 7    1  0.1358622E-013  0.7246181E+02  0.7816164E-02  0.1226707E+00
        -11   -1    0    0    0    0  0.00000000000E+00  0.00000000000E+00  0.45593999997E+02  0.45594000000E+02  0.51100000000E-03 0.  1.
         11   -1    0    0    0    0 -0.00000000000E+00 -0.00000000000E+00 -0.45593999997E+02  0.45594000000E+02  0.51100000000E-03 0. -1.
    9900012    2    1    2    0    0  0.10068903927E+02  0.14501382971E+02  0.62447895202E+01  0.72461806299E+02  0.70000307439E+02 0.  0.
        -12    1    1    2    0    0 -0.10068903927E+02 -0.14501382971E+02 -0.62447895202E+01  0.18726193701E+02  0.00000000000E+00 0.  1.
         11    1    3    3    0    0  0.15293025648E+02  0.28117962557E-01 -0.20984663483E+02  0.25966007121E+02  0.51100000000E-03 0. -1.
        -11    1    3    3    0    0  0.44187162356E+01  0.16423588442E+01 -0.71442894812E+01  0.85593964855E+01  0.51100000000E-03 0.  1.
        -12    1    3    3    0    0 -0.96428379558E+01  0.12830906165E+02  0.34373742484E+02  0.37936402692E+02  0.00000000000E+00 0.  1.
</event>
<event>
 7    1  0.1358622E-013  0.7246155E+02  0.7816164E-02  0.1226708E+00
        -11   -1    0    0    0    0  0.00000000000E+00  0.00000000000E+00  0.45593999997E+02  0.45594000000E+02  0.51100000000E-03 0. -1.
         11   -1    0    0    0    0 -0.00000000000E+00 -0.00000000000E+00 -0.45593999997E+02  0.45594000000E+02  0.51100000000E-03 0.  1.
    9900012    2    1    2    0    0 -0.70336028373E+01  0.17180365499E+02 -0.24583250590E+01  0.72461551067E+02  0.69999974953E+02 0.  0.
        -12    1    1    2    0    0  0.70336028373E+01 -0.17180365499E+02  0.24583250590E+01  0.18726448933E+02  0.00000000000E+00 0.  1.
         11    1    3    3    0    0 -0.32346134687E+01  0.87507783058E+01 -0.15279393535E+02  0.17902477826E+02  0.51100000000E-03 0. -1.
        -11    1    3    3    0    0  0.17001712369E+02 -0.13320708199E+02 -0.59909386364E+00  0.21606906398E+02  0.51100000000E-03 0.  1.
         12    1    3    3    0    0 -0.20800701738E+02  0.21750295392E+02  0.13420162340E+02  0.32952166843E+02  0.00000000000E+00 0. -1.
</event>
<event>
 7    1  0.1358622E-013  0.7246155E+02  0.7816164E-02  0.1226708E+00
        -11   -1    0    0    0    0  0.00000000000E+00  0.00000000000E+00  0.45593999997E+02  0.45594000000E+02  0.51100000000E-03 0. -1.
         11   -1    0    0    0    0 -0.00000000000E+00 -0.00000000000E+00 -0.45593999997E+02  0.45594000000E+02  0.51100000000E-03 0.  1.
    9900012    2    1    2    0    0  0.12884075121E+02 -0.54859683498E+00  0.13578637539E+02  0.72461554859E+02  0.69999979892E+02 0.  0.
        -12    1    1    2    0    0 -0.12884075121E+02  0.54859683498E+00 -0.13578637539E+02  0.18726445141E+02  0.00000000000E+00 0.  1.
         11    1    3    3    0    0  0.14967932155E+02 -0.40339251294E+01  0.31795760358E+02  0.35373463528E+02  0.51100000000E-03 0. -1.
        -11    1    3    3    0    0 -0.61601512715E+01  0.13140514432E+02  0.16698600526E+01  0.14608525459E+02  0.51100000000E-03 0.  1.
        -12    1    3    3    0    0  0.40762942375E+01 -0.96551861379E+01 -0.19886982871E+02  0.22479565872E+02  0.00000000000E+00 0.  1.
</event>
<event>
 7    1  0.1358622E-013  0.7246161E+02  0.7816164E-02  0.1226708E+00
        -11   -1    0    0    0    0  0.00000000000E+00  0.00000000000E+00  0.45593999997E+02  0.45594000000E+02  0.51100000000E-03 0.  1.
         11   -1    0    0    0    0 -0.00000000000E+00 -0.00000000000E+00 -0.45593999997E+02  0.45594000000E+02  0.51100000000E-03 0. -1.
    9900012    2    1    2    0    0  0.14181389449E+02  0.12072028357E+02  0.19575338568E+01  0.72461611823E+02  0.70000054099E+02 0.  0.
        -12    1    1    2    0    0 -0.14181389449E+02 -0.12072028357E+02 -0.19575338568E+01  0.18726388177E+02  0.00000000000E+00 0.  1.
         11    1    3    3    0    0 -0.38621522391E+01  0.20278734061E+02 -0.57548305801E+01  0.21430383812E+02  0.51100000000E-03 0. -1.
        -11    1    3    3    0    0  0.15822794211E+02 -0.13662080562E+02  0.25104504535E+02  0.32668783420E+02  0.51100000000E-03 0.  1.
         12    1    3    3    0    0  0.22207474770E+01  0.54553748587E+01 -0.17392140098E+02  0.18362444592E+02  0.00000000000E+00 0. -1.
</event>
<event>
 7    1  0.1358622E-013  0.7246156E+02  0.7816164E-02  0.1226708E+00
        -11   -1    0    0    0    0  0.00000000000E+00  0.00000000000E+00  0.45593999997E+02  0.45594000000E+02  0.51100000000E-03 0.  1.
         11   -1    0    0    0    0 -0.00000000000E+00 -0.00000000000E+00 -0.45593999997E+02  0.45594000000E+02  0.51100000000E-03 0. -1.
    9900012    2    1    2    0    0  0.56673703028E+01  0.35155343911E+01 -0.17498611290E+02  0.72461562398E+02  0.69999989713E+02 0.  0.
        -12    1    1    2    0    0 -0.56673703028E+01 -0.35155343911E+01  0.17498611290E+02  0.18726437602E+02  0.00000000000E+00 0.  1.
         11    1    3    3    0    0 -0.29537323042E+01  0.41309094562E+01 -0.69372281271E+01  0.85973299232E+01  0.51100000000E-03 0. -1.
        -11    1    3    3    0    0  0.94154237215E+01  0.25063605750E+02  0.12309338771E+02  0.29467852963E+02  0.51100000000E-03 0.  1.
         12    1    3    3    0    0 -0.79432111460E+00 -0.25678980815E+02 -0.22870721933E+02  0.34396379511E+02  0.00000000000E+00 0. -1.
</event>
<event>
 7    1  0.1358622E-013  0.7246158E+02  0.7816164E-02  0.1226708E+00
        -11   -1    0    0    0    0  0.00000000000E+00  0.00000000000E+00  0.45593999997E+02  0.45594000000E+02  0.51100000000E-03 0.  1.
         11   -1    0    0    0    0 -0.00000000000E+00 -0.00000000000E+00 -0.45593999997E+02  0.45594000000E+02  0.51100000000E-03 0. -1.
    9900012    2    1    2    0    0 -0.18098588299E+02 -0.33710557424E+01  0.34286985845E+01  0.72461577779E+02  0.70000009750E+02 0.  0.
        -12    1    1    2    0    0  0.18098588299E+02  0.33710557424E+01 -0.34286985845E+01  0.18726422221E+02  0.00000000000E+00 0.  1.
         11    1    3    3    0    0  0.13399613447E+02  0.17171359273E+02 -0.11125678281E+02  0.24457839996E+02  0.51100000000E-03 0. -1.
        -11    1    3    3    0    0 -0.10103266937E+02  0.58354330199E+01  0.22664544553E+01  0.11885499459E+02  0.51100000000E-03 0.  1.
        -12    1    3    3    0    0 -0.21394934809E+02 -0.26377848035E+02  0.12287922410E+02  0.36118238324E+02  0.00000000000E+00 0.  1.
</event>
<event>
 7    1  0.1358622E-013  0.7246159E+02  0.7816164E-02  0.1226708E+00
        -11   -1    0    0    0    0  0.00000000000E+00  0.00000000000E+00  0.45593999997E+02  0.45594000000E+02  0.51100000000E-03 0. -1.
         11   -1    0    0    0    0 -0.00000000000E+00 -0.00000000000E+00 -0.45593999997E+02  0.45594000000E+02  0.51100000000E-03 0.  1.
    9900012    2    1    2    0    0  0.83669799941E+01  0.13149599853E+02  0.10380763467E+02  0.72461586017E+02  0.70000020482E+02 0.  0.
        -12    1    1    2    0    0 -0.83669799941E+01 -0.13149599853E+02 -0.10380763467E+02  0.18726413983E+02  0.00000000000E+00 0.  1.
         11    1    3    3    0    0  0.22930827481E+02  0.24908820835E+02  0.16982366896E+02  0.37877077369E+02  0.51100000000E-03 0. -1.
        -11    1    3    3    0    0 -0.10627586787E+02  0.20539715840E+01  0.84854576824E+01  0.13753813745E+02  0.51100000000E-03 0.  1.
        -12    1    3    3    0    0 -0.39362606997E+01 -0.13813192567E+02 -0.15087061112E+02  0.20830694904E+02  0.00000000000E+00 0.  1.
</event>
<event>
 7    1  0.1358622E-013  0.7246155E+02  0.7816164E-02  0.1226708E+00
        -11   -1    0    0    0    0  0.00000000000E+00  0.00000000000E+00  0.45593999997E+02  0.45594000000E+02  0.51100000000E-03 0. -1.
         11   -1    0    0    0    0 -0.00000000000E+00 -0.00000000000E+00 -0.45593999997E+02  0.45594000000E+02  0.51100000000E-03 0.  1.
    9900012    2    1    2    0    0 -0.15417576312E+02  0.90964244502E+01 -0.54984806598E+01  0.72461551146E+02  0.69999975055E+02 0.  0.
        -12    1    1    2    0    0  0.15417576312E+02 -0.90964244502E+01  0.54984806598E+01  0.18726448854E+02  0.00000000000E+00 0.  1.
         11    1    3    3    0    0 -0.25249202113E+02  0.17817467532E+02 -0.61092668654E+00  0.30908859382E+02  0.51100000000E-03 0. -1.
        -11    1    3    3    0    0 -0.11975903117E+02  0.67846685313E+01  0.20344727470E+01  0.13913772392E+02  0.51100000000E-03 0.  1.
        -12    1    3    3    0    0  0.21807528918E+02 -0.15505711613E+02 -0.69220267203E+01  0.27638919372E+02  0.00000000000E+00 0.  1.
</event>
<event>
 7    1  0.1358622E-013  0.7246159E+02  0.7816164E-02  0.1226708E+00
        -11   -1    0    0    0    0  0.00000000000E+00  0.00000000000E+00  0.45593999997E+02  0.45594000000E+02  0.51100000000E-03 0.  1.
         11   -1    0    0    0    0 -0.00000000000E+00 -0.00000000000E+00 -0.45593999997E+02  0.45594000000E+02  0.51100000000E-03 0. -1.
    9900012    2    1    2    0    0 -0.12124074294E+02  0.13229184102E+02 -0.53548110928E+01  0.72461588402E+02  0.70000023589E+02 0.  0.
        -12    1    1    2    0    0  0.12124074294E+02 -0.13229184102E+02  0.53548110928E+01  0.18726411598E+02  0.00000000000E+00 0.  1.
         11    1    3    3    0    0  0.74823543518E+01  0.73578805324E+01  0.83892069828E+01  0.13435134039E+02  0.51100000000E-03 0. -1.
        -11    1    3    3    0    0 -0.18518007137E-02  0.25329881081E+02 -0.18005921174E+02  0.31077581576E+02  0.51100000000E-03 0.  1.
        -12    1    3    3    0    0 -0.19604576846E+02 -0.19458577512E+02  0.42619030981E+01  0.27948872788E+02  0.00000000000E+00 0.  1.
</event>
<event>
 7    1  0.1358622E-013  0.7246153E+02  0.7816164E-02  0.1226708E+00
        -11   -1    0    0    0    0  0.00000000000E+00  0.00000000000E+00  0.45593999997E+02  0.45594000000E+02  0.51100000000E-03 0. -1.
         11   -1    0    0    0    0 -0.00000000000E+00 -0.00000000000E+00 -0.45593999997E+02  0.45594000000E+02  0.51100000000E-03 0.  1.
    9900012    2    1    2    0    0 -0.11717512868E+02 -0.76252394791E+01 -0.12459385044E+02  0.72461530482E+02  0.69999948138E+02 0.  0.
        -12    1    1    2    0    0  0.11717512868E+02  0.76252394791E+01  0.12459385044E+02  0.18726469518E+02  0.00000000000E+00 0.  1.
         11    1    3    3    0    0  0.19474455714E+02 -0.20904344642E+01 -0.15728642656E+02  0.25120002820E+02  0.51100000000E-03 0. -1.
        -11    1    3    3    0    0  0.56924781637E+00  0.10958585156E+02 -0.20403622530E+01  0.11161438531E+02  0.51100000000E-03 0.  1.
        -12    1    3    3    0    0 -0.31761216398E+02 -0.16493390171E+02  0.53096198646E+01  0.36180089131E+02  0.00000000000E+00 0.  1.
</event>
<event>
 7    1  0.1497871E-013  0.7246208E+02  0.7816164E-02  0.1226707E+00
        -11   -1    0    0    0    0  0.00000000000E+00  0.00000000000E+00  0.45593999997E+02  0.45594000000E+02  0.51100000000E-03 0.  1.
         11   -1    0    0    0    0 -0.00000000000E+00 -0.00000000000E+00 -0.45593999997E+02  0.45594000000E+02  0.51100000000E-03 0. -1.
    9900012    2    1    2    0    0 -0.15188537704E+02 -0.10878975613E+00 -0.10952469681E+02  0.72462079331E+02  0.70000663111E+02 0.  0.
        -12    1    1    2    0    0  0.15188537704E+02  0.10878975613E+00  0.10952469681E+02  0.18725920669E+02  0.00000000000E+00 0.  1.
         11    1    3    3    0    0  0.83757608896E+01 -0.20938156025E+02 -0.14711103184E+02  0.26925384033E+02  0.51100000000E-03 0. -1.
        -11    1    3    3    0    0 -0.10957614470E+02 -0.28786433257E+01  0.12902916463E+02  0.17170939281E+02  0.51100000000E-03 0.  1.
        -12    1    3    3    0    0 -0.12606684124E+02  0.23708009594E+02 -0.91442829611E+01  0.28365756017E+02  0.00000000000E+00 0.  1.
</event>
<event>
 7    1  0.1358622E-013  0.7246155E+02  0.7816164E-02  0.1226708E+00
        -11   -1    0    0    0    0  0.00000000000E+00  0.00000000000E+00  0.45593999997E+02  0.45594000000E+02  0.51100000000E-03 0. -1.
         11   -1    0    0    0    0 -0.00000000000E+00 -0.00000000000E+00 -0.45593999997E+02  0.45594000000E+02  0.51100000000E-03 0.  1.
    9900012    2    1    2    0    0 -0.11713768682E+02  0.43013870438E+01  0.13963012967E+02  0.72461547097E+02  0.69999969781E+02 0.  0.
        -12    1    1    2    0    0  0.11713768682E+02 -0.43013870438E+01 -0.13963012967E+02  0.18726452903E+02  0.00000000000E+00 0.  1.
         11    1    3    3    0    0  0.38193276210E+01 -0.36835940700E+01  0.10980166771E+01  0.54186501671E+01  0.51100000000E-03 0. -1.
        -11    1    3    3    0    0  0.23117444561E+02 -0.12402760301E+01  0.14423287822E+02  0.27276102352E+02  0.51100000000E-03 0.  1.
         12    1    3    3    0    0 -0.38650540864E+02  0.92252571440E+01 -0.15582915317E+01  0.39766794577E+02  0.00000000000E+00 0. -1.
</event>
<event>
 7    1  0.1358622E-013  0.7246157E+02  0.7816164E-02  0.1226708E+00
        -11   -1    0    0    0    0  0.00000000000E+00  0.00000000000E+00  0.45593999997E+02  0.45594000000E+02  0.51100000000E-03 0. -1.
         11   -1    0    0    0    0 -0.00000000000E+00 -0.00000000000E+00 -0.45593999997E+02  0.45594000000E+02  0.51100000000E-03 0.  1.
    9900012    2    1    2    0    0 -0.18662908174E+02  0.15153987784E+01  0.28057253781E+00  0.72461566920E+02  0.69999995604E+02 0.  0.
        -12    1    1    2    0    0  0.18662908174E+02 -0.15153987784E+01 -0.28057253781E+00  0.18726433080E+02  0.00000000000E+00 0.  1.
         11    1    3    3    0    0  0.17164463725E+02  0.81853099052E+01 -0.21972295754E+01  0.19142777522E+02  0.51100000000E-03 0.  1.
        -11    1    3    3    0    0 -0.41859682844E+00  0.78977460254E+01  0.11523480735E+02  0.13976416711E+02  0.51100000000E-03 0. -1.
        -12    1    3    3    0    0 -0.35408775070E+02 -0.14567657152E+02 -0.90456786216E+01  0.39342372686E+02  0.00000000000E+00 0.  1.
</event>
<event>
 7    1  0.1358622E-013  0.7246160E+02  0.7816164E-02  0.1226708E+00
        -11   -1    0    0    0    0  0.00000000000E+00  0.00000000000E+00  0.45593999997E+02  0.45594000000E+02  0.51100000000E-03 0. -1.
         11   -1    0    0    0    0 -0.00000000000E+00 -0.00000000000E+00 -0.45593999997E+02  0.45594000000E+02  0.51100000000E-03 0.  1.
    9900012    2    1    2    0    0  0.12181728125E+02  0.13237447718E+02  0.52013043434E+01  0.72461599143E+02  0.70000037580E+02 0.  0.
        -12    1    1    2    0    0 -0.12181728125E+02 -0.13237447718E+02 -0.52013043434E+01  0.18726400857E+02  0.00000000000E+00 0.  1.
         11    1    3    3    0    0 -0.86650833691E+01  0.32722736214E+02  0.32141093023E+01  0.34002818030E+02  0.51100000000E-03 0. -1.
        -11    1    3    3    0    0 -0.25878050854E+01 -0.56595977493E+01  0.84485077272E+01  0.10493096060E+02  0.51100000000E-03 0.  1.
        -12    1    3    3    0    0  0.23434616579E+02 -0.13825690747E+02 -0.64613126861E+01  0.27965685053E+02  0.00000000000E+00 0.  1.
</event>
<event>
 7    1  0.1358622E-013  0.7246156E+02  0.7816164E-02  0.1226708E+00
        -11   -1    0    0    0    0  0.00000000000E+00  0.00000000000E+00  0.45593999997E+02  0.45594000000E+02  0.51100000000E-03 0.  1.
         11   -1    0    0    0    0 -0.00000000000E+00 -0.00000000000E+00 -0.45593999997E+02  0.45594000000E+02  0.51100000000E-03 0. -1.
    9900012    2    1    2    0    0 -0.11931883243E+02 -0.13945630121E+02  0.37187497877E+01  0.72461560478E+02  0.69999987213E+02 0.  0.
        -12    1    1    2    0    0  0.11931883243E+02  0.13945630121E+02 -0.37187497877E+01  0.18726439522E+02  0.00000000000E+00 0.  1.
         11    1    3    3    0    0 -0.72552222649E+01 -0.89693003844E+00 -0.50914213242E+01  0.89087207257E+01  0.51100000000E-03 0. -1.
        -11    1    3    3    0    0 -0.11444550001E+02 -0.32830027279E+02 -0.91931753232E+01  0.35962520610E+02  0.51100000000E-03 0.  1.
         12    1    3    3    0    0  0.67678890236E+01  0.19781327197E+02  0.18003346435E+02  0.27590319142E+02  0.00000000000E+00 0. -1.
</event>
<event>
 7    1  0.1358622E-013  0.7246149E+02  0.7816164E-02  0.1226708E+00
        -11   -1    0    0    0    0  0.00000000000E+00  0.00000000000E+00  0.45593999997E+02  0.45594000000E+02  0.51100000000E-03 0. -1.
         11   -1    0    0    0    0 -0.00000000000E+00 -0.00000000000E+00 -0.45593999997E+02  0.45594000000E+02  0.51100000000E-03 0.  1.
    9900012    2    1    2    0    0 -0.17388881146E+02  0.48125369873E+01 -0.50148380344E+01  0.72461486703E+02  0.69999891107E+02 0.  0.
        -12    1    1    2    0    0  0.17388881146E+02 -0.48125369873E+01  0.50148380344E+01  0.18726513297E+02  0.00000000000E+00 0.  1.
         11    1    3    3    0    0 -0.51578605249E+01  0.69651630284E+01  0.38434179204E+01  0.94809747800E+01  0.51100000000E-03 0. -1.
        -11    1    3    3    0    0 -0.46078302406E+01  0.28710266439E+02  0.25870821995E+01  0.29192541737E+02  0.51100000000E-03 0.  1.
         12    1    3    3    0    0 -0.76231903802E+01 -0.30862892480E+02 -0.11445338154E+02  0.33787970186E+02  0.00000000000E+00 0. -1.
</event>
<event>
 7    1  0.1358622E-013  0.7246219E+02  0.7816164E-02  0.1226706E+00
        -11   -1    0    0    0    0  0.00000000000E+00  0.00000000000E+00  0.45593999997E+02  0.45594000000E+02  0.51100000000E-03 0.  1.
         11   -1    0    0    0    0 -0.00000000000E+00 -0.00000000000E+00 -0.45593999997E+02  0.45594000000E+02  0.51100000000E-03 0. -1.
    9900012    2    1    2    0    0 -0.13769188108E+01  0.12734721331E+02  0.13659676762E+02  0.72462194222E+02  0.70000812777E+02 0.  0.
        -12    1    1    2    0    0  0.13769188108E+01 -0.12734721331E+02 -0.13659676762E+02  0.18725805778E+02  0.00000000000E+00 0.  1.
         11    1    3    3    0    0 -0.24439901508E+02  0.15671342350E+02 -0.13242947543E+02  0.31910428024E+02  0.51100000000E-03 0. -1.
        -11    1    3    3    0    0 -0.11854190373E+01  0.11845332286E+01  0.11301515666E+02  0.11425086165E+02  0.51100000000E-03 0.  1.
        -12    1    3    3    0    0  0.24248401734E+02 -0.41211542479E+01  0.15601108639E+02  0.29126680034E+02  0.00000000000E+00 0.  1.
</event>
<event>
 7    1  0.1358622E-013  0.7246158E+02  0.7816164E-02  0.1226708E+00
        -11   -1    0    0    0    0  0.00000000000E+00  0.00000000000E+00  0.45593999997E+02  0.45594000000E+02  0.51100000000E-03 0. -1.
         11   -1    0    0    0    0 -0.00000000000E+00 -0.00000000000E+00 -0.45593999997E+02  0.45594000000E+02  0.51100000000E-03 0.  1.
    9900012    2    1    2    0    0  0.95273176705E+01  0.46860651292E+01  0.15425617186E+02  0.72461584060E+02  0.70000017932E+02 0.  0.
        -12    1    1    2    0    0 -0.95273176705E+01 -0.46860651292E+01 -0.15425617186E+02  0.18726415940E+02  0.00000000000E+00 0.  1.
         11    1    3    3    0    0  0.12494345242E+01 -0.68248117974E+01 -0.17138701367E+02  0.18489841198E+02  0.51100000000E-03 0. -1.
        -11    1    3    3    0    0 -0.83451737744E+01 -0.31823821761E+01 -0.50807733411E+01  0.10275394866E+02  0.51100000000E-03 0.  1.
         12    1    3    3    0    0  0.16623056921E+02  0.14693259103E+02  0.37645091895E+02  0.43696347996E+02  0.00000000000E+00 0. -1.
</event>
<event>
 7    1  0.1358622E-013  0.7246149E+02  0.7816164E-02  0.1226708E+00
        -11   -1    0    0    0    0  0.00000000000E+00  0.00000000000E+00  0.45593999997E+02  0.45594000000E+02  0.51100000000E-03 0. -1.
         11   -1    0    0    0    0 -0.00000000000E+00 -0.00000000000E+00 -0.45593999997E+02  0.45594000000E+02  0.51100000000E-03 0.  1.
    9900012    2    1    2    0    0 -0.11861016013E+02 -0.51125292358E+01  0.13559514168E+02  0.72461492570E+02  0.69999898749E+02 0.  0.
        -12    1    1    2    0    0  0.11861016013E+02  0.51125292358E+01 -0.13559514168E+02  0.18726507430E+02  0.00000000000E+00 0.  1.
         11    1    3    3    0    0 -0.18387789490E+02  0.17557531871E+02  0.20316261772E+02  0.32544250189E+02  0.51100000000E-03 0.  1.
        -11    1    3    3    0    0  0.13388224990E+02 -0.17421152576E+02  0.75264328550E+01  0.23224735031E+02  0.51100000000E-03 0. -1.
        -12    1    3    3    0    0 -0.68614515131E+01 -0.52489085311E+01 -0.14283180458E+02  0.16692507350E+02  0.00000000000E+00 0.  1.
</event>
<event>
 7    1  0.1358622E-013  0.7246152E+02  0.7816164E-02  0.1226708E+00
        -11   -1    0    0    0    0  0.00000000000E+00  0.00000000000E+00  0.45593999997E+02  0.45594000000E+02  0.51100000000E-03 0.  1.
         11   -1    0    0    0    0 -0.00000000000E+00 -0.00000000000E+00 -0.45593999997E+02  0.45594000000E+02  0.51100000000E-03 0. -1.
    9900012    2    1    2    0    0 -0.93536763148E+01 -0.11397127130E+02 -0.11545361609E+02  0.72461517626E+02  0.69999931390E+02 0.  0.
        -12    1    1    2    0    0  0.93536763148E+01  0.11397127130E+02  0.11545361609E+02  0.18726482374E+02  0.00000000000E+00 0.  1.
         11    1    3    3    0    0 -0.10048775163E+02 -0.10413614404E+02 -0.26591210721E+02  0.30273977854E+02  0.51100000000E-03 0. -1.
        -11    1    3    3    0    0 -0.17705278763E+02  0.15593268535E+01 -0.77104756900E+00  0.17790528686E+02  0.51100000000E-03 0.  1.
        -12    1    3    3    0    0  0.18400377611E+02 -0.25428395792E+01  0.15816896681E+02  0.24397011087E+02  0.00000000000E+00 0.  1.
</event>
<event>
 7    1  0.1358622E-013  0.7246154E+02  0.7816164E-02  0.1226708E+00
        -11   -1    0    0    0    0  0.00000000000E+00  0.00000000000E+00  0.45593999997E+02  0.45594000000E+02  0.51100000000E-03 0.  1.
         11   -1    0    0    0    0 -0.00000000000E+00 -0.00000000000E+00 -0.45593999997E+02  0.45594000000E+02  0.51100000000E-03 0. -1.
    9900012    2    1    2    0    0 -0.95215782303E+01  0.16125057529E+02  0.48155493530E-01  0.72461541412E+02  0.69999962375E+02 0.  0.
        -12    1    1    2    0    0  0.95215782303E+01 -0.16125057529E+02 -0.48155493530E-01  0.18726458588E+02  0.00000000000E+00 0.  1.
         11    1    3    3    0    0 -0.15284095998E+02  0.41458882045E+01  0.39471147436E+01  0.16320897480E+02  0.51100000000E-03 0. -1.
        -11    1    3    3    0    0  0.33104770923E+01 -0.16158838271E+02  0.14886955944E+02  0.22219108227E+02  0.51100000000E-03 0.  1.
         12    1    3    3    0    0  0.24520406755E+01  0.28138007596E+02 -0.18785915194E+02  0.33921535705E+02  0.00000000000E+00 0. -1.
</event>
<event>
 7    1  0.1358622E-013  0.7246158E+02  0.7816164E-02  0.1226708E+00
        -11   -1    0    0    0    0  0.00000000000E+00  0.00000000000E+00  0.45593999997E+02  0.45594000000E+02  0.51100000000E-03 0. -1.
         11   -1    0    0    0    0 -0.00000000000E+00 -0.00000000000E+00 -0.45593999997E+02  0.45594000000E+02  0.51100000000E-03 0.  1.
    9900012    2    1    2    0    0  0.17220182964E+02  0.59121103853E+01 -0.43807621757E+01  0.72461579420E+02  0.70000011887E+02 0.  0.
        -12    1    1    2    0    0 -0.17220182964E+02 -0.59121103853E+01  0.43807621757E+01  0.18726420580E+02  0.00000000000E+00 0.  1.
         11    1    3    3    0    0 -0.51909856278E+01  0.25252878391E+01 -0.12438428281E+02  0.13712691524E+02  0.51100000000E-03 0. -1.
        -11    1    3    3    0    0  0.30654091453E+02 -0.16429357463E+02  0.12264273639E+02  0.36878306870E+02  0.51100000000E-03 0.  1.
         12    1    3    3    0    0 -0.82429228619E+01  0.19816180009E+02 -0.42066075338E+01  0.21870581025E+02  0.00000000000E+00 0. -1.
</event>
<event>
 7    1  0.1358622E-013  0.7246157E+02  0.7816164E-02  0.1226708E+00
        -11   -1    0    0    0    0  0.00000000000E+00  0.00000000000E+00  0.45593999997E+02  0.45594000000E+02  0.51100000000E-03 0. -1.
         11   -1    0    0    0    0 -0.00000000000E+00 -0.00000000000E+00 -0.45593999997E+02  0.45594000000E+02  0.51100000000E-03 0.  1.
    9900012    2    1    2    0    0  0.10435834271E+02  0.41104491343E+01  0.14995889749E+02  0.72461571125E+02  0.70000001082E+02 0.  0.
        -12    1    1    2    0    0 -0.10435834271E+02 -0.41104491343E+01 -0.14995889749E+02  0.18726428875E+02  0.00000000000E+00 0.  1.
         11    1    3    3    0    0  0.11175246331E+02  0.69684655433E+01  0.12256001647E+02  0.17990420207E+02  0.51100000000E-03 0. -1.
        -11    1    3    3    0    0  0.11823754698E+02  0.33083669989E+01  0.25186163740E+02  0.28019445240E+02  0.51100000000E-03 0.  1.
        -12    1    3    3    0    0 -0.12563166757E+02 -0.61663834079E+01 -0.22446275638E+02  0.26451705679E+02  0.00000000000E+00 0.  1.
</event>
<event>
 7    1  0.1358622E-013  0.7246156E+02  0.7816164E-02  0.1226708E+00
        -11   -1    0    0    0    0  0.00000000000E+00  0.00000000000E+00  0.45593999997E+02  0.45594000000E+02  0.51100000000E-03 0.  1.
         11   -1    0    0    0    0 -0.00000000000E+00 -0.00000000000E+00 -0.45593999997E+02  0.45594000000E+02  0.51100000000E-03 0. -1.
    9900012    2    1    2    0    0  0.38231074773E+01  0.10607027544E+02 -0.14951728668E+02  0.72461564827E+02  0.69999992878E+02 0.  0.
        -12    1    1    2    0    0 -0.38231074773E+01 -0.10607027544E+02  0.14951728668E+02  0.18726435173E+02  0.00000000000E+00 0.  1.
         11    1    3    3    0    0 -0.26135385477E+01  0.13195796032E+02 -0.51854091194E+01  0.14416937423E+02  0.51100000000E-03 0. -1.
        -11    1    3    3    0    0 -0.13821451860E+02  0.28456754917E+01  0.18235947915E+02  0.23058191541E+02  0.51100000000E-03 0.  1.
        -12    1    3    3    0    0  0.20258097885E+02 -0.54344439796E+01 -0.28002267464E+02  0.34986435863E+02  0.00000000000E+00 0.  1.
</event>
<event>
 7    1  0.1358622E-013  0.7246154E+02  0.7816164E-02  0.1226708E+00
        -11   -1    0    0    0    0  0.00000000000E+00  0.00000000000E+00  0.45593999997E+02  0.45594000000E+02  0.51100000000E-03 0.  1.
         11   -1    0    0    0    0 -0.00000000000E+00 -0.00000000000E+00 -0.45593999997E+02  0.45594000000E+02  0.51100000000E-03 0. -1.
    9900012    2    1    2    0    0 -0.15895382969E+02  0.81719901289E+01 -0.55888926657E+01  0.72461538945E+02  0.69999959162E+02 0.  0.
        -12    1    1    2    0    0  0.15895382969E+02 -0.81719901289E+01  0.55888926657E+01  0.18726461055E+02  0.00000000000E+00 0.  1.
         11    1    3    3    0    0 -0.53300134923E+01  0.14374499516E+01 -0.44947104086E+01  0.71188291249E+01  0.51100000000E-03 0. -1.
        -11    1    3    3    0    0  0.19685831810E+02  0.62734616465E+00 -0.20863939088E+02  0.28691976088E+02  0.51100000000E-03 0.  1.
         12    1    3    3    0    0 -0.30251201287E+02  0.61071940126E+01  0.19769756831E+02  0.36650733733E+02  0.00000000000E+00 0. -1.
</event>
<event>
 7    1  0.1358622E-013  0.7246159E+02  0.7816164E-02  0.1226708E+00
        -11   -1    0    0    0    0  0.00000000000E+00  0.00000000000E+00  0.45593999997E+02  0.45594000000E+02  0.51100000000E-03 0. -1.
         11   -1    0    0    0    0 -0.00000000000E+00 -0.00000000000E+00 -0.45593999997E+02  0.45594000000E+02  0.51100000000E-03 0.  1.
    9900012    2    1    2    0    0 -0.64458431756E+01  0.68295128129E+01  0.16201458221E+02  0.72461591161E+02  0.70000027183E+02 0.  0.
        -12    1    1    2    0    0  0.64458431756E+01 -0.68295128129E+01 -0.16201458221E+02  0.18726408839E+02  0.00000000000E+00 0.  1.
         11    1    3    3    0    0 -0.15658307054E+02  0.24936799525E+02 -0.29628338906E+01  0.29594001677E+02  0.51100000000E-03 0. -1.
        -11    1    3    3    0    0  0.54459013298E+01 -0.54989928206E+01 -0.89464172558E+01  0.11829418638E+02  0.51100000000E-03 0.  1.
        -12    1    3    3    0    0  0.37665625484E+01 -0.12608293892E+02  0.28110709368E+02  0.31038170846E+02  0.00000000000E+00 0.  1.
</event>
<event>
 7    1  0.1358622E-013  0.7246158E+02  0.7816164E-02  0.1226708E+00
        -11   -1    0    0    0    0  0.00000000000E+00  0.00000000000E+00  0.45593999997E+02  0.45594000000E+02  0.51100000000E-03 0. -1.
         11   -1    0    0    0    0 -0.00000000000E+00 -0.00000000000E+00 -0.45593999997E+02  0.45594000000E+02  0.51100000000E-03 0.  1.
    9900012    2    1    2    0    0 -0.63262889538E+01  0.10005369256E+02  0.14510326446E+02  0.72461576971E+02  0.70000008698E+02 0.  0.
        -12    1    1    2    0    0  0.63262889538E+01 -0.10005369256E+02 -0.14510326446E+02  0.18726423029E+02  0.00000000000E+00 0.  1.
         11    1    3    3    0    0  0.67402578200E+01  0.51596332377E+01 -0.16255852126E+01  0.86426511078E+01  0.51100000000E-03 0. -1.
        -11    1    3    3    0    0  0.99396763587E+01  0.26796850430E+02  0.99094303522E+00  0.28598082583E+02  0.51100000000E-03 0.  1.
        -12    1    3    3    0    0 -0.23006223132E+02 -0.21951114412E+02  0.15144968624E+02  0.35220843280E+02  0.00000000000E+00 0.  1.
</event>
<event>
 7    1  0.1358622E-013  0.7246157E+02  0.7816164E-02  0.1226708E+00
        -11   -1    0    0    0    0  0.00000000000E+00  0.00000000000E+00  0.45593999997E+02  0.45594000000E+02  0.51100000000E-03 0.  1.
         11   -1    0    0    0    0 -0.00000000000E+00 -0.00000000000E+00 -0.45593999997E+02  0.45594000000E+02  0.51100000000E-03 0. -1.
    9900012    2    1    2    0    0 -0.11823797285E+02 -0.13225844092E+02 -0.59961713051E+01  0.72461569360E+02  0.69999998783E+02 0.  0.
        -12    1    1    2    0    0  0.11823797285E+02  0.13225844092E+02  0.59961713051E+01  0.18726430640E+02  0.00000000000E+00 0.  1.
         11    1    3    3    0    0  0.66503949109E+01 -0.50393384245E+01 -0.10289016673E+02  0.13247133599E+02  0.51100000000E-03 0. -1.
        -11    1    3    3    0    0 -0.47820014808E+01 -0.19327938485E+02  0.25028719441E+02  0.31982394241E+02  0.51100000000E-03 0.  1.
         12    1    3    3    0    0 -0.13692190715E+02  0.11141432818E+02 -0.20735874073E+02  0.27232041521E+02  0.00000000000E+00 0. -1.
</event>
<event>
 7    1  0.1358622E-013  0.7246150E+02  0.7816164E-02  0.1226708E+00
        -11   -1    0    0    0    0  0.00000000000E+00  0.00000000000E+00  0.45593999997E+02  0.45594000000E+02  0.51100000000E-03 0. -1.
         11   -1    0    0    0    0 -0.00000000000E+00 -0.00000000000E+00 -0.45593999997E+02  0.45594000000E+02  0.51100000000E-03 0.  1.
    9900012    2    1    2    0    0  0.13309155552E+02 -0.14589310123E+01  0.13092737247E+02  0.72461498196E+02  0.69999906078E+02 0.  0.
        -12    1    1    2    0    0 -0.13309155552E+02  0.14589310123E+01 -0.13092737247E+02  0.18726501804E+02  0.00000000000E+00 0.  1.
         11    1    3    3    0    0  0.13269647485E+02 -0.99821361369E+01  0.17969362152E+02  0.24466805321E+02  0.51100000000E-03 0. -1.
        -11    1    3    3    0    0  0.18878067760E+02 -0.79449019458E+01 -0.94527918675E+01  0.22557885177E+02  0.51100000000E-03 0.  1.
         12    1    3    3    0    0 -0.18838559693E+02  0.16468107070E+02  0.45761669627E+01  0.25436807698E+02  0.00000000000E+00 0. -1.
</event>
<event>
 7    1  0.1358622E-013  0.7246161E+02  0.7816164E-02  0.1226708E+00
        -11   -1    0    0    0    0  0.00000000000E+00  0.00000000000E+00  0.45593999997E+02  0.45594000000E+02  0.51100000000E-03 0.  1.
         11   -1    0    0    0    0 -0.00000000000E+00 -0.00000000000E+00 -0.45593999997E+02  0.45594000000E+02  0.51100000000E-03 0. -1.
    9900012    2    1    2    0    0 -0.18283798515E+02 -0.60051476923E+00 -0.40024649051E+01  0.72461611361E+02  0.70000053497E+02 0.  0.
        -12    1    1    2    0    0  0.18283798515E+02  0.60051476923E+00  0.40024649051E+01  0.18726388639E+02  0.00000000000E+00 0.  1.
         11    1    3    3    0    0 -0.68237749459E+01  0.26015440476E+02 -0.16591537973E+02  0.31601363582E+02  0.51100000000E-03 0. -1.
        -11    1    3    3    0    0 -0.67530277298E+01 -0.54420461786E+00 -0.55452991716E+01  0.87549920245E+01  0.51100000000E-03 0.  1.
        -12    1    3    3    0    0 -0.47069958396E+01 -0.26071750627E+02  0.18134372239E+02  0.32105255755E+02  0.00000000000E+00 0.  1.
</event>
<event>
 7    1  0.1358622E-013  0.7246168E+02  0.7816164E-02  0.1226708E+00
        -11   -1    0    0    0    0  0.00000000000E+00  0.00000000000E+00  0.45593999997E+02  0.45594000000E+02  0.51100000000E-03 0.  1.
         11   -1    0    0    0    0 -0.00000000000E+00 -0.00000000000E+00 -0.45593999997E+02  0.45594000000E+02  0.51100000000E-03 0. -1.
    9900012    2    1    2    0    0 -0.29880300496E+00 -0.18624624044E+02 -0.19259137476E+01  0.72461680346E+02  0.70000143363E+02 0.  0.
        -12    1    1    2    0    0  0.29880300496E+00  0.18624624044E+02  0.19259137476E+01  0.18726319654E+02  0.00000000000E+00 0.  1.
         11    1    3    3    0    0  0.14629979436E+02 -0.20890470206E+02  0.15907438293E+02  0.30058187521E+02  0.51100000000E-03 0. -1.
        -11    1    3    3    0    0  0.40573400365E+01 -0.99340011443E+01  0.35613621496E+01  0.11306179175E+02  0.51100000000E-03 0.  1.
        -12    1    3    3    0    0 -0.18986122477E+02  0.12199847306E+02 -0.21394714191E+02  0.31097313651E+02  0.00000000000E+00 0.  1.
</event>
<event>
 7    1  0.1358622E-013  0.7246163E+02  0.7816164E-02  0.1226708E+00
        -11   -1    0    0    0    0  0.00000000000E+00  0.00000000000E+00  0.45593999997E+02  0.45594000000E+02  0.51100000000E-03 0.  1.
         11   -1    0    0    0    0 -0.00000000000E+00 -0.00000000000E+00 -0.45593999997E+02  0.45594000000E+02  0.51100000000E-03 0. -1.
    9900012    2    1    2    0    0  0.70303971873E+01 -0.34880263485E+01 -0.17002473953E+02  0.72461630012E+02  0.70000077793E+02 0.  0.
        -12    1    1    2    0    0 -0.70303971873E+01  0.34880263485E+01  0.17002473953E+02  0.18726369988E+02  0.00000000000E+00 0.  1.
         11    1    3    3    0    0  0.22247586082E+02  0.15973164307E+00  0.46140680354E+01  0.22721580596E+02  0.51100000000E-03 0. -1.
        -11    1    3    3    0    0  0.64933450302E+01  0.12293109138E+02  0.18395685532E+01  0.14023839513E+02  0.51100000000E-03 0.  1.
         12    1    3    3    0    0 -0.21710533925E+02 -0.15940867129E+02 -0.23456110541E+02  0.35716209903E+02  0.00000000000E+00 0. -1.
</event>
<event>
 7    1  0.1358622E-013  0.7246155E+02  0.7816164E-02  0.1226708E+00
        -11   -1    0    0    0    0  0.00000000000E+00  0.00000000000E+00  0.45593999997E+02  0.45594000000E+02  0.51100000000E-03 0.  1.
         11   -1    0    0    0    0 -0.00000000000E+00 -0.00000000000E+00 -0.45593999997E+02  0.45594000000E+02  0.51100000000E-03 0. -1.
    9900012    2    1    2    0    0  0.11037220164E+02  0.89111348872E+01 -0.12225024748E+02  0.72461553887E+02  0.69999978627E+02 0.  0.
        -12    1    1    2    0    0 -0.11037220164E+02 -0.89111348872E+01  0.12225024748E+02  0.18726446113E+02  0.00000000000E+00 0.  1.
         11    1    3    3    0    0 -0.34842082034E+01 -0.88160097848E+00 -0.51237586888E+01  0.62585805461E+01  0.51100000000E-03 0. -1.
        -11    1    3    3    0    0  0.26992087139E+02  0.29722892800E+02  0.37199198338E+01  0.40321965830E+02  0.51100000000E-03 0.  1.
         12    1    3    3    0    0 -0.12470658772E+02 -0.19930156935E+02 -0.10821185893E+02  0.25881007511E+02  0.00000000000E+00 0. -1.
</event>
<event>
 7    1  0.1358622E-013  0.7246156E+02  0.7816164E-02  0.1226708E+00
        -11   -1    0    0    0    0  0.00000000000E+00  0.00000000000E+00  0.45593999997E+02  0.45594000000E+02  0.51100000000E-03 0.  1.
         11   -1    0    0    0    0 -0.00000000000E+00 -0.00000000000E+00 -0.45593999997E+02  0.45594000000E+02  0.51100000000E-03 0. -1.
    9900012    2    1    2    0    0 -0.25352753015E+01 -0.15055990714E+02 -0.10842920562E+02  0.72461564046E+02  0.69999991860E+02 0.  0.
        -12    1    1    2    0    0  0.25352753015E+01  0.15055990714E+02  0.10842920562E+02  0.18726435954E+02  0.00000000000E+00 0.  1.
         11    1    3    3    0    0 -0.16979537598E+02 -0.47030846829E+01 -0.74029172894E+00  0.17634390681E+02  0.51100000000E-03 0. -1.
        -11    1    3    3    0    0 -0.76213315038E+01  0.87739967859E+01  0.13112862687E+02  0.17521840131E+02  0.51100000000E-03 0.  1.
         12    1    3    3    0    0  0.22065593800E+02 -0.19126902817E+02 -0.23215491520E+02  0.37305333233E+02  0.00000000000E+00 0. -1.
</event>
<event>
 7    1  0.1358622E-013  0.7246160E+02  0.7816164E-02  0.1226708E+00
        -11   -1    0    0    0    0  0.00000000000E+00  0.00000000000E+00  0.45593999997E+02  0.45594000000E+02  0.51100000000E-03 0. -1.
         11   -1    0    0    0    0 -0.00000000000E+00 -0.00000000000E+00 -0.45593999997E+02  0.45594000000E+02  0.51100000000E-03 0.  1.
    9900012    2    1    2    0    0  0.11110569778E+02 -0.10189011069E+02  0.11109341503E+02  0.72461596822E+02  0.70000034557E+02 0.  0.
        -12    1    1    2    0    0 -0.11110569778E+02  0.10189011069E+02 -0.11109341503E+02  0.18726403178E+02  0.00000000000E+00 0.  1.
         11    1    3    3    0    0 -0.22734633650E+01 -0.15472779530E+02  0.66058953139E+00  0.15652856635E+02  0.51100000000E-03 0. -1.
        -11    1    3    3    0    0 -0.13369555103E+02  0.13672158852E+02 -0.10493992583E+02  0.21812767177E+02  0.51100000000E-03 0.  1.
         12    1    3    3    0    0  0.26753588246E+02 -0.83883903917E+01  0.20942744554E+02  0.34995973009E+02  0.00000000000E+00 0. -1.
</event>
<event>
 7    1  0.1358622E-013  0.7246158E+02  0.7816164E-02  0.1226708E+00
        -11   -1    0    0    0    0  0.00000000000E+00  0.00000000000E+00  0.45593999997E+02  0.45594000000E+02  0.51100000000E-03 0.  1.
         11   -1    0    0    0    0 -0.00000000000E+00 -0.00000000000E+00 -0.45593999997E+02  0.45594000000E+02  0.51100000000E-03 0. -1.
    9900012    2    1    2    0    0  0.32390524381E+01  0.17316742058E+02  0.63496360229E+01  0.72461577655E+02  0.70000009589E+02 0.  0.
        -12    1    1    2    0    0 -0.32390524381E+01 -0.17316742058E+02 -0.63496360229E+01  0.18726422345E+02  0.00000000000E+00 0.  1.
         11    1    3    3    0    0  0.66098733457E+01  0.74207419487E+01 -0.20836871028E+02  0.23085342346E+02  0.51100000000E-03 0. -1.
        -11    1    3    3    0    0 -0.15461462432E+02  0.14996186178E+02  0.28496116927E+01  0.21727004107E+02  0.51100000000E-03 0.  1.
         12    1    3    3    0    0  0.12090641525E+02 -0.51001860678E+01  0.24336895358E+02  0.27649231202E+02  0.00000000000E+00 0. -1.
</event>
<event>
 7    1  0.1358622E-013  0.7246157E+02  0.7816164E-02  0.1226708E+00
        -11   -1    0    0    0    0  0.00000000000E+00  0.00000000000E+00  0.45593999997E+02  0.45594000000E+02  0.51100000000E-03 0.  1.
         11   -1    0    0    0    0 -0.00000000000E+00 -0.00000000000E+00 -0.45593999997E+02  0.45594000000E+02  0.51100000000E-03 0. -1.
    9900012    2    1    2    0    0 -0.12034590447E+02 -0.57739004524E-01 -0.14347282308E+02  0.72461569196E+02  0.69999998570E+02 0.  0.
        -12    1    1    2    0    0  0.12034590447E+02  0.57739004524E-01  0.14347282308E+02  0.18726430804E+02  0.00000000000E+00 0.  1.
         11    1    3    3    0    0 -0.29874742819E+02 -0.13289959117E+02 -0.13762870583E+02  0.35475905609E+02  0.51100000000E-03 0. -1.
        -11    1    3    3    0    0 -0.51943865211E+01 -0.52340166926E+01 -0.11167432534E+01  0.74581296465E+01  0.51100000000E-03 0.  1.
        -12    1    3    3    0    0  0.23034538893E+02  0.18466236805E+02  0.53233152897E+00  0.29527533941E+02  0.00000000000E+00 0.  1.
</event>
<event>
 7    1  0.1385895E-013  0.7246159E+02  0.7816164E-02  0.1226708E+00
        -11   -1    0    0    0    0  0.00000000000E+00  0.00000000000E+00  0.45593999997E+02  0.45594000000E+02  0.51100000000E-03 0. -1.
         11   -1    0    0    0    0 -0.00000000000E+00 -0.00000000000E+00 -0.45593999997E+02  0.45594000000E+02  0.51100000000E-03 0.  1.
    9900012    2    1    2    0    0  0.15492414314E+02 -0.65961813700E+01  0.81947409933E+01  0.72461593781E+02  0.70000030595E+02 0.  0.
        -12    1    1    2    0    0 -0.15492414314E+02  0.65961813700E+01 -0.81947409933E+01  0.18726406219E+02  0.00000000000E+00 0.  1.
         11    1    3    3    0    0  0.38601714517E+01 -0.15747689937E+02  0.25943329288E+02  0.30593250837E+02  0.51100000000E-03 0. -1.
        -11    1    3    3    0    0 -0.71969150890E+01 -0.59049090989E+01  0.32869958506E+01  0.98725822482E+01  0.51100000000E-03 0.  1.
        -12    1    3    3    0    0  0.18829157952E+02  0.15056417666E+02 -0.21035584146E+02  0.31995760695E+02  0.00000000000E+00 0.  1.
</event>
<event>
 7    1  0.1358622E-013  0.7246157E+02  0.7816164E-02  0.1226708E+00
        -11   -1    0    0    0    0  0.00000000000E+00  0.00000000000E+00  0.45593999997E+02  0.45594000000E+02  0.51100000000E-03 0.  1.
         11   -1    0    0    0    0 -0.00000000000E+00 -0.00000000000E+00 -0.45593999997E+02  0.45594000000E+02  0.51100000000E-03 0. -1.
    9900012    2    1    2    0    0 -0.11393690755E+02  0.13375176591E+02 -0.64782548930E+01  0.72461566161E+02  0.69999994615E+02 0.  0.
        -12    1    1    2    0    0  0.11393690755E+02 -0.13375176591E+02  0.64782548930E+01  0.18726433839E+02  0.00000000000E+00 0.  1.
         11    1    3    3    0    0 -0.20355070062E+02  0.16216630733E+02 -0.23633265043E+02  0.35154504781E+02  0.51100000000E-03 0. -1.
        -11    1    3    3    0    0 -0.77840502465E+01  0.76015488809E+01 -0.40958910886E+00  0.10887733792E+02  0.51100000000E-03 0.  1.
        -12    1    3    3    0    0  0.16745429553E+02 -0.10443003023E+02  0.17564599259E+02  0.26419327588E+02  0.00000000000E+00 0.  1.
</event>
<event>
 7    1  0.1358622E-013  0.7246151E+02  0.7816164E-02  0.1226708E+00
        -11   -1    0    0    0    0  0.00000000000E+00  0.00000000000E+00  0.45593999997E+02  0.45594000000E+02  0.51100000000E-03 0.  1.
         11   -1    0    0    0    0 -0.00000000000E+00 -0.00000000000E+00 -0.45593999997E+02  0.45594000000E+02  0.51100000000E-03 0. -1.
    9900012    2    1    2    0    0 -0.52271119235E+01  0.17889727194E+02 -0.18210873606E+01  0.72461510812E+02  0.69999922513E+02 0.  0.
        -12    1    1    2    0    0  0.52271119235E+01 -0.17889727194E+02  0.18210873606E+01  0.18726489188E+02  0.00000000000E+00 0.  1.
         11    1    3    3    0    0 -0.26927416107E+01 -0.50791011295E+01 -0.18571500488E+02  0.19440904205E+02  0.51100000000E-03 0. -1.
        -11    1    3    3    0    0 -0.13685595643E+01 -0.75044473111E+01 -0.99158139506E+01  0.12510517627E+02  0.51100000000E-03 0.  1.
        -12    1    3    3    0    0 -0.11658107485E+01  0.30473275635E+02  0.26666227078E+02  0.40510088980E+02  0.00000000000E+00 0.  1.
</event>
<event>
 7    1  0.1358622E-013  0.7246173E+02  0.7816164E-02  0.1226708E+00
        -11   -1    0    0    0    0  0.00000000000E+00  0.00000000000E+00  0.45593999997E+02  0.45594000000E+02  0.51100000000E-03 0.  1.
         11   -1    0    0    0    0 -0.00000000000E+00 -0.00000000000E+00 -0.45593999997E+02  0.45594000000E+02  0.51100000000E-03 0. -1.
    9900012    2    1    2    0    0 -0.77755608173E+01 -0.41368742950E+01 -0.16525740972E+02  0.72461729959E+02  0.70000207993E+02 0.  0.
        -12    1    1    2    0    0  0.77755608173E+01  0.41368742950E+01  0.16525740972E+02  0.18726270041E+02  0.00000000000E+00 0.  1.
         11    1    3    3    0    0 -0.17160391748E+02 -0.13463953225E+02 -0.46735716600E+01  0.22306935104E+02  0.51100000000E-03 0. -1.
        -11    1    3    3    0    0 -0.18751813597E+02  0.28570832507E+01 -0.59591512544E-01  0.18968315405E+02  0.51100000000E-03 0.  1.
        -12    1    3    3    0    0  0.28136644528E+02  0.64699956791E+01 -0.11792577800E+02  0.31186479451E+02  0.00000000000E+00 0.  1.
</event>
<event>
 7    1  0.1358622E-013  0.7246157E+02  0.7816164E-02  0.1226708E+00
        -11   -1    0    0    0    0  0.00000000000E+00  0.00000000000E+00  0.45593999997E+02  0.45594000000E+02  0.51100000000E-03 0.  1.
         11   -1    0    0    0    0 -0.00000000000E+00 -0.00000000000E+00 -0.45593999997E+02  0.45594000000E+02  0.51100000000E-03 0. -1.
    9900012    2    1    2    0    0 -0.10394510635E+02  0.15551738003E+02  0.88125565010E+00  0.72461574346E+02  0.70000005278E+02 0.  0.
        -12    1    1    2    0    0  0.10394510635E+02 -0.15551738003E+02 -0.88125565010E+00  0.18726425654E+02  0.00000000000E+00 0.  1.
         11    1    3    3    0    0 -0.73398179966E+01  0.97344599909E+01  0.10376503774E+02  0.16009511872E+02  0.51100000000E-03 0. -1.
        -11    1    3    3    0    0  0.22014242098E+02 -0.13114865485E+01  0.96911327628E+01  0.24088688354E+02  0.51100000000E-03 0.  1.
         12    1    3    3    0    0 -0.25068934736E+02  0.71287645608E+01 -0.19186380886E+02  0.32363374121E+02  0.00000000000E+00 0. -1.
</event>
<event>
 7    1  0.1358622E-013  0.7246158E+02  0.7816164E-02  0.1226708E+00
        -11   -1    0    0    0    0  0.00000000000E+00  0.00000000000E+00  0.45593999997E+02  0.45594000000E+02  0.51100000000E-03 0. -1.
         11   -1    0    0    0    0 -0.00000000000E+00 -0.00000000000E+00 -0.45593999997E+02  0.45594000000E+02  0.51100000000E-03 0.  1.
    9900012    2    1    2    0    0 -0.46047784887E+01  0.11470712423E+02  0.14067611486E+02  0.72461576921E+02  0.70000008632E+02 0.  0.
        -12    1    1    2    0    0  0.46047784887E+01 -0.11470712423E+02 -0.14067611486E+02  0.18726423079E+02  0.00000000000E+00 0.  1.
         11    1    3    3    0    0 -0.29916163626E+01  0.63186786978E+00  0.80615653481E+01  0.86219407089E+01  0.51100000000E-03 0. -1.
        -11    1    3    3    0    0  0.97881195096E+01 -0.24510238593E+02  0.33196656332E+01  0.26600362020E+02  0.51100000000E-03 0.  1.
         12    1    3    3    0    0 -0.11401281636E+02  0.35349083146E+02  0.26863805047E+01  0.37239274192E+02  0.00000000000E+00 0. -1.
</event>
<event>
 7    1  0.1358622E-013  0.7246156E+02  0.7816164E-02  0.1226708E+00
        -11   -1    0    0    0    0  0.00000000000E+00  0.00000000000E+00  0.45593999997E+02  0.45594000000E+02  0.51100000000E-03 0.  1.
         11   -1    0    0    0    0 -0.00000000000E+00 -0.00000000000E+00 -0.45593999997E+02  0.45594000000E+02  0.51100000000E-03 0. -1.
    9900012    2    1    2    0    0  0.12949619539E+02  0.55883778073E+01 -0.12318970657E+02  0.72461557445E+02  0.69999983262E+02 0.  0.
        -12    1    1    2    0    0 -0.12949619539E+02 -0.55883778073E+01  0.12318970657E+02  0.18726442555E+02  0.00000000000E+00 0.  1.
         11    1    3    3    0    0  0.75539383993E+01  0.20006008462E+02 -0.11061002017E+02  0.24075882659E+02  0.51100000000E-03 0. -1.
        -11    1    3    3    0    0  0.13639921154E+00  0.31754819480E+01 -0.21107408020E+02  0.21345373361E+02  0.51100000000E-03 0.  1.
        -12    1    3    3    0    0  0.52592819277E+01 -0.17593112603E+02  0.19849439380E+02  0.27040301425E+02  0.00000000000E+00 0.  1.
</event>
<event>
 7    1  0.1358622E-013  0.7246158E+02  0.7816164E-02  0.1226708E+00
        -11   -1    0    0    0    0  0.00000000000E+00  0.00000000000E+00  0.45593999997E+02  0.45594000000E+02  0.51100000000E-03 0. -1.
         11   -1    0    0    0    0 -0.00000000000E+00 -0.00000000000E+00 -0.45593999997E+02  0.45594000000E+02  0.51100000000E-03 0.  1.
    9900012    2    1    2    0    0  0.13004500919E+02 -0.16741867208E+01  0.13370079211E+02  0.72461575797E+02  0.70000007168E+02 0.  0.
        -12    1    1    2    0    0 -0.13004500919E+02  0.16741867208E+01 -0.13370079211E+02  0.18726424203E+02  0.00000000000E+00 0.  1.
         11    1    3    3    0    0 -0.74332570263E+01 -0.12582973367E+02  0.18536128415E+01  0.14731612594E+02  0.51100000000E-03 0. -1.
        -11    1    3    3    0    0 -0.48113373698E+01 -0.16568212992E+02 -0.33258669435E+01  0.17570317021E+02  0.51100000000E-03 0.  1.
         12    1    3    3    0    0  0.25249095315E+02  0.27476999638E+02  0.14842333313E+02  0.40159646183E+02  0.00000000000E+00 0. -1.
</event>
<event>
 7    1  0.1358622E-013  0.7246149E+02  0.7816164E-02  0.1226708E+00
        -11   -1    0    0    0    0  0.00000000000E+00  0.00000000000E+00  0.45593999997E+02  0.45594000000E+02  0.51100000000E-03 0. -1.
         11   -1    0    0    0    0 -0.00000000000E+00 -0.00000000000E+00 -0.45593999997E+02  0.45594000000E+02  0.51100000000E-03 0.  1.
    9900012    2    1    2    0    0 -0.12449332720E+02  0.13975367749E+02 -0.62077723537E+00  0.72461490628E+02  0.69999896219E+02 0.  0.
        -12    1    1    2    0    0  0.12449332720E+02 -0.13975367749E+02  0.62077723537E+00  0.18726509372E+02  0.00000000000E+00 0.  1.
         11    1    3    3    0    0 -0.11795419515E+02  0.18896071113E+02 -0.11734701736E+01  0.22306287399E+02  0.51100000000E-03 0. -1.
        -11    1    3    3    0    0  0.20863947292E+02  0.78110614540E+01  0.86138725548E+01  0.23885472118E+02  0.51100000000E-03 0.  1.
         12    1    3    3    0    0 -0.21517860498E+02 -0.12731764818E+02 -0.80611796166E+01  0.26269731110E+02  0.00000000000E+00 0. -1.
</event>
<event>
 7    1  0.1358622E-013  0.7246155E+02  0.7816164E-02  0.1226708E+00
        -11   -1    0    0    0    0  0.00000000000E+00  0.00000000000E+00  0.45593999997E+02  0.45594000000E+02  0.51100000000E-03 0. -1.
         11   -1    0    0    0    0 -0.00000000000E+00 -0.00000000000E+00 -0.45593999997E+02  0.45594000000E+02  0.51100000000E-03 0.  1.
    9900012    2    1    2    0    0  0.41898510453E+01 -0.17020712653E+02 -0.65894050834E+01  0.72461554252E+02  0.69999979102E+02 0.  0.
        -12    1    1    2    0    0 -0.41898510453E+01  0.17020712653E+02  0.65894050834E+01  0.18726445748E+02  0.00000000000E+00 0.  1.
         11    1    3    3    0    0  0.71878352314E+01 -0.20941536389E+02  0.40590238034E+00  0.22144472869E+02  0.51100000000E-03 0.  1.
        -11    1    3    3    0    0  0.22715397774E+02  0.46988362343E+01  0.14488382070E+01  0.23241503617E+02  0.51100000000E-03 0. -1.
         12    1    3    3    0    0 -0.25713381960E+02 -0.77801249865E+00 -0.84441456708E+01  0.27075577766E+02  0.00000000000E+00 0. -1.
</event>
<event>
 7    1  0.1358622E-013  0.7246153E+02  0.7816164E-02  0.1226708E+00
        -11   -1    0    0    0    0  0.00000000000E+00  0.00000000000E+00  0.45593999997E+02  0.45594000000E+02  0.51100000000E-03 0.  1.
         11   -1    0    0    0    0 -0.00000000000E+00 -0.00000000000E+00 -0.45593999997E+02  0.45594000000E+02  0.51100000000E-03 0. -1.
    9900012    2    1    2    0    0  0.13381158636E+02  0.12974056149E+02  0.18163191693E+01  0.72461533310E+02  0.69999951820E+02 0.  0.
        -12    1    1    2    0    0 -0.13381158636E+02 -0.12974056149E+02 -0.18163191693E+01  0.18726466690E+02  0.00000000000E+00 0.  1.
         11    1    3    3    0    0  0.26785005021E+01 -0.24859701802E+01 -0.17280605153E+02  0.17662778020E+02  0.51100000000E-03 0. -1.
        -11    1    3    3    0    0 -0.10051352378E+01 -0.16856703378E+02  0.79490006633E+01  0.18664012361E+02  0.51100000000E-03 0.  1.
         12    1    3    3    0    0  0.11707793371E+02  0.32316729707E+02  0.11147923659E+02  0.36134742928E+02  0.00000000000E+00 0. -1.
</event>
<event>
 7    1  0.1358622E-013  0.7246156E+02  0.7816164E-02  0.1226708E+00
        -11   -1    0    0    0    0  0.00000000000E+00  0.00000000000E+00  0.45593999997E+02  0.45594000000E+02  0.51100000000E-03 0.  1.
         11   -1    0    0    0    0 -0.00000000000E+00 -0.00000000000E+00 -0.45593999997E+02  0.45594000000E+02  0.51100000000E-03 0. -1.
    9900012    2    1    2    0    0 -0.61430590142E-01  0.22598998829E+01 -0.18589480424E+02  0.72461556033E+02  0.69999981422E+02 0.  0.
        -12    1    1    2    0    0  0.61430590142E-01 -0.22598998829E+01  0.18589480424E+02  0.18726443967E+02  0.00000000000E+00 0.  1.
         11    1    3    3    0    0 -0.48377766530E+01  0.15104818268E+01  0.14809472702E+01  0.52800419858E+01  0.51100000000E-03 0. -1.
        -11    1    3    3    0    0 -0.13840308994E+02 -0.19971108507E+01  0.19131310810E+02  0.23697039021E+02  0.51100000000E-03 0.  1.
         12    1    3    3    0    0  0.18616655057E+02  0.27465289068E+01 -0.39201738504E+02  0.43484475026E+02  0.00000000000E+00 0. -1.
</event>
<event>
 7    1  0.1358622E-013  0.7246178E+02  0.7816164E-02  0.1226707E+00
        -11   -1    0    0    0    0  0.00000000000E+00  0.00000000000E+00  0.45593999997E+02  0.45594000000E+02  0.51100000000E-03 0. -1.
         11   -1    0    0    0    0 -0.00000000000E+00 -0.00000000000E+00 -0.45593999997E+02  0.45594000000E+02  0.51100000000E-03 0.  1.
    9900012    2    1    2    0    0 -0.27998052251E+01 -0.74167160711E+01  0.16965400229E+02  0.72461777971E+02  0.70000270536E+02 0.  0.
        -12    1    1    2    0    0  0.27998052251E+01  0.74167160711E+01 -0.16965400229E+02  0.18726222029E+02  0.00000000000E+00 0.  1.
         11    1    3    3    0    0  0.58040306925E+01  0.12320859509E+01  0.17686457458E+01  0.61913581794E+01  0.51100000000E-03 0. -1.
        -11    1    3    3    0    0  0.19798032622E+02  0.58394038812E+01 -0.12419469652E+02  0.24089498959E+02  0.51100000000E-03 0.  1.
         12    1    3    3    0    0 -0.28401868540E+02 -0.14488205903E+02  0.27616224134E+02  0.42180920833E+02  0.00000000000E+00 0. -1.
</event>
<event>
 7    1  0.1358622E-013  0.7246182E+02  0.7816164E-02  0.1226707E+00
        -11   -1    0    0    0    0  0.00000000000E+00  0.00000000000E+00  0.45593999997E+02  0.45594000000E+02  0.51100000000E-03 0.  1.
         11   -1    0    0    0    0 -0.00000000000E+00 -0.00000000000E+00 -0.45593999997E+02  0.45594000000E+02  0.51100000000E-03 0. -1.
    9900012    2    1    2    0    0  0.17277034322E+01 -0.18641738658E+02 -0.41295847051E+00  0.72461817419E+02  0.70000321925E+02 0.  0.
        -12    1    1    2    0    0 -0.17277034322E+01  0.18641738658E+02  0.41295847051E+00  0.18726182581E+02  0.00000000000E+00 0.  1.
         11    1    3    3    0    0  0.38142659395E+00 -0.12477035658E+02 -0.13943719028E+02  0.18714946050E+02  0.51100000000E-03 0. -1.
        -11    1    3    3    0    0 -0.65513496564E+01 -0.27327751186E+02  0.14710348234E+01  0.28140542121E+02  0.51100000000E-03 0.  1.
        -12    1    3    3    0    0  0.78976264947E+01  0.21163048185E+02  0.12059725734E+02  0.25606329247E+02  0.00000000000E+00 0.  1.
</event>
<event>
 7    1  0.1358622E-013  0.7246128E+02  0.7816164E-02  0.1226709E+00
        -11   -1    0    0    0    0  0.00000000000E+00  0.00000000000E+00  0.45593999997E+02  0.45594000000E+02  0.51100000000E-03 0.  1.
         11   -1    0    0    0    0 -0.00000000000E+00 -0.00000000000E+00 -0.45593999997E+02  0.45594000000E+02  0.51100000000E-03 0. -1.
    9900012    2    1    2    0    0  0.21049912985E+01 -0.32539334108E+01 -0.18321324849E+02  0.72461280714E+02  0.69999622767E+02 0.  0.
        -12    1    1    2    0    0 -0.21049912985E+01  0.32539334108E+01  0.18321324849E+02  0.18726719286E+02  0.00000000000E+00 0.  1.
         11    1    3    3    0    0  0.92549214179E+01  0.17269592980E+02  0.45514318167E+01  0.20114868729E+02  0.51100000000E-03 0. -1.
        -11    1    3    3    0    0 -0.12819051436E+02  0.55975964859E+01  0.38932117176E+01  0.14519582084E+02  0.51100000000E-03 0.  1.
         12    1    3    3    0    0  0.56691213170E+01 -0.26121122877E+02 -0.26765968383E+02  0.37826829901E+02  0.00000000000E+00 0. -1.
</event>
<event>
 7    1  0.1358622E-013  0.7246152E+02  0.7816164E-02  0.1226708E+00
        -11   -1    0    0    0    0  0.00000000000E+00  0.00000000000E+00  0.45593999997E+02  0.45594000000E+02  0.51100000000E-03 0.  1.
         11   -1    0    0    0    0 -0.00000000000E+00 -0.00000000000E+00 -0.45593999997E+02  0.45594000000E+02  0.51100000000E-03 0. -1.
    9900012    2    1    2    0    0 -0.16731126922E+02 -0.28815801439E+01 -0.79023292829E+01  0.72461523548E+02  0.69999939105E+02 0.  0.
        -12    1    1    2    0    0  0.16731126922E+02  0.28815801439E+01  0.79023292829E+01  0.18726476452E+02  0.00000000000E+00 0.  1.
         11    1    3    3    0    0  0.24425847722E+01 -0.22744338147E+01 -0.16592628564E+02  0.16924969497E+02  0.51100000000E-03 0. -1.
        -11    1    3    3    0    0 -0.20512617954E+01 -0.21620861329E+02 -0.86292229641E+01  0.23369484564E+02  0.51100000000E-03 0.  1.
        -12    1    3    3    0    0 -0.17122449898E+02  0.21013715000E+02  0.17319522245E+02  0.32167069488E+02  0.00000000000E+00 0.  1.
</event>
<event>
 7    1  0.1358622E-013  0.7246171E+02  0.7816164E-02  0.1226708E+00
        -11   -1    0    0    0    0  0.00000000000E+00  0.00000000000E+00  0.45593999997E+02  0.45594000000E+02  0.51100000000E-03 0.  1.
         11   -1    0    0    0    0 -0.00000000000E+00 -0.00000000000E+00 -0.45593999997E+02  0.45594000000E+02  0.51100000000E-03 0. -1.
    9900012    2    1    2    0    0 -0.95844510156E+01 -0.14817739434E+02 -0.62647305944E+01  0.72461709587E+02  0.70000181454E+02 0.  0.
        -12    1    1    2    0    0  0.95844510156E+01  0.14817739434E+02  0.62647305944E+01  0.18726290413E+02  0.00000000000E+00 0.  1.
         11    1    3    3    0    0 -0.91616695651E+01  0.11646098009E+02 -0.25145561498E+01  0.15029663368E+02  0.51100000000E-03 0. -1.
        -11    1    3    3    0    0 -0.42329516264E+01  0.11023244982E+02  0.11777780552E+02  0.16677707408E+02  0.51100000000E-03 0.  1.
         12    1    3    3    0    0  0.38101701760E+01 -0.37487082426E+02 -0.15527954996E+02  0.40754338811E+02  0.00000000000E+00 0. -1.
</event>
<event>
 7    1  0.1358622E-013  0.7246153E+02  0.7816164E-02  0.1226708E+00
        -11   -1    0    0    0    0  0.00000000000E+00  0.00000000000E+00  0.45593999997E+02  0.45594000000E+02  0.51100000000E-03 0.  1.
         11   -1    0    0    0    0 -0.00000000000E+00 -0.00000000000E+00 -0.45593999997E+02  0.45594000000E+02  0.51100000000E-03 0. -1.
    9900012    2    1    2    0    0  0.17549831117E+02 -0.63324908466E+01 -0.16073220742E+01  0.72461534855E+02  0.69999953834E+02 0.  0.
        -12    1    1    2    0    0 -0.17549831117E+02  0.63324908466E+01  0.16073220742E+01  0.18726465145E+02  0.00000000000E+00 0.  1.
         11    1    3    3    0    0 -0.56101968472E+01  0.17727199511E+01 -0.21469259256E+02  0.22260861123E+02  0.51100000000E-03 0. -1.
        -11    1    3    3    0    0 -0.46115822065E+01  0.37835519943E+01 -0.74028225221E+01  0.95070362204E+01  0.51100000000E-03 0.  1.
        -12    1    3    3    0    0  0.27771610171E+02 -0.11888762792E+02  0.27264759704E+02  0.40693637512E+02  0.00000000000E+00 0.  1.
</event>
<event>
 7    1  0.1358622E-013  0.7246160E+02  0.7816164E-02  0.1226708E+00
        -11   -1    0    0    0    0  0.00000000000E+00  0.00000000000E+00  0.45593999997E+02  0.45594000000E+02  0.51100000000E-03 0.  1.
         11   -1    0    0    0    0 -0.00000000000E+00 -0.00000000000E+00 -0.45593999997E+02  0.45594000000E+02  0.51100000000E-03 0. -1.
    9900012    2    1    2    0    0  0.17571157046E+02 -0.62014180845E+01  0.18640635102E+01  0.72461604752E+02  0.70000044888E+02 0.  0.
        -12    1    1    2    0    0 -0.17571157046E+02  0.62014180845E+01 -0.18640635102E+01  0.18726395248E+02  0.00000000000E+00 0.  1.
         11    1    3    3    0    0  0.35146702771E+02  0.47780779906E+00 -0.88310902790E+01  0.36242339490E+02  0.51100000000E-03 0. -1.
        -11    1    3    3    0    0 -0.21400189979E+00  0.99326852431E+01  0.42476227263E-01  0.99350811493E+01  0.51100000000E-03 0.  1.
        -12    1    3    3    0    0 -0.17361543825E+02 -0.16611911127E+02  0.10652677562E+02  0.26284184113E+02  0.00000000000E+00 0.  1.
</event>
<event>
 7    1  0.1358622E-013  0.7246160E+02  0.7816164E-02  0.1226708E+00
        -11   -1    0    0    0    0  0.00000000000E+00  0.00000000000E+00  0.45593999997E+02  0.45594000000E+02  0.51100000000E-03 0. -1.
         11   -1    0    0    0    0 -0.00000000000E+00 -0.00000000000E+00 -0.45593999997E+02  0.45594000000E+02  0.51100000000E-03 0.  1.
    9900012    2    1    2    0    0  0.78001606448E+01  0.12921478103E+02  0.11084717992E+02  0.72461599508E+02  0.70000038056E+02 0.  0.
        -12    1    1    2    0    0 -0.78001606448E+01 -0.12921478103E+02 -0.11084717992E+02  0.18726400492E+02  0.00000000000E+00 0.  1.
         11    1    3    3    0    0 -0.17803754790E+02 -0.10816552685E+02 -0.28885356543E+01  0.21031289430E+02  0.51100000000E-03 0. -1.
        -11    1    3    3    0    0 -0.45300196107E+01  0.94804308795E+01 -0.64558280996E+01  0.12331965133E+02  0.51100000000E-03 0.  1.
        -12    1    3    3    0    0  0.30133935045E+02  0.14257599908E+02  0.20429081746E+02  0.39098344945E+02  0.00000000000E+00 0.  1.
</event>
<event>
 7    1  0.1358622E-013  0.7246157E+02  0.7816164E-02  0.1226708E+00
        -11   -1    0    0    0    0  0.00000000000E+00  0.00000000000E+00  0.45593999997E+02  0.45594000000E+02  0.51100000000E-03 0. -1.
         11   -1    0    0    0    0 -0.00000000000E+00 -0.00000000000E+00 -0.45593999997E+02  0.45594000000E+02  0.51100000000E-03 0.  1.
    9900012    2    1    2    0    0 -0.19805978143E+01 -0.13704113052E+02  0.12607688017E+02  0.72461567361E+02  0.69999996179E+02 0.  0.
        -12    1    1    2    0    0  0.19805978143E+01  0.13704113052E+02 -0.12607688017E+02  0.18726432639E+02  0.00000000000E+00 0.  1.
         11    1    3    3    0    0 -0.31404495346E+01  0.42646692451E+01  0.14586149037E+01  0.54933946470E+01  0.51100000000E-03 0. -1.
        -11    1    3    3    0    0  0.16116254239E+02 -0.14660330437E+01 -0.21829338801E+02  0.27173570548E+02  0.51100000000E-03 0.  1.
         12    1    3    3    0    0 -0.14956402518E+02 -0.16502749253E+02  0.32978411914E+02  0.39794602166E+02  0.00000000000E+00 0. -1.
</event>
<event>
 7    1  0.1358622E-013  0.7246155E+02  0.7816164E-02  0.1226708E+00
        -11   -1    0    0    0    0  0.00000000000E+00  0.00000000000E+00  0.45593999997E+02  0.45594000000E+02  0.51100000000E-03 0.  1.
         11   -1    0    0    0    0 -0.00000000000E+00 -0.00000000000E+00 -0.45593999997E+02  0.45594000000E+02  0.51100000000E-03 0. -1.
    9900012    2    1    2    0    0 -0.18568891115E+01  0.16350331582E+02 -0.89386031468E+01  0.72461547954E+02  0.69999970898E+02 0.  0.
        -12    1    1    2    0    0  0.18568891115E+01 -0.16350331582E+02  0.89386031468E+01  0.18726452046E+02  0.00000000000E+00 0.  1.
         11    1    3    3    0    0  0.35405308646E+01 -0.64163605898E+00 -0.27941156245E+02  0.28171887906E+02  0.51100000000E-03 0. -1.
        -11    1    3    3    0    0 -0.18012792480E+02  0.10740117220E+02  0.42032649244E+00  0.20975878657E+02  0.51100000000E-03 0.  1.
        -12    1    3    3    0    0  0.12615372504E+02  0.62518504212E+01  0.18582226606E+02  0.23313781391E+02  0.00000000000E+00 0.  1.
</event>
<event>
 7    1  0.1358622E-013  0.7246156E+02  0.7816164E-02  0.1226708E+00
        -11   -1    0    0    0    0  0.00000000000E+00  0.00000000000E+00  0.45593999997E+02  0.45594000000E+02  0.51100000000E-03 0. -1.
         11   -1    0    0    0    0 -0.00000000000E+00 -0.00000000000E+00 -0.45593999997E+02  0.45594000000E+02  0.51100000000E-03 0.  1.
    9900012    2    1    2    0    0 -0.46928902312E+01  0.21513755306E+01  0.18000773659E+02  0.72461561799E+02  0.69999988933E+02 0.  0.
        -12    1    1    2    0    0  0.46928902312E+01 -0.21513755306E+01 -0.18000773659E+02  0.18726438201E+02  0.00000000000E+00 0.  1.
         11    1    3    3    0    0 -0.48513864750E+01 -0.74236007424E+01  0.31631373984E+01  0.94154785951E+01  0.51100000000E-03 0. -1.
        -11    1    3    3    0    0 -0.18934749014E+02 -0.14169208880E+02  0.21382260048E+02  0.31882475524E+02  0.51100000000E-03 0.  1.
         12    1    3    3    0    0  0.19093245258E+02  0.23744185153E+02 -0.65446237878E+01  0.31163607679E+02  0.00000000000E+00 0. -1.
</event>
<event>
 7    1  0.1358622E-013  0.7246160E+02  0.7816164E-02  0.1226708E+00
        -11   -1    0    0    0    0  0.00000000000E+00  0.00000000000E+00  0.45593999997E+02  0.45594000000E+02  0.51100000000E-03 0. -1.
         11   -1    0    0    0    0 -0.00000000000E+00 -0.00000000000E+00 -0.45593999997E+02  0.45594000000E+02  0.51100000000E-03 0.  1.
    9900012    2    1    2    0    0  0.13588654728E+02 -0.24695488645E+00  0.12882757700E+02  0.72461602322E+02  0.70000041722E+02 0.  0.
        -12    1    1    2    0    0 -0.13588654728E+02  0.24695488645E+00 -0.12882757700E+02  0.18726397678E+02  0.00000000000E+00 0.  1.
         11    1    3    3    0    0 -0.12934635934E+02 -0.12510211814E+02 -0.72738916952E+01  0.19409268585E+02  0.51100000000E-03 0. -1.
        -11    1    3    3    0    0 -0.71402493985E+00  0.20185050414E+02  0.12180886949E+02  0.23586438878E+02  0.51100000000E-03 0.  1.
         12    1    3    3    0    0  0.27237315601E+02 -0.79217934870E+01  0.79757624466E+01  0.29465894859E+02  0.00000000000E+00 0. -1.
</event>
<event>
 7    1  0.1358622E-013  0.7246158E+02  0.7816164E-02  0.1226708E+00
        -11   -1    0    0    0    0  0.00000000000E+00  0.00000000000E+00  0.45593999997E+02  0.45594000000E+02  0.51100000000E-03 0.  1.
         11   -1    0    0    0    0 -0.00000000000E+00 -0.00000000000E+00 -0.45593999997E+02  0.45594000000E+02  0.51100000000E-03 0. -1.
    9900012    2    1    2    0    0  0.15425978068E+02  0.87071410048E+01  0.60748388721E+01  0.72461580931E+02  0.70000013856E+02 0.  0.
        -12    1    1    2    0    0 -0.15425978068E+02 -0.87071410048E+01 -0.60748388721E+01  0.18726419069E+02  0.00000000000E+00 0.  1.
         11    1    3    3    0    0 -0.39199302494E+01 -0.99143120030E+01  0.52477127029E+01  0.11882673290E+02  0.51100000000E-03 0. -1.
        -11    1    3    3    0    0  0.61242414060E+01  0.11268544678E+02  0.27258024321E+02  0.30124513641E+02  0.51100000000E-03 0.  1.
         12    1    3    3    0    0  0.13221666911E+02  0.73529083300E+01 -0.26430898151E+02  0.30454394000E+02  0.00000000000E+00 0. -1.
</event>
<event>
 7    1  0.1358622E-013  0.7246153E+02  0.7816164E-02  0.1226708E+00
        -11   -1    0    0    0    0  0.00000000000E+00  0.00000000000E+00  0.45593999997E+02  0.45594000000E+02  0.51100000000E-03 0.  1.
         11   -1    0    0    0    0 -0.00000000000E+00 -0.00000000000E+00 -0.45593999997E+02  0.45594000000E+02  0.51100000000E-03 0. -1.
    9900012    2    1    2    0    0  0.69834074143E+01  0.85465272689E+01 -0.15128438284E+02  0.72461528031E+02  0.69999944945E+02 0.  0.
        -12    1    1    2    0    0 -0.69834074143E+01 -0.85465272689E+01  0.15128438284E+02  0.18726471969E+02  0.00000000000E+00 0.  1.
         11    1    3    3    0    0 -0.25019922934E+02  0.11342148993E+02 -0.21612485810E+02  0.34953403705E+02  0.51100000000E-03 0. -1.
        -11    1    3    3    0    0  0.14420104749E+02 -0.96788198583E+01  0.67259030835E+01  0.18624090511E+02  0.51100000000E-03 0.  1.
        -12    1    3    3    0    0  0.17583225599E+02  0.68831981344E+01 -0.24185555773E+00  0.18884033816E+02  0.00000000000E+00 0.  1.
</event>
<event>
 7    1  0.1358622E-013  0.7246154E+02  0.7816164E-02  0.1226708E+00
        -11   -1    0    0    0    0  0.00000000000E+00  0.00000000000E+00  0.45593999997E+02  0.45594000000E+02  0.51100000000E-03 0.  1.
         11   -1    0    0    0    0 -0.00000000000E+00 -0.00000000000E+00 -0.45593999997E+02  0.45594000000E+02  0.51100000000E-03 0. -1.
    9900012    2    1    2    0    0  0.82824339445E+01  0.91373329885E+01 -0.14092228995E+02  0.72461535191E+02  0.69999954272E+02 0.  0.
        -12    1    1    2    0    0 -0.82824339445E+01 -0.91373329885E+01  0.14092228995E+02  0.18726464809E+02  0.00000000000E+00 0.  1.
         11    1    3    3    0    0  0.75682088181E+01 -0.17509009668E+02 -0.16400112261E+02  0.25155653176E+02  0.51100000000E-03 0. -1.
        -11    1    3    3    0    0 -0.12974078892E+02 -0.38230476112E+01 -0.18253600906E+01  0.13648236364E+02  0.51100000000E-03 0.  1.
         12    1    3    3    0    0  0.13688304018E+02  0.30469390267E+02  0.41332433568E+01  0.33657645652E+02  0.00000000000E+00 0. -1.
</event>
<event>
 7    1  0.1358622E-013  0.7246153E+02  0.7816164E-02  0.1226708E+00
        -11   -1    0    0    0    0  0.00000000000E+00  0.00000000000E+00  0.45593999997E+02  0.45594000000E+02  0.51100000000E-03 0. -1.
         11   -1    0    0    0    0 -0.00000000000E+00 -0.00000000000E+00 -0.45593999997E+02  0.45594000000E+02  0.51100000000E-03 0.  1.
    9900012    2    1    2    0    0 -0.99362623755E+00 -0.14061429036E+01  0.18647149194E+02  0.72461529322E+02  0.69999946626E+02 0.  0.
        -12    1    1    2    0    0  0.99362623755E+00  0.14061429036E+01 -0.18647149194E+02  0.18726470678E+02  0.00000000000E+00 0.  1.
         11    1    3    3    0    0  0.15417476962E+02  0.30061731412E+01 -0.66854291915E+01  0.17071339624E+02  0.51100000000E-03 0.  1.
        -11    1    3    3    0    0  0.73218491884E+01 -0.15665003491E+02  0.23342367383E+02  0.29049404903E+02  0.51100000000E-03 0. -1.
        -12    1    3    3    0    0 -0.23732952388E+02  0.11252687446E+02  0.19902110025E+01  0.26340784795E+02  0.00000000000E+00 0.  1.
</event>
<event>
 7    1  0.1358622E-013  0.7246092E+02  0.7816164E-02  0.1226710E+00
        -11   -1    0    0    0    0  0.00000000000E+00  0.00000000000E+00  0.45593999997E+02  0.45594000000E+02  0.51100000000E-03 0.  1.
         11   -1    0    0    0    0 -0.00000000000E+00 -0.00000000000E+00 -0.45593999997E+02  0.45594000000E+02  0.51100000000E-03 0. -1.
    9900012    2    1    2    0    0 -0.16831100942E+02 -0.37931264973E+01 -0.72821541749E+01  0.72460919689E+02  0.69999152461E+02 0.  0.
        -12    1    1    2    0    0  0.16831100942E+02  0.37931264973E+01  0.72821541749E+01  0.18727080311E+02  0.00000000000E+00 0.  1.
         11    1    3    3    0    0  0.76404748634E+01  0.15708487191E+02 -0.47134051946E+01  0.18092805608E+02  0.51100000000E-03 0. -1.
        -11    1    3    3    0    0 -0.15662750065E+02  0.65332082009E+01  0.14237777988E+02  0.22152175317E+02  0.51100000000E-03 0.  1.
        -12    1    3    3    0    0 -0.88088257406E+01 -0.26034821889E+02 -0.16806526968E+02  0.32215938764E+02  0.00000000000E+00 0.  1.
</event>
<event>
 7    1  0.1358622E-013  0.7246172E+02  0.7816164E-02  0.1226708E+00
        -11   -1    0    0    0    0  0.00000000000E+00  0.00000000000E+00  0.45593999997E+02  0.45594000000E+02  0.51100000000E-03 0.  1.
         11   -1    0    0    0    0 -0.00000000000E+00 -0.00000000000E+00 -0.45593999997E+02  0.45594000000E+02  0.51100000000E-03 0. -1.
    9900012    2    1    2    0    0 -0.23970500717E+01  0.72429748853E+01 -0.17101664635E+02  0.72461722540E+02  0.70000198328E+02 0.  0.
        -12    1    1    2    0    0  0.23970500717E+01 -0.72429748853E+01  0.17101664635E+02  0.18726277460E+02  0.00000000000E+00 0.  1.
         11    1    3    3    0    0 -0.73434733084E-01  0.17535646764E+02 -0.37521186366E+02  0.41416708303E+02  0.51100000000E-03 0. -1.
        -11    1    3    3    0    0  0.68024854587E+01  0.67460889334E+00  0.94141427134E+00  0.69003743860E+01  0.51100000000E-03 0.  1.
        -12    1    3    3    0    0 -0.91261007973E+01 -0.10967280772E+02  0.19478107460E+02  0.24144639851E+02  0.00000000000E+00 0.  1.
</event>
<event>
 7    1  0.1358622E-013  0.7246150E+02  0.7816164E-02  0.1226708E+00
        -11   -1    0    0    0    0  0.00000000000E+00  0.00000000000E+00  0.45593999997E+02  0.45594000000E+02  0.51100000000E-03 0.  1.
         11   -1    0    0    0    0 -0.00000000000E+00 -0.00000000000E+00 -0.45593999997E+02  0.45594000000E+02  0.51100000000E-03 0. -1.
    9900012    2    1    2    0    0  0.40007369142E+01  0.11397896115E+02 -0.14309573236E+02  0.72461499582E+02  0.69999907884E+02 0.  0.
        -12    1    1    2    0    0 -0.40007369142E+01 -0.11397896115E+02  0.14309573236E+02  0.18726500418E+02  0.00000000000E+00 0.  1.
         11    1    3    3    0    0 -0.77718497627E+01  0.29053551516E+01 -0.27396065759E+01  0.87377446600E+01  0.51100000000E-03 0. -1.
        -11    1    3    3    0    0 -0.57013151818E+01  0.31836575917E+02 -0.12172868267E+02  0.34557940954E+02  0.51100000000E-03 0.  1.
         12    1    3    3    0    0  0.17473901859E+02 -0.23344034953E+02  0.60290160644E+00  0.29165813968E+02  0.00000000000E+00 0. -1.
</event>
<event>
 7    1  0.1358622E-013  0.7246167E+02  0.7816164E-02  0.1226708E+00
        -11   -1    0    0    0    0  0.00000000000E+00  0.00000000000E+00  0.45593999997E+02  0.45594000000E+02  0.51100000000E-03 0.  1.
         11   -1    0    0    0    0 -0.00000000000E+00 -0.00000000000E+00 -0.45593999997E+02  0.45594000000E+02  0.51100000000E-03 0. -1.
    9900012    2    1    2    0    0  0.15196116028E+02  0.10247951947E+02 -0.38383364135E+01  0.72461673936E+02  0.70000135012E+02 0.  0.
        -12    1    1    2    0    0 -0.15196116028E+02 -0.10247951947E+02  0.38383364135E+01  0.18726326064E+02  0.00000000000E+00 0.  1.
         11    1    3    3    0    0  0.69963598318E+01 -0.10130156358E+02  0.44289210494E+01  0.13083747959E+02  0.51100000000E-03 0. -1.
        -11    1    3    3    0    0  0.22507094944E+02 -0.10284526753E+02 -0.60187973296E+01  0.25466973414E+02  0.51100000000E-03 0.  1.
         12    1    3    3    0    0 -0.14307338748E+02  0.30662635058E+02 -0.22484601333E+01  0.33910952562E+02  0.00000000000E+00 0. -1.
</event>
<event>
 7    1  0.1358622E-013  0.7246159E+02  0.7816164E-02  0.1226708E+00
        -11   -1    0    0    0    0  0.00000000000E+00  0.00000000000E+00  0.45593999997E+02  0.45594000000E+02  0.51100000000E-03 0. -1.
         11   -1    0    0    0    0 -0.00000000000E+00 -0.00000000000E+00 -0.45593999997E+02  0.45594000000E+02  0.51100000000E-03 0.  1.
    9900012    2    1    2    0    0  0.17200489004E+02  0.65521272349E+01  0.34483647400E+01  0.72461590503E+02  0.70000026325E+02 0.  0.
        -12    1    1    2    0    0 -0.17200489004E+02 -0.65521272349E+01 -0.34483647400E+01  0.18726409497E+02  0.00000000000E+00 0.  1.
         11    1    3    3    0    0  0.14167581314E+02  0.77402716647E+01  0.11146941274E+01  0.16182543341E+02  0.51100000000E-03 0. -1.
        -11    1    3    3    0    0 -0.16559830125E+02  0.15914968974E+02  0.14917634377E+02  0.27387041222E+02  0.51100000000E-03 0.  1.
         12    1    3    3    0    0  0.19592737816E+02 -0.17103113404E+02 -0.12583963764E+02  0.28892005940E+02  0.00000000000E+00 0. -1.
</event>
<event>
 7    1  0.1358622E-013  0.7246159E+02  0.7816164E-02  0.1226708E+00
        -11   -1    0    0    0    0  0.00000000000E+00  0.00000000000E+00  0.45593999997E+02  0.45594000000E+02  0.51100000000E-03 0.  1.
         11   -1    0    0    0    0 -0.00000000000E+00 -0.00000000000E+00 -0.45593999997E+02  0.45594000000E+02  0.51100000000E-03 0. -1.
    9900012    2    1    2    0    0  0.51064179031E+01 -0.18819531899E+01 -0.17918178044E+02  0.72461592015E+02  0.70000028295E+02 0.  0.
        -12    1    1    2    0    0 -0.51064179031E+01  0.18819531899E+01  0.17918178044E+02  0.18726407985E+02  0.00000000000E+00 0.  1.
         11    1    3    3    0    0  0.39403324808E+01 -0.95487778349E+00  0.62384384109E+01  0.74401697365E+01  0.51100000000E-03 0. -1.
        -11    1    3    3    0    0  0.11619646198E+02  0.13765615562E+02  0.14002591138E+02  0.22816242206E+02  0.51100000000E-03 0.  1.
         12    1    3    3    0    0 -0.10453560775E+02 -0.14692690968E+02 -0.38159207594E+02  0.42205180072E+02  0.00000000000E+00 0. -1.
</event>
<event>
 7    1  0.1358622E-013  0.7246155E+02  0.7816164E-02  0.1226708E+00
        -11   -1    0    0    0    0  0.00000000000E+00  0.00000000000E+00  0.45593999997E+02  0.45594000000E+02  0.51100000000E-03 0. -1.
         11   -1    0    0    0    0 -0.00000000000E+00 -0.00000000000E+00 -0.45593999997E+02  0.45594000000E+02  0.51100000000E-03 0.  1.
    9900012    2    1    2    0    0  0.72708156205E+00 -0.16272266579E+02  0.92392977992E+01  0.72461549962E+02  0.69999973513E+02 0.  0.
        -12    1    1    2    0    0 -0.72708156205E+00  0.16272266579E+02 -0.92392977992E+01  0.18726450038E+02  0.00000000000E+00 0.  1.
         11    1    3    3    0    0  0.10126160863E+02  0.63931891546E+01  0.16479291862E+01  0.12088327934E+02  0.51100000000E-03 0. -1.
        -11    1    3    3    0    0  0.48149340472E+01  0.88581355790E+01 -0.15715873527E+02  0.18671872878E+02  0.51100000000E-03 0.  1.
         12    1    3    3    0    0 -0.14214013348E+02 -0.31523591313E+02  0.23307242140E+02  0.41701349149E+02  0.00000000000E+00 0. -1.
</event>
<event>
 7    1  0.1358622E-013  0.7246158E+02  0.7816164E-02  0.1226708E+00
        -11   -1    0    0    0    0  0.00000000000E+00  0.00000000000E+00  0.45593999997E+02  0.45594000000E+02  0.51100000000E-03 0. -1.
         11   -1    0    0    0    0 -0.00000000000E+00 -0.00000000000E+00 -0.45593999997E+02  0.45594000000E+02  0.51100000000E-03 0.  1.
    9900012    2    1    2    0    0  0.28871522969E+01  0.18254640530E+02  0.30184944694E+01  0.72461578609E+02  0.70000010831E+02 0.  0.
        -12    1    1    2    0    0 -0.28871522969E+01 -0.18254640530E+02 -0.30184944694E+01  0.18726421391E+02  0.00000000000E+00 0.  1.
         11    1    3    3    0    0 -0.15547645723E+02 -0.77373966719E+01 -0.14223647876E+02  0.22447912018E+02  0.51100000000E-03 0. -1.
        -11    1    3    3    0    0 -0.88224413814E+01  0.14868607716E+02  0.87305186313E+01  0.19368348489E+02  0.51100000000E-03 0.  1.
         12    1    3    3    0    0  0.27257239402E+02  0.11123429486E+02  0.85116237144E+01  0.30645318102E+02  0.00000000000E+00 0. -1.
</event>
<event>
 7    1  0.1358622E-013  0.7246160E+02  0.7816164E-02  0.1226708E+00
        -11   -1    0    0    0    0  0.00000000000E+00  0.00000000000E+00  0.45593999997E+02  0.45594000000E+02  0.51100000000E-03 0.  1.
         11   -1    0    0    0    0 -0.00000000000E+00 -0.00000000000E+00 -0.45593999997E+02  0.45594000000E+02  0.51100000000E-03 0. -1.
    9900012    2    1    2    0    0  0.59092284809E+00  0.17504030757E+02 -0.66285711873E+01  0.72461595151E+02  0.70000032381E+02 0.  0.
        -12    1    1    2    0    0 -0.59092284809E+00 -0.17504030757E+02  0.66285711873E+01  0.18726404849E+02  0.00000000000E+00 0.  1.
         11    1    3    3    0    0 -0.31553895303E+01  0.32668806824E+02 -0.39838746809E+01  0.33061740428E+02  0.51100000000E-03 0. -1.
        -11    1    3    3    0    0 -0.69634326874E+00  0.70343945362E+01 -0.12772728607E+02  0.14598294310E+02  0.51100000000E-03 0.  1.
        -12    1    3    3    0    0  0.44426556472E+01 -0.22199170603E+02  0.10128032101E+02  0.24801560413E+02  0.00000000000E+00 0.  1.
</event>
<event>
 7    1  0.1358622E-013  0.7246158E+02  0.7816164E-02  0.1226708E+00
        -11   -1    0    0    0    0  0.00000000000E+00  0.00000000000E+00  0.45593999997E+02  0.45594000000E+02  0.51100000000E-03 0.  1.
         11   -1    0    0    0    0 -0.00000000000E+00 -0.00000000000E+00 -0.45593999997E+02  0.45594000000E+02  0.51100000000E-03 0. -1.
    9900012    2    1    2    0    0  0.82341159978E+01 -0.17488517165E+01 -0.16727816401E+02  0.72461575084E+02  0.70000006240E+02 0.  0.
        -12    1    1    2    0    0 -0.82341159978E+01  0.17488517165E+01  0.16727816401E+02  0.18726424916E+02  0.00000000000E+00 0.  1.
         11    1    3    3    0    0  0.81158273130E+01 -0.26370302016E+02 -0.16784500990E+02  0.32295184705E+02  0.51100000000E-03 0.  1.
        -11    1    3    3    0    0 -0.14422177207E+02  0.63120726458E+01 -0.44401454473E+01  0.16357149762E+02  0.51100000000E-03 0. -1.
        -12    1    3    3    0    0  0.14540465892E+02  0.18309377653E+02  0.44968300365E+01  0.23809240618E+02  0.00000000000E+00 0.  1.
</event>
<event>
 7    1  0.1358622E-013  0.7246156E+02  0.7816164E-02  0.1226708E+00
        -11   -1    0    0    0    0  0.00000000000E+00  0.00000000000E+00  0.45593999997E+02  0.45594000000E+02  0.51100000000E-03 0. -1.
         11   -1    0    0    0    0 -0.00000000000E+00 -0.00000000000E+00 -0.45593999997E+02  0.45594000000E+02  0.51100000000E-03 0.  1.
    9900012    2    1    2    0    0  0.47606302139E+01 -0.10871597330E+02  0.14485316311E+02  0.72461558342E+02  0.69999984430E+02 0.  0.
        -12    1    1    2    0    0 -0.47606302139E+01  0.10871597330E+02 -0.14485316311E+02  0.18726441658E+02  0.00000000000E+00 0.  1.
         11    1    3    3    0    0  0.78485367717E+01 -0.15865218024E+02  0.13183299643E+02  0.22070434118E+02  0.51100000000E-03 0. -1.
        -11    1    3    3    0    0  0.18068133325E+02  0.81432623409E+00  0.16118675065E+02  0.24226684774E+02  0.51100000000E-03 0.  1.
         12    1    3    3    0    0 -0.21156039883E+02  0.41792944600E+01 -0.14816658397E+02  0.26164439450E+02  0.00000000000E+00 0. -1.
</event>
<event>
 7    1  0.1358622E-013  0.7246158E+02  0.7816164E-02  0.1226708E+00
        -11   -1    0    0    0    0  0.00000000000E+00  0.00000000000E+00  0.45593999997E+02  0.45594000000E+02  0.51100000000E-03 0.  1.
         11   -1    0    0    0    0 -0.00000000000E+00 -0.00000000000E+00 -0.45593999997E+02  0.45594000000E+02  0.51100000000E-03 0. -1.
    9900012    2    1    2    0    0  0.14660223954E+02  0.98484169927E+01 -0.62261774321E+01  0.72461580987E+02  0.70000013929E+02 0.  0.
        -12    1    1    2    0    0 -0.14660223954E+02 -0.98484169927E+01  0.62261774321E+01  0.18726419013E+02  0.00000000000E+00 0.  1.
         11    1    3    3    0    0 -0.85428672310E+01 -0.63462546070E+01 -0.17075517480E+02  0.20120358484E+02  0.51100000000E-03 0. -1.
        -11    1    3    3    0    0 -0.10886611068E+02 -0.15795553415E+01  0.83577505984E+01  0.13815400499E+02  0.51100000000E-03 0.  1.
        -12    1    3    3    0    0  0.34089702253E+02  0.17774226941E+02  0.24915894498E+01  0.38525822003E+02  0.00000000000E+00 0.  1.
</event>
<event>
 7    1  0.1358622E-013  0.7246162E+02  0.7816164E-02  0.1226708E+00
        -11   -1    0    0    0    0  0.00000000000E+00  0.00000000000E+00  0.45593999997E+02  0.45594000000E+02  0.51100000000E-03 0.  1.
         11   -1    0    0    0    0 -0.00000000000E+00 -0.00000000000E+00 -0.45593999997E+02  0.45594000000E+02  0.51100000000E-03 0. -1.
    9900012    2    1    2    0    0 -0.27522166568E+01  0.15862218138E+02 -0.95651759362E+01  0.72461621507E+02  0.70000066713E+02 0.  0.
        -12    1    1    2    0    0  0.27522166568E+01 -0.15862218138E+02  0.95651759362E+01  0.18726378493E+02  0.00000000000E+00 0.  1.
         11    1    3    3    0    0 -0.18273666778E+02  0.18231607958E+02 -0.12841300554E+02  0.28830841584E+02  0.51100000000E-03 0. -1.
        -11    1    3    3    0    0 -0.64015224710E+00 -0.94120384458E+01  0.18221572446E+02  0.20518819782E+02  0.51100000000E-03 0.  1.
         12    1    3    3    0    0  0.16161602368E+02  0.70426486261E+01 -0.14945447828E+02  0.23111960141E+02  0.00000000000E+00 0. -1.
</event>
<event>
 7    1  0.1358622E-013  0.7246159E+02  0.7816164E-02  0.1226708E+00
        -11   -1    0    0    0    0  0.00000000000E+00  0.00000000000E+00  0.45593999997E+02  0.45594000000E+02  0.51100000000E-03 0.  1.
         11   -1    0    0    0    0 -0.00000000000E+00 -0.00000000000E+00 -0.45593999997E+02  0.45594000000E+02  0.51100000000E-03 0. -1.
    9900012    2    1    2    0    0  0.14369635819E+02  0.57850458223E+00 -0.11994048285E+02  0.72461593634E+02  0.70000030405E+02 0.  0.
        -12    1    1    2    0    0 -0.14369635819E+02 -0.57850458223E+00  0.11994048285E+02  0.18726406366E+02  0.00000000000E+00 0.  1.
         11    1    3    3    0    0  0.37371025533E+01 -0.66363571011E+01 -0.41954801020E+01  0.86953564973E+01  0.51100000000E-03 0. -1.
        -11    1    3    3    0    0  0.17898427971E+02 -0.24688842156E+02 -0.52900423932E+01  0.30949591267E+02  0.51100000000E-03 0.  1.
         12    1    3    3    0    0 -0.72658947055E+01  0.31903703839E+02 -0.25085257895E+01  0.32816645870E+02  0.00000000000E+00 0. -1.
</event>
<event>
 7    1  0.1358622E-013  0.7246159E+02  0.7816164E-02  0.1226708E+00
        -11   -1    0    0    0    0  0.00000000000E+00  0.00000000000E+00  0.45593999997E+02  0.45594000000E+02  0.51100000000E-03 0. -1.
         11   -1    0    0    0    0 -0.00000000000E+00 -0.00000000000E+00 -0.45593999997E+02  0.45594000000E+02  0.51100000000E-03 0.  1.
    9900012    2    1    2    0    0  0.11984297604E+02  0.54167554807E+01  0.13330937855E+02  0.72461587287E+02  0.70000022136E+02 0.  0.
        -12    1    1    2    0    0 -0.11984297604E+02 -0.54167554807E+01 -0.13330937855E+02  0.18726412713E+02  0.00000000000E+00 0.  1.
         11    1    3    3    0    0  0.17989358037E+02 -0.50751218146E+01  0.11820720584E+02  0.22115679944E+02  0.51100000000E-03 0. -1.
        -11    1    3    3    0    0  0.20050013456E+02  0.17270966610E+01 -0.74098904643E+01  0.21445101525E+02  0.51100000000E-03 0.  1.
        -12    1    3    3    0    0 -0.26055073888E+02  0.87647806344E+01  0.89201077359E+01  0.28900805818E+02  0.00000000000E+00 0.  1.
</event>
<event>
 7    1  0.1358622E-013  0.7246125E+02  0.7816164E-02  0.1226709E+00
        -11   -1    0    0    0    0  0.00000000000E+00  0.00000000000E+00  0.45593999997E+02  0.45594000000E+02  0.51100000000E-03 0.  1.
         11   -1    0    0    0    0 -0.00000000000E+00 -0.00000000000E+00 -0.45593999997E+02  0.45594000000E+02  0.51100000000E-03 0. -1.
    9900012    2    1    2    0    0  0.13589517056E+02 -0.35493902763E+01 -0.12386205486E+02  0.72461248240E+02  0.69999580463E+02 0.  0.
        -12    1    1    2    0    0 -0.13589517056E+02  0.35493902763E+01  0.12386205486E+02  0.18726751760E+02  0.00000000000E+00 0.  1.
         11    1    3    3    0    0 -0.19848453517E+02  0.88300961032E+01 -0.17719804538E+02  0.28034321417E+02  0.51100000000E-03 0. -1.
        -11    1    3    3    0    0 -0.25313511552E+01  0.23308831184E+01  0.43590757813E+01  0.55535841320E+01  0.51100000000E-03 0.  1.
        -12    1    3    3    0    0  0.35969321728E+02 -0.14710369498E+02  0.97452327078E+00  0.38873342691E+02  0.00000000000E+00 0.  1.
</event>
<event>
 7    1  0.1358622E-013  0.7246166E+02  0.7816164E-02  0.1226708E+00
        -11   -1    0    0    0    0  0.00000000000E+00  0.00000000000E+00  0.45593999997E+02  0.45594000000E+02  0.51100000000E-03 0.  1.
         11   -1    0    0    0    0 -0.00000000000E+00 -0.00000000000E+00 -0.45593999997E+02  0.45594000000E+02  0.51100000000E-03 0. -1.
    9900012    2    1    2    0    0  0.14316893435E+02 -0.11493469336E+02 -0.36881810822E+01  0.72461656131E+02  0.70000111818E+02 0.  0.
        -12    1    1    2    0    0 -0.14316893435E+02  0.11493469336E+02  0.36881810822E+01  0.18726343869E+02  0.00000000000E+00 0.  1.
         11    1    3    3    0    0  0.12717242673E+01 -0.32589555115E+02  0.40841023307E+01  0.32869077829E+02  0.51100000000E-03 0. -1.
        -11    1    3    3    0    0 -0.87223388400E+01  0.10425430396E+02 -0.71125174378E+01  0.15341339522E+02  0.51100000000E-03 0.  1.
        -12    1    3    3    0    0  0.21767508008E+02  0.10670655384E+02 -0.65976597509E+00  0.24251238779E+02  0.00000000000E+00 0.  1.
</event>
<event>
 7    1  0.1358622E-013  0.7246156E+02  0.7816164E-02  0.1226708E+00
        -11   -1    0    0    0    0  0.00000000000E+00  0.00000000000E+00  0.45593999997E+02  0.45594000000E+02  0.51100000000E-03 0.  1.
         11   -1    0    0    0    0 -0.00000000000E+00 -0.00000000000E+00 -0.45593999997E+02  0.45594000000E+02  0.51100000000E-03 0. -1.
    9900012    2    1    2    0    0  0.65762255204E+01 -0.12323562814E+02 -0.12472466995E+02  0.72461564795E+02  0.69999992837E+02 0.  0.
        -12    1    1    2    0    0 -0.65762255204E+01  0.12323562814E+02  0.12472466995E+02  0.18726435205E+02  0.00000000000E+00 0.  1.
         11    1    3    3    0    0 -0.59077769420E+00  0.18358934112E+02 -0.96888323533E+01  0.20767112284E+02  0.51100000000E-03 0. -1.
        -11    1    3    3    0    0  0.19621944247E+02 -0.62120900634E+01 -0.10592919500E+02  0.23147801252E+02  0.51100000000E-03 0.  1.
        -12    1    3    3    0    0 -0.12454941033E+02 -0.24470406862E+02  0.78092848582E+01  0.28546651259E+02  0.00000000000E+00 0.  1.
</event>
<event>
 7    1  0.1358622E-013  0.7246158E+02  0.7816164E-02  0.1226708E+00
        -11   -1    0    0    0    0  0.00000000000E+00  0.00000000000E+00  0.45593999997E+02  0.45594000000E+02  0.51100000000E-03 0.  1.
         11   -1    0    0    0    0 -0.00000000000E+00 -0.00000000000E+00 -0.45593999997E+02  0.45594000000E+02  0.51100000000E-03 0. -1.
    9900012    2    1    2    0    0  0.83517003337E+01 -0.28247705027E+01 -0.16521160057E+02  0.72461575983E+02  0.70000007410E+02 0.  0.
        -12    1    1    2    0    0 -0.83517003337E+01  0.28247705027E+01  0.16521160057E+02  0.18726424017E+02  0.00000000000E+00 0.  1.
         11    1    3    3    0    0 -0.77867261703E+01 -0.19078022936E+02  0.47805549280E+01  0.21153197614E+02  0.51100000000E-03 0.  1.
        -11    1    3    3    0    0  0.10619011276E+02 -0.10842181072E+02 -0.17869504520E+02  0.23444305981E+02  0.51100000000E-03 0. -1.
        -12    1    3    3    0    0  0.55194152278E+01  0.27095433506E+02 -0.34322104650E+01  0.27864072387E+02  0.00000000000E+00 0.  1.
</event>
<event>
 7    1  0.1358622E-013  0.7246159E+02  0.7816164E-02  0.1226708E+00
        -11   -1    0    0    0    0  0.00000000000E+00  0.00000000000E+00  0.45593999997E+02  0.45594000000E+02  0.51100000000E-03 0.  1.
         11   -1    0    0    0    0 -0.00000000000E+00 -0.00000000000E+00 -0.45593999997E+02  0.45594000000E+02  0.51100000000E-03 0. -1.
    9900012    2    1    2    0    0 -0.60725603299E+01  0.10307181981E+02 -0.14407095285E+02  0.72461591271E+02  0.70000027326E+02 0.  0.
        -12    1    1    2    0    0  0.60725603299E+01 -0.10307181981E+02  0.14407095285E+02  0.18726408729E+02  0.00000000000E+00 0.  1.
         11    1    3    3    0    0 -0.54648808681E+01 -0.85945821479E+01 -0.23346885495E+01  0.10449044745E+02  0.51100000000E-03 0. -1.
        -11    1    3    3    0    0 -0.28846685342E+02  0.14305008169E+02 -0.71145893744E+01  0.32975474162E+02  0.51100000000E-03 0.  1.
         12    1    3    3    0    0  0.28239005881E+02  0.45967559596E+01 -0.49578173614E+01  0.29037072364E+02  0.00000000000E+00 0. -1.
</event>
<event>
 7    1  0.1358622E-013  0.7246156E+02  0.7816164E-02  0.1226708E+00
        -11   -1    0    0    0    0  0.00000000000E+00  0.00000000000E+00  0.45593999997E+02  0.45594000000E+02  0.51100000000E-03 0.  1.
         11   -1    0    0    0    0 -0.00000000000E+00 -0.00000000000E+00 -0.45593999997E+02  0.45594000000E+02  0.51100000000E-03 0. -1.
    9900012    2    1    2    0    0 -0.17511141919E+02  0.52551970907E+01  0.40524443021E+01  0.72461561669E+02  0.69999988763E+02 0.  0.
        -12    1    1    2    0    0  0.17511141919E+02 -0.52551970907E+01 -0.40524443021E+01  0.18726438331E+02  0.00000000000E+00 0.  1.
         11    1    3    3    0    0 -0.67701774361E+01 -0.17723246117E+00 -0.26973406172E+02  0.27810633841E+02  0.51100000000E-03 0. -1.
        -11    1    3    3    0    0 -0.18092843325E+01 -0.12199840413E+02  0.12519528951E+02  0.17574078107E+02  0.51100000000E-03 0.  1.
        -12    1    3    3    0    0 -0.89316801500E+01  0.17632269965E+02  0.18506321524E+02  0.27076849720E+02  0.00000000000E+00 0.  1.
</event>
<event>
 7    1  0.1358622E-013  0.7246118E+02  0.7816164E-02  0.1226709E+00
        -11   -1    0    0    0    0  0.00000000000E+00  0.00000000000E+00  0.45593999997E+02  0.45594000000E+02  0.51100000000E-03 0.  1.
         11   -1    0    0    0    0 -0.00000000000E+00 -0.00000000000E+00 -0.45593999997E+02  0.45594000000E+02  0.51100000000E-03 0. -1.
    9900012    2    1    2    0    0 -0.63874969946E+01 -0.11418723872E+02 -0.13398001271E+02  0.72461179373E+02  0.69999490751E+02 0.  0.
        -12    1    1    2    0    0  0.63874969946E+01  0.11418723872E+02  0.13398001271E+02  0.18726820627E+02  0.00000000000E+00 0.  1.
         11    1    3    3    0    0  0.10016344957E+02  0.40302557022E+01 -0.83998698558E+01  0.13679471524E+02  0.51100000000E-03 0. -1.
        -11    1    3    3    0    0 -0.84754292778E+01 -0.28729845719E+02 -0.20956995647E+02  0.36557251036E+02  0.51100000000E-03 0.  1.
         12    1    3    3    0    0 -0.79284126742E+01  0.13280866144E+02  0.15958864231E+02  0.22224456813E+02  0.00000000000E+00 0. -1.
</event>
<event>
 7    1  0.1358622E-013  0.7246184E+02  0.7816164E-02  0.1226707E+00
        -11   -1    0    0    0    0  0.00000000000E+00  0.00000000000E+00  0.45593999997E+02  0.45594000000E+02  0.51100000000E-03 0.  1.
         11   -1    0    0    0    0 -0.00000000000E+00 -0.00000000000E+00 -0.45593999997E+02  0.45594000000E+02  0.51100000000E-03 0. -1.
    9900012    2    1    2    0    0 -0.17988553654E+02  0.35139511283E+01 -0.38383995433E+01  0.72461835786E+02  0.70000345852E+02 0.  0.
        -12    1    1    2    0    0  0.17988553654E+02 -0.35139511283E+01  0.38383995433E+01  0.18726164214E+02  0.00000000000E+00 0.  1.
         11    1    3    3    0    0  0.76912477481E+01 -0.16047416384E+02 -0.38567428041E+01  0.18208496090E+02  0.51100000000E-03 0. -1.
        -11    1    3    3    0    0 -0.71751978440E+01  0.55911609492E+01  0.21061540501E+02  0.22941949207E+02  0.51100000000E-03 0.  1.
        -12    1    3    3    0    0 -0.18504603559E+02  0.13970206563E+02 -0.21043197240E+02  0.31311390489E+02  0.00000000000E+00 0.  1.
</event>
<event>
 7    1  0.1435463E-013  0.7246160E+02  0.7816164E-02  0.1226708E+00
        -11   -1    0    0    0    0  0.00000000000E+00  0.00000000000E+00  0.45593999997E+02  0.45594000000E+02  0.51100000000E-03 0.  1.
         11   -1    0    0    0    0 -0.00000000000E+00 -0.00000000000E+00 -0.45593999997E+02  0.45594000000E+02  0.51100000000E-03 0. -1.
    9900012    2    1    2    0    0  0.16291104662E+02  0.27365291734E+01 -0.88198338393E+01  0.72461597463E+02  0.70000035393E+02 0.  0.
        -12    1    1    2    0    0 -0.16291104662E+02 -0.27365291734E+01  0.88198338393E+01  0.18726402537E+02  0.00000000000E+00 0.  1.
         11    1    3    3    0    0  0.33992098292E+02  0.19068062526E+01 -0.14421158954E+02  0.36973889195E+02  0.51100000000E-03 0. -1.
        -11    1    3    3    0    0 -0.34501348249E-01  0.19007653718E+00 -0.11139309664E+02  0.11140984673E+02  0.51100000000E-03 0.  1.
        -12    1    3    3    0    0 -0.17666492282E+02  0.63964638357E+00  0.16740634779E+02  0.24346723595E+02  0.00000000000E+00 0.  1.
</event>
<event>
 7    1  0.1358622E-013  0.7246156E+02  0.7816164E-02  0.1226708E+00
        -11   -1    0    0    0    0  0.00000000000E+00  0.00000000000E+00  0.45593999997E+02  0.45594000000E+02  0.51100000000E-03 0.  1.
         11   -1    0    0    0    0 -0.00000000000E+00 -0.00000000000E+00 -0.45593999997E+02  0.45594000000E+02  0.51100000000E-03 0. -1.
    9900012    2    1    2    0    0 -0.11299088902E+02  0.10530275207E+02  0.10588834010E+02  0.72461561160E+02  0.69999988100E+02 0.  0.
        -12    1    1    2    0    0  0.11299088902E+02 -0.10530275207E+02 -0.10588834010E+02  0.18726438840E+02  0.00000000000E+00 0.  1.
         11    1    3    3    0    0 -0.23361553282E+01  0.91943406103E+01  0.12182419661E+02  0.15440364958E+02  0.51100000000E-03 0. -1.
        -11    1    3    3    0    0 -0.27612544707E+02  0.17128717943E+02 -0.22779864444E+01  0.32573529530E+02  0.51100000000E-03 0.  1.
         12    1    3    3    0    0  0.18649611133E+02 -0.15792783346E+02  0.68440079337E+00  0.24447666672E+02  0.00000000000E+00 0. -1.
</event>
<event>
 7    1  0.1358622E-013  0.7246147E+02  0.7816164E-02  0.1226708E+00
        -11   -1    0    0    0    0  0.00000000000E+00  0.00000000000E+00  0.45593999997E+02  0.45594000000E+02  0.51100000000E-03 0. -1.
         11   -1    0    0    0    0 -0.00000000000E+00 -0.00000000000E+00 -0.45593999997E+02  0.45594000000E+02  0.51100000000E-03 0.  1.
    9900012    2    1    2    0    0 -0.41397683695E+01 -0.16024229151E+02  0.87618141798E+01  0.72461468294E+02  0.69999867125E+02 0.  0.
        -12    1    1    2    0    0  0.41397683695E+01  0.16024229151E+02 -0.87618141798E+01  0.18726531706E+02  0.00000000000E+00 0.  1.
         11    1    3    3    0    0  0.81523862902E+01  0.20193562887E+01  0.30832421873E+02  0.31955867081E+02  0.51100000000E-03 0. -1.
        -11    1    3    3    0    0 -0.87527252556E+01 -0.40827682171E+01  0.42111246825E+01  0.10536259634E+02  0.51100000000E-03 0.  1.
        -12    1    3    3    0    0 -0.35394294041E+01 -0.13960817222E+02 -0.26281732376E+02  0.29969341579E+02  0.00000000000E+00 0.  1.
</event>
<event>
 7    1  0.1358622E-013  0.7246158E+02  0.7816164E-02  0.1226708E+00
        -11   -1    0    0    0    0  0.00000000000E+00  0.00000000000E+00  0.45593999997E+02  0.45594000000E+02  0.51100000000E-03 0.  1.
         11   -1    0    0    0    0 -0.00000000000E+00 -0.00000000000E+00 -0.45593999997E+02  0.45594000000E+02  0.51100000000E-03 0. -1.
    9900012    2    1    2    0    0  0.12390229110E+02 -0.51983554525E+01 -0.13043707091E+02  0.72461575582E+02  0.70000006888E+02 0.  0.
        -12    1    1    2    0    0 -0.12390229110E+02  0.51983554525E+01  0.13043707091E+02  0.18726424418E+02  0.00000000000E+00 0.  1.
         11    1    3    3    0    0  0.19315652203E-01  0.19967992978E+01  0.42891343228E+00  0.20424366633E+01  0.51100000000E-03 0. -1.
        -11    1    3    3    0    0  0.16051915178E+02  0.35084450661E+01  0.25222633733E+02  0.30102398914E+02  0.51100000000E-03 0.  1.
         12    1    3    3    0    0 -0.36810017197E+01 -0.10703599816E+02 -0.38695254256E+02  0.40316740005E+02  0.00000000000E+00 0. -1.
</event>
<event>
 7    1  0.1358622E-013  0.7246160E+02  0.7816164E-02  0.1226708E+00
        -11   -1    0    0    0    0  0.00000000000E+00  0.00000000000E+00  0.45593999997E+02  0.45594000000E+02  0.51100000000E-03 0.  1.
         11   -1    0    0    0    0 -0.00000000000E+00 -0.00000000000E+00 -0.45593999997E+02  0.45594000000E+02  0.51100000000E-03 0. -1.
    9900012    2    1    2    0    0  0.17542494930E+02  0.57438590539E+01  0.31538892913E+01  0.72461599842E+02  0.70000038492E+02 0.  0.
        -12    1    1    2    0    0 -0.17542494930E+02 -0.57438590539E+01 -0.31538892913E+01  0.18726400158E+02  0.00000000000E+00 0.  1.
         11    1    3    3    0    0  0.27422260397E+02  0.47739676879E+01 -0.19627063969E+02  0.34058666637E+02  0.51100000000E-03 0. -1.
        -11    1    3    3    0    0 -0.34827901581E+01 -0.31371785471E+00 -0.70485062703E+01  0.78682709080E+01  0.51100000000E-03 0.  1.
        -12    1    3    3    0    0 -0.63969753088E+01  0.12836092207E+01  0.29829459531E+02  0.30534662298E+02  0.00000000000E+00 0.  1.
</event>
<event>
 7    1  0.1358622E-013  0.7246160E+02  0.7816164E-02  0.1226708E+00
        -11   -1    0    0    0    0  0.00000000000E+00  0.00000000000E+00  0.45593999997E+02  0.45594000000E+02  0.51100000000E-03 0.  1.
         11   -1    0    0    0    0 -0.00000000000E+00 -0.00000000000E+00 -0.45593999997E+02  0.45594000000E+02  0.51100000000E-03 0. -1.
    9900012    2    1    2    0    0  0.94167139079E+00 -0.17728495713E+02  0.59574848306E+01  0.72461603370E+02  0.70000043087E+02 0.  0.
        -12    1    1    2    0    0 -0.94167139079E+00  0.17728495713E+02 -0.59574848306E+01  0.18726396630E+02  0.00000000000E+00 0.  1.
         11    1    3    3    0    0 -0.21594490370E+02 -0.17237268148E+02 -0.90262032289E+01  0.29067469318E+02  0.51100000000E-03 0. -1.
        -11    1    3    3    0    0 -0.49129496341E+01 -0.93261409826E+01 -0.70872450441E+00  0.10564860170E+02  0.51100000000E-03 0.  1.
        -12    1    3    3    0    0  0.27449111395E+02  0.88349134182E+01  0.15692412564E+02  0.32829273881E+02  0.00000000000E+00 0.  1.
</event>
<event>
 7    1  0.1358622E-013  0.7246141E+02  0.7816164E-02  0.1226708E+00
        -11   -1    0    0    0    0  0.00000000000E+00  0.00000000000E+00  0.45593999997E+02  0.45594000000E+02  0.51100000000E-03 0.  1.
         11   -1    0    0    0    0 -0.00000000000E+00 -0.00000000000E+00 -0.45593999997E+02  0.45594000000E+02  0.51100000000E-03 0. -1.
    9900012    2    1    2    0    0  0.14547425006E+02  0.31466794879E+01  0.11364679008E+02  0.72461412081E+02  0.69999793898E+02 0.  0.
        -12    1    1    2    0    0 -0.14547425006E+02 -0.31466794879E+01 -0.11364679008E+02  0.18726587919E+02  0.00000000000E+00 0.  1.
         11    1    3    3    0    0  0.71498619758E+01  0.22038480715E+01 -0.29372140914E+01  0.80377048636E+01  0.51100000000E-03 0. -1.
        -11    1    3    3    0    0  0.31955372344E+02 -0.12511193306E+02  0.11888342057E+02  0.36318156020E+02  0.51100000000E-03 0.  1.
         12    1    3    3    0    0 -0.24557809313E+02  0.13454024722E+02  0.24135510425E+01  0.28105551198E+02  0.00000000000E+00 0. -1.
</event>
<event>
 7    1  0.1358622E-013  0.7246162E+02  0.7816164E-02  0.1226708E+00
        -11   -1    0    0    0    0  0.00000000000E+00  0.00000000000E+00  0.45593999997E+02  0.45594000000E+02  0.51100000000E-03 0. -1.
         11   -1    0    0    0    0 -0.00000000000E+00 -0.00000000000E+00 -0.45593999997E+02  0.45594000000E+02  0.51100000000E-03 0.  1.
    9900012    2    1    2    0    0  0.12522068444E+01  0.18682561242E+02  0.26702387101E+00  0.72461617053E+02  0.70000060911E+02 0.  0.
        -12    1    1    2    0    0 -0.12522068444E+01 -0.18682561242E+02 -0.26702387101E+00  0.18726382947E+02  0.00000000000E+00 0.  1.
         11    1    3    3    0    0 -0.74101434046E+01 -0.20140543328E+02  0.35357795213E+01  0.21749791905E+02  0.51100000000E-03 0. -1.
        -11    1    3    3    0    0  0.59951610781E+01  0.13129683658E+02 -0.16306248026E+02  0.21776691077E+02  0.51100000000E-03 0.  1.
        -12    1    3    3    0    0  0.26671891710E+01  0.25693420912E+02  0.13037492376E+02  0.28935134071E+02  0.00000000000E+00 0.  1.
</event>
<event>
 7    1  0.1358622E-013  0.7246158E+02  0.7816164E-02  0.1226708E+00
        -11   -1    0    0    0    0  0.00000000000E+00  0.00000000000E+00  0.45593999997E+02  0.45594000000E+02  0.51100000000E-03 0.  1.
         11   -1    0    0    0    0 -0.00000000000E+00 -0.00000000000E+00 -0.45593999997E+02  0.45594000000E+02  0.51100000000E-03 0. -1.
    9900012    2    1    2    0    0  0.11081112857E+02  0.64499575245E+01 -0.13648658538E+02  0.72461577648E+02  0.70000009579E+02 0.  0.
        -12    1    1    2    0    0 -0.11081112857E+02 -0.64499575245E+01  0.13648658538E+02  0.18726422352E+02  0.00000000000E+00 0.  1.
         11    1    3    3    0    0  0.16778635292E+02  0.91161950289E+01  0.22415437040E+01  0.19226339550E+02  0.51100000000E-03 0. -1.
        -11    1    3    3    0    0  0.80194564681E+01 -0.22556149526E+02  0.66126707907E+00  0.23948462120E+02  0.51100000000E-03 0.  1.
         12    1    3    3    0    0 -0.13716978903E+02  0.19889912022E+02 -0.16551469322E+02  0.29286775978E+02  0.00000000000E+00 0. -1.
</event>
<event>
 7    1  0.1358622E-013  0.7246172E+02  0.7816164E-02  0.1226708E+00
        -11   -1    0    0    0    0  0.00000000000E+00  0.00000000000E+00  0.45593999997E+02  0.45594000000E+02  0.51100000000E-03 0. -1.
         11   -1    0    0    0    0 -0.00000000000E+00 -0.00000000000E+00 -0.45593999997E+02  0.45594000000E+02  0.51100000000E-03 0.  1.
    9900012    2    1    2    0    0  0.13819531269E+02  0.12629731396E+02 -0.42892552774E+00  0.72461720691E+02  0.70000195920E+02 0.  0.
        -12    1    1    2    0    0 -0.13819531269E+02 -0.12629731396E+02  0.42892552774E+00  0.18726279309E+02  0.00000000000E+00 0.  1.
         11    1    3    3    0    0  0.13950582372E+02 -0.13126851372E+02  0.15237065598E+02  0.24476542724E+02  0.51100000000E-03 0. -1.
        -11    1    3    3    0    0 -0.14853471083E+02  0.15466678157E+02  0.34890350141E+01  0.21725954571E+02  0.51100000000E-03 0.  1.
        -12    1    3    3    0    0  0.14722419981E+02  0.10289904611E+02 -0.19155026139E+02  0.26259223396E+02  0.00000000000E+00 0.  1.
</event>
<event>
 7    1  0.1358622E-013  0.7246135E+02  0.7816164E-02  0.1226709E+00
        -11   -1    0    0    0    0  0.00000000000E+00  0.00000000000E+00  0.45593999997E+02  0.45594000000E+02  0.51100000000E-03 0. -1.
         11   -1    0    0    0    0 -0.00000000000E+00 -0.00000000000E+00 -0.45593999997E+02  0.45594000000E+02  0.51100000000E-03 0.  1.
    9900012    2    1    2    0    0 -0.91603601438E+01 -0.12491522369E+02  0.10523173722E+02  0.72461347490E+02  0.69999709755E+02 0.  0.
        -12    1    1    2    0    0  0.91603601438E+01  0.12491522369E+02 -0.10523173722E+02  0.18726652510E+02  0.00000000000E+00 0.  1.
         11    1    3    3    0    0  0.85326913018E+01 -0.30653955151E+02  0.58243755965E+01  0.32348031449E+02  0.51100000000E-03 0. -1.
        -11    1    3    3    0    0  0.35218964705E+01  0.53775786610E+01 -0.95695377930E+01  0.11528146461E+02  0.51100000000E-03 0.  1.
         12    1    3    3    0    0 -0.21214947916E+02  0.12784854121E+02  0.14268335919E+02  0.28585169579E+02  0.00000000000E+00 0. -1.
</event>
<event>
 7    1  0.1735508E-013  0.7246173E+02  0.7816164E-02  0.1226708E+00
        -11   -1    0    0    0    0  0.00000000000E+00  0.00000000000E+00  0.45593999997E+02  0.45594000000E+02  0.51100000000E-03 0. -1.
         11   -1    0    0    0    0 -0.00000000000E+00 -0.00000000000E+00 -0.45593999997E+02  0.45594000000E+02  0.51100000000E-03 0.  1.
    9900012    2    1    2    0    0 -0.12260807365E+02 -0.26194029319E+00  0.14151931998E+02  0.72461729969E+02  0.70000208006E+02 0.  0.
        -12    1    1    2    0    0  0.12260807365E+02  0.26194029319E+00 -0.14151931998E+02  0.18726270031E+02  0.00000000000E+00 0.  1.
         11    1    3    3    0    0 -0.18287828473E+02  0.14972448676E+02  0.27591081602E+02  0.36330244616E+02  0.51100000000E-03 0. -1.
        -11    1    3    3    0    0 -0.10932134374E+02 -0.11958291443E+02 -0.76223317574E+01  0.17905648212E+02  0.51100000000E-03 0.  1.
        -12    1    3    3    0    0  0.16959155482E+02 -0.32760975260E+01 -0.58168178467E+01  0.18225837142E+02  0.00000000000E+00 0.  1.
</event>
<event>
 7    1  0.1358622E-013  0.7246158E+02  0.7816164E-02  0.1226708E+00
        -11   -1    0    0    0    0  0.00000000000E+00  0.00000000000E+00  0.45593999997E+02  0.45594000000E+02  0.51100000000E-03 0.  1.
         11   -1    0    0    0    0 -0.00000000000E+00 -0.00000000000E+00 -0.45593999997E+02  0.45594000000E+02  0.51100000000E-03 0. -1.
    9900012    2    1    2    0    0 -0.18301450424E+01 -0.95354284166E+01  0.16012647815E+02  0.72461582404E+02  0.70000015774E+02 0.  0.
        -12    1    1    2    0    0  0.18301450424E+01  0.95354284166E+01 -0.16012647815E+02  0.18726417596E+02  0.00000000000E+00 0.  1.
         11    1    3    3    0    0  0.32659401004E+01  0.89091345805E+01 -0.16023754095E+02  0.18622559955E+02  0.51100000000E-03 0. -1.
        -11    1    3    3    0    0  0.68149762109E+01  0.92717487348E+01  0.15900497718E+02  0.19627405669E+02  0.51100000000E-03 0.  1.
         12    1    3    3    0    0 -0.11911061354E+02 -0.27716311732E+02  0.16135904192E+02  0.34211616780E+02  0.00000000000E+00 0. -1.
</event>
<event>
 7    1  0.1358622E-013  0.7246158E+02  0.7816164E-02  0.1226708E+00
        -11   -1    0    0    0    0  0.00000000000E+00  0.00000000000E+00  0.45593999997E+02  0.45594000000E+02  0.51100000000E-03 0. -1.
         11   -1    0    0    0    0 -0.00000000000E+00 -0.00000000000E+00 -0.45593999997E+02  0.45594000000E+02  0.51100000000E-03 0.  1.
    9900012    2    1    2    0    0  0.14525835526E+02 -0.11799472228E+02  0.67178341511E+00  0.72461581882E+02  0.70000015095E+02 0.  0.
        -12    1    1    2    0    0 -0.14525835526E+02  0.11799472228E+02 -0.67178341511E+00  0.18726418118E+02  0.00000000000E+00 0.  1.
         11    1    3    3    0    0  0.57896634502E+01  0.19435633432E+02 -0.49027593351E+01  0.20863870666E+02  0.51100000000E-03 0. -1.
        -11    1    3    3    0    0  0.19101009118E+02 -0.32389777451E+01 -0.48591410255E+01  0.19973752224E+02  0.51100000000E-03 0.  1.
        -12    1    3    3    0    0 -0.10364837042E+02 -0.27996127916E+02  0.10433683776E+02  0.31623958992E+02  0.00000000000E+00 0.  1.
</event>
<event>
 7    1  0.1358622E-013  0.7246159E+02  0.7816164E-02  0.1226708E+00
        -11   -1    0    0    0    0  0.00000000000E+00  0.00000000000E+00  0.45593999997E+02  0.45594000000E+02  0.51100000000E-03 0. -1.
         11   -1    0    0    0    0 -0.00000000000E+00 -0.00000000000E+00 -0.45593999997E+02  0.45594000000E+02  0.51100000000E-03 0.  1.
    9900012    2    1    2    0    0  0.11339596936E+02  0.14674841993E+02  0.25963266607E+01  0.72461591954E+02  0.70000028215E+02 0.  0.
        -12    1    1    2    0    0 -0.11339596936E+02 -0.14674841993E+02 -0.25963266607E+01  0.18726408046E+02  0.00000000000E+00 0.  1.
         11    1    3    3    0    0  0.14162835259E+02 -0.96347993399E+01 -0.29553054911E+01  0.17382436299E+02  0.51100000000E-03 0. -1.
        -11    1    3    3    0    0  0.74607981752E+01  0.15273985184E+02 -0.19904633859E+02  0.26175419426E+02  0.51100000000E-03 0.  1.
        -12    1    3    3    0    0 -0.10284036498E+02  0.90356561485E+01  0.25456266011E+02  0.28903736228E+02  0.00000000000E+00 0.  1.
</event>
<event>
 7    1  0.1358622E-013  0.7246157E+02  0.7816164E-02  0.1226708E+00
        -11   -1    0    0    0    0  0.00000000000E+00  0.00000000000E+00  0.45593999997E+02  0.45594000000E+02  0.51100000000E-03 0.  1.
         11   -1    0    0    0    0 -0.00000000000E+00 -0.00000000000E+00 -0.45593999997E+02  0.45594000000E+02  0.51100000000E-03 0. -1.
    9900012    2    1    2    0    0 -0.15330930789E+02  0.77056506259E+01 -0.75009777961E+01  0.72461570593E+02  0.70000000389E+02 0.  0.
        -12    1    1    2    0    0  0.15330930789E+02 -0.77056506259E+01  0.75009777961E+01  0.18726429407E+02  0.00000000000E+00 0.  1.
         11    1    3    3    0    0 -0.11923524002E+02 -0.13972459871E+02 -0.11459748182E+02  0.21650078248E+02  0.51100000000E-03 0. -1.
        -11    1    3    3    0    0 -0.41883960132E+01  0.33495950158E+01 -0.19959823716E+02  0.20667777117E+02  0.51100000000E-03 0.  1.
        -12    1    3    3    0    0  0.78098922655E+00  0.18328515481E+02  0.23918594102E+02  0.30143715228E+02  0.00000000000E+00 0.  1.
</event>
<event>
 7    1  0.1358622E-013  0.7246155E+02  0.7816164E-02  0.1226708E+00
        -11   -1    0    0    0    0  0.00000000000E+00  0.00000000000E+00  0.45593999997E+02  0.45594000000E+02  0.51100000000E-03 0. -1.
         11   -1    0    0    0    0 -0.00000000000E+00 -0.00000000000E+00 -0.45593999997E+02  0.45594000000E+02  0.51100000000E-03 0.  1.
    9900012    2    1    2    0    0  0.10225583744E+02 -0.15378929685E+02 -0.30993370221E+01  0.72461549959E+02  0.69999973510E+02 0.  0.
        -12    1    1    2    0    0 -0.10225583744E+02  0.15378929685E+02  0.30993370221E+01  0.18726450041E+02  0.00000000000E+00 0.  1.
         11    1    3    3    0    0 -0.23938725437E+01 -0.90188387316E+00 -0.36269239542E+00  0.25837117314E+01  0.51100000000E-03 0. -1.
        -11    1    3    3    0    0  0.92015757057E+01 -0.14304730453E+01 -0.34306467979E+02  0.35547840920E+02  0.51100000000E-03 0.  1.
         12    1    3    3    0    0  0.34178805817E+01 -0.13046572766E+02  0.31569823353E+02  0.34329997308E+02  0.00000000000E+00 0. -1.
</event>
<event>
 7    1  0.1358622E-013  0.7246157E+02  0.7816164E-02  0.1226708E+00
        -11   -1    0    0    0    0  0.00000000000E+00  0.00000000000E+00  0.45593999997E+02  0.45594000000E+02  0.51100000000E-03 0. -1.
         11   -1    0    0    0    0 -0.00000000000E+00 -0.00000000000E+00 -0.45593999997E+02  0.45594000000E+02  0.51100000000E-03 0.  1.
    9900012    2    1    2    0    0 -0.85833662430E+00  0.17441969539E+02  0.67616587320E+01  0.72461572899E+02  0.70000003393E+02 0.  0.
        -12    1    1    2    0    0  0.85833662430E+00 -0.17441969539E+02 -0.67616587320E+01  0.18726427101E+02  0.00000000000E+00 0.  1.
         11    1    3    3    0    0  0.13325976131E+02 -0.19434259087E+01 -0.69993109927E+01  0.15177249380E+02  0.51100000000E-03 0. -1.
        -11    1    3    3    0    0 -0.18021352534E+02  0.66876150938E+01 -0.15800776386E+02  0.24882883223E+02  0.51100000000E-03 0.  1.
         12    1    3    3    0    0  0.38370397788E+01  0.12697780354E+02  0.29561746111E+02  0.32401440297E+02  0.00000000000E+00 0. -1.
</event>
<event>
 7    1  0.1358622E-013  0.7246157E+02  0.7816164E-02  0.1226708E+00
        -11   -1    0    0    0    0  0.00000000000E+00  0.00000000000E+00  0.45593999997E+02  0.45594000000E+02  0.51100000000E-03 0.  1.
         11   -1    0    0    0    0 -0.00000000000E+00 -0.00000000000E+00 -0.45593999997E+02  0.45594000000E+02  0.51100000000E-03 0. -1.
    9900012    2    1    2    0    0  0.17726741375E+02 -0.56750685183E+01 -0.20579940039E+01  0.72461572103E+02  0.70000002356E+02 0.  0.
        -12    1    1    2    0    0 -0.17726741375E+02  0.56750685183E+01  0.20579940039E+01  0.18726427897E+02  0.00000000000E+00 0.  1.
         11    1    3    3    0    0  0.78716916710E+01  0.15279595482E+02 -0.79895645745E+00  0.17206623711E+02  0.51100000000E-03 0. -1.
        -11    1    3    3    0    0  0.83434517657E+01 -0.56761333427E+01  0.23808835916E+02  0.25859086314E+02  0.51100000000E-03 0.  1.
         12    1    3    3    0    0  0.15115979387E+01 -0.15278530657E+02 -0.25067873462E+02  0.29395862078E+02  0.00000000000E+00 0. -1.
</event>
<event>
 7    1  0.1358622E-013  0.7246154E+02  0.7816164E-02  0.1226708E+00
        -11   -1    0    0    0    0  0.00000000000E+00  0.00000000000E+00  0.45593999997E+02  0.45594000000E+02  0.51100000000E-03 0.  1.
         11   -1    0    0    0    0 -0.00000000000E+00 -0.00000000000E+00 -0.45593999997E+02  0.45594000000E+02  0.51100000000E-03 0. -1.
    9900012    2    1    2    0    0  0.90442718350E+01 -0.77824358559E+01 -0.14433120842E+02  0.72461544433E+02  0.69999966311E+02 0.  0.
        -12    1    1    2    0    0 -0.90442718350E+01  0.77824358559E+01  0.14433120842E+02  0.18726455567E+02  0.00000000000E+00 0.  1.
         11    1    3    3    0    0 -0.61203583302E+01 -0.12612995802E+02  0.18052702159E+02  0.22857088719E+02  0.51100000000E-03 0. -1.
        -11    1    3    3    0    0 -0.56363406034E+01 -0.10159858725E+02 -0.12741831574E+02  0.17243704266E+02  0.51100000000E-03 0.  1.
        -12    1    3    3    0    0  0.20800970769E+02  0.14990418670E+02 -0.19743991427E+02  0.32360751448E+02  0.00000000000E+00 0.  1.
</event>
<event>
 7    1  0.1358622E-013  0.7246155E+02  0.7816164E-02  0.1226708E+00
        -11   -1    0    0    0    0  0.00000000000E+00  0.00000000000E+00  0.45593999997E+02  0.45594000000E+02  0.51100000000E-03 0.  1.
         11   -1    0    0    0    0 -0.00000000000E+00 -0.00000000000E+00 -0.45593999997E+02  0.45594000000E+02  0.51100000000E-03 0. -1.
    9900012    2    1    2    0    0 -0.13691275408E+02  0.12579525668E+02 -0.22325916427E+01  0.72461549355E+02  0.69999972722E+02 0.  0.
        -12    1    1    2    0    0  0.13691275408E+02 -0.12579525668E+02  0.22325916427E+01  0.18726450645E+02  0.00000000000E+00 0.  1.
         11    1    3    3    0    0 -0.52758171363E+01 -0.79545477716E+01 -0.16796644734E+02  0.19319325849E+02  0.51100000000E-03 0. -1.
        -11    1    3    3    0    0 -0.17267510978E+02 -0.62586226609E+01 -0.47218094606E+01  0.18963986338E+02  0.51100000000E-03 0.  1.
         12    1    3    3    0    0  0.88520527067E+01  0.26792696101E+02  0.19285862552E+02  0.34178237167E+02  0.00000000000E+00 0. -1.
</event>
<event>
 7    1  0.1358622E-013  0.7246161E+02  0.7816164E-02  0.1226708E+00
        -11   -1    0    0    0    0  0.00000000000E+00  0.00000000000E+00  0.45593999997E+02  0.45594000000E+02  0.51100000000E-03 0. -1.
         11   -1    0    0    0    0 -0.00000000000E+00 -0.00000000000E+00 -0.45593999997E+02  0.45594000000E+02  0.51100000000E-03 0.  1.
    9900012    2    1    2    0    0  0.15987383788E+02 -0.96883078095E+01 -0.11036734924E+01  0.72461605692E+02  0.70000046113E+02 0.  0.
        -12    1    1    2    0    0 -0.15987383788E+02  0.96883078095E+01  0.11036734924E+01  0.18726394308E+02  0.00000000000E+00 0.  1.
         11    1    3    3    0    0  0.30343486326E+02 -0.13938319664E+02 -0.93963960575E+01  0.34688559737E+02  0.51100000000E-03 0. -1.
        -11    1    3    3    0    0  0.75278100621E+01  0.10634784487E+02  0.73448593570E+01  0.14957056016E+02  0.51100000000E-03 0.  1.
        -12    1    3    3    0    0 -0.21883912601E+02 -0.63847726332E+01  0.94786320816E+00  0.22815989940E+02  0.00000000000E+00 0.  1.
</event>
<event>
 7    1  0.1358622E-013  0.7246157E+02  0.7816164E-02  0.1226708E+00
        -11   -1    0    0    0    0  0.00000000000E+00  0.00000000000E+00  0.45593999997E+02  0.45594000000E+02  0.51100000000E-03 0.  1.
         11   -1    0    0    0    0 -0.00000000000E+00 -0.00000000000E+00 -0.45593999997E+02  0.45594000000E+02  0.51100000000E-03 0. -1.
    9900012    2    1    2    0    0 -0.15088125538E+02  0.37282291989E+01 -0.10446440871E+02  0.72461565420E+02  0.69999993651E+02 0.  0.
        -12    1    1    2    0    0  0.15088125538E+02 -0.37282291989E+01  0.10446440871E+02  0.18726434580E+02  0.00000000000E+00 0.  1.
         11    1    3    3    0    0 -0.41516578581E+01  0.21068587777E+02 -0.13117340213E+02  0.25163192731E+02  0.51100000000E-03 0. -1.
        -11    1    3    3    0    0 -0.51247043459E+01  0.91987159229E+01 -0.12369898900E+02  0.16244795115E+02  0.51100000000E-03 0.  1.
        -12    1    3    3    0    0 -0.58117633336E+01 -0.26539074501E+02  0.15040798242E+02  0.31053577574E+02  0.00000000000E+00 0.  1.
</event>
<event>
 7    1  0.1358622E-013  0.7246164E+02  0.7816164E-02  0.1226708E+00
        -11   -1    0    0    0    0  0.00000000000E+00  0.00000000000E+00  0.45593999997E+02  0.45594000000E+02  0.51100000000E-03 0. -1.
         11   -1    0    0    0    0 -0.00000000000E+00 -0.00000000000E+00 -0.45593999997E+02  0.45594000000E+02  0.51100000000E-03 0.  1.
    9900012    2    1    2    0    0 -0.17732562612E+01 -0.18642194315E+02  0.28019332458E-01  0.72461638054E+02  0.70000088270E+02 0.  0.
        -12    1    1    2    0    0  0.17732562612E+01  0.18642194315E+02 -0.28019332458E-01  0.18726361946E+02  0.00000000000E+00 0.  1.
         11    1    3    3    0    0  0.11427235796E+02 -0.55221131940E+01  0.17869800652E+02  0.21918148363E+02  0.51100000000E-03 0. -1.
        -11    1    3    3    0    0  0.39941579062E+00 -0.33355281847E+01  0.14089146659E+02  0.14484106292E+02  0.51100000000E-03 0.  1.
        -12    1    3    3    0    0 -0.13599907848E+02 -0.97845529364E+01 -0.31930927978E+02  0.36059383399E+02  0.00000000000E+00 0.  1.
</event>
<event>
 7    1  0.1358622E-013  0.7246148E+02  0.7816164E-02  0.1226708E+00
        -11   -1    0    0    0    0  0.00000000000E+00  0.00000000000E+00  0.45593999997E+02  0.45594000000E+02  0.51100000000E-03 0. -1.
         11   -1    0    0    0    0 -0.00000000000E+00 -0.00000000000E+00 -0.45593999997E+02  0.45594000000E+02  0.51100000000E-03 0.  1.
    9900012    2    1    2    0    0 -0.14988146785E+02 -0.10075959983E+02 -0.49510498366E+01  0.72461483824E+02  0.69999887356E+02 0.  0.
        -12    1    1    2    0    0  0.14988146785E+02  0.10075959983E+02  0.49510498366E+01  0.18726516176E+02  0.00000000000E+00 0.  1.
         11    1    3    3    0    0  0.95953225822E+01 -0.85061008767E+01  0.17408944845E+02  0.21621640281E+02  0.51100000000E-03 0. -1.
        -11    1    3    3    0    0  0.14233983071E+01 -0.57457271900E+01 -0.23736941251E+02  0.24463888160E+02  0.51100000000E-03 0.  1.
         12    1    3    3    0    0 -0.26006867674E+02  0.41758680838E+01  0.13769465699E+01  0.26375955382E+02  0.00000000000E+00 0. -1.
</event>
<event>
 7    1  0.1358622E-013  0.7246143E+02  0.7816164E-02  0.1226708E+00
        -11   -1    0    0    0    0  0.00000000000E+00  0.00000000000E+00  0.45593999997E+02  0.45594000000E+02  0.51100000000E-03 0. -1.
         11   -1    0    0    0    0 -0.00000000000E+00 -0.00000000000E+00 -0.45593999997E+02  0.45594000000E+02  0.51100000000E-03 0.  1.
    9900012    2    1    2    0    0 -0.13835947673E+01  0.16644979134E+02 -0.84684543865E+01  0.72461431052E+02  0.69999818611E+02 0.  0.
        -12    1    1    2    0    0  0.13835947673E+01 -0.16644979134E+02  0.84684543865E+01  0.18726568948E+02  0.00000000000E+00 0.  1.
         11    1    3    3    0    0 -0.13126416279E+02 -0.14686356111E+01 -0.44149376716E+01  0.13926642445E+02  0.51100000000E-03 0. -1.
        -11    1    3    3    0    0 -0.11650508653E+02 -0.10333338111E+02 -0.13391736483E+02  0.20539007637E+02  0.51100000000E-03 0.  1.
        -12    1    3    3    0    0  0.23393330166E+02  0.28446952857E+02  0.93382197685E+01  0.37995780970E+02  0.00000000000E+00 0.  1.
</event>
<event>
 7    1  0.1358622E-013  0.7246159E+02  0.7816164E-02  0.1226708E+00
        -11   -1    0    0    0    0  0.00000000000E+00  0.00000000000E+00  0.45593999997E+02  0.45594000000E+02  0.51100000000E-03 0. -1.
         11   -1    0    0    0    0 -0.00000000000E+00 -0.00000000000E+00 -0.45593999997E+02  0.45594000000E+02  0.51100000000E-03 0.  1.
    9900012    2    1    2    0    0 -0.97721055619E+01 -0.12623163787E+01  0.15924538526E+02  0.72461590386E+02  0.70000026174E+02 0.  0.
        -12    1    1    2    0    0  0.97721055619E+01  0.12623163787E+01 -0.15924538526E+02  0.18726409614E+02  0.00000000000E+00 0.  1.
         11    1    3    3    0    0 -0.83080318068E+01  0.18584414567E+02  0.99618855336E+01  0.22663693895E+02  0.51100000000E-03 0. -1.
        -11    1    3    3    0    0 -0.22155919439E+01  0.13355472686E+02  0.92929792353E+01  0.16420626105E+02  0.51100000000E-03 0.  1.
         12    1    3    3    0    0  0.75151818886E+00 -0.33202203632E+02 -0.33303262431E+01  0.33377270387E+02  0.00000000000E+00 0. -1.
</event>
<event>
 7    1  0.1358622E-013  0.7246157E+02  0.7816164E-02  0.1226708E+00
        -11   -1    0    0    0    0  0.00000000000E+00  0.00000000000E+00  0.45593999997E+02  0.45594000000E+02  0.51100000000E-03 0. -1.
         11   -1    0    0    0    0 -0.00000000000E+00 -0.00000000000E+00 -0.45593999997E+02  0.45594000000E+02  0.51100000000E-03 0.  1.
    9900012    2    1    2    0    0  0.17184870782E+02 -0.55578500558E+01  0.49466823511E+01  0.72461570887E+02  0.70000000772E+02 0.  0.
        -12    1    1    2    0    0 -0.17184870782E+02  0.55578500558E+01 -0.49466823511E+01  0.18726429113E+02  0.00000000000E+00 0.  1.
         11    1    3    3    0    0  0.13095035740E+02 -0.31761601208E+01 -0.12450091276E+00  0.13475290531E+02  0.51100000000E-03 0. -1.
        -11    1    3    3    0    0  0.30020167616E+01  0.12931662677E+02 -0.23249228119E+02  0.26772497317E+02  0.51100000000E-03 0.  1.
         12    1    3    3    0    0  0.10878182809E+01 -0.15313352612E+02  0.28320411382E+02  0.32213783039E+02  0.00000000000E+00 0. -1.
</event>
<event>
 7    1  0.1358622E-013  0.7246167E+02  0.7816164E-02  0.1226708E+00
        -11   -1    0    0    0    0  0.00000000000E+00  0.00000000000E+00  0.45593999997E+02  0.45594000000E+02  0.51100000000E-03 0.  1.
         11   -1    0    0    0    0 -0.00000000000E+00 -0.00000000000E+00 -0.45593999997E+02  0.45594000000E+02  0.51100000000E-03 0. -1.
    9900012    2    1    2    0    0 -0.69097311161E+01  0.11045367836E+02 -0.13451054045E+02  0.72461671218E+02  0.70000131472E+02 0.  0.
        -12    1    1    2    0    0  0.69097311161E+01 -0.11045367836E+02  0.13451054045E+02  0.18726328782E+02  0.00000000000E+00 0.  1.
         11    1    3    3    0    0  0.18919812247E+02  0.74198375841E+01 -0.75208729778E+01  0.21669721176E+02  0.51100000000E-03 0. -1.
        -11    1    3    3    0    0  0.15839875227E+01 -0.80050688661E+01 -0.17131870944E+02  0.18976067726E+02  0.51100000000E-03 0.  1.
        -12    1    3    3    0    0 -0.27413530885E+02  0.11630599118E+02  0.11201689877E+02  0.31815882316E+02  0.00000000000E+00 0.  1.
</event>
<event>
 7    1  0.1358622E-013  0.7246155E+02  0.7816164E-02  0.1226708E+00
        -11   -1    0    0    0    0  0.00000000000E+00  0.00000000000E+00  0.45593999997E+02  0.45594000000E+02  0.51100000000E-03 0.  1.
         11   -1    0    0    0    0 -0.00000000000E+00 -0.00000000000E+00 -0.45593999997E+02  0.45594000000E+02  0.51100000000E-03 0. -1.
    9900012    2    1    2    0    0 -0.14219028578E+02 -0.10669432022E+02  0.58874883910E+01  0.72461546173E+02  0.69999968577E+02 0.  0.
        -12    1    1    2    0    0  0.14219028578E+02  0.10669432022E+02 -0.58874883910E+01  0.18726453827E+02  0.00000000000E+00 0.  1.
         11    1    3    3    0    0  0.25415723705E+01 -0.14887754840E+01  0.93407463245E+01  0.97941607459E+01  0.51100000000E-03 0. -1.
        -11    1    3    3    0    0  0.34164370661E+01 -0.10242915244E+02  0.25309861852E+02  0.27516875952E+02  0.51100000000E-03 0.  1.
         12    1    3    3    0    0 -0.20177038015E+02  0.10622587059E+01 -0.28763119785E+02  0.35150509476E+02  0.00000000000E+00 0. -1.
</event>
<event>
 7    1  0.1358622E-013  0.7246163E+02  0.7816164E-02  0.1226708E+00
        -11   -1    0    0    0    0  0.00000000000E+00  0.00000000000E+00  0.45593999997E+02  0.45594000000E+02  0.51100000000E-03 0. -1.
         11   -1    0    0    0    0 -0.00000000000E+00 -0.00000000000E+00 -0.45593999997E+02  0.45594000000E+02  0.51100000000E-03 0.  1.
    9900012    2    1    2    0    0  0.92935652726E+01  0.27499728715E+01  0.16023238833E+02  0.72461631186E+02  0.70000079323E+02 0.  0.
        -12    1    1    2    0    0 -0.92935652726E+01 -0.27499728715E+01 -0.16023238833E+02  0.18726368814E+02  0.00000000000E+00 0.  1.
         11    1    3    3    0    0 -0.18661245884E+02 -0.17572567357E+02  0.74687781666E+01  0.26698686654E+02  0.51100000000E-03 0. -1.
        -11    1    3    3    0    0 -0.56792629055E+01  0.46792225994E+01 -0.10818725643E+01  0.74377146887E+01  0.51100000000E-03 0.  1.
        -12    1    3    3    0    0  0.33634074062E+02  0.15643317629E+02  0.96363332301E+01  0.38325229844E+02  0.00000000000E+00 0.  1.
</event>
<event>
 7    1  0.1358622E-013  0.7246148E+02  0.7816164E-02  0.1226708E+00
        -11   -1    0    0    0    0  0.00000000000E+00  0.00000000000E+00  0.45593999997E+02  0.45594000000E+02  0.51100000000E-03 0.  1.
         11   -1    0    0    0    0 -0.00000000000E+00 -0.00000000000E+00 -0.45593999997E+02  0.45594000000E+02  0.51100000000E-03 0. -1.
    9900012    2    1    2    0    0  0.83940968383E+00 -0.10192465894E+02 -0.15687310639E+02  0.72461476439E+02  0.69999877735E+02 0.  0.
        -12    1    1    2    0    0 -0.83940968383E+00  0.10192465894E+02  0.15687310639E+02  0.18726523561E+02  0.00000000000E+00 0.  1.
         11    1    3    3    0    0 -0.75996280783E+01  0.50472328771E+01  0.13977909078E+02  0.16691640096E+02  0.51100000000E-03 0. -1.
        -11    1    3    3    0    0 -0.52302488156E+01 -0.10881247592E+02  0.86530109015E+01  0.14853674621E+02  0.51100000000E-03 0.  1.
         12    1    3    3    0    0  0.13669286578E+02 -0.43584511785E+01 -0.38318230619E+02  0.40916161721E+02  0.00000000000E+00 0. -1.
</event>
<event>
 7    1  0.1358622E-013  0.7246157E+02  0.7816164E-02  0.1226708E+00
        -11   -1    0    0    0    0  0.00000000000E+00  0.00000000000E+00  0.45593999997E+02  0.45594000000E+02  0.51100000000E-03 0. -1.
         11   -1    0    0    0    0 -0.00000000000E+00 -0.00000000000E+00 -0.45593999997E+02  0.45594000000E+02  0.51100000000E-03 0.  1.
    9900012    2    1    2    0    0  0.18676015197E+02 -0.64400101623E+00 -0.12127294422E+01  0.72461574990E+02  0.70000006117E+02 0.  0.
        -12    1    1    2    0    0 -0.18676015197E+02  0.64400101623E+00  0.12127294422E+01  0.18726425010E+02  0.00000000000E+00 0.  1.
         11    1    3    3    0    0  0.27409141373E+02  0.95823558723E+01 -0.55058143833E+01  0.29553283525E+02  0.51100000000E-03 0. -1.
        -11    1    3    3    0    0 -0.54008339341E+01 -0.10163875532E+02  0.22032937561E+02  0.24858071342E+02  0.51100000000E-03 0.  1.
         12    1    3    3    0    0 -0.33322922411E+01 -0.62481356816E-01 -0.17739852620E+02  0.18050220123E+02  0.00000000000E+00 0. -1.
</event>
<event>
 7    1  0.1358622E-013  0.7246156E+02  0.7816164E-02  0.1226708E+00
        -11   -1    0    0    0    0  0.00000000000E+00  0.00000000000E+00  0.45593999997E+02  0.45594000000E+02  0.51100000000E-03 0. -1.
         11   -1    0    0    0    0 -0.00000000000E+00 -0.00000000000E+00 -0.45593999997E+02  0.45594000000E+02  0.51100000000E-03 0.  1.
    9900012    2    1    2    0    0  0.61535310825E+01 -0.10122786992E+02  0.14503202897E+02  0.72461557317E+02  0.69999983095E+02 0.  0.
        -12    1    1    2    0    0 -0.61535310825E+01  0.10122786992E+02 -0.14503202897E+02  0.18726442683E+02  0.00000000000E+00 0.  1.
         11    1    3    3    0    0 -0.13224051868E+02  0.91638126516E+01  0.29934940894E+01  0.16364963099E+02  0.51100000000E-03 0. -1.
        -11    1    3    3    0    0 -0.18373655256E+00  0.49299490635E+01 -0.14634922597E+02  0.15444064121E+02  0.51100000000E-03 0.  1.
         12    1    3    3    0    0  0.19561319503E+02 -0.24216548707E+02  0.26144631405E+02  0.40652530097E+02  0.00000000000E+00 0. -1.
</event>
<event>
 7    1  0.1358622E-013  0.7246154E+02  0.7816164E-02  0.1226708E+00
        -11   -1    0    0    0    0  0.00000000000E+00  0.00000000000E+00  0.45593999997E+02  0.45594000000E+02  0.51100000000E-03 0. -1.
         11   -1    0    0    0    0 -0.00000000000E+00 -0.00000000000E+00 -0.45593999997E+02  0.45594000000E+02  0.51100000000E-03 0.  1.
    9900012    2    1    2    0    0 -0.10725401328E+02  0.73572477379E+01  0.13472825808E+02  0.72461538424E+02  0.69999958482E+02 0.  0.
        -12    1    1    2    0    0  0.10725401328E+02 -0.73572477379E+01 -0.13472825808E+02  0.18726461576E+02  0.00000000000E+00 0.  1.
         11    1    3    3    0    0 -0.50680513111E+01  0.65757776340E+01  0.15303661917E+02  0.17410573337E+02  0.51100000000E-03 0. -1.
        -11    1    3    3    0    0 -0.24951234105E+02 -0.10397266102E+02  0.11160402360E+02  0.29244175606E+02  0.51100000000E-03 0.  1.
        -12    1    3    3    0    0  0.19293884088E+02  0.11178736206E+02 -0.12991238469E+02  0.25806789481E+02  0.00000000000E+00 0.  1.
</event>
<event>
 7    1  0.1358622E-013  0.7246158E+02  0.7816164E-02  0.1226708E+00
        -11   -1    0    0    0    0  0.00000000000E+00  0.00000000000E+00  0.45593999997E+02  0.45594000000E+02  0.51100000000E-03 0.  1.
         11   -1    0    0    0    0 -0.00000000000E+00 -0.00000000000E+00 -0.45593999997E+02  0.45594000000E+02  0.51100000000E-03 0. -1.
    9900012    2    1    2    0    0  0.27789404285E+01  0.15907417646E+02 -0.94821156661E+01  0.72461575793E+02  0.70000007163E+02 0.  0.
        -12    1    1    2    0    0 -0.27789404285E+01 -0.15907417646E+02  0.94821156661E+01  0.18726424207E+02  0.00000000000E+00 0.  1.
         11    1    3    3    0    0 -0.25346230755E+01  0.26510021116E+02 -0.10008295278E+02  0.28449455326E+02  0.51100000000E-03 0. -1.
        -11    1    3    3    0    0  0.12602870726E+02  0.10311753949E+02 -0.10393712572E+02  0.19318226661E+02  0.51100000000E-03 0.  1.
        -12    1    3    3    0    0 -0.72893072222E+01 -0.20914357419E+02  0.10919892183E+02  0.24693893807E+02  0.00000000000E+00 0.  1.
</event>
<event>
 7    1  0.1358622E-013  0.7246157E+02  0.7816164E-02  0.1226708E+00
        -11   -1    0    0    0    0  0.00000000000E+00  0.00000000000E+00  0.45593999997E+02  0.45594000000E+02  0.51100000000E-03 0.  1.
         11   -1    0    0    0    0 -0.00000000000E+00 -0.00000000000E+00 -0.45593999997E+02  0.45594000000E+02  0.51100000000E-03 0. -1.
    9900012    2    1    2    0    0  0.91679946532E+01  0.86244302635E+01 -0.13865290997E+02  0.72461569006E+02  0.69999998322E+02 0.  0.
        -12    1    1    2    0    0 -0.91679946532E+01 -0.86244302635E+01  0.13865290997E+02  0.18726430994E+02  0.00000000000E+00 0.  1.
         11    1    3    3    0    0 -0.71732057910E+01 -0.16920689584E+02 -0.30855050398E+02  0.35913768288E+02  0.51100000000E-03 0. -1.
        -11    1    3    3    0    0 -0.12231973894E+01  0.32365855175E+00  0.19648613473E+01  0.23370167066E+01  0.51100000000E-03 0.  1.
        -12    1    3    3    0    0  0.17564397834E+02  0.25221461296E+02  0.15024898054E+02  0.34210784012E+02  0.00000000000E+00 0.  1.
</event>
<event>
 7    1  0.1358622E-013  0.7246162E+02  0.7816164E-02  0.1226708E+00
        -11   -1    0    0    0    0  0.00000000000E+00  0.00000000000E+00  0.45593999997E+02  0.45594000000E+02  0.51100000000E-03 0.  1.
         11   -1    0    0    0    0 -0.00000000000E+00 -0.00000000000E+00 -0.45593999997E+02  0.45594000000E+02  0.51100000000E-03 0. -1.
    9900012    2    1    2    0    0  0.11186976477E+02  0.63691733368E+01 -0.13600085900E+02  0.72461624265E+02  0.70000070306E+02 0.  0.
        -12    1    1    2    0    0 -0.11186976477E+02 -0.63691733368E+01  0.13600085900E+02  0.18726375735E+02  0.00000000000E+00 0.  1.
         11    1    3    3    0    0  0.48683387697E+01  0.69281099739E+01 -0.90432246951E+01  0.12388678030E+02  0.51100000000E-03 0. -1.
        -11    1    3    3    0    0  0.24617044735E+02  0.58784484335E+00  0.18366645174E+02  0.30719344203E+02  0.51100000000E-03 0.  1.
         12    1    3    3    0    0 -0.18298407027E+02 -0.11467814805E+01 -0.22923506379E+02  0.29353602032E+02  0.00000000000E+00 0. -1.
</event>
<event>
 7    1  0.1358622E-013  0.7246158E+02  0.7816164E-02  0.1226708E+00
        -11   -1    0    0    0    0  0.00000000000E+00  0.00000000000E+00  0.45593999997E+02  0.45594000000E+02  0.51100000000E-03 0.  1.
         11   -1    0    0    0    0 -0.00000000000E+00 -0.00000000000E+00 -0.45593999997E+02  0.45594000000E+02  0.51100000000E-03 0. -1.
    9900012    2    1    2    0    0  0.13226690644E+02 -0.13229427400E+02 -0.84604283726E+00  0.72461577939E+02  0.70000009959E+02 0.  0.
        -12    1    1    2    0    0 -0.13226690644E+02  0.13229427400E+02  0.84604283726E+00  0.18726422061E+02  0.00000000000E+00 0.  1.
         11    1    3    3    0    0  0.44324741943E+01 -0.15332923037E+02 -0.24465764346E+02  0.29211624085E+02  0.51100000000E-03 0. -1.
        -11    1    3    3    0    0 -0.47890528677E+01  0.21761643263E+01 -0.75771823002E+01  0.92241211189E+01  0.51100000000E-03 0.  1.
        -12    1    3    3    0    0  0.13583269317E+02 -0.72668689125E-01  0.31196903809E+02  0.34025832736E+02  0.00000000000E+00 0.  1.
</event>
<event>
 7    1  0.1358622E-013  0.7246142E+02  0.7816164E-02  0.1226708E+00
        -11   -1    0    0    0    0  0.00000000000E+00  0.00000000000E+00  0.45593999997E+02  0.45594000000E+02  0.51100000000E-03 0. -1.
         11   -1    0    0    0    0 -0.00000000000E+00 -0.00000000000E+00 -0.45593999997E+02  0.45594000000E+02  0.51100000000E-03 0.  1.
    9900012    2    1    2    0    0 -0.15347085691E+02  0.74275838099E+01  0.77448612853E+01  0.72461416841E+02  0.69999800099E+02 0.  0.
        -12    1    1    2    0    0  0.15347085691E+02 -0.74275838099E+01 -0.77448612853E+01  0.18726583159E+02  0.00000000000E+00 0.  1.
         11    1    3    3    0    0 -0.14046348563E+02 -0.98014872375E+01 -0.11691423525E+02  0.20737850523E+02  0.51100000000E-03 0. -1.
        -11    1    3    3    0    0 -0.13005967423E+02 -0.10333225929E+02  0.11813157968E+01  0.16653115444E+02  0.51100000000E-03 0.  1.
        -12    1    3    3    0    0  0.11705230295E+02  0.27562296977E+02  0.18254969013E+02  0.35070450875E+02  0.00000000000E+00 0.  1.
</event>
<event>
 7    1  0.1358622E-013  0.7246154E+02  0.7816164E-02  0.1226708E+00
        -11   -1    0    0    0    0  0.00000000000E+00  0.00000000000E+00  0.45593999997E+02  0.45594000000E+02  0.51100000000E-03 0. -1.
         11   -1    0    0    0    0 -0.00000000000E+00 -0.00000000000E+00 -0.45593999997E+02  0.45594000000E+02  0.51100000000E-03 0.  1.
    9900012    2    1    2    0    0 -0.25502917156E+01  0.28880728018E+01  0.18325813287E+02  0.72461537842E+02  0.69999957725E+02 0.  0.
        -12    1    1    2    0    0  0.25502917156E+01 -0.28880728018E+01 -0.18325813287E+02  0.18726462158E+02  0.00000000000E+00 0.  1.
         11    1    3    3    0    0  0.12552349023E+02 -0.70203474770E+01  0.22426264250E+02  0.26641773086E+02  0.51100000000E-03 0. -1.
        -11    1    3    3    0    0 -0.23996925618E+02  0.66889576652E+01  0.11607821087E+02  0.27483378693E+02  0.51100000000E-03 0.  1.
        -12    1    3    3    0    0  0.88942848796E+01  0.32194626136E+01 -0.15708272050E+02  0.18336386063E+02  0.00000000000E+00 0.  1.
</event>
<event>
 7    1  0.1358622E-013  0.7246160E+02  0.7816164E-02  0.1226708E+00
        -11   -1    0    0    0    0  0.00000000000E+00  0.00000000000E+00  0.45593999997E+02  0.45594000000E+02  0.51100000000E-03 0. -1.
         11   -1    0    0    0    0 -0.00000000000E+00 -0.00000000000E+00 -0.45593999997E+02  0.45594000000E+02  0.51100000000E-03 0.  1.
    9900012    2    1    2    0    0 -0.10976420216E+02  0.15154102991E+02  0.74126109462E+00  0.72461598684E+02  0.70000036983E+02 0.  0.
        -12    1    1    2    0    0  0.10976420216E+02 -0.15154102991E+02 -0.74126109462E+00  0.18726401316E+02  0.00000000000E+00 0.  1.
         11    1    3    3    0    0  0.59785345486E+01  0.25459613984E+01  0.38757356386E+01  0.75661166916E+01  0.51100000000E-03 0. -1.
        -11    1    3    3    0    0  0.90033631484E+01  0.30197263755E+02  0.63334166323E+01  0.32141055564E+02  0.51100000000E-03 0.  1.
         12    1    3    3    0    0 -0.25958317913E+02 -0.17589122163E+02 -0.94678911763E+01  0.32754426428E+02  0.00000000000E+00 0. -1.
</event>
<event>
 7    1  0.1358622E-013  0.7246155E+02  0.7816164E-02  0.1226708E+00
        -11   -1    0    0    0    0  0.00000000000E+00  0.00000000000E+00  0.45593999997E+02  0.45594000000E+02  0.51100000000E-03 0. -1.
         11   -1    0    0    0    0 -0.00000000000E+00 -0.00000000000E+00 -0.45593999997E+02  0.45594000000E+02  0.51100000000E-03 0.  1.
    9900012    2    1    2    0    0  0.10485634468E+02  0.15513778288E+02 -0.23234638398E+00  0.72461552611E+02  0.69999976964E+02 0.  0.
        -12    1    1    2    0    0 -0.10485634468E+02 -0.15513778288E+02  0.23234638398E+00  0.18726447389E+02  0.00000000000E+00 0.  1.
         11    1    3    3    0    0 -0.67368899534E+00  0.17999963954E+02 -0.93207890222E+01  0.20281263951E+02  0.51100000000E-03 0. -1.
        -11    1    3    3    0    0 -0.10000588455E+02  0.25072886972E+01 -0.15967517952E+02  0.19006838135E+02  0.51100000000E-03 0.  1.
        -12    1    3    3    0    0  0.21159911919E+02 -0.49934743634E+01  0.25055960591E+02  0.33173450525E+02  0.00000000000E+00 0.  1.
</event>
<event>
 7    1  0.1358622E-013  0.7246155E+02  0.7816164E-02  0.1226708E+00
        -11   -1    0    0    0    0  0.00000000000E+00  0.00000000000E+00  0.45593999997E+02  0.45594000000E+02  0.51100000000E-03 0.  1.
         11   -1    0    0    0    0 -0.00000000000E+00 -0.00000000000E+00 -0.45593999997E+02  0.45594000000E+02  0.51100000000E-03 0. -1.
    9900012    2    1    2    0    0  0.23129279424E+01  0.28496296485E+01 -0.18363275621E+02  0.72461550354E+02  0.69999974024E+02 0.  0.
        -12    1    1    2    0    0 -0.23129279424E+01 -0.28496296485E+01  0.18363275621E+02  0.18726449646E+02  0.00000000000E+00 0.  1.
         11    1    3    3    0    0 -0.40849248325E+00 -0.88872457092E+01 -0.22275159732E+02  0.23986094800E+02  0.51100000000E-03 0. -1.
        -11    1    3    3    0    0  0.11665572363E+02 -0.10686338934E+02 -0.11743296618E+02  0.19702498169E+02  0.51100000000E-03 0.  1.
        -12    1    3    3    0    0 -0.89441519379E+01  0.22423214292E+02  0.15655180728E+02  0.28772957385E+02  0.00000000000E+00 0.  1.
</event>
<event>
 7    1  0.1358622E-013  0.7246155E+02  0.7816164E-02  0.1226708E+00
        -11   -1    0    0    0    0  0.00000000000E+00  0.00000000000E+00  0.45593999997E+02  0.45594000000E+02  0.51100000000E-03 0.  1.
         11   -1    0    0    0    0 -0.00000000000E+00 -0.00000000000E+00 -0.45593999997E+02  0.45594000000E+02  0.51100000000E-03 0. -1.
    9900012    2    1    2    0    0  0.28162808553E+01 -0.15979523266E+02 -0.93489831750E+01  0.72461545769E+02  0.69999968051E+02 0.  0.
        -12    1    1    2    0    0 -0.28162808553E+01  0.15979523266E+02  0.93489831750E+01  0.18726454231E+02  0.00000000000E+00 0.  1.
         11    1    3    3    0    0  0.14474750977E+02  0.27733889989E+01 -0.66961915984E+00  0.14753253623E+02  0.51100000000E-03 0. -1.
        -11    1    3    3    0    0  0.37659570739E+01 -0.34610786353E+01  0.20615152987E+02  0.21240198468E+02  0.51100000000E-03 0.  1.
         12    1    3    3    0    0 -0.15424427196E+02 -0.15291833630E+02 -0.29294517002E+02  0.36468093678E+02  0.00000000000E+00 0. -1.
</event>
<event>
 7    1  0.1358622E-013  0.7246150E+02  0.7816164E-02  0.1226708E+00
        -11   -1    0    0    0    0  0.00000000000E+00  0.00000000000E+00  0.45593999997E+02  0.45594000000E+02  0.51100000000E-03 0. -1.
         11   -1    0    0    0    0 -0.00000000000E+00 -0.00000000000E+00 -0.45593999997E+02  0.45594000000E+02  0.51100000000E-03 0.  1.
    9900012    2    1    2    0    0  0.11168273732E+02 -0.15003003326E+02 -0.92809469874E+00  0.72461499881E+02  0.69999908273E+02 0.  0.
        -12    1    1    2    0    0 -0.11168273732E+02  0.15003003326E+02  0.92809469874E+00  0.18726500119E+02  0.00000000000E+00 0.  1.
         11    1    3    3    0    0  0.22845180258E+02 -0.26544799274E+02  0.91977690381E+01  0.36209495786E+02  0.51100000000E-03 0. -1.
        -11    1    3    3    0    0 -0.33964255030E+01 -0.37054421421E+01  0.90743894270E+01  0.10373550569E+02  0.51100000000E-03 0.  1.
        -12    1    3    3    0    0 -0.82804810227E+01  0.15247238090E+02 -0.19200253164E+02  0.25878453526E+02  0.00000000000E+00 0.  1.
</event>
<event>
 7    1  0.1429527E-013  0.7246156E+02  0.7816164E-02  0.1226708E+00
        -11   -1    0    0    0    0  0.00000000000E+00  0.00000000000E+00  0.45593999997E+02  0.45594000000E+02  0.51100000000E-03 0. -1.
         11   -1    0    0    0    0 -0.00000000000E+00 -0.00000000000E+00 -0.45593999997E+02  0.45594000000E+02  0.51100000000E-03 0.  1.
    9900012    2    1    2    0    0 -0.74262141809E+01 -0.47903339572E+01  0.16510109168E+02  0.72461557166E+02  0.69999982898E+02 0.  0.
        -12    1    1    2    0    0  0.74262141809E+01  0.47903339572E+01 -0.16510109168E+02  0.18726442834E+02  0.00000000000E+00 0.  1.
         11    1    3    3    0    0 -0.15463051479E+02 -0.26619310880E+02  0.13738500248E+02  0.33711126681E+02  0.51100000000E-03 0. -1.
        -11    1    3    3    0    0  0.27784459786E+01 -0.60320387732E+01 -0.61250742366E+01  0.90344777648E+01  0.51100000000E-03 0.  1.
        -12    1    3    3    0    0  0.52583913198E+01  0.27861015696E+02  0.88966831561E+01  0.29715952720E+02  0.00000000000E+00 0.  1.
</event>
<event>
 7    1  0.1358622E-013  0.7246160E+02  0.7816164E-02  0.1226708E+00
        -11   -1    0    0    0    0  0.00000000000E+00  0.00000000000E+00  0.45593999997E+02  0.45594000000E+02  0.51100000000E-03 0.  1.
         11   -1    0    0    0    0 -0.00000000000E+00 -0.00000000000E+00 -0.45593999997E+02  0.45594000000E+02  0.51100000000E-03 0. -1.
    9900012    2    1    2    0    0  0.16728283307E+02  0.69434619042E+01 -0.47572041819E+01  0.72461598391E+02  0.70000036601E+02 0.  0.
        -12    1    1    2    0    0 -0.16728283307E+02 -0.69434619042E+01  0.47572041819E+01  0.18726401609E+02  0.00000000000E+00 0.  1.
         11    1    3    3    0    0  0.20785139282E+00 -0.50252097686E+01 -0.38692098599E+01  0.63456064029E+01  0.51100000000E-03 0. -1.
        -11    1    3    3    0    0  0.43917926045E+00 -0.19922441157E+02 -0.17688704299E+02  0.26645577496E+02  0.51100000000E-03 0.  1.
        -12    1    3    3    0    0  0.16081252653E+02  0.31891112830E+02  0.16800709977E+02  0.39470414492E+02  0.00000000000E+00 0.  1.
</event>
<event>
 7    1  0.1358622E-013  0.7246140E+02  0.7816164E-02  0.1226708E+00
        -11   -1    0    0    0    0  0.00000000000E+00  0.00000000000E+00  0.45593999997E+02  0.45594000000E+02  0.51100000000E-03 0. -1.
         11   -1    0    0    0    0 -0.00000000000E+00 -0.00000000000E+00 -0.45593999997E+02  0.45594000000E+02  0.51100000000E-03 0.  1.
    9900012    2    1    2    0    0  0.67953837233E+01  0.33487271586E+00  0.17446955905E+02  0.72461397264E+02  0.69999774596E+02 0.  0.
        -12    1    1    2    0    0 -0.67953837233E+01 -0.33487271586E+00 -0.17446955905E+02  0.18726602736E+02  0.00000000000E+00 0.  1.
         11    1    3    3    0    0 -0.20639759234E+02 -0.32013498353E+01  0.28898784716E+01  0.21085532952E+02  0.51100000000E-03 0. -1.
        -11    1    3    3    0    0 -0.45453083674E+01 -0.12629336904E+02  0.34227768033E+01  0.13851908897E+02  0.51100000000E-03 0.  1.
         12    1    3    3    0    0  0.31980451325E+02  0.16165559455E+02  0.11134300630E+02  0.37523955415E+02  0.00000000000E+00 0. -1.
</event>
<event>
 7    1  0.1358622E-013  0.7246159E+02  0.7816164E-02  0.1226708E+00
        -11   -1    0    0    0    0  0.00000000000E+00  0.00000000000E+00  0.45593999997E+02  0.45594000000E+02  0.51100000000E-03 0. -1.
         11   -1    0    0    0    0 -0.00000000000E+00 -0.00000000000E+00 -0.45593999997E+02  0.45594000000E+02  0.51100000000E-03 0.  1.
    9900012    2    1    2    0    0  0.64402436214E+01 -0.82551027922E+01  0.15525947838E+02  0.72461587736E+02  0.70000022721E+02 0.  0.
        -12    1    1    2    0    0 -0.64402436214E+01  0.82551027922E+01 -0.15525947838E+02  0.18726412264E+02  0.00000000000E+00 0.  1.
         11    1    3    3    0    0  0.44144280517E+00 -0.18000268759E+02  0.13892265466E+02  0.22742022496E+02  0.51100000000E-03 0. -1.
        -11    1    3    3    0    0  0.17785096051E+02 -0.99964849654E+01  0.12876532130E+02  0.24125597053E+02  0.51100000000E-03 0.  1.
         12    1    3    3    0    0 -0.11786295234E+02  0.19741650933E+02 -0.11242849758E+02  0.25593968187E+02  0.00000000000E+00 0. -1.
</event>
<event>
 7    1  0.1358622E-013  0.7246174E+02  0.7816164E-02  0.1226708E+00
        -11   -1    0    0    0    0  0.00000000000E+00  0.00000000000E+00  0.45593999997E+02  0.45594000000E+02  0.51100000000E-03 0. -1.
         11   -1    0    0    0    0 -0.00000000000E+00 -0.00000000000E+00 -0.45593999997E+02  0.45594000000E+02  0.51100000000E-03 0.  1.
    9900012    2    1    2    0    0 -0.12674586300E+02 -0.32210828351E+01  0.13403442024E+02  0.72461741148E+02  0.70000222568E+02 0.  0.
        -12    1    1    2    0    0  0.12674586300E+02  0.32210828351E+01 -0.13403442024E+02  0.18726258852E+02  0.00000000000E+00 0.  1.
         11    1    3    3    0    0 -0.30537465065E+01  0.28501122181E+01 -0.21002523462E+01  0.46754216452E+01  0.51100000000E-03 0. -1.
        -11    1    3    3    0    0 -0.34734299282E+02  0.88108947808E+01  0.27799074906E+01  0.35942054746E+02  0.51100000000E-03 0.  1.
         12    1    3    3    0    0  0.25113459488E+02 -0.14882089834E+02  0.12723786880E+02  0.31844264756E+02  0.00000000000E+00 0. -1.
</event>
<event>
 7    1  0.1358622E-013  0.7246151E+02  0.7816164E-02  0.1226708E+00
        -11   -1    0    0    0    0  0.00000000000E+00  0.00000000000E+00  0.45593999997E+02  0.45594000000E+02  0.51100000000E-03 0.  1.
         11   -1    0    0    0    0 -0.00000000000E+00 -0.00000000000E+00 -0.45593999997E+02  0.45594000000E+02  0.51100000000E-03 0. -1.
    9900012    2    1    2    0    0 -0.16635312094E+02  0.63803884216E+01 -0.57652786091E+01  0.72461510678E+02  0.69999922339E+02 0.  0.
        -12    1    1    2    0    0  0.16635312094E+02 -0.63803884216E+01  0.57652786091E+01  0.18726489322E+02  0.00000000000E+00 0.  1.
         11    1    3    3    0    0 -0.96567935201E+01  0.64861904534E+01 -0.76036413607E+01  0.13897470629E+02  0.51100000000E-03 0. -1.
        -11    1    3    3    0    0 -0.11396963210E+02  0.27646911185E+02  0.48733816682E+01  0.30298388036E+02  0.51100000000E-03 0.  1.
         12    1    3    3    0    0  0.44184446355E+01 -0.27752713217E+02 -0.30350189166E+01  0.28265652013E+02  0.00000000000E+00 0. -1.
</event>
<event>
 7    1  0.1358622E-013  0.7246226E+02  0.7816164E-02  0.1226706E+00
        -11   -1    0    0    0    0  0.00000000000E+00  0.00000000000E+00  0.45593999997E+02  0.45594000000E+02  0.51100000000E-03 0.  1.
         11   -1    0    0    0    0 -0.00000000000E+00 -0.00000000000E+00 -0.45593999997E+02  0.45594000000E+02  0.51100000000E-03 0. -1.
    9900012    2    1    2    0    0 -0.26034865537E+01 -0.24503783308E+01 -0.18381265249E+02  0.72462258136E+02  0.70000896036E+02 0.  0.
        -12    1    1    2    0    0  0.26034865537E+01  0.24503783308E+01  0.18381265249E+02  0.18725741864E+02  0.00000000000E+00 0.  1.
         11    1    3    3    0    0  0.11292565353E+02  0.23646907119E+02 -0.16372069155E+02  0.30898914175E+02  0.51100000000E-03 0. -1.
        -11    1    3    3    0    0  0.68409912721E+01  0.10342166372E+01  0.19434768890E+01  0.71865059881E+01  0.51100000000E-03 0.  1.
         12    1    3    3    0    0 -0.20737043179E+02 -0.27131502087E+02 -0.39526729827E+01  0.34376837973E+02  0.00000000000E+00 0. -1.
</event>
<event>
 7    1  0.1358622E-013  0.7246166E+02  0.7816164E-02  0.1226708E+00
        -11   -1    0    0    0    0  0.00000000000E+00  0.00000000000E+00  0.45593999997E+02  0.45594000000E+02  0.51100000000E-03 0.  1.
         11   -1    0    0    0    0 -0.00000000000E+00 -0.00000000000E+00 -0.45593999997E+02  0.45594000000E+02  0.51100000000E-03 0. -1.
    9900012    2    1    2    0    0 -0.93780800185E+01  0.13691991627E+02 -0.86750747591E+01  0.72461656480E+02  0.70000112273E+02 0.  0.
        -12    1    1    2    0    0  0.93780800185E+01 -0.13691991627E+02  0.86750747591E+01  0.18726343520E+02  0.00000000000E+00 0.  1.
         11    1    3    3    0    0 -0.76117143443E+01  0.32832372874E+02  0.18137732792E+01  0.33751928501E+02  0.51100000000E-03 0. -1.
        -11    1    3    3    0    0  0.12600485735E+02 -0.43784046996E+01  0.35228821067E+01  0.13796860769E+02  0.51100000000E-03 0.  1.
        -12    1    3    3    0    0 -0.14366851409E+02 -0.14761976547E+02 -0.14011730145E+02  0.24912867210E+02  0.00000000000E+00 0.  1.
</event>
<event>
 7    1  0.1358622E-013  0.7246157E+02  0.7816164E-02  0.1226708E+00
        -11   -1    0    0    0    0  0.00000000000E+00  0.00000000000E+00  0.45593999997E+02  0.45594000000E+02  0.51100000000E-03 0. -1.
         11   -1    0    0    0    0 -0.00000000000E+00 -0.00000000000E+00 -0.45593999997E+02  0.45594000000E+02  0.51100000000E-03 0.  1.
    9900012    2    1    2    0    0  0.18522230906E+02  0.11085604972E+01  0.25252898848E+01  0.72461573936E+02  0.70000004744E+02 0.  0.
        -12    1    1    2    0    0 -0.18522230906E+02 -0.11085604972E+01 -0.25252898848E+01  0.18726426064E+02  0.00000000000E+00 0.  1.
         11    1    3    3    0    0  0.15174325871E+02 -0.87485314457E+01 -0.17096056798E+02  0.24475949960E+02  0.51100000000E-03 0. -1.
        -11    1    3    3    0    0  0.43548522567E+01  0.14182851928E+02 -0.10091191385E+02  0.17942969956E+02  0.51100000000E-03 0.  1.
         12    1    3    3    0    0 -0.10069472220E+01 -0.43257599855E+01  0.29712538068E+02  0.30042654021E+02  0.00000000000E+00 0. -1.
</event>
<event>
 7    1  0.1358622E-013  0.7246157E+02  0.7816164E-02  0.1226708E+00
        -11   -1    0    0    0    0  0.00000000000E+00  0.00000000000E+00  0.45593999997E+02  0.45594000000E+02  0.51100000000E-03 0.  1.
         11   -1    0    0    0    0 -0.00000000000E+00 -0.00000000000E+00 -0.45593999997E+02  0.45594000000E+02  0.51100000000E-03 0. -1.
    9900012    2    1    2    0    0  0.39229530719E+01 -0.15384396730E+02 -0.99302502301E+01  0.72461572333E+02  0.70000002655E+02 0.  0.
        -12    1    1    2    0    0 -0.39229530719E+01  0.15384396730E+02  0.99302502301E+01  0.18726427667E+02  0.00000000000E+00 0.  1.
         11    1    3    3    0    0  0.28155917099E+02 -0.29078056399E+01 -0.17021266289E+01  0.28356802300E+02  0.51100000000E-03 0. -1.
        -11    1    3    3    0    0  0.66643895956E-01  0.97234308798E+01 -0.52660038479E+01  0.11058044414E+02  0.51100000000E-03 0.  1.
        -12    1    3    3    0    0 -0.24299607923E+02 -0.22200021970E+02 -0.29621197533E+01  0.33046725619E+02  0.00000000000E+00 0.  1.
</event>
<event>
 7    1  0.1358622E-013  0.7246158E+02  0.7816164E-02  0.1226708E+00
        -11   -1    0    0    0    0  0.00000000000E+00  0.00000000000E+00  0.45593999997E+02  0.45594000000E+02  0.51100000000E-03 0. -1.
         11   -1    0    0    0    0 -0.00000000000E+00 -0.00000000000E+00 -0.45593999997E+02  0.45594000000E+02  0.51100000000E-03 0.  1.
    9900012    2    1    2    0    0 -0.78962089045E+00 -0.80022888908E+01  0.16912084803E+02  0.72461581735E+02  0.70000014904E+02 0.  0.
        -12    1    1    2    0    0  0.78962089045E+00  0.80022888908E+01 -0.16912084803E+02  0.18726418265E+02  0.00000000000E+00 0.  1.
         11    1    3    3    0    0 -0.53250919541E+01  0.64569750253E+01 -0.26599956739E+01  0.87820674129E+01  0.51100000000E-03 0. -1.
        -11    1    3    3    0    0 -0.13392385425E+02  0.12381681822E+02  0.25002646710E+02  0.30948253179E+02  0.51100000000E-03 0.  1.
        -12    1    3    3    0    0  0.17927856489E+02 -0.26840945738E+02 -0.54305662324E+01  0.32731261143E+02  0.00000000000E+00 0.  1.
</event>
<event>
 7    1  0.1358622E-013  0.7246155E+02  0.7816164E-02  0.1226708E+00
        -11   -1    0    0    0    0  0.00000000000E+00  0.00000000000E+00  0.45593999997E+02  0.45594000000E+02  0.51100000000E-03 0.  1.
         11   -1    0    0    0    0 -0.00000000000E+00 -0.00000000000E+00 -0.45593999997E+02  0.45594000000E+02  0.51100000000E-03 0. -1.
    9900012    2    1    2    0    0  0.69357358338E+01 -0.98795057311E+01 -0.14316804582E+02  0.72461549229E+02  0.69999972558E+02 0.  0.
        -12    1    1    2    0    0 -0.69357358338E+01  0.98795057311E+01  0.14316804582E+02  0.18726450771E+02  0.00000000000E+00 0.  1.
         11    1    3    3    0    0  0.18365551737E+02  0.12392721699E+02 -0.31345740403E+01  0.22376295413E+02  0.51100000000E-03 0. -1.
        -11    1    3    3    0    0 -0.79177131030E+01 -0.19718471988E+01  0.14815695597E+02  0.16913994160E+02  0.51100000000E-03 0.  1.
         12    1    3    3    0    0 -0.35121028006E+01 -0.20300380231E+02 -0.25997926139E+02  0.33171259656E+02  0.00000000000E+00 0. -1.
</event>
<event>
 7    1  0.1358622E-013  0.7246189E+02  0.7816164E-02  0.1226707E+00
        -11   -1    0    0    0    0  0.00000000000E+00  0.00000000000E+00  0.45593999997E+02  0.45594000000E+02  0.51100000000E-03 0.  1.
         11   -1    0    0    0    0 -0.00000000000E+00 -0.00000000000E+00 -0.45593999997E+02  0.45594000000E+02  0.51100000000E-03 0. -1.
    9900012    2    1    2    0    0 -0.17532945595E+02  0.30744514964E+01 -0.58147118301E+01  0.72461887031E+02  0.70000412607E+02 0.  0.
        -12    1    1    2    0    0  0.17532945595E+02 -0.30744514964E+01  0.58147118301E+01  0.18726112969E+02  0.00000000000E+00 0.  1.
         11    1    3    3    0    0  0.80827541160E+01 -0.14033844249E+02  0.23912586982E+01  0.16370638868E+02  0.51100000000E-03 0. -1.
        -11    1    3    3    0    0 -0.38818770127E+01  0.15708728141E+02  0.16531531651E+02  0.23132761356E+02  0.51100000000E-03 0.  1.
         12    1    3    3    0    0 -0.21733822699E+02  0.13995676043E+01 -0.24737502179E+02  0.32958486808E+02  0.00000000000E+00 0. -1.
</event>
<event>
 7    1  0.1358622E-013  0.7246158E+02  0.7816164E-02  0.1226708E+00
        -11   -1    0    0    0    0  0.00000000000E+00  0.00000000000E+00  0.45593999997E+02  0.45594000000E+02  0.51100000000E-03 0.  1.
         11   -1    0    0    0    0 -0.00000000000E+00 -0.00000000000E+00 -0.45593999997E+02  0.45594000000E+02  0.51100000000E-03 0. -1.
    9900012    2    1    2    0    0  0.81401000775E+01  0.78777692890E+01 -0.14911687079E+02  0.72461577763E+02  0.70000009730E+02 0.  0.
        -12    1    1    2    0    0 -0.81401000775E+01 -0.78777692890E+01  0.14911687079E+02  0.18726422237E+02  0.00000000000E+00 0.  1.
         11    1    3    3    0    0  0.16772322228E+02  0.61546132016E+01 -0.10676065614E+02  0.20812698861E+02  0.51100000000E-03 0. -1.
        -11    1    3    3    0    0  0.11871918736E+02 -0.59191796732E+00  0.17836042059E+02  0.21434020106E+02  0.51100000000E-03 0.  1.
         12    1    3    3    0    0 -0.20504140887E+02  0.23150740547E+01 -0.22071663523E+02  0.30214858796E+02  0.00000000000E+00 0. -1.
</event>
<event>
 7    1  0.1358622E-013  0.7246158E+02  0.7816164E-02  0.1226708E+00
        -11   -1    0    0    0    0  0.00000000000E+00  0.00000000000E+00  0.45593999997E+02  0.45594000000E+02  0.51100000000E-03 0. -1.
         11   -1    0    0    0    0 -0.00000000000E+00 -0.00000000000E+00 -0.45593999997E+02  0.45594000000E+02  0.51100000000E-03 0.  1.
    9900012    2    1    2    0    0 -0.14053223067E+02  0.64372760932E+01  0.10571051079E+02  0.72461582217E+02  0.70000015531E+02 0.  0.
        -12    1    1    2    0    0  0.14053223067E+02 -0.64372760932E+01 -0.10571051079E+02  0.18726417783E+02  0.00000000000E+00 0.  1.
         11    1    3    3    0    0 -0.11140192487E+02  0.26823100948E+02  0.12343933544E+02  0.31558759936E+02  0.51100000000E-03 0. -1.
        -11    1    3    3    0    0  0.12179696265E+02 -0.43368465248E+01 -0.11041136660E+02  0.17001762788E+02  0.51100000000E-03 0.  1.
        -12    1    3    3    0    0 -0.15092726846E+02 -0.16048978330E+02  0.92682541948E+01  0.23901059493E+02  0.00000000000E+00 0.  1.
</event>
<event>
 7    1  0.1358622E-013  0.7246157E+02  0.7816164E-02  0.1226708E+00
        -11   -1    0    0    0    0  0.00000000000E+00  0.00000000000E+00  0.45593999997E+02  0.45594000000E+02  0.51100000000E-03 0. -1.
         11   -1    0    0    0    0 -0.00000000000E+00 -0.00000000000E+00 -0.45593999997E+02  0.45594000000E+02  0.51100000000E-03 0.  1.
    9900012    2    1    2    0    0 -0.32261682006E+01  0.69532172875E+01  0.17085779166E+02  0.72461568370E+02  0.69999997493E+02 0.  0.
        -12    1    1    2    0    0  0.32261682006E+01 -0.69532172875E+01 -0.17085779166E+02  0.18726431630E+02  0.00000000000E+00 0.  1.
         11    1    3    3    0    0  0.36184320204E+01  0.53286632279E+01  0.18885409382E+02  0.19953605936E+02  0.51100000000E-03 0. -1.
        -11    1    3    3    0    0  0.42368134896E+01 -0.14587347845E+02  0.18718801432E+02  0.24106738332E+02  0.51100000000E-03 0.  1.
        -12    1    3    3    0    0 -0.11081413711E+02  0.16211901904E+02 -0.20518431648E+02  0.28401224102E+02  0.00000000000E+00 0.  1.
</event>
<event>
 7    1  0.1358622E-013  0.7246158E+02  0.7816164E-02  0.1226708E+00
        -11   -1    0    0    0    0  0.00000000000E+00  0.00000000000E+00  0.45593999997E+02  0.45594000000E+02  0.51100000000E-03 0.  1.
         11   -1    0    0    0    0 -0.00000000000E+00 -0.00000000000E+00 -0.45593999997E+02  0.45594000000E+02  0.51100000000E-03 0. -1.
    9900012    2    1    2    0    0  0.22580837380E+01  0.14485306547E+02 -0.11651426299E+02  0.72461580622E+02  0.70000013453E+02 0.  0.
        -12    1    1    2    0    0 -0.22580837380E+01 -0.14485306547E+02  0.11651426299E+02  0.18726419378E+02  0.00000000000E+00 0.  1.
         11    1    3    3    0    0 -0.30344719336E+02  0.65266838371E+01  0.62307737469E+01  0.31657892147E+02  0.51100000000E-03 0.  1.
        -11    1    3    3    0    0  0.14499988805E+02 -0.17589638570E+01 -0.13296635367E+02  0.19752066766E+02  0.51100000000E-03 0. -1.
        -12    1    3    3    0    0  0.18102814268E+02  0.97175865668E+01 -0.45855646794E+01  0.21051621708E+02  0.00000000000E+00 0.  1.
</event>
<event>
 7    1  0.1358622E-013  0.7246130E+02  0.7816164E-02  0.1226709E+00
        -11   -1    0    0    0    0  0.00000000000E+00  0.00000000000E+00  0.45593999997E+02  0.45594000000E+02  0.51100000000E-03 0.  1.
         11   -1    0    0    0    0 -0.00000000000E+00 -0.00000000000E+00 -0.45593999997E+02  0.45594000000E+02  0.51100000000E-03 0. -1.
    9900012    2    1    2    0    0 -0.18329816993E+02 -0.20210020600E+01  0.32592417087E+01  0.72461299895E+02  0.69999647754E+02 0.  0.
        -12    1    1    2    0    0  0.18329816993E+02  0.20210020600E+01 -0.32592417087E+01  0.18726700105E+02  0.00000000000E+00 0.  1.
         11    1    3    3    0    0 -0.64851827583E-03  0.70241893103E+01  0.30484000485E+01  0.76571521471E+01  0.51100000000E-03 0. -1.
        -11    1    3    3    0    0  0.99329343883E+01  0.21186376881E+02  0.84615035512E+00  0.23414562170E+02  0.51100000000E-03 0.  1.
         12    1    3    3    0    0 -0.28262102863E+02 -0.30231568252E+02 -0.63530869485E+00  0.41389585578E+02  0.00000000000E+00 0. -1.
</event>
<event>
 7    1  0.1642854E-013  0.7246151E+02  0.7816164E-02  0.1226708E+00
        -11   -1    0    0    0    0  0.00000000000E+00  0.00000000000E+00  0.45593999997E+02  0.45594000000E+02  0.51100000000E-03 0.  1.
         11   -1    0    0    0    0 -0.00000000000E+00 -0.00000000000E+00 -0.45593999997E+02  0.45594000000E+02  0.51100000000E-03 0. -1.
    9900012    2    1    2    0    0 -0.17258330769E+02  0.33247158879E+01 -0.64635549447E+01  0.72461514500E+02  0.69999927317E+02 0.  0.
        -12    1    1    2    0    0  0.17258330769E+02 -0.33247158879E+01  0.64635549447E+01  0.18726485500E+02  0.00000000000E+00 0.  1.
         11    1    3    3    0    0  0.56579019178E+01 -0.73225051176E+01 -0.27035277007E+02  0.28575113970E+02  0.51100000000E-03 0. -1.
        -11    1    3    3    0    0  0.28441400030E+01  0.12597492185E+02  0.74823115524E+01  0.14925512659E+02  0.51100000000E-03 0.  1.
        -12    1    3    3    0    0 -0.25760372690E+02 -0.19502711790E+01  0.13089410509E+02  0.28960887871E+02  0.00000000000E+00 0.  1.
</event>
<event>
 7    1  0.1358622E-013  0.7246151E+02  0.7816164E-02  0.1226708E+00
        -11   -1    0    0    0    0  0.00000000000E+00  0.00000000000E+00  0.45593999997E+02  0.45594000000E+02  0.51100000000E-03 0.  1.
         11   -1    0    0    0    0 -0.00000000000E+00 -0.00000000000E+00 -0.45593999997E+02  0.45594000000E+02  0.51100000000E-03 0. -1.
    9900012    2    1    2    0    0  0.35297510831E+00  0.16710902899E+02 -0.84440824252E+01  0.72461510870E+02  0.69999922589E+02 0.  0.
        -12    1    1    2    0    0 -0.35297510831E+00 -0.16710902899E+02  0.84440824252E+01  0.18726489130E+02  0.00000000000E+00 0.  1.
         11    1    3    3    0    0 -0.12117596156E+02  0.22753834933E+01 -0.56486411518E+01  0.13561734910E+02  0.51100000000E-03 0. -1.
        -11    1    3    3    0    0 -0.15030134389E+02 -0.11602350963E+02  0.62009696923E+01  0.19974271276E+02  0.51100000000E-03 0.  1.
         12    1    3    3    0    0  0.27500705653E+02  0.26037870368E+02 -0.89964109657E+01  0.38925504685E+02  0.00000000000E+00 0. -1.
</event>
<event>
 7    1  0.1358622E-013  0.7246155E+02  0.7816164E-02  0.1226708E+00
        -11   -1    0    0    0    0  0.00000000000E+00  0.00000000000E+00  0.45593999997E+02  0.45594000000E+02  0.51100000000E-03 0.  1.
         11   -1    0    0    0    0 -0.00000000000E+00 -0.00000000000E+00 -0.45593999997E+02  0.45594000000E+02  0.51100000000E-03 0. -1.
    9900012    2    1    2    0    0  0.18171566500E+02 -0.38986040145E+01  0.22966941957E+01  0.72461554888E+02  0.69999979930E+02 0.  0.
        -12    1    1    2    0    0 -0.18171566500E+02  0.38986040145E+01 -0.22966941957E+01  0.18726445112E+02  0.00000000000E+00 0.  1.
         11    1    3    3    0    0  0.72804111065E+01  0.12478265573E+02 -0.83476571676E+01  0.16685169404E+02  0.51100000000E-03 0. -1.
        -11    1    3    3    0    0 -0.19060570690E+02 -0.77185277792E+01  0.13292329762E+02  0.24486058418E+02  0.51100000000E-03 0.  1.
         12    1    3    3    0    0  0.29951726083E+02 -0.86583418085E+01 -0.26479783988E+01  0.31290327065E+02  0.00000000000E+00 0. -1.
</event>
<event>
 7    1  0.1358622E-013  0.7246158E+02  0.7816164E-02  0.1226708E+00
        -11   -1    0    0    0    0  0.00000000000E+00  0.00000000000E+00  0.45593999997E+02  0.45594000000E+02  0.51100000000E-03 0. -1.
         11   -1    0    0    0    0 -0.00000000000E+00 -0.00000000000E+00 -0.45593999997E+02  0.45594000000E+02  0.51100000000E-03 0.  1.
    9900012    2    1    2    0    0  0.13585167051E+02 -0.46824521548E+01  0.12008199509E+02  0.72461575423E+02  0.70000006681E+02 0.  0.
        -12    1    1    2    0    0 -0.13585167051E+02  0.46824521548E+01 -0.12008199509E+02  0.18726424577E+02  0.00000000000E+00 0.  1.
         11    1    3    3    0    0 -0.64307393473E+01 -0.19777021294E+02  0.15123611002E+02  0.25713976546E+02  0.51100000000E-03 0. -1.
        -11    1    3    3    0    0  0.20354890186E+02 -0.92196363096E+00  0.12883128992E+02  0.24106982065E+02  0.51100000000E-03 0.  1.
        -12    1    3    3    0    0 -0.33898378751E+00  0.16016532770E+02 -0.15998540485E+02  0.22640616812E+02  0.00000000000E+00 0.  1.
</event>
<event>
 7    1  0.1358622E-013  0.7246159E+02  0.7816164E-02  0.1226708E+00
        -11   -1    0    0    0    0  0.00000000000E+00  0.00000000000E+00  0.45593999997E+02  0.45594000000E+02  0.51100000000E-03 0.  1.
         11   -1    0    0    0    0 -0.00000000000E+00 -0.00000000000E+00 -0.45593999997E+02  0.45594000000E+02  0.51100000000E-03 0. -1.
    9900012    2    1    2    0    0 -0.13460530790E+02 -0.17487858363E+01  0.12900945368E+02  0.72461587305E+02  0.70000022159E+02 0.  0.
        -12    1    1    2    0    0  0.13460530790E+02  0.17487858363E+01 -0.12900945368E+02  0.18726412695E+02  0.00000000000E+00 0.  1.
         11    1    3    3    0    0 -0.20467554808E+02 -0.92075429337E+01 -0.21826964462E+02  0.31306804765E+02  0.51100000000E-03 0. -1.
        -11    1    3    3    0    0 -0.57578721622E+01  0.44924543499E+00  0.36447023670E+01  0.68292582981E+01  0.51100000000E-03 0.  1.
        -12    1    3    3    0    0  0.12764896180E+02  0.70095116624E+01  0.31083207464E+02  0.34325524242E+02  0.00000000000E+00 0.  1.
</event>
<event>
 7    1  0.1358622E-013  0.7246154E+02  0.7816164E-02  0.1226708E+00
        -11   -1    0    0    0    0  0.00000000000E+00  0.00000000000E+00  0.45593999997E+02  0.45594000000E+02  0.51100000000E-03 0.  1.
         11   -1    0    0    0    0 -0.00000000000E+00 -0.00000000000E+00 -0.45593999997E+02  0.45594000000E+02  0.51100000000E-03 0. -1.
    9900012    2    1    2    0    0  0.10575570386E+02  0.12616050146E+02  0.89259573850E+01  0.72461544769E+02  0.69999966749E+02 0.  0.
        -12    1    1    2    0    0 -0.10575570386E+02 -0.12616050146E+02 -0.89259573850E+01  0.18726455231E+02  0.00000000000E+00 0.  1.
         11    1    3    3    0    0  0.19652595593E+02  0.11058700681E+02  0.38538534565E+00  0.22553667028E+02  0.51100000000E-03 0.  1.
        -11    1    3    3    0    0 -0.16743006365E+02  0.16035045914E+02  0.19420172564E+02  0.30242256236E+02  0.51100000000E-03 0. -1.
         12    1    3    3    0    0  0.76659811571E+01 -0.14477696450E+02 -0.10879600524E+02  0.19665621504E+02  0.00000000000E+00 0. -1.
</event>
<event>
 7    1  0.1358622E-013  0.7246154E+02  0.7816164E-02  0.1226708E+00
        -11   -1    0    0    0    0  0.00000000000E+00  0.00000000000E+00  0.45593999997E+02  0.45594000000E+02  0.51100000000E-03 0.  1.
         11   -1    0    0    0    0 -0.00000000000E+00 -0.00000000000E+00 -0.45593999997E+02  0.45594000000E+02  0.51100000000E-03 0. -1.
    9900012    2    1    2    0    0  0.64243282239E+01  0.27141405395E+01 -0.17379346203E+02  0.72461542074E+02  0.69999963238E+02 0.  0.
        -12    1    1    2    0    0 -0.64243282239E+01 -0.27141405395E+01  0.17379346203E+02  0.18726457926E+02  0.00000000000E+00 0.  1.
         11    1    3    3    0    0  0.19979023057E+00 -0.98874115240E+00  0.82987229131E+00  0.13062210700E+01  0.51100000000E-03 0. -1.
        -11    1    3    3    0    0 -0.91775277944E+01 -0.28252062771E+02  0.29491247573E+01  0.29851355150E+02  0.51100000000E-03 0.  1.
         12    1    3    3    0    0  0.15402065788E+02  0.31954944462E+02 -0.21158343252E+02  0.41303965854E+02  0.00000000000E+00 0. -1.
</event>
<event>
 7    1  0.1358622E-013  0.7246150E+02  0.7816164E-02  0.1226708E+00
        -11   -1    0    0    0    0  0.00000000000E+00  0.00000000000E+00  0.45593999997E+02  0.45594000000E+02  0.51100000000E-03 0.  1.
         11   -1    0    0    0    0 -0.00000000000E+00 -0.00000000000E+00 -0.45593999997E+02  0.45594000000E+02  0.51100000000E-03 0. -1.
    9900012    2    1    2    0    0  0.93855445300E+01 -0.15455614759E+02 -0.48700520520E+01  0.72461497906E+02  0.69999905700E+02 0.  0.
        -12    1    1    2    0    0 -0.93855445300E+01  0.15455614759E+02  0.48700520520E+01  0.18726502094E+02  0.00000000000E+00 0.  1.
         11    1    3    3    0    0 -0.81603607865E+01 -0.24832921018E+02  0.53331516619E+01  0.26677855262E+02  0.51100000000E-03 0. -1.
        -11    1    3    3    0    0 -0.44872632505E+01 -0.86958945735E+01 -0.13951206330E+02  0.17040841301E+02  0.51100000000E-03 0.  1.
        -12    1    3    3    0    0  0.22033168567E+02  0.18073200832E+02  0.37480026164E+01  0.28742801343E+02  0.00000000000E+00 0.  1.
</event>
<event>
 7    1  0.1358622E-013  0.7246160E+02  0.7816164E-02  0.1226708E+00
        -11   -1    0    0    0    0  0.00000000000E+00  0.00000000000E+00  0.45593999997E+02  0.45594000000E+02  0.51100000000E-03 0.  1.
         11   -1    0    0    0    0 -0.00000000000E+00 -0.00000000000E+00 -0.45593999997E+02  0.45594000000E+02  0.51100000000E-03 0. -1.
    9900012    2    1    2    0    0  0.10942049458E+02 -0.17232174775E+01 -0.15099012687E+02  0.72461598612E+02  0.70000036889E+02 0.  0.
        -12    1    1    2    0    0 -0.10942049458E+02  0.17232174775E+01  0.15099012687E+02  0.18726401388E+02  0.00000000000E+00 0.  1.
         11    1    3    3    0    0  0.49932723969E+00  0.15519747108E+02 -0.14394790051E+02  0.21173612324E+02  0.51100000000E-03 0. -1.
        -11    1    3    3    0    0  0.16661675398E+02 -0.21515343695E+01 -0.19931073143E+02  0.26066994535E+02  0.51100000000E-03 0.  1.
        -12    1    3    3    0    0 -0.62189531796E+01 -0.15091430216E+02  0.19226850506E+02  0.25220991753E+02  0.00000000000E+00 0.  1.
</event>
<event>
 7    1  0.1358622E-013  0.7246163E+02  0.7816164E-02  0.1226708E+00
        -11   -1    0    0    0    0  0.00000000000E+00  0.00000000000E+00  0.45593999997E+02  0.45594000000E+02  0.51100000000E-03 0.  1.
         11   -1    0    0    0    0 -0.00000000000E+00 -0.00000000000E+00 -0.45593999997E+02  0.45594000000E+02  0.51100000000E-03 0. -1.
    9900012    2    1    2    0    0 -0.70741918606E+01  0.51318416055E+01 -0.16561908406E+02  0.72461633593E+02  0.70000082458E+02 0.  0.
        -12    1    1    2    0    0  0.70741918606E+01 -0.51318416055E+01  0.16561908406E+02  0.18726366407E+02  0.00000000000E+00 0.  1.
         11    1    3    3    0    0 -0.59625646579E+01  0.21505934397E+02 -0.22592962149E+02  0.31756878476E+02  0.51100000000E-03 0.  1.
        -11    1    3    3    0    0 -0.13791606850E+02  0.24387860474E+01 -0.57513697319E+01  0.15140487144E+02  0.51100000000E-03 0. -1.
         12    1    3    3    0    0  0.12679979648E+02 -0.18812878839E+02  0.11782423475E+02  0.25564267974E+02  0.00000000000E+00 0. -1.
</event>
<event>
 7    1  0.1358622E-013  0.7246155E+02  0.7816164E-02  0.1226708E+00
        -11   -1    0    0    0    0  0.00000000000E+00  0.00000000000E+00  0.45593999997E+02  0.45594000000E+02  0.51100000000E-03 0.  1.
         11   -1    0    0    0    0 -0.00000000000E+00 -0.00000000000E+00 -0.45593999997E+02  0.45594000000E+02  0.51100000000E-03 0. -1.
    9900012    2    1    2    0    0  0.14784709258E+02  0.90073145222E+01 -0.71386650956E+01  0.72461551268E+02  0.69999975215E+02 0.  0.
        -12    1    1    2    0    0 -0.14784709258E+02 -0.90073145222E+01  0.71386650956E+01  0.18726448732E+02  0.00000000000E+00 0.  1.
         11    1    3    3    0    0 -0.75208517367E+01  0.15298244884E+01 -0.14833947687E+01  0.78169069402E+01  0.51100000000E-03 0. -1.
        -11    1    3    3    0    0 -0.61586500861E+01  0.13768254244E+02  0.20519688275E+02  0.25466672397E+02  0.51100000000E-03 0.  1.
         12    1    3    3    0    0  0.28464211081E+02 -0.62907642103E+01 -0.26174958602E+02  0.39177971931E+02  0.00000000000E+00 0. -1.
</event>
<event>
 7    1  0.1358622E-013  0.7246121E+02  0.7816164E-02  0.1226709E+00
        -11   -1    0    0    0    0  0.00000000000E+00  0.00000000000E+00  0.45593999997E+02  0.45594000000E+02  0.51100000000E-03 0.  1.
         11   -1    0    0    0    0 -0.00000000000E+00 -0.00000000000E+00 -0.45593999997E+02  0.45594000000E+02  0.51100000000E-03 0. -1.
    9900012    2    1    2    0    0  0.95809664648E+01 -0.81097089438E+01 -0.13897129919E+02  0.72461213903E+02  0.69999535732E+02 0.  0.
        -12    1    1    2    0    0 -0.95809664648E+01  0.81097089438E+01  0.13897129919E+02  0.18726786097E+02  0.00000000000E+00 0.  1.
         11    1    3    3    0    0 -0.10698719769E+02 -0.17345920145E+02 -0.14992357424E+01  0.20435049754E+02  0.51100000000E-03 0. -1.
        -11    1    3    3    0    0 -0.41724747612E+00  0.14200549919E+02  0.12743938840E+02  0.19085012206E+02  0.51100000000E-03 0.  1.
         12    1    3    3    0    0  0.20696933710E+02 -0.49643387182E+01 -0.25141833017E+02  0.32941151943E+02  0.00000000000E+00 0. -1.
</event>
<event>
 7    1  0.1358622E-013  0.7246154E+02  0.7816164E-02  0.1226708E+00
        -11   -1    0    0    0    0  0.00000000000E+00  0.00000000000E+00  0.45593999997E+02  0.45594000000E+02  0.51100000000E-03 0.  1.
         11   -1    0    0    0    0 -0.00000000000E+00 -0.00000000000E+00 -0.45593999997E+02  0.45594000000E+02  0.51100000000E-03 0. -1.
    9900012    2    1    2    0    0 -0.77617893077E+01  0.16538004343E+02 -0.41145378515E+01  0.72461537904E+02  0.69999957805E+02 0.  0.
        -12    1    1    2    0    0  0.77617893077E+01 -0.16538004343E+02  0.41145378515E+01  0.18726462096E+02  0.00000000000E+00 0.  1.
         11    1    3    3    0    0 -0.30628430154E+02  0.10992540783E+02 -0.17640218349E+02  0.37015050861E+02  0.51100000000E-03 0. -1.
        -11    1    3    3    0    0  0.42574895853E+00  0.97985141422E+01  0.27132973797E+01  0.10176154701E+02  0.51100000000E-03 0.  1.
        -12    1    3    3    0    0  0.22440891888E+02 -0.42530505817E+01  0.10812383118E+02  0.25270332342E+02  0.00000000000E+00 0.  1.
</event>
<event>
 7    1  0.1358622E-013  0.7246168E+02  0.7816164E-02  0.1226708E+00
        -11   -1    0    0    0    0  0.00000000000E+00  0.00000000000E+00  0.45593999997E+02  0.45594000000E+02  0.51100000000E-03 0.  1.
         11   -1    0    0    0    0 -0.00000000000E+00 -0.00000000000E+00 -0.45593999997E+02  0.45594000000E+02  0.51100000000E-03 0. -1.
    9900012    2    1    2    0    0  0.14455585812E+02 -0.21161176504E+01  0.11714651624E+02  0.72461682216E+02  0.70000145799E+02 0.  0.
        -12    1    1    2    0    0 -0.14455585812E+02  0.21161176504E+01 -0.11714651624E+02  0.18726317784E+02  0.00000000000E+00 0.  1.
         11    1    3    3    0    0  0.55055238459E+01  0.93911008633E+01  0.12775211876E+02  0.16784207070E+02  0.51100000000E-03 0. -1.
        -11    1    3    3    0    0  0.27978437132E+02 -0.43058276566E+01  0.12791866629E+02  0.31063884952E+02  0.51100000000E-03 0.  1.
         12    1    3    3    0    0 -0.19028375167E+02 -0.72013908571E+01 -0.13852426881E+02  0.24613590194E+02  0.00000000000E+00 0. -1.
</event>
<event>
 7    1  0.1358622E-013  0.7246147E+02  0.7816164E-02  0.1226708E+00
        -11   -1    0    0    0    0  0.00000000000E+00  0.00000000000E+00  0.45593999997E+02  0.45594000000E+02  0.51100000000E-03 0.  1.
         11   -1    0    0    0    0 -0.00000000000E+00 -0.00000000000E+00 -0.45593999997E+02  0.45594000000E+02  0.51100000000E-03 0. -1.
    9900012    2    1    2    0    0 -0.29398026747E+01 -0.48024123436E+01 -0.17859939461E+02  0.72461466908E+02  0.69999865320E+02 0.  0.
        -12    1    1    2    0    0  0.29398026747E+01  0.48024123436E+01  0.17859939461E+02  0.18726533092E+02  0.00000000000E+00 0.  1.
         11    1    3    3    0    0  0.96954869261E+01  0.15703087160E+02 -0.30290725961E+02  0.35469951967E+02  0.51100000000E-03 0. -1.
        -11    1    3    3    0    0 -0.26774680920E+01 -0.12000147401E+02 -0.65502409695E+01  0.13931189111E+02  0.51100000000E-03 0.  1.
        -12    1    3    3    0    0 -0.99578215088E+01 -0.85053521022E+01  0.18981027469E+02  0.23060325829E+02  0.00000000000E+00 0.  1.
</event>
<event>
 7    1  0.1358622E-013  0.7246161E+02  0.7816164E-02  0.1226708E+00
        -11   -1    0    0    0    0  0.00000000000E+00  0.00000000000E+00  0.45593999997E+02  0.45594000000E+02  0.51100000000E-03 0.  1.
         11   -1    0    0    0    0 -0.00000000000E+00 -0.00000000000E+00 -0.45593999997E+02  0.45594000000E+02  0.51100000000E-03 0. -1.
    9900012    2    1    2    0    0 -0.18343479107E+02 -0.24030283294E+01 -0.29016934739E+01  0.72461612310E+02  0.70000054733E+02 0.  0.
        -12    1    1    2    0    0  0.18343479107E+02  0.24030283294E+01  0.29016934739E+01  0.18726387690E+02  0.00000000000E+00 0.  1.
         11    1    3    3    0    0  0.12502687147E+02  0.16163981907E+02 -0.68392679420E+01  0.21549178250E+02  0.51100000000E-03 0. -1.
        -11    1    3    3    0    0 -0.23549092383E+00 -0.89614202456E+01 -0.12088697983E+02  0.15049887972E+02  0.51100000000E-03 0.  1.
        -12    1    3    3    0    0 -0.30610675330E+02 -0.96055899907E+01  0.16026272451E+02  0.35862546088E+02  0.00000000000E+00 0.  1.
</event>
<event>
 7    1  0.1358622E-013  0.7246157E+02  0.7816164E-02  0.1226708E+00
        -11   -1    0    0    0    0  0.00000000000E+00  0.00000000000E+00  0.45593999997E+02  0.45594000000E+02  0.51100000000E-03 0. -1.
         11   -1    0    0    0    0 -0.00000000000E+00 -0.00000000000E+00 -0.45593999997E+02  0.45594000000E+02  0.51100000000E-03 0.  1.
    9900012    2    1    2    0    0  0.18004015358E+02  0.76504903661E-01 -0.51505901185E+01  0.72461574805E+02  0.70000005876E+02 0.  0.
        -12    1    1    2    0    0 -0.18004015358E+02 -0.76504903661E-01  0.51505901185E+01  0.18726425195E+02  0.00000000000E+00 0.  1.
         11    1    3    3    0    0  0.96875300172E+01  0.15996423894E+01  0.15150135040E+02  0.18053633584E+02  0.51100000000E-03 0. -1.
        -11    1    3    3    0    0 -0.16011557480E+02 -0.56787589662E+01  0.63018556465E+01  0.18119924426E+02  0.51100000000E-03 0.  1.
         12    1    3    3    0    0  0.24328042821E+02  0.41556214805E+01 -0.26602580805E+02  0.36288016795E+02  0.00000000000E+00 0. -1.
</event>
<event>
 7    1  0.1358622E-013  0.7246158E+02  0.7816164E-02  0.1226708E+00
        -11   -1    0    0    0    0  0.00000000000E+00  0.00000000000E+00  0.45593999997E+02  0.45594000000E+02  0.51100000000E-03 0.  1.
         11   -1    0    0    0    0 -0.00000000000E+00 -0.00000000000E+00 -0.45593999997E+02  0.45594000000E+02  0.51100000000E-03 0. -1.
    9900012    2    1    2    0    0  0.14059876881E+01 -0.86216354942E+01 -0.16564094818E+02  0.72461584510E+02  0.70000018518E+02 0.  0.
        -12    1    1    2    0    0 -0.14059876881E+01  0.86216354942E+01  0.16564094818E+02  0.18726415490E+02  0.00000000000E+00 0.  1.
         11    1    3    3    0    0  0.37360458214E+01  0.26018202290E+01 -0.65419888527E+01  0.79702650705E+01  0.51100000000E-03 0. -1.
        -11    1    3    3    0    0 -0.11413420821E+02  0.42468622082E+01  0.23501540844E+02  0.26469311207E+02  0.51100000000E-03 0.  1.
         12    1    3    3    0    0  0.90833626877E+01 -0.15470317931E+02 -0.33523646810E+02  0.38022008232E+02  0.00000000000E+00 0. -1.
</event>
<event>
 7    1  0.1358622E-013  0.7246158E+02  0.7816164E-02  0.1226708E+00
        -11   -1    0    0    0    0  0.00000000000E+00  0.00000000000E+00  0.45593999997E+02  0.45594000000E+02  0.51100000000E-03 0. -1.
         11   -1    0    0    0    0 -0.00000000000E+00 -0.00000000000E+00 -0.45593999997E+02  0.45594000000E+02  0.51100000000E-03 0.  1.
    9900012    2    1    2    0    0  0.15877181987E+02 -0.99249418327E+01 -0.29923246570E+00  0.72461577002E+02  0.70000008738E+02 0.  0.
        -12    1    1    2    0    0 -0.15877181987E+02  0.99249418327E+01  0.29923246570E+00  0.18726422998E+02  0.00000000000E+00 0.  1.
         11    1    3    3    0    0  0.19918402586E+02  0.36382799936E+01  0.50361014536E+01  0.20864854685E+02  0.51100000000E-03 0. -1.
        -11    1    3    3    0    0 -0.30422139987E+00  0.67413123020E+00 -0.26118489805E+02  0.26128959289E+02  0.51100000000E-03 0.  1.
         12    1    3    3    0    0 -0.37369991989E+01 -0.14237353056E+02  0.20783155886E+02  0.25467763028E+02  0.00000000000E+00 0. -1.
</event>
<event>
 7    1  0.1358622E-013  0.7246154E+02  0.7816164E-02  0.1226708E+00
        -11   -1    0    0    0    0  0.00000000000E+00  0.00000000000E+00  0.45593999997E+02  0.45594000000E+02  0.51100000000E-03 0.  1.
         11   -1    0    0    0    0 -0.00000000000E+00 -0.00000000000E+00 -0.45593999997E+02  0.45594000000E+02  0.51100000000E-03 0. -1.
    9900012    2    1    2    0    0  0.11331395695E+02  0.14878872285E+02  0.94821531724E+00  0.72461535273E+02  0.69999954379E+02 0.  0.
        -12    1    1    2    0    0 -0.11331395695E+02 -0.14878872285E+02 -0.94821531724E+00  0.18726464727E+02  0.00000000000E+00 0.  1.
         11    1    3    3    0    0  0.29797253939E-01  0.82126819293E+01 -0.20056232949E+02  0.21672598199E+02  0.51100000000E-03 0. -1.
        -11    1    3    3    0    0 -0.16602465732E+02  0.41228814003E+01  0.26956872023E+01  0.17317815947E+02  0.51100000000E-03 0.  1.
        -12    1    3    3    0    0  0.27904064173E+02  0.25433089555E+01  0.18308761064E+02  0.33471121127E+02  0.00000000000E+00 0.  1.
</event>
<event>
 7    1  0.1358622E-013  0.7246156E+02  0.7816164E-02  0.1226708E+00
        -11   -1    0    0    0    0  0.00000000000E+00  0.00000000000E+00  0.45593999997E+02  0.45594000000E+02  0.51100000000E-03 0. -1.
         11   -1    0    0    0    0 -0.00000000000E+00 -0.00000000000E+00 -0.45593999997E+02  0.45594000000E+02  0.51100000000E-03 0.  1.
    9900012    2    1    2    0    0  0.10273576872E+02 -0.15623006776E+02  0.10269658885E+01  0.72461564637E+02  0.69999992630E+02 0.  0.
        -12    1    1    2    0    0 -0.10273576872E+02  0.15623006776E+02 -0.10269658885E+01  0.18726435363E+02  0.00000000000E+00 0.  1.
         11    1    3    3    0    0 -0.19834593682E+01  0.25075574218E+02 -0.70938151583E+01  0.26135048253E+02  0.51100000000E-03 0. -1.
        -11    1    3    3    0    0 -0.35110620884E+01 -0.38656907980E+01 -0.78963476072E+00  0.52815381898E+01  0.51100000000E-03 0.  1.
        -12    1    3    3    0    0  0.15768098329E+02 -0.36832890196E+02  0.89104158075E+01  0.41044978194E+02  0.00000000000E+00 0.  1.
</event>
<event>
 7    1  0.1358622E-013  0.7246162E+02  0.7816164E-02  0.1226708E+00
        -11   -1    0    0    0    0  0.00000000000E+00  0.00000000000E+00  0.45593999997E+02  0.45594000000E+02  0.51100000000E-03 0.  1.
         11   -1    0    0    0    0 -0.00000000000E+00 -0.00000000000E+00 -0.45593999997E+02  0.45594000000E+02  0.51100000000E-03 0. -1.
    9900012    2    1    2    0    0  0.18418767307E+02  0.29537352808E+00 -0.33673762964E+01  0.72461615999E+02  0.70000059539E+02 0.  0.
        -12    1    1    2    0    0 -0.18418767307E+02 -0.29537352808E+00  0.33673762964E+01  0.18726384001E+02  0.00000000000E+00 0.  1.
         11    1    3    3    0    0  0.13753320966E+02 -0.17425146918E+02 -0.50569335601E+01  0.22767568162E+02  0.51100000000E-03 0. -1.
        -11    1    3    3    0    0  0.14737847134E+02  0.46547268199E+01  0.19851050072E+02  0.25158195665E+02  0.51100000000E-03 0.  1.
         12    1    3    3    0    0 -0.10072400793E+02  0.13065793626E+02 -0.18161492808E+02  0.24535852172E+02  0.00000000000E+00 0. -1.
</event>
<event>
 7    1  0.1358622E-013  0.7246155E+02  0.7816164E-02  0.1226708E+00
        -11   -1    0    0    0    0  0.00000000000E+00  0.00000000000E+00  0.45593999997E+02  0.45594000000E+02  0.51100000000E-03 0.  1.
         11   -1    0    0    0    0 -0.00000000000E+00 -0.00000000000E+00 -0.45593999997E+02  0.45594000000E+02  0.51100000000E-03 0. -1.
    9900012    2    1    2    0    0 -0.12495875969E+02 -0.13332783162E+02  0.40951070356E+01  0.72461550131E+02  0.69999973733E+02 0.  0.
        -12    1    1    2    0    0  0.12495875969E+02  0.13332783162E+02 -0.40951070356E+01  0.18726449869E+02  0.00000000000E+00 0.  1.
         11    1    3    3    0    0 -0.45957802761E+01 -0.97843940047E+01 -0.12574552454E+02  0.16582368107E+02  0.51100000000E-03 0. -1.
        -11    1    3    3    0    0 -0.10661622620E+02  0.17600889207E+02 -0.90380757713E+01  0.22475504703E+02  0.51100000000E-03 0.  1.
        -12    1    3    3    0    0  0.27615269273E+01 -0.21149278364E+02  0.25707735260E+02  0.33403677320E+02  0.00000000000E+00 0.  1.
</event>
<event>
 7    1  0.1358622E-013  0.7246160E+02  0.7816164E-02  0.1226708E+00
        -11   -1    0    0    0    0  0.00000000000E+00  0.00000000000E+00  0.45593999997E+02  0.45594000000E+02  0.51100000000E-03 0.  1.
         11   -1    0    0    0    0 -0.00000000000E+00 -0.00000000000E+00 -0.45593999997E+02  0.45594000000E+02  0.51100000000E-03 0. -1.
    9900012    2    1    2    0    0  0.11710300196E+02 -0.32270260582E+01  0.14252478622E+02  0.72461602196E+02  0.70000041557E+02 0.  0.
        -12    1    1    2    0    0 -0.11710300196E+02  0.32270260582E+01 -0.14252478622E+02  0.18726397804E+02  0.00000000000E+00 0.  1.
         11    1    3    3    0    0 -0.44434007280E+01  0.93440631374E+01 -0.30550169525E+01  0.10788348103E+02  0.51100000000E-03 0. -1.
        -11    1    3    3    0    0  0.23802021030E+02  0.20719664145E+01  0.31746454518E+02  0.39732437940E+02  0.51100000000E-03 0.  1.
         12    1    3    3    0    0 -0.76483201063E+01 -0.14643055610E+02 -0.14438958944E+02  0.21940816152E+02  0.00000000000E+00 0. -1.
</event>
<event>
 7    1  0.1358622E-013  0.7246157E+02  0.7816164E-02  0.1226708E+00
        -11   -1    0    0    0    0  0.00000000000E+00  0.00000000000E+00  0.45593999997E+02  0.45594000000E+02  0.51100000000E-03 0.  1.
         11   -1    0    0    0    0 -0.00000000000E+00 -0.00000000000E+00 -0.45593999997E+02  0.45594000000E+02  0.51100000000E-03 0. -1.
    9900012    2    1    2    0    0 -0.13505707638E+02 -0.36445247763E+01 -0.12449590503E+02  0.72461574731E+02  0.70000005780E+02 0.  0.
        -12    1    1    2    0    0  0.13505707638E+02  0.36445247763E+01  0.12449590503E+02  0.18726425269E+02  0.00000000000E+00 0.  1.
         11    1    3    3    0    0 -0.26825117962E+02 -0.12656064594E+02 -0.50617631067E+01  0.30089605692E+02  0.51100000000E-03 0. -1.
        -11    1    3    3    0    0 -0.12323236644E+02  0.93664840972E+01 -0.62761217880E+01  0.16702780927E+02  0.51100000000E-03 0.  1.
        -12    1    3    3    0    0  0.25642646968E+02 -0.35494427957E+00 -0.11117056085E+01  0.25669188112E+02  0.00000000000E+00 0.  1.
</event>
<event>
 7    1  0.1358622E-013  0.7246160E+02  0.7816164E-02  0.1226708E+00
        -11   -1    0    0    0    0  0.00000000000E+00  0.00000000000E+00  0.45593999997E+02  0.45594000000E+02  0.51100000000E-03 0. -1.
         11   -1    0    0    0    0 -0.00000000000E+00 -0.00000000000E+00 -0.45593999997E+02  0.45594000000E+02  0.51100000000E-03 0.  1.
    9900012    2    1    2    0    0 -0.87220423900E+01 -0.16209191218E+02  0.34447275104E+01  0.72461600158E+02  0.70000038904E+02 0.  0.
        -12    1    1    2    0    0  0.87220423900E+01  0.16209191218E+02 -0.34447275104E+01  0.18726399842E+02  0.00000000000E+00 0.  1.
         11    1    3    3    0    0 -0.82191098511E+01  0.10911782099E+02  0.11369287560E+00  0.13661393840E+02  0.51100000000E-03 0. -1.
        -11    1    3    3    0    0 -0.33016806849E+01  0.10113344714E+02 -0.14042068984E+02  0.17617052484E+02  0.51100000000E-03 0.  1.
        -12    1    3    3    0    0  0.27987481459E+01 -0.37234318031E+02  0.17373103618E+02  0.41183153834E+02  0.00000000000E+00 0.  1.
</event>
<event>
 7    1  0.1358622E-013  0.7246158E+02  0.7816164E-02  0.1226708E+00
        -11   -1    0    0    0    0  0.00000000000E+00  0.00000000000E+00  0.45593999997E+02  0.45594000000E+02  0.51100000000E-03 0. -1.
         11   -1    0    0    0    0 -0.00000000000E+00 -0.00000000000E+00 -0.45593999997E+02  0.45594000000E+02  0.51100000000E-03 0.  1.
    9900012    2    1    2    0    0  0.41052482255E+01  0.12159017599E+02  0.13637591986E+02  0.72461583174E+02  0.70000016778E+02 0.  0.
        -12    1    1    2    0    0 -0.41052482255E+01 -0.12159017599E+02 -0.13637591986E+02  0.18726416826E+02  0.00000000000E+00 0.  1.
         11    1    3    3    0    0  0.35896496669E+01  0.41505910835E+01 -0.90085767416E+00  0.55609833558E+01  0.51100000000E-03 0. -1.
        -11    1    3    3    0    0  0.23675957573E+02  0.53942767973E+01 -0.15554409181E+02  0.28837282022E+02  0.51100000000E-03 0.  1.
         12    1    3    3    0    0 -0.23160359014E+02  0.26141497185E+01  0.30092858841E+02  0.38063317796E+02  0.00000000000E+00 0. -1.
</event>
<event>
 7    1  0.1358622E-013  0.7246158E+02  0.7816164E-02  0.1226708E+00
        -11   -1    0    0    0    0  0.00000000000E+00  0.00000000000E+00  0.45593999997E+02  0.45594000000E+02  0.51100000000E-03 0. -1.
         11   -1    0    0    0    0 -0.00000000000E+00 -0.00000000000E+00 -0.45593999997E+02  0.45594000000E+02  0.51100000000E-03 0.  1.
    9900012    2    1    2    0    0  0.57320138010E+01 -0.84978490964E+01  0.15671929389E+02  0.72461580367E+02  0.70000013122E+02 0.  0.
        -12    1    1    2    0    0 -0.57320138010E+01  0.84978490964E+01 -0.15671929389E+02  0.18726419633E+02  0.00000000000E+00 0.  1.
         11    1    3    3    0    0 -0.30162120105E+01 -0.11295474742E+02  0.90822192830E+01  0.14804458515E+02  0.51100000000E-03 0. -1.
        -11    1    3    3    0    0  0.21630856124E+02 -0.18970161627E+02  0.12987399344E+02  0.31566335086E+02  0.51100000000E-03 0.  1.
         12    1    3    3    0    0 -0.12882630313E+02  0.21767787272E+02 -0.63976892377E+01  0.26090786766E+02  0.00000000000E+00 0. -1.
</event>
<event>
 7    1  0.1358622E-013  0.7246152E+02  0.7816164E-02  0.1226708E+00
        -11   -1    0    0    0    0  0.00000000000E+00  0.00000000000E+00  0.45593999997E+02  0.45594000000E+02  0.51100000000E-03 0.  1.
         11   -1    0    0    0    0 -0.00000000000E+00 -0.00000000000E+00 -0.45593999997E+02  0.45594000000E+02  0.51100000000E-03 0. -1.
    9900012    2    1    2    0    0 -0.23455900671E+00 -0.80979653623E+01 -0.16883399282E+02  0.72461515219E+02  0.69999928254E+02 0.  0.
        -12    1    1    2    0    0  0.23455900671E+00  0.80979653623E+01  0.16883399282E+02  0.18726484781E+02  0.00000000000E+00 0.  1.
         11    1    3    3    0    0  0.11537578257E+02  0.18681314014E+02 -0.23433730585E+02  0.32113033721E+02  0.51100000000E-03 0. -1.
        -11    1    3    3    0    0  0.30312157435E+00  0.49971496122E+01  0.37205774570E+01  0.62374741530E+01  0.51100000000E-03 0.  1.
        -12    1    3    3    0    0 -0.12075258838E+02 -0.31776428989E+02  0.28297538459E+01  0.34111007345E+02  0.00000000000E+00 0.  1.
</event>
<event>
 7    1  0.1358622E-013  0.7246157E+02  0.7816164E-02  0.1226708E+00
        -11   -1    0    0    0    0  0.00000000000E+00  0.00000000000E+00  0.45593999997E+02  0.45594000000E+02  0.51100000000E-03 0.  1.
         11   -1    0    0    0    0 -0.00000000000E+00 -0.00000000000E+00 -0.45593999997E+02  0.45594000000E+02  0.51100000000E-03 0. -1.
    9900012    2    1    2    0    0  0.15133625704E+01  0.38993687232E+01 -0.18253328541E+02  0.72461565594E+02  0.69999993877E+02 0.  0.
        -12    1    1    2    0    0 -0.15133625704E+01 -0.38993687232E+01  0.18253328541E+02  0.18726434406E+02  0.00000000000E+00 0.  1.
         11    1    3    3    0    0 -0.15216814683E+01  0.18574226482E+01 -0.13388777964E+02  0.13602386152E+02  0.51100000000E-03 0. -1.
        -11    1    3    3    0    0  0.15639825065E+02  0.26688683658E+02 -0.14646375933E+01  0.30968292284E+02  0.51100000000E-03 0.  1.
         12    1    3    3    0    0 -0.12604781026E+02 -0.24646737583E+02 -0.33999129837E+01  0.27890887158E+02  0.00000000000E+00 0. -1.
</event>
<event>
 7    1  0.1358622E-013  0.7246156E+02  0.7816164E-02  0.1226708E+00
        -11   -1    0    0    0    0  0.00000000000E+00  0.00000000000E+00  0.45593999997E+02  0.45594000000E+02  0.51100000000E-03 0.  1.
         11   -1    0    0    0    0 -0.00000000000E+00 -0.00000000000E+00 -0.45593999997E+02  0.45594000000E+02  0.51100000000E-03 0. -1.
    9900012    2    1    2    0    0  0.85205558823E+01 -0.33094729382E+01 -0.16344026048E+02  0.72461556901E+02  0.69999982553E+02 0.  0.
        -12    1    1    2    0    0 -0.85205558823E+01  0.33094729382E+01  0.16344026048E+02  0.18726443099E+02  0.00000000000E+00 0.  1.
         11    1    3    3    0    0 -0.50225495004E+01  0.18072755001E+01  0.97538620544E+00  0.54261981836E+01  0.51100000000E-03 0. -1.
        -11    1    3    3    0    0 -0.15743547668E+02 -0.27683927229E+01  0.15996873176E+02  0.22614668760E+02  0.51100000000E-03 0.  1.
         12    1    3    3    0    0  0.29286653051E+02 -0.23483557154E+01 -0.33316285429E+02  0.44420689958E+02  0.00000000000E+00 0. -1.
</event>
<event>
 7    1  0.1358622E-013  0.7246156E+02  0.7816164E-02  0.1226708E+00
        -11   -1    0    0    0    0  0.00000000000E+00  0.00000000000E+00  0.45593999997E+02  0.45594000000E+02  0.51100000000E-03 0. -1.
         11   -1    0    0    0    0 -0.00000000000E+00 -0.00000000000E+00 -0.45593999997E+02  0.45594000000E+02  0.51100000000E-03 0.  1.
    9900012    2    1    2    0    0  0.20000558104E+01  0.46977377029E+01  0.18016949405E+02  0.72461563376E+02  0.69999990987E+02 0.  0.
        -12    1    1    2    0    0 -0.20000558104E+01 -0.46977377029E+01 -0.18016949405E+02  0.18726436624E+02  0.00000000000E+00 0.  1.
         11    1    3    3    0    0 -0.11034393143E+01  0.24775393476E+01  0.94962092586E+01  0.98759186957E+01  0.51100000000E-03 0. -1.
        -11    1    3    3    0    0 -0.11596373039E+02 -0.43826937258E+01  0.31880919384E+02  0.34206386728E+02  0.51100000000E-03 0.  1.
         12    1    3    3    0    0  0.14699868164E+02  0.66028920811E+01 -0.23360179237E+02  0.28379257952E+02  0.00000000000E+00 0. -1.
</event>
<event>
 7    1  0.1358622E-013  0.7246150E+02  0.7816164E-02  0.1226708E+00
        -11   -1    0    0    0    0  0.00000000000E+00  0.00000000000E+00  0.45593999997E+02  0.45594000000E+02  0.51100000000E-03 0. -1.
         11   -1    0    0    0    0 -0.00000000000E+00 -0.00000000000E+00 -0.45593999997E+02  0.45594000000E+02  0.51100000000E-03 0.  1.
    9900012    2    1    2    0    0  0.10637918648E+02 -0.10737734942E+02  0.11055196147E+02  0.72461504687E+02  0.69999914534E+02 0.  0.
        -12    1    1    2    0    0 -0.10637918648E+02  0.10737734942E+02 -0.11055196147E+02  0.18726495313E+02  0.00000000000E+00 0.  1.
         11    1    3    3    0    0 -0.78272579806E+01  0.51650154953E+01  0.33253443904E+02  0.34550468655E+02  0.51100000000E-03 0. -1.
        -11    1    3    3    0    0  0.40357902081E+00 -0.21250194498E+01  0.31830861420E+01  0.38484570073E+01  0.51100000000E-03 0.  1.
        -12    1    3    3    0    0  0.18061597608E+02 -0.13777730988E+02 -0.25381333898E+02  0.34062579024E+02  0.00000000000E+00 0.  1.
</event>
<event>
 7    1  0.1358622E-013  0.7246159E+02  0.7816164E-02  0.1226708E+00
        -11   -1    0    0    0    0  0.00000000000E+00  0.00000000000E+00  0.45593999997E+02  0.45594000000E+02  0.51100000000E-03 0.  1.
         11   -1    0    0    0    0 -0.00000000000E+00 -0.00000000000E+00 -0.45593999997E+02  0.45594000000E+02  0.51100000000E-03 0. -1.
    9900012    2    1    2    0    0 -0.14448141977E+02  0.42171515759E+01 -0.11142048107E+02  0.72461590573E+02  0.70000026417E+02 0.  0.
        -12    1    1    2    0    0  0.14448141977E+02 -0.42171515759E+01  0.11142048107E+02  0.18726409427E+02  0.00000000000E+00 0.  1.
         11    1    3    3    0    0 -0.17195173631E+02  0.12971066519E+02 -0.20750246319E+02  0.29908114039E+02  0.51100000000E-03 0. -1.
        -11    1    3    3    0    0 -0.13006983160E+02 -0.39956427632E+01 -0.10050114826E+02  0.16916015497E+02  0.51100000000E-03 0.  1.
        -12    1    3    3    0    0  0.15754014814E+02 -0.47582721793E+01  0.19658313038E+02  0.25637461036E+02  0.00000000000E+00 0.  1.
</event>
<event>
 7    1  0.1358622E-013  0.7246157E+02  0.7816164E-02  0.1226708E+00
        -11   -1    0    0    0    0  0.00000000000E+00  0.00000000000E+00  0.45593999997E+02  0.45594000000E+02  0.51100000000E-03 0.  1.
         11   -1    0    0    0    0 -0.00000000000E+00 -0.00000000000E+00 -0.45593999997E+02  0.45594000000E+02  0.51100000000E-03 0. -1.
    9900012    2    1    2    0    0  0.13608034815E+02  0.62957460166E+01  0.11218924490E+02  0.72461566914E+02  0.69999995596E+02 0.  0.
        -12    1    1    2    0    0 -0.13608034815E+02 -0.62957460166E+01 -0.11218924490E+02  0.18726433086E+02  0.00000000000E+00 0.  1.
         11    1    3    3    0    0  0.18078107500E+02 -0.53540725358E+00  0.82136774015E+01  0.19863764206E+02  0.51100000000E-03 0. -1.
        -11    1    3    3    0    0  0.11507560588E+02  0.17244940858E+02  0.18683836353E+02  0.27908738363E+02  0.51100000000E-03 0.  1.
        -12    1    3    3    0    0 -0.15977633273E+02 -0.10413787588E+02 -0.15678589264E+02  0.24689064345E+02  0.00000000000E+00 0.  1.
</event>
<event>
 7    1  0.1377841E-013  0.7246159E+02  0.7816164E-02  0.1226708E+00
        -11   -1    0    0    0    0  0.00000000000E+00  0.00000000000E+00  0.45593999997E+02  0.45594000000E+02  0.51100000000E-03 0. -1.
         11   -1    0    0    0    0 -0.00000000000E+00 -0.00000000000E+00 -0.45593999997E+02  0.45594000000E+02  0.51100000000E-03 0.  1.
    9900012    2    1    2    0    0 -0.74490320490E+01  0.11706428574E+02  0.12575761991E+02  0.72461592494E+02  0.70000028919E+02 0.  0.
        -12    1    1    2    0    0  0.74490320490E+01 -0.11706428574E+02 -0.12575761991E+02  0.18726407506E+02  0.00000000000E+00 0.  1.
         11    1    3    3    0    0 -0.23920346850E+02  0.15359815402E+02  0.15730848208E+02  0.32489483040E+02  0.51100000000E-03 0. -1.
        -11    1    3    3    0    0 -0.10067244144E+02  0.48650017701E+01 -0.45349619983E+01  0.12065799910E+02  0.51100000000E-03 0.  1.
        -12    1    3    3    0    0  0.26538558945E+02 -0.85183885985E+01  0.13798757812E+01  0.27906309544E+02  0.00000000000E+00 0.  1.
</event>
<event>
 7    1  0.1358622E-013  0.7246159E+02  0.7816164E-02  0.1226708E+00
        -11   -1    0    0    0    0  0.00000000000E+00  0.00000000000E+00  0.45593999997E+02  0.45594000000E+02  0.51100000000E-03 0. -1.
         11   -1    0    0    0    0 -0.00000000000E+00 -0.00000000000E+00 -0.45593999997E+02  0.45594000000E+02  0.51100000000E-03 0.  1.
    9900012    2    1    2    0    0 -0.12850122453E+02  0.16318053919E+01  0.13523687502E+02  0.72461586581E+02  0.70000021216E+02 0.  0.
        -12    1    1    2    0    0  0.12850122453E+02 -0.16318053919E+01 -0.13523687502E+02  0.18726413419E+02  0.00000000000E+00 0.  1.
         11    1    3    3    0    0 -0.11307226177E+02  0.10643310516E+02  0.83168334723E+01  0.17615423407E+02  0.51100000000E-03 0. -1.
        -11    1    3    3    0    0 -0.16327846551E+02  0.17691441150E+02  0.24646589546E+01  0.24200417496E+02  0.51100000000E-03 0.  1.
         12    1    3    3    0    0  0.14784950275E+02 -0.26702946274E+02  0.27421950751E+01  0.30645745678E+02  0.00000000000E+00 0. -1.
</event>
<event>
 7    1  0.1358622E-013  0.7246152E+02  0.7816164E-02  0.1226708E+00
        -11   -1    0    0    0    0  0.00000000000E+00  0.00000000000E+00  0.45593999997E+02  0.45594000000E+02  0.51100000000E-03 0.  1.
         11   -1    0    0    0    0 -0.00000000000E+00 -0.00000000000E+00 -0.45593999997E+02  0.45594000000E+02  0.51100000000E-03 0. -1.
    9900012    2    1    2    0    0 -0.80041573386E+01  0.16812914180E+02  0.19850423100E+01  0.72461521129E+02  0.69999935953E+02 0.  0.
        -12    1    1    2    0    0  0.80041573386E+01 -0.16812914180E+02 -0.19850423100E+01  0.18726478871E+02  0.00000000000E+00 0.  1.
         11    1    3    3    0    0 -0.82015654110E+00  0.53979628108E+01  0.97965790296E+01  0.11215329697E+02  0.51100000000E-03 0. -1.
        -11    1    3    3    0    0 -0.92999620087E+01  0.15703655832E+02  0.23396954375E+02  0.29673415276E+02  0.51100000000E-03 0.  1.
         12    1    3    3    0    0  0.21159612113E+01 -0.42887044624E+01 -0.31208491095E+02  0.31572776157E+02  0.00000000000E+00 0. -1.
</event>
<event>
 7    1  0.1358622E-013  0.7246155E+02  0.7816164E-02  0.1226708E+00
        -11   -1    0    0    0    0  0.00000000000E+00  0.00000000000E+00  0.45593999997E+02  0.45594000000E+02  0.51100000000E-03 0. -1.
         11   -1    0    0    0    0 -0.00000000000E+00 -0.00000000000E+00 -0.45593999997E+02  0.45594000000E+02  0.51100000000E-03 0.  1.
    9900012    2    1    2    0    0  0.93041139261E+01 -0.94303677185E+01  0.13235614682E+02  0.72461551664E+02  0.69999975731E+02 0.  0.
        -12    1    1    2    0    0 -0.93041139261E+01  0.94303677185E+01 -0.13235614682E+02  0.18726448336E+02  0.00000000000E+00 0.  1.
         11    1    3    3    0    0 -0.72743782134E+01 -0.41455067755E+01  0.88996666570E+01  0.12219078185E+02  0.51100000000E-03 0. -1.
        -11    1    3    3    0    0  0.21159545005E+01 -0.11679818469E+02 -0.24573832139E+02  0.27290449780E+02  0.51100000000E-03 0.  1.
        -12    1    3    3    0    0  0.14462537639E+02  0.63949575259E+01  0.28909780165E+02  0.32952023699E+02  0.00000000000E+00 0.  1.
</event>
<event>
 7    1  0.1358622E-013  0.7246156E+02  0.7816164E-02  0.1226708E+00
        -11   -1    0    0    0    0  0.00000000000E+00  0.00000000000E+00  0.45593999997E+02  0.45594000000E+02  0.51100000000E-03 0.  1.
         11   -1    0    0    0    0 -0.00000000000E+00 -0.00000000000E+00 -0.45593999997E+02  0.45594000000E+02  0.51100000000E-03 0. -1.
    9900012    2    1    2    0    0  0.16662893065E+02  0.70267103121E+01 -0.48634164860E+01  0.72461561924E+02  0.69999989096E+02 0.  0.
        -12    1    1    2    0    0 -0.16662893065E+02 -0.70267103121E+01  0.48634164860E+01  0.18726438076E+02  0.00000000000E+00 0.  1.
         11    1    3    3    0    0  0.22367464321E+01  0.91766662676E+01  0.99526932606E+01  0.13721164010E+02  0.51100000000E-03 0. -1.
        -11    1    3    3    0    0 -0.11789924472E+02  0.17712793213E+02  0.27463612918E+01  0.21454320382E+02  0.51100000000E-03 0.  1.
         12    1    3    3    0    0  0.26216071105E+02 -0.19862749169E+02 -0.17562471038E+02  0.37286077531E+02  0.00000000000E+00 0. -1.
</event>
<event>
 7    1  0.1358622E-013  0.7246182E+02  0.7816164E-02  0.1226707E+00
        -11   -1    0    0    0    0  0.00000000000E+00  0.00000000000E+00  0.45593999997E+02  0.45594000000E+02  0.51100000000E-03 0.  1.
         11   -1    0    0    0    0 -0.00000000000E+00 -0.00000000000E+00 -0.45593999997E+02  0.45594000000E+02  0.51100000000E-03 0. -1.
    9900012    2    1    2    0    0  0.78796435712E+01  0.13430567342E+02 -0.10401968743E+02  0.72461818444E+02  0.70000323260E+02 0.  0.
        -12    1    1    2    0    0 -0.78796435712E+01 -0.13430567342E+02  0.10401968743E+02  0.18726181556E+02  0.00000000000E+00 0.  1.
         11    1    3    3    0    0  0.18503063287E+02  0.33619134700E+01 -0.29598718815E+02  0.35067791047E+02  0.51100000000E-03 0. -1.
        -11    1    3    3    0    0  0.43549378245E+01 -0.61209470613E+01 -0.88705894426E+00  0.75642812093E+01  0.51100000000E-03 0.  1.
        -12    1    3    3    0    0 -0.14978357541E+02  0.16189600934E+02  0.20083809016E+02  0.29829746187E+02  0.00000000000E+00 0.  1.
</event>
<event>
 7    1  0.1358622E-013  0.7246156E+02  0.7816164E-02  0.1226708E+00
        -11   -1    0    0    0    0  0.00000000000E+00  0.00000000000E+00  0.45593999997E+02  0.45594000000E+02  0.51100000000E-03 0.  1.
         11   -1    0    0    0    0 -0.00000000000E+00 -0.00000000000E+00 -0.45593999997E+02  0.45594000000E+02  0.51100000000E-03 0. -1.
    9900012    2    1    2    0    0  0.83866408869E+01 -0.11163392485E+02 -0.12478888520E+02  0.72461555174E+02  0.69999980302E+02 0.  0.
        -12    1    1    2    0    0 -0.83866408869E+01  0.11163392485E+02  0.12478888520E+02  0.18726444826E+02  0.00000000000E+00 0.  1.
         11    1    3    3    0    0  0.25901888428E+00  0.27124363008E+01 -0.19489412923E+01  0.33500408789E+01  0.51100000000E-03 0. -1.
        -11    1    3    3    0    0 -0.11994499078E+02  0.22871064592E+02  0.34438499177E+00  0.25827740997E+02  0.51100000000E-03 0.  1.
        -12    1    3    3    0    0  0.20122121081E+02 -0.36746893378E+02 -0.10874332219E+02  0.43283773298E+02  0.00000000000E+00 0.  1.
</event>
<event>
 7    1  0.1358622E-013  0.7246157E+02  0.7816164E-02  0.1226708E+00
        -11   -1    0    0    0    0  0.00000000000E+00  0.00000000000E+00  0.45593999997E+02  0.45594000000E+02  0.51100000000E-03 0.  1.
         11   -1    0    0    0    0 -0.00000000000E+00 -0.00000000000E+00 -0.45593999997E+02  0.45594000000E+02  0.51100000000E-03 0. -1.
    9900012    2    1    2    0    0 -0.59664495189E+01  0.17705718000E+02 -0.12602537642E+01  0.72461569232E+02  0.69999998617E+02 0.  0.
        -12    1    1    2    0    0  0.59664495189E+01 -0.17705718000E+02  0.12602537642E+01  0.18726430768E+02  0.00000000000E+00 0.  1.
         11    1    3    3    0    0  0.10830681864E+01  0.22120168222E+02  0.26361311086E+01  0.22303005769E+02  0.51100000000E-03 0. -1.
        -11    1    3    3    0    0  0.17504168528E+02  0.25236002612E+01  0.10791724454E+02  0.20717765109E+02  0.51100000000E-03 0.  1.
         12    1    3    3    0    0 -0.24553686234E+02 -0.69380504833E+01 -0.14688109327E+02  0.29440798355E+02  0.00000000000E+00 0. -1.
</event>
<event>
 7    1  0.1358622E-013  0.7246160E+02  0.7816164E-02  0.1226708E+00
        -11   -1    0    0    0    0  0.00000000000E+00  0.00000000000E+00  0.45593999997E+02  0.45594000000E+02  0.51100000000E-03 0.  1.
         11   -1    0    0    0    0 -0.00000000000E+00 -0.00000000000E+00 -0.45593999997E+02  0.45594000000E+02  0.51100000000E-03 0. -1.
    9900012    2    1    2    0    0  0.16422555746E+01  0.10002859815E+02 -0.15745602650E+02  0.72461595896E+02  0.70000033351E+02 0.  0.
        -12    1    1    2    0    0 -0.16422555746E+01 -0.10002859815E+02  0.15745602650E+02  0.18726404104E+02  0.00000000000E+00 0.  1.
         11    1    3    3    0    0  0.23589477640E+02 -0.87595993553E+01 -0.24883416361E+02  0.35388959383E+02  0.51100000000E-03 0. -1.
        -11    1    3    3    0    0 -0.87525911030E+01 -0.17944389915E+01  0.89477620920E+01  0.12644773981E+02  0.51100000000E-03 0.  1.
        -12    1    3    3    0    0 -0.13194630962E+02  0.20556898162E+02  0.19005161837E+00  0.24427862532E+02  0.00000000000E+00 0.  1.
</event>
<event>
 7    1  0.1358622E-013  0.7246155E+02  0.7816164E-02  0.1226708E+00
        -11   -1    0    0    0    0  0.00000000000E+00  0.00000000000E+00  0.45593999997E+02  0.45594000000E+02  0.51100000000E-03 0.  1.
         11   -1    0    0    0    0 -0.00000000000E+00 -0.00000000000E+00 -0.45593999997E+02  0.45594000000E+02  0.51100000000E-03 0. -1.
    9900012    2    1    2    0    0 -0.17062138370E+02 -0.11815417228E+00 -0.77168163018E+01  0.72461553994E+02  0.69999978766E+02 0.  0.
        -12    1    1    2    0    0  0.17062138370E+02  0.11815417228E+00  0.77168163018E+01  0.18726446006E+02  0.00000000000E+00 0.  1.
         11    1    3    3    0    0 -0.18873839942E+02  0.77098110869E+01  0.26051931387E+01  0.20553589777E+02  0.51100000000E-03 0. -1.
        -11    1    3    3    0    0 -0.18457210622E+02  0.10113906597E+02  0.37837215971E+01  0.21384019267E+02  0.51100000000E-03 0.  1.
        -12    1    3    3    0    0  0.20268912194E+02 -0.17941871856E+02 -0.14105731038E+02  0.30523944951E+02  0.00000000000E+00 0.  1.
</event>
<event>
 7    1  0.1358622E-013  0.7246151E+02  0.7816164E-02  0.1226708E+00
        -11   -1    0    0    0    0  0.00000000000E+00  0.00000000000E+00  0.45593999997E+02  0.45594000000E+02  0.51100000000E-03 0. -1.
         11   -1    0    0    0    0 -0.00000000000E+00 -0.00000000000E+00 -0.45593999997E+02  0.45594000000E+02  0.51100000000E-03 0.  1.
    9900012    2    1    2    0    0  0.84754765459E+01  0.13362856917E+02  0.10014086328E+02  0.72461506131E+02  0.69999916415E+02 0.  0.
        -12    1    1    2    0    0 -0.84754765459E+01 -0.13362856917E+02 -0.10014086328E+02  0.18726493869E+02  0.00000000000E+00 0.  1.
         11    1    3    3    0    0  0.27960444071E+01 -0.60015175261E+00 -0.71920439882E+01  0.77397379440E+01  0.51100000000E-03 0. -1.
        -11    1    3    3    0    0  0.44998141374E+01 -0.44377366235E+01 -0.21198311883E+02  0.22120358509E+02  0.51100000000E-03 0.  1.
         12    1    3    3    0    0  0.11796180015E+01  0.18400745293E+02  0.38404442199E+02  0.42601409678E+02  0.00000000000E+00 0. -1.
</event>
<event>
 7    1  0.1358622E-013  0.7246157E+02  0.7816164E-02  0.1226708E+00
        -11   -1    0    0    0    0  0.00000000000E+00  0.00000000000E+00  0.45593999997E+02  0.45594000000E+02  0.51100000000E-03 0.  1.
         11   -1    0    0    0    0 -0.00000000000E+00 -0.00000000000E+00 -0.45593999997E+02  0.45594000000E+02  0.51100000000E-03 0. -1.
    9900012    2    1    2    0    0  0.12373991417E+02 -0.14054021870E+02  0.21911687777E+00  0.72461569307E+02  0.69999998714E+02 0.  0.
        -12    1    1    2    0    0 -0.12373991417E+02  0.14054021870E+02 -0.21911687777E+00  0.18726430693E+02  0.00000000000E+00 0.  1.
         11    1    3    3    0    0  0.92514581622E+01  0.19978980229E+02  0.17579371343E+02  0.28174162386E+02  0.51100000000E-03 0.  1.
        -11    1    3    3    0    0  0.57197015603E+01 -0.11766901059E+01  0.18664446570E+01  0.61305139640E+01  0.51100000000E-03 0. -1.
         12    1    3    3    0    0 -0.25971683056E+01 -0.32856311993E+02 -0.19226699122E+02  0.38156892956E+02  0.00000000000E+00 0. -1.
</event>
<event>
 7    1  0.1358622E-013  0.7246154E+02  0.7816164E-02  0.1226708E+00
        -11   -1    0    0    0    0  0.00000000000E+00  0.00000000000E+00  0.45593999997E+02  0.45594000000E+02  0.51100000000E-03 0.  1.
         11   -1    0    0    0    0 -0.00000000000E+00 -0.00000000000E+00 -0.45593999997E+02  0.45594000000E+02  0.51100000000E-03 0. -1.
    9900012    2    1    2    0    0 -0.23255359217E+01  0.11976146406E+02 -0.14207178486E+02  0.72461544901E+02  0.69999966920E+02 0.  0.
        -12    1    1    2    0    0  0.23255359217E+01 -0.11976146406E+02  0.14207178486E+02  0.18726455099E+02  0.00000000000E+00 0.  1.
         11    1    3    3    0    0 -0.14972471396E+02 -0.25970902808E+01 -0.11547379601E+02  0.19085642603E+02  0.51100000000E-03 0.  1.
        -11    1    3    3    0    0  0.90282725873E+01  0.26087356613E+02  0.15433281568E+02  0.31626666931E+02  0.51100000000E-03 0. -1.
         12    1    3    3    0    0  0.36186628872E+01 -0.11514119927E+02 -0.18093080453E+02  0.21749235367E+02  0.00000000000E+00 0. -1.
</event>
<event>
 7    1  0.1358622E-013  0.7246161E+02  0.7816164E-02  0.1226708E+00
        -11   -1    0    0    0    0  0.00000000000E+00  0.00000000000E+00  0.45593999997E+02  0.45594000000E+02  0.51100000000E-03 0.  1.
         11   -1    0    0    0    0 -0.00000000000E+00 -0.00000000000E+00 -0.45593999997E+02  0.45594000000E+02  0.51100000000E-03 0. -1.
    9900012    2    1    2    0    0  0.15241576741E+02  0.31303131058E+01 -0.10419840474E+02  0.72461612276E+02  0.70000054689E+02 0.  0.
        -12    1    1    2    0    0 -0.15241576741E+02 -0.31303131058E+01  0.10419840474E+02  0.18726387724E+02  0.00000000000E+00 0.  1.
         11    1    3    3    0    0  0.13621564265E+02 -0.14616740194E+02 -0.82592256694E+01  0.21619688153E+02  0.51100000000E-03 0. -1.
        -11    1    3    3    0    0  0.74941771043E+00  0.20247602256E+02 -0.22530314269E+02  0.30300859482E+02  0.51100000000E-03 0.  1.
        -12    1    3    3    0    0  0.87059476486E+00 -0.25005489559E+01  0.20369699464E+02  0.20541064641E+02  0.00000000000E+00 0.  1.
</event>
<event>
 7    1  0.1358622E-013  0.7246234E+02  0.7816164E-02  0.1226706E+00
        -11   -1    0    0    0    0  0.00000000000E+00  0.00000000000E+00  0.45593999997E+02  0.45594000000E+02  0.51100000000E-03 0.  1.
         11   -1    0    0    0    0 -0.00000000000E+00 -0.00000000000E+00 -0.45593999997E+02  0.45594000000E+02  0.51100000000E-03 0. -1.
    9900012    2    1    2    0    0 -0.61283275221E+00 -0.82781937062E-01 -0.18715443322E+02  0.72462342853E+02  0.70001006394E+02 0.  0.
        -12    1    1    2    0    0  0.61283275221E+00  0.82781937062E-01  0.18715443322E+02  0.18725657147E+02  0.00000000000E+00 0.  1.
         11    1    3    3    0    0  0.92029701877E+01 -0.70874298238E+01  0.16206641227E+01  0.11728293748E+02  0.51100000000E-03 0. -1.
        -11    1    3    3    0    0 -0.17425512269E+02 -0.19415105284E+02  0.72851742376E+00  0.26098381730E+02  0.51100000000E-03 0.  1.
         12    1    3    3    0    0  0.76097093291E+01  0.26419753171E+02 -0.21064624869E+02  0.34635667375E+02  0.00000000000E+00 0. -1.
</event>
<event>
 7    1  0.1358622E-013  0.7246156E+02  0.7816164E-02  0.1226708E+00
        -11   -1    0    0    0    0  0.00000000000E+00  0.00000000000E+00  0.45593999997E+02  0.45594000000E+02  0.51100000000E-03 0.  1.
         11   -1    0    0    0    0 -0.00000000000E+00 -0.00000000000E+00 -0.45593999997E+02  0.45594000000E+02  0.51100000000E-03 0. -1.
    9900012    2    1    2    0    0  0.22928940056E+01  0.17304354871E+02  0.67809685819E+01  0.72461558925E+02  0.69999985190E+02 0.  0.
        -12    1    1    2    0    0 -0.22928940056E+01 -0.17304354871E+02 -0.67809685819E+01  0.18726441075E+02  0.00000000000E+00 0.  1.
         11    1    3    3    0    0  0.10456978236E+01  0.87459274027E+01 -0.59057113569E+01  0.10604817630E+02  0.51100000000E-03 0. -1.
        -11    1    3    3    0    0  0.10360791762E+02  0.31623185051E+02 -0.14532544974E+01  0.33308914537E+02  0.51100000000E-03 0.  1.
        -12    1    3    3    0    0 -0.91135955801E+01 -0.23064757583E+02  0.14139934436E+02  0.28547826758E+02  0.00000000000E+00 0.  1.
</event>
<event>
 7    1  0.1358622E-013  0.7246159E+02  0.7816164E-02  0.1226708E+00
        -11   -1    0    0    0    0  0.00000000000E+00  0.00000000000E+00  0.45593999997E+02  0.45594000000E+02  0.51100000000E-03 0. -1.
         11   -1    0    0    0    0 -0.00000000000E+00 -0.00000000000E+00 -0.45593999997E+02  0.45594000000E+02  0.51100000000E-03 0.  1.
    9900012    2    1    2    0    0 -0.17863626024E+01  0.17686235752E+02  0.58893411495E+01  0.72461591759E+02  0.70000027962E+02 0.  0.
        -12    1    1    2    0    0  0.17863626024E+01 -0.17686235752E+02 -0.58893411495E+01  0.18726408241E+02  0.00000000000E+00 0.  1.
         11    1    3    3    0    0  0.70060014522E+01 -0.92683678833E+01 -0.33103379211E+01  0.12080771374E+02  0.51100000000E-03 0. -1.
        -11    1    3    3    0    0 -0.17188041191E+01  0.26141836159E+02 -0.18311353938E+02  0.31963347269E+02  0.51100000000E-03 0.  1.
         12    1    3    3    0    0 -0.70735599355E+01  0.81276747665E+00  0.27511033008E+02  0.28417473116E+02  0.00000000000E+00 0. -1.
</event>
<event>
 7    1  0.1358622E-013  0.7246159E+02  0.7816164E-02  0.1226708E+00
        -11   -1    0    0    0    0  0.00000000000E+00  0.00000000000E+00  0.45593999997E+02  0.45594000000E+02  0.51100000000E-03 0.  1.
         11   -1    0    0    0    0 -0.00000000000E+00 -0.00000000000E+00 -0.45593999997E+02  0.45594000000E+02  0.51100000000E-03 0. -1.
    9900012    2    1    2    0    0  0.76942380286E+01  0.37252513849E+01 -0.16661325251E+02  0.72461586679E+02  0.70000021345E+02 0.  0.
        -12    1    1    2    0    0 -0.76942380286E+01 -0.37252513849E+01  0.16661325251E+02  0.18726413321E+02  0.00000000000E+00 0.  1.
         11    1    3    3    0    0 -0.12736309864E+02  0.70409621394E+01 -0.23386342829E+01  0.14739672567E+02  0.51100000000E-03 0. -1.
        -11    1    3    3    0    0  0.25908149268E+01  0.11425294822E+02  0.15841636015E+02  0.19702972254E+02  0.51100000000E-03 0.  1.
         12    1    3    3    0    0  0.17839732966E+02 -0.14741005577E+02 -0.30164326983E+02  0.38018941859E+02  0.00000000000E+00 0. -1.
</event>
<event>
 7    1  0.1358622E-013  0.7246159E+02  0.7816164E-02  0.1226708E+00
        -11   -1    0    0    0    0  0.00000000000E+00  0.00000000000E+00  0.45593999997E+02  0.45594000000E+02  0.51100000000E-03 0.  1.
         11   -1    0    0    0    0 -0.00000000000E+00 -0.00000000000E+00 -0.45593999997E+02  0.45594000000E+02  0.51100000000E-03 0. -1.
    9900012    2    1    2    0    0  0.17581547632E+02  0.59364970367E+01 -0.25150988856E+01  0.72461587193E+02  0.70000022014E+02 0.  0.
        -12    1    1    2    0    0 -0.17581547632E+02 -0.59364970367E+01  0.25150988856E+01  0.18726412807E+02  0.00000000000E+00 0.  1.
         11    1    3    3    0    0  0.10434394454E+02  0.74566885258E+01 -0.19236344653E+02  0.23119596607E+02  0.51100000000E-03 0. -1.
        -11    1    3    3    0    0 -0.24551205131E+01 -0.12969754558E+02 -0.11436198822E+02  0.17465073541E+02  0.51100000000E-03 0.  1.
        -12    1    3    3    0    0  0.96022736911E+01  0.11449563069E+02  0.28157444589E+02  0.31876917045E+02  0.00000000000E+00 0.  1.
</event>
<event>
 7    1  0.1358622E-013  0.7246144E+02  0.7816164E-02  0.1226708E+00
        -11   -1    0    0    0    0  0.00000000000E+00  0.00000000000E+00  0.45593999997E+02  0.45594000000E+02  0.51100000000E-03 0. -1.
         11   -1    0    0    0    0 -0.00000000000E+00 -0.00000000000E+00 -0.45593999997E+02  0.45594000000E+02  0.51100000000E-03 0.  1.
    9900012    2    1    2    0    0  0.16741595514E+02 -0.85694557071E+00 -0.83467782196E+01  0.72461439112E+02  0.69999829110E+02 0.  0.
        -12    1    1    2    0    0 -0.16741595514E+02  0.85694557071E+00  0.83467782196E+01  0.18726560888E+02  0.00000000000E+00 0.  1.
         11    1    3    3    0    0  0.18655491643E+00 -0.25447522589E+01  0.27733177701E+01  0.37685353270E+01  0.51100000000E-03 0. -1.
        -11    1    3    3    0    0 -0.16349954923E+02  0.18597147461E+02  0.92818215938E+01  0.26444794044E+02  0.51100000000E-03 0.  1.
         12    1    3    3    0    0  0.32904995521E+02 -0.16909340773E+02 -0.20401917584E+02  0.42248109741E+02  0.00000000000E+00 0. -1.
</event>
<event>
 7    1  0.1358622E-013  0.7246156E+02  0.7816164E-02  0.1226708E+00
        -11   -1    0    0    0    0  0.00000000000E+00  0.00000000000E+00  0.45593999997E+02  0.45594000000E+02  0.51100000000E-03 0. -1.
         11   -1    0    0    0    0 -0.00000000000E+00 -0.00000000000E+00 -0.45593999997E+02  0.45594000000E+02  0.51100000000E-03 0.  1.
    9900012    2    1    2    0    0  0.53539473623E+00 -0.18641179054E+02  0.17027089627E+01  0.72461563556E+02  0.69999991223E+02 0.  0.
        -12    1    1    2    0    0 -0.53539473623E+00  0.18641179054E+02 -0.17027089627E+01  0.18726436444E+02  0.00000000000E+00 0.  1.
         11    1    3    3    0    0  0.23693427145E+02 -0.13959253772E+02 -0.16776121909E+02  0.32213002380E+02  0.51100000000E-03 0. -1.
        -11    1    3    3    0    0  0.50072695093E+01 -0.17946725201E+01  0.88828751268E+01  0.10353698285E+02  0.51100000000E-03 0.  1.
        -12    1    3    3    0    0 -0.28165301918E+02 -0.28872527623E+01  0.95959557451E+01  0.29894862892E+02  0.00000000000E+00 0.  1.
</event>
<event>
 7    1  0.1358622E-013  0.7246131E+02  0.7816164E-02  0.1226709E+00
        -11   -1    0    0    0    0  0.00000000000E+00  0.00000000000E+00  0.45593999997E+02  0.45594000000E+02  0.51100000000E-03 0.  1.
         11   -1    0    0    0    0 -0.00000000000E+00 -0.00000000000E+00 -0.45593999997E+02  0.45594000000E+02  0.51100000000E-03 0. -1.
    9900012    2    1    2    0    0 -0.10810801525E+02  0.14047470470E+02  0.60401962860E+01  0.72461312429E+02  0.69999664081E+02 0.  0.
        -12    1    1    2    0    0  0.10810801525E+02 -0.14047470470E+02 -0.60401962860E+01  0.18726687571E+02  0.00000000000E+00 0.  1.
         11    1    3    3    0    0 -0.17641405261E+02  0.17066744906E+02 -0.25594312034E+02  0.35462117394E+02  0.51100000000E-03 0. -1.
        -11    1    3    3    0    0  0.81234700713E+01  0.31096852478E+01  0.58931189135E+01  0.10506653089E+02  0.51100000000E-03 0.  1.
        -12    1    3    3    0    0 -0.12928663352E+01 -0.61289596836E+01  0.25741389407E+02  0.26492541946E+02  0.00000000000E+00 0.  1.
</event>
<event>
 7    1  0.1358622E-013  0.7246159E+02  0.7816164E-02  0.1226708E+00
        -11   -1    0    0    0    0  0.00000000000E+00  0.00000000000E+00  0.45593999997E+02  0.45594000000E+02  0.51100000000E-03 0.  1.
         11   -1    0    0    0    0 -0.00000000000E+00 -0.00000000000E+00 -0.45593999997E+02  0.45594000000E+02  0.51100000000E-03 0. -1.
    9900012    2    1    2    0    0  0.13526052557E+02  0.12933083449E+02  0.67805933809E+00  0.72461587911E+02  0.70000022949E+02 0.  0.
        -12    1    1    2    0    0 -0.13526052557E+02 -0.12933083449E+02 -0.67805933809E+00  0.18726412089E+02  0.00000000000E+00 0.  1.
         11    1    3    3    0    0  0.16616053398E+02  0.15490082760E+02 -0.32700006910E+01  0.22950572960E+02  0.51100000000E-03 0. -1.
        -11    1    3    3    0    0  0.14648007783E+02  0.87875309238E+01  0.17513115507E+02  0.24464137973E+02  0.51100000000E-03 0.  1.
         12    1    3    3    0    0 -0.17738008624E+02 -0.11344530235E+02 -0.13565055478E+02  0.25046876977E+02  0.00000000000E+00 0. -1.
</event>
<event>
 7    1  0.1358622E-013  0.7246151E+02  0.7816164E-02  0.1226708E+00
        -11   -1    0    0    0    0  0.00000000000E+00  0.00000000000E+00  0.45593999997E+02  0.45594000000E+02  0.51100000000E-03 0.  1.
         11   -1    0    0    0    0 -0.00000000000E+00 -0.00000000000E+00 -0.45593999997E+02  0.45594000000E+02  0.51100000000E-03 0. -1.
    9900012    2    1    2    0    0  0.14925938789E+01 -0.12019637008E+02 -0.14282221319E+02  0.72461511912E+02  0.69999923946E+02 0.  0.
        -12    1    1    2    0    0 -0.14925938789E+01  0.12019637008E+02  0.14282221319E+02  0.18726488088E+02  0.00000000000E+00 0.  1.
         11    1    3    3    0    0 -0.53754190890E+01 -0.17808663227E+02  0.43513783849E+01  0.19104400290E+02  0.51100000000E-03 0. -1.
        -11    1    3    3    0    0 -0.87448874216E+01 -0.18322533927E+02 -0.26223027972E+01  0.20471071729E+02  0.51100000000E-03 0.  1.
         12    1    3    3    0    0  0.15612900389E+02  0.24111560146E+02 -0.16011296907E+02  0.32886039894E+02  0.00000000000E+00 0. -1.
</event>
<event>
 7    1  0.1358622E-013  0.7246156E+02  0.7816164E-02  0.1226708E+00
        -11   -1    0    0    0    0  0.00000000000E+00  0.00000000000E+00  0.45593999997E+02  0.45594000000E+02  0.51100000000E-03 0.  1.
         11   -1    0    0    0    0 -0.00000000000E+00 -0.00000000000E+00 -0.45593999997E+02  0.45594000000E+02  0.51100000000E-03 0. -1.
    9900012    2    1    2    0    0  0.11248779749E+02  0.16517561390E+01 -0.14880061504E+02  0.72461559480E+02  0.69999985912E+02 0.  0.
        -12    1    1    2    0    0 -0.11248779749E+02 -0.16517561390E+01  0.14880061504E+02  0.18726440520E+02  0.00000000000E+00 0.  1.
         11    1    3    3    0    0  0.74677143106E+01 -0.78580506222E+00 -0.35781627009E+02  0.36561032238E+02  0.51100000000E-03 0. -1.
        -11    1    3    3    0    0  0.11067438443E+02  0.11987215740E+02  0.76643066801E+01  0.18025624318E+02  0.51100000000E-03 0.  1.
        -12    1    3    3    0    0 -0.72863730041E+01 -0.95496545393E+01  0.13237258825E+02  0.17874902925E+02  0.00000000000E+00 0.  1.
</event>
<event>
 7    1  0.1358622E-013  0.7246159E+02  0.7816164E-02  0.1226708E+00
        -11   -1    0    0    0    0  0.00000000000E+00  0.00000000000E+00  0.45593999997E+02  0.45594000000E+02  0.51100000000E-03 0. -1.
         11   -1    0    0    0    0 -0.00000000000E+00 -0.00000000000E+00 -0.45593999997E+02  0.45594000000E+02  0.51100000000E-03 0.  1.
    9900012    2    1    2    0    0  0.15551330864E+02  0.61667478902E+01  0.84146190017E+01  0.72461588594E+02  0.70000023839E+02 0.  0.
        -12    1    1    2    0    0 -0.15551330864E+02 -0.61667478902E+01 -0.84146190017E+01  0.18726411406E+02  0.00000000000E+00 0.  1.
         11    1    3    3    0    0  0.20803123516E+02  0.17656964925E+02  0.14953821243E+02  0.31115191281E+02  0.51100000000E-03 0. -1.
        -11    1    3    3    0    0 -0.11571255867E+00  0.85534473129E+01  0.11199191728E+02  0.14092435770E+02  0.51100000000E-03 0.  1.
        -12    1    3    3    0    0 -0.51360800933E+01 -0.20043664348E+02 -0.17738393969E+02  0.27253961544E+02  0.00000000000E+00 0.  1.
</event>
<event>
 7    1  0.1358622E-013  0.7246191E+02  0.7816164E-02  0.1226707E+00
        -11   -1    0    0    0    0  0.00000000000E+00  0.00000000000E+00  0.45593999997E+02  0.45594000000E+02  0.51100000000E-03 0. -1.
         11   -1    0    0    0    0 -0.00000000000E+00 -0.00000000000E+00 -0.45593999997E+02  0.45594000000E+02  0.51100000000E-03 0.  1.
    9900012    2    1    2    0    0  0.10078374339E+02  0.77950173120E+00  0.15763409264E+02  0.72461913278E+02  0.70000446799E+02 0.  0.
        -12    1    1    2    0    0 -0.10078374339E+02 -0.77950173120E+00 -0.15763409264E+02  0.18726086722E+02  0.00000000000E+00 0.  1.
         11    1    3    3    0    0  0.18409692473E+02 -0.10965268201E+02  0.21597581523E+02  0.30423829666E+02  0.51100000000E-03 0. -1.
        -11    1    3    3    0    0  0.83610300117E+01  0.78919781498E+01  0.12474299630E+02  0.16964618873E+02  0.51100000000E-03 0.  1.
        -12    1    3    3    0    0 -0.16692348146E+02  0.38527917824E+01 -0.18308471888E+02  0.25073464739E+02  0.00000000000E+00 0.  1.
</event>
<event>
 7    1  0.1358622E-013  0.7246154E+02  0.7816164E-02  0.1226708E+00
        -11   -1    0    0    0    0  0.00000000000E+00  0.00000000000E+00  0.45593999997E+02  0.45594000000E+02  0.51100000000E-03 0.  1.
         11   -1    0    0    0    0 -0.00000000000E+00 -0.00000000000E+00 -0.45593999997E+02  0.45594000000E+02  0.51100000000E-03 0. -1.
    9900012    2    1    2    0    0  0.11191187842E+02  0.12936091969E+02 -0.76220137402E+01  0.72461541333E+02  0.69999962272E+02 0.  0.
        -12    1    1    2    0    0 -0.11191187842E+02 -0.12936091969E+02  0.76220137402E+01  0.18726458667E+02  0.00000000000E+00 0.  1.
         11    1    3    3    0    0  0.23755269013E+02  0.21157236279E+01 -0.15941861242E+01  0.23902521248E+02  0.51100000000E-03 0. -1.
        -11    1    3    3    0    0  0.11237879918E+02  0.18361433961E+02 -0.91601429681E+01  0.23395307683E+02  0.51100000000E-03 0.  1.
         12    1    3    3    0    0 -0.23801961089E+02 -0.75410656194E+01  0.31323153522E+01  0.25163712402E+02  0.00000000000E+00 0. -1.
</event>
<event>
 7    1  0.1358622E-013  0.7246158E+02  0.7816164E-02  0.1226708E+00
        -11   -1    0    0    0    0  0.00000000000E+00  0.00000000000E+00  0.45593999997E+02  0.45594000000E+02  0.51100000000E-03 0. -1.
         11   -1    0    0    0    0 -0.00000000000E+00 -0.00000000000E+00 -0.45593999997E+02  0.45594000000E+02  0.51100000000E-03 0.  1.
    9900012    2    1    2    0    0  0.10618550481E+02 -0.15124238909E+02 -0.30302528777E+01  0.72461584182E+02  0.70000018091E+02 0.  0.
        -12    1    1    2    0    0 -0.10618550481E+02  0.15124238909E+02  0.30302528777E+01  0.18726415818E+02  0.00000000000E+00 0.  1.
         11    1    3    3    0    0 -0.21285971255E+01 -0.17474446452E+02  0.17983649222E+00  0.17604531972E+02  0.51100000000E-03 0. -1.
        -11    1    3    3    0    0  0.16007156836E+02 -0.18961213740E+02 -0.16249251760E+02  0.29661336441E+02  0.51100000000E-03 0.  1.
         12    1    3    3    0    0 -0.32600092294E+01  0.21311421282E+02  0.13039162390E+02  0.25195715768E+02  0.00000000000E+00 0. -1.
</event>
<event>
 7    1  0.1358622E-013  0.7246154E+02  0.7816164E-02  0.1226708E+00
        -11   -1    0    0    0    0  0.00000000000E+00  0.00000000000E+00  0.45593999997E+02  0.45594000000E+02  0.51100000000E-03 0.  1.
         11   -1    0    0    0    0 -0.00000000000E+00 -0.00000000000E+00 -0.45593999997E+02  0.45594000000E+02  0.51100000000E-03 0. -1.
    9900012    2    1    2    0    0 -0.11199399303E+02 -0.72191691781E+01 -0.13158169233E+02  0.72461538350E+02  0.69999958386E+02 0.  0.
        -12    1    1    2    0    0  0.11199399303E+02  0.72191691781E+01  0.13158169233E+02  0.18726461650E+02  0.00000000000E+00 0.  1.
         11    1    3    3    0    0 -0.18637278028E+02 -0.60434227735E+01 -0.24575058834E+02  0.31429359015E+02  0.51100000000E-03 0. -1.
        -11    1    3    3    0    0 -0.75720926290E+01  0.14047609780E+02 -0.15416051703E+01  0.16032731335E+02  0.51100000000E-03 0.  1.
         12    1    3    3    0    0  0.15009971354E+02 -0.15223356184E+02  0.12958494771E+02  0.24999448000E+02  0.00000000000E+00 0. -1.
</event>
<event>
 7    1  0.1358622E-013  0.7246153E+02  0.7816164E-02  0.1226708E+00
        -11   -1    0    0    0    0  0.00000000000E+00  0.00000000000E+00  0.45593999997E+02  0.45594000000E+02  0.51100000000E-03 0.  1.
         11   -1    0    0    0    0 -0.00000000000E+00 -0.00000000000E+00 -0.45593999997E+02  0.45594000000E+02  0.51100000000E-03 0. -1.
    9900012    2    1    2    0    0  0.14663935712E+02 -0.34277618529E+01 -0.11131044741E+02  0.72461528926E+02  0.69999946109E+02 0.  0.
        -12    1    1    2    0    0 -0.14663935712E+02  0.34277618529E+01  0.11131044741E+02  0.18726471074E+02  0.00000000000E+00 0.  1.
         11    1    3    3    0    0 -0.21891232048E+01 -0.34523641727E+01  0.16543312442E+02  0.17040899788E+02  0.51100000000E-03 0.  1.
        -11    1    3    3    0    0  0.23502799907E+02 -0.14165373858E+02 -0.50551336521E+01  0.27903293650E+02  0.51100000000E-03 0. -1.
         12    1    3    3    0    0 -0.66497409911E+01  0.14189976178E+02 -0.22619223531E+02  0.27517335487E+02  0.00000000000E+00 0. -1.
</event>
<event>
 7    1  0.1358622E-013  0.7246154E+02  0.7816164E-02  0.1226708E+00
        -11   -1    0    0    0    0  0.00000000000E+00  0.00000000000E+00  0.45593999997E+02  0.45594000000E+02  0.51100000000E-03 0. -1.
         11   -1    0    0    0    0 -0.00000000000E+00 -0.00000000000E+00 -0.45593999997E+02  0.45594000000E+02  0.51100000000E-03 0.  1.
    9900012    2    1    2    0    0  0.13796013085E+02 -0.11860641223E+02  0.44357291548E+01  0.72461535294E+02  0.69999954406E+02 0.  0.
        -12    1    1    2    0    0 -0.13796013085E+02  0.11860641223E+02 -0.44357291548E+01  0.18726464706E+02  0.00000000000E+00 0.  1.
         11    1    3    3    0    0  0.30402725281E+01 -0.82810439556E+00  0.12579015878E+02  0.12967677304E+02  0.51100000000E-03 0. -1.
        -11    1    3    3    0    0 -0.15287687111E+02 -0.14918349752E+02  0.13619314204E+02  0.25332908561E+02  0.51100000000E-03 0.  1.
        -12    1    3    3    0    0  0.26043427668E+02  0.38858129250E+01 -0.21762600927E+02  0.34160949429E+02  0.00000000000E+00 0.  1.
</event>
<event>
 7    1  0.1358622E-013  0.7246158E+02  0.7816164E-02  0.1226708E+00
        -11   -1    0    0    0    0  0.00000000000E+00  0.00000000000E+00  0.45593999997E+02  0.45594000000E+02  0.51100000000E-03 0.  1.
         11   -1    0    0    0    0 -0.00000000000E+00 -0.00000000000E+00 -0.45593999997E+02  0.45594000000E+02  0.51100000000E-03 0. -1.
    9900012    2    1    2    0    0 -0.26790338436E+01  0.15587286094E+02 -0.10026876827E+02  0.72461575648E+02  0.70000006974E+02 0.  0.
        -12    1    1    2    0    0  0.26790338436E+01 -0.15587286094E+02  0.10026876827E+02  0.18726424352E+02  0.00000000000E+00 0.  1.
         11    1    3    3    0    0 -0.67687568468E+01  0.41306338893E+01  0.10697890891E+02  0.13316271075E+02  0.51100000000E-03 0.  1.
        -11    1    3    3    0    0  0.18055314677E+02 -0.13626127930E+02 -0.20361419062E+02  0.30434407123E+02  0.51100000000E-03 0. -1.
         12    1    3    3    0    0 -0.13965591674E+02  0.25082780135E+02 -0.36334865628E+00  0.28710897449E+02  0.00000000000E+00 0. -1.
</event>
<event>
 7    1  0.1358622E-013  0.7246151E+02  0.7816164E-02  0.1226708E+00
        -11   -1    0    0    0    0  0.00000000000E+00  0.00000000000E+00  0.45593999997E+02  0.45594000000E+02  0.51100000000E-03 0. -1.
         11   -1    0    0    0    0 -0.00000000000E+00 -0.00000000000E+00 -0.45593999997E+02  0.45594000000E+02  0.51100000000E-03 0.  1.
    9900012    2    1    2    0    0 -0.55415430167E+01  0.21930780121E+01  0.17752836637E+02  0.72461508101E+02  0.69999918982E+02 0.  0.
        -12    1    1    2    0    0  0.55415430167E+01 -0.21930780121E+01 -0.17752836637E+02  0.18726491899E+02  0.00000000000E+00 0.  1.
         11    1    3    3    0    0 -0.22340834665E+01 -0.13639503780E+02  0.87300179908E+00  0.13848802284E+02  0.51100000000E-03 0. -1.
        -11    1    3    3    0    0 -0.19018019182E+02  0.15879031894E+02 -0.10608705801E+02  0.26951314375E+02  0.51100000000E-03 0.  1.
         12    1    3    3    0    0  0.15710559632E+02 -0.46450102291E-01  0.27488540640E+02  0.31661391442E+02  0.00000000000E+00 0. -1.
</event>
<event>
 7    1  0.1358622E-013  0.7246156E+02  0.7816164E-02  0.1226708E+00
        -11   -1    0    0    0    0  0.00000000000E+00  0.00000000000E+00  0.45593999997E+02  0.45594000000E+02  0.51100000000E-03 0. -1.
         11   -1    0    0    0    0 -0.00000000000E+00 -0.00000000000E+00 -0.45593999997E+02  0.45594000000E+02  0.51100000000E-03 0.  1.
    9900012    2    1    2    0    0  0.19796643923E+01  0.47435448812E+01  0.18007196417E+02  0.72461563821E+02  0.69999991568E+02 0.  0.
        -12    1    1    2    0    0 -0.19796643923E+01 -0.47435448812E+01 -0.18007196417E+02  0.18726436179E+02  0.00000000000E+00 0.  1.
         11    1    3    3    0    0  0.76122574925E+01  0.87820174396E+01  0.19839808547E+02  0.22993222869E+02  0.51100000000E-03 0. -1.
        -11    1    3    3    0    0 -0.82989312384E+01  0.11572185530E+02  0.18720789980E+02  0.23521388466E+02  0.51100000000E-03 0.  1.
        -12    1    3    3    0    0  0.26663381382E+01 -0.15610658088E+02 -0.20553402110E+02  0.25946952486E+02  0.00000000000E+00 0.  1.
</event>
<event>
 7    1  0.1358622E-013  0.7246158E+02  0.7816164E-02  0.1226708E+00
        -11   -1    0    0    0    0  0.00000000000E+00  0.00000000000E+00  0.45593999997E+02  0.45594000000E+02  0.51100000000E-03 0.  1.
         11   -1    0    0    0    0 -0.00000000000E+00 -0.00000000000E+00 -0.45593999997E+02  0.45594000000E+02  0.51100000000E-03 0. -1.
    9900012    2    1    2    0    0 -0.12411687640E+02 -0.84304649122E+01 -0.11205180142E+02  0.72461580409E+02  0.70000013176E+02 0.  0.
        -12    1    1    2    0    0  0.12411687640E+02  0.84304649122E+01  0.11205180142E+02  0.18726419591E+02  0.00000000000E+00 0.  1.
         11    1    3    3    0    0 -0.25033073593E+02  0.50678228459E+00 -0.20083449164E+02  0.32097609449E+02  0.51100000000E-03 0. -1.
        -11    1    3    3    0    0 -0.10436852479E+02  0.57919617233E+01  0.15350990019E+01  0.12034585139E+02  0.51100000000E-03 0.  1.
        -12    1    3    3    0    0  0.23058238432E+02 -0.14729208920E+02  0.73431700201E+01  0.28329385820E+02  0.00000000000E+00 0.  1.
</event>
<event>
 7    1  0.1358622E-013  0.7246160E+02  0.7816164E-02  0.1226708E+00
        -11   -1    0    0    0    0  0.00000000000E+00  0.00000000000E+00  0.45593999997E+02  0.45594000000E+02  0.51100000000E-03 0. -1.
         11   -1    0    0    0    0 -0.00000000000E+00 -0.00000000000E+00 -0.45593999997E+02  0.45594000000E+02  0.51100000000E-03 0.  1.
    9900012    2    1    2    0    0  0.35106300223E+01  0.18393782348E+02 -0.14873169025E+00  0.72461604903E+02  0.70000045084E+02 0.  0.
        -12    1    1    2    0    0 -0.35106300223E+01 -0.18393782348E+02  0.14873169025E+00  0.18726395097E+02  0.00000000000E+00 0.  1.
         11    1    3    3    0    0  0.17825710301E+02 -0.18757884237E+02  0.81828472100E+01  0.27139881310E+02  0.51100000000E-03 0. -1.
        -11    1    3    3    0    0 -0.28239313745E+01 -0.20893719200E+01 -0.16851300833E+01  0.38961169242E+01  0.51100000000E-03 0.  1.
         12    1    3    3    0    0 -0.11491148904E+02  0.39241038505E+02 -0.66464488170E+01  0.41425606669E+02  0.00000000000E+00 0. -1.
</event>
<event>
 7    1  0.1358622E-013  0.7246160E+02  0.7816164E-02  0.1226708E+00
        -11   -1    0    0    0    0  0.00000000000E+00  0.00000000000E+00  0.45593999997E+02  0.45594000000E+02  0.51100000000E-03 0. -1.
         11   -1    0    0    0    0 -0.00000000000E+00 -0.00000000000E+00 -0.45593999997E+02  0.45594000000E+02  0.51100000000E-03 0.  1.
    9900012    2    1    2    0    0  0.15590618823E+02 -0.85849584872E-01  0.10373203623E+02  0.72461598347E+02  0.70000036544E+02 0.  0.
        -12    1    1    2    0    0 -0.15590618823E+02  0.85849584872E-01 -0.10373203623E+02  0.18726401653E+02  0.00000000000E+00 0.  1.
         11    1    3    3    0    0  0.11138452499E+02  0.42958133919E+01  0.21525305967E+02  0.24614181563E+02  0.51100000000E-03 0. -1.
        -11    1    3    3    0    0  0.22108435303E+02 -0.10812131679E+02  0.23294334143E+01  0.24720666724E+02  0.51100000000E-03 0.  1.
        -12    1    3    3    0    0 -0.17656268979E+02  0.64304687024E+01 -0.13481535758E+02  0.23126750061E+02  0.00000000000E+00 0.  1.
</event>
<event>
 7    1  0.1358622E-013  0.7246158E+02  0.7816164E-02  0.1226708E+00
        -11   -1    0    0    0    0  0.00000000000E+00  0.00000000000E+00  0.45593999997E+02  0.45594000000E+02  0.51100000000E-03 0. -1.
         11   -1    0    0    0    0 -0.00000000000E+00 -0.00000000000E+00 -0.45593999997E+02  0.45594000000E+02  0.51100000000E-03 0.  1.
    9900012    2    1    2    0    0  0.98459488965E+01 -0.15433483935E+02 -0.39425551257E+01  0.72461578106E+02  0.70000010176E+02 0.  0.
        -12    1    1    2    0    0 -0.98459488965E+01  0.15433483935E+02  0.39425551257E+01  0.18726421894E+02  0.00000000000E+00 0.  1.
         11    1    3    3    0    0  0.14808932593E+01 -0.19373188173E+01 -0.16842299691E+02  0.17017911394E+02  0.51100000000E-03 0. -1.
        -11    1    3    3    0    0  0.25454856987E+02  0.73814173530E+01  0.99208840414E+01  0.28299452412E+02  0.51100000000E-03 0.  1.
         12    1    3    3    0    0 -0.17089801350E+02 -0.20877582470E+02  0.29788605242E+01  0.27144214301E+02  0.00000000000E+00 0. -1.
</event>
<event>
 7    1  0.1358622E-013  0.7246150E+02  0.7816164E-02  0.1226708E+00
        -11   -1    0    0    0    0  0.00000000000E+00  0.00000000000E+00  0.45593999997E+02  0.45594000000E+02  0.51100000000E-03 0.  1.
         11   -1    0    0    0    0 -0.00000000000E+00 -0.00000000000E+00 -0.45593999997E+02  0.45594000000E+02  0.51100000000E-03 0. -1.
    9900012    2    1    2    0    0 -0.12986396034E+02 -0.31211642873E+01 -0.13126061314E+02  0.72461504490E+02  0.69999914277E+02 0.  0.
        -12    1    1    2    0    0  0.12986396034E+02  0.31211642873E+01  0.13126061314E+02  0.18726495510E+02  0.00000000000E+00 0.  1.
         11    1    3    3    0    0  0.11880739522E+02 -0.13072257686E+02 -0.16258997261E+02  0.24008142052E+02  0.51100000000E-03 0. -1.
        -11    1    3    3    0    0  0.69741976046E+01 -0.39986915057E+01 -0.85917653453E+01  0.11766367239E+02  0.51100000000E-03 0.  1.
        -12    1    3    3    0    0 -0.31841333161E+02  0.13949784905E+02  0.11724701292E+02  0.36686995199E+02  0.00000000000E+00 0.  1.
</event>
<event>
 7    1  0.1358622E-013  0.7246156E+02  0.7816164E-02  0.1226708E+00
        -11   -1    0    0    0    0  0.00000000000E+00  0.00000000000E+00  0.45593999997E+02  0.45594000000E+02  0.51100000000E-03 0.  1.
         11   -1    0    0    0    0 -0.00000000000E+00 -0.00000000000E+00 -0.45593999997E+02  0.45594000000E+02  0.51100000000E-03 0. -1.
    9900012    2    1    2    0    0  0.61335970306E+00  0.18361836019E+02  0.36257909872E+01  0.72461559004E+02  0.69999985292E+02 0.  0.
        -12    1    1    2    0    0 -0.61335970306E+00 -0.18361836019E+02 -0.36257909872E+01  0.18726440996E+02  0.00000000000E+00 0.  1.
         11    1    3    3    0    0 -0.69055424819E+01  0.11820192391E+02 -0.21433934894E+02  0.25432597792E+02  0.51100000000E-03 0. -1.
        -11    1    3    3    0    0  0.71690571693E+01  0.21485635691E+02  0.72601347236E+01  0.23785236560E+02  0.51100000000E-03 0.  1.
        -12    1    3    3    0    0  0.34984501569E+00 -0.14943992064E+02  0.17799591157E+02  0.23243724652E+02  0.00000000000E+00 0.  1.
</event>
<event>
 7    1  0.1358622E-013  0.7246162E+02  0.7816164E-02  0.1226708E+00
        -11   -1    0    0    0    0  0.00000000000E+00  0.00000000000E+00  0.45593999997E+02  0.45594000000E+02  0.51100000000E-03 0. -1.
         11   -1    0    0    0    0 -0.00000000000E+00 -0.00000000000E+00 -0.45593999997E+02  0.45594000000E+02  0.51100000000E-03 0.  1.
    9900012    2    1    2    0    0  0.13921431369E+02  0.11350907591E+02  0.52941283736E+01  0.72461624223E+02  0.70000070252E+02 0.  0.
        -12    1    1    2    0    0 -0.13921431369E+02 -0.11350907591E+02 -0.52941283736E+01  0.18726375777E+02  0.00000000000E+00 0.  1.
         11    1    3    3    0    0  0.75414105061E+01 -0.15163335112E+02 -0.10785373524E+02  0.20077945275E+02  0.51100000000E-03 0. -1.
        -11    1    3    3    0    0  0.13260977906E+02  0.49739867486E+01 -0.10393633771E+02  0.17567632237E+02  0.51100000000E-03 0.  1.
         12    1    3    3    0    0 -0.68809570425E+01  0.21540255955E+02  0.26473135669E+02  0.34816046711E+02  0.00000000000E+00 0. -1.
</event>
<event>
 7    1  0.1358622E-013  0.7246160E+02  0.7816164E-02  0.1226708E+00
        -11   -1    0    0    0    0  0.00000000000E+00  0.00000000000E+00  0.45593999997E+02  0.45594000000E+02  0.51100000000E-03 0.  1.
         11   -1    0    0    0    0 -0.00000000000E+00 -0.00000000000E+00 -0.45593999997E+02  0.45594000000E+02  0.51100000000E-03 0. -1.
    9900012    2    1    2    0    0  0.78663197742E+01 -0.10360990436E+02 -0.13470296305E+02  0.72461601730E+02  0.70000040951E+02 0.  0.
        -12    1    1    2    0    0 -0.78663197742E+01  0.10360990436E+02  0.13470296305E+02  0.18726398270E+02  0.00000000000E+00 0.  1.
         11    1    3    3    0    0 -0.21467486127E+02  0.12334755375E+02 -0.49466131062E+01  0.25248131263E+02  0.51100000000E-03 0. -1.
        -11    1    3    3    0    0  0.98393942971E+01 -0.63497286476E+01  0.10276494288E+02  0.15580085659E+02  0.51100000000E-03 0.  1.
        -12    1    3    3    0    0  0.19494411604E+02 -0.16346017163E+02 -0.18800177487E+02  0.31633384808E+02  0.00000000000E+00 0.  1.
</event>
<event>
 7    1  0.1358622E-013  0.7246158E+02  0.7816164E-02  0.1226708E+00
        -11   -1    0    0    0    0  0.00000000000E+00  0.00000000000E+00  0.45593999997E+02  0.45594000000E+02  0.51100000000E-03 0. -1.
         11   -1    0    0    0    0 -0.00000000000E+00 -0.00000000000E+00 -0.45593999997E+02  0.45594000000E+02  0.51100000000E-03 0.  1.
    9900012    2    1    2    0    0 -0.81795491295E+01  0.11204574179E+02  0.12578996942E+02  0.72461583616E+02  0.70000017355E+02 0.  0.
        -12    1    1    2    0    0  0.81795491295E+01 -0.11204574179E+02 -0.12578996942E+02  0.18726416384E+02  0.00000000000E+00 0.  1.
         11    1    3    3    0    0 -0.28248224269E+02 -0.13207739152E+01  0.19159511066E+02  0.34158358898E+02  0.51100000000E-03 0. -1.
        -11    1    3    3    0    0 -0.41935505749E+01 -0.84590962243E+00  0.64095110305E+01  0.77060535571E+01  0.51100000000E-03 0.  1.
        -12    1    3    3    0    0  0.24262225715E+02  0.13371257717E+02 -0.12990025154E+02  0.30597171161E+02  0.00000000000E+00 0.  1.
</event>
<event>
 7    1  0.1358622E-013  0.7246157E+02  0.7816164E-02  0.1226708E+00
        -11   -1    0    0    0    0  0.00000000000E+00  0.00000000000E+00  0.45593999997E+02  0.45594000000E+02  0.51100000000E-03 0. -1.
         11   -1    0    0    0    0 -0.00000000000E+00 -0.00000000000E+00 -0.45593999997E+02  0.45594000000E+02  0.51100000000E-03 0.  1.
    9900012    2    1    2    0    0 -0.82775623330E+01 -0.47467242285E+01  0.16113030830E+02  0.72461569705E+02  0.69999999232E+02 0.  0.
        -12    1    1    2    0    0  0.82775623330E+01  0.47467242285E+01 -0.16113030830E+02  0.18726430295E+02  0.00000000000E+00 0.  1.
         11    1    3    3    0    0 -0.66902256770E+01  0.74039423035E+01 -0.13656068099E+02  0.16913476208E+02  0.51100000000E-03 0. -1.
        -11    1    3    3    0    0  0.11752442978E+02 -0.20719794903E+02  0.24302720752E+01  0.23944436502E+02  0.51100000000E-03 0.  1.
        -12    1    3    3    0    0 -0.13339779634E+02  0.85691283709E+01  0.27338826854E+02  0.31603656995E+02  0.00000000000E+00 0.  1.
</event>
<event>
 7    1  0.1358622E-013  0.7246162E+02  0.7816164E-02  0.1226708E+00
        -11   -1    0    0    0    0  0.00000000000E+00  0.00000000000E+00  0.45593999997E+02  0.45594000000E+02  0.51100000000E-03 0.  1.
         11   -1    0    0    0    0 -0.00000000000E+00 -0.00000000000E+00 -0.45593999997E+02  0.45594000000E+02  0.51100000000E-03 0. -1.
    9900012    2    1    2    0    0 -0.15690649940E+02 -0.18953346626E+01 -0.10044320100E+02  0.72461624075E+02  0.70000070059E+02 0.  0.
        -12    1    1    2    0    0  0.15690649940E+02  0.18953346626E+01  0.10044320100E+02  0.18726375925E+02  0.00000000000E+00 0.  1.
         11    1    3    3    0    0  0.13149486397E+02 -0.17558012624E+02 -0.79181940345E+01  0.23321462150E+02  0.51100000000E-03 0. -1.
        -11    1    3    3    0    0  0.49540517350E+01  0.12710525346E+02 -0.61790785320E+01  0.14976017325E+02  0.51100000000E-03 0.  1.
        -12    1    3    3    0    0 -0.33794188072E+02  0.29521526151E+01  0.40529524661E+01  0.34164144599E+02  0.00000000000E+00 0.  1.
</event>
<event>
 7    1  0.1358622E-013  0.7246148E+02  0.7816164E-02  0.1226708E+00
        -11   -1    0    0    0    0  0.00000000000E+00  0.00000000000E+00  0.45593999997E+02  0.45594000000E+02  0.51100000000E-03 0.  1.
         11   -1    0    0    0    0 -0.00000000000E+00 -0.00000000000E+00 -0.45593999997E+02  0.45594000000E+02  0.51100000000E-03 0. -1.
    9900012    2    1    2    0    0  0.14765752760E+02 -0.10113828163E+02 -0.55105091105E+01  0.72461476421E+02  0.69999877712E+02 0.  0.
        -12    1    1    2    0    0 -0.14765752760E+02  0.10113828163E+02  0.55105091105E+01  0.18726523579E+02  0.00000000000E+00 0.  1.
         11    1    3    3    0    0  0.11067193545E+02  0.12967171462E+02 -0.96762625294E+01  0.19602560176E+02  0.51100000000E-03 0. -1.
        -11    1    3    3    0    0  0.19300554623E+02 -0.12759527541E+02 -0.13785163859E+02  0.26932279791E+02  0.51100000000E-03 0.  1.
         12    1    3    3    0    0 -0.15601995408E+02 -0.10321472084E+02  0.17950917278E+02  0.25926636454E+02  0.00000000000E+00 0. -1.
</event>
<event>
 7    1  0.1358622E-013  0.7246153E+02  0.7816164E-02  0.1226708E+00
        -11   -1    0    0    0    0  0.00000000000E+00  0.00000000000E+00  0.45593999997E+02  0.45594000000E+02  0.51100000000E-03 0.  1.
         11   -1    0    0    0    0 -0.00000000000E+00 -0.00000000000E+00 -0.45593999997E+02  0.45594000000E+02  0.51100000000E-03 0. -1.
    9900012    2    1    2    0    0 -0.16771646417E+02 -0.65922193471E+01 -0.50926762888E+01  0.72461525926E+02  0.69999942202E+02 0.  0.
        -12    1    1    2    0    0  0.16771646417E+02  0.65922193471E+01  0.50926762888E+01  0.18726474074E+02  0.00000000000E+00 0.  1.
         11    1    3    3    0    0 -0.13936513719E+02 -0.72532777726E+01  0.22927035891E+01  0.15877435029E+02  0.51100000000E-03 0. -1.
        -11    1    3    3    0    0 -0.25920106305E+02  0.63834429420E+01  0.84627994848E+01  0.28003914548E+02  0.51100000000E-03 0.  1.
         12    1    3    3    0    0  0.23084973607E+02 -0.57223845165E+01 -0.15848179363E+02  0.28580176349E+02  0.00000000000E+00 0. -1.
</event>
<event>
 7    1  0.1358622E-013  0.7246158E+02  0.7816164E-02  0.1226708E+00
        -11   -1    0    0    0    0  0.00000000000E+00  0.00000000000E+00  0.45593999997E+02  0.45594000000E+02  0.51100000000E-03 0.  1.
         11   -1    0    0    0    0 -0.00000000000E+00 -0.00000000000E+00 -0.45593999997E+02  0.45594000000E+02  0.51100000000E-03 0. -1.
    9900012    2    1    2    0    0 -0.17613527394E+02  0.36499336475E+01 -0.52077452016E+01  0.72461575542E+02  0.70000006836E+02 0.  0.
        -12    1    1    2    0    0  0.17613527394E+02 -0.36499336475E+01  0.52077452016E+01  0.18726424458E+02  0.00000000000E+00 0.  1.
         11    1    3    3    0    0 -0.28759418567E+01 -0.18833024617E+02  0.12635423180E+02  0.22860616286E+02  0.51100000000E-03 0. -1.
        -11    1    3    3    0    0  0.44853681354E+01  0.10203677082E+02  0.90353393212E+01  0.14348202334E+02  0.51100000000E-03 0.  1.
        -12    1    3    3    0    0 -0.19222953673E+02  0.12279281183E+02 -0.26878507702E+02  0.35252756922E+02  0.00000000000E+00 0.  1.
</event>
<event>
 7    1  0.1358622E-013  0.7246154E+02  0.7816164E-02  0.1226708E+00
        -11   -1    0    0    0    0  0.00000000000E+00  0.00000000000E+00  0.45593999997E+02  0.45594000000E+02  0.51100000000E-03 0.  1.
         11   -1    0    0    0    0 -0.00000000000E+00 -0.00000000000E+00 -0.45593999997E+02  0.45594000000E+02  0.51100000000E-03 0. -1.
    9900012    2    1    2    0    0  0.99644221257E+01 -0.14551453211E+02 -0.62965004750E+01  0.72461536984E+02  0.69999956608E+02 0.  0.
        -12    1    1    2    0    0 -0.99644221257E+01  0.14551453211E+02  0.62965004750E+01  0.18726463016E+02  0.00000000000E+00 0.  1.
         11    1    3    3    0    0 -0.10298165656E+02  0.25577995947E+01  0.65036855265E+01  0.12445580755E+02  0.51100000000E-03 0. -1.
        -11    1    3    3    0    0 -0.10771232195E+02 -0.24430652737E+02 -0.70633277861E+01  0.27618233756E+02  0.51100000000E-03 0.  1.
        -12    1    3    3    0    0  0.31033819976E+02  0.73213999313E+01 -0.57368582154E+01  0.32397722473E+02  0.00000000000E+00 0.  1.
</event>
<event>
 7    1  0.1358622E-013  0.7246159E+02  0.7816164E-02  0.1226708E+00
        -11   -1    0    0    0    0  0.00000000000E+00  0.00000000000E+00  0.45593999997E+02  0.45594000000E+02  0.51100000000E-03 0.  1.
         11   -1    0    0    0    0 -0.00000000000E+00 -0.00000000000E+00 -0.45593999997E+02  0.45594000000E+02  0.51100000000E-03 0. -1.
    9900012    2    1    2    0    0 -0.12668439461E+02 -0.10573596278E+02 -0.88537072804E+01  0.72461590060E+02  0.70000025749E+02 0.  0.
        -12    1    1    2    0    0  0.12668439461E+02  0.10573596278E+02  0.88537072804E+01  0.18726409940E+02  0.00000000000E+00 0.  1.
         11    1    3    3    0    0 -0.16536595473E+01  0.21628904029E+01 -0.82653562960E+01  0.87022295852E+01  0.51100000000E-03 0. -1.
        -11    1    3    3    0    0  0.23821315579E+02  0.42121276554E+01 -0.52065064473E+01  0.24744793491E+02  0.51100000000E-03 0.  1.
        -12    1    3    3    0    0 -0.34836095492E+02 -0.16948614336E+02  0.46181554629E+01  0.39014566984E+02  0.00000000000E+00 0.  1.
</event>
<event>
 7    1  0.1358622E-013  0.7246161E+02  0.7816164E-02  0.1226708E+00
        -11   -1    0    0    0    0  0.00000000000E+00  0.00000000000E+00  0.45593999997E+02  0.45594000000E+02  0.51100000000E-03 0.  1.
         11   -1    0    0    0    0 -0.00000000000E+00 -0.00000000000E+00 -0.45593999997E+02  0.45594000000E+02  0.51100000000E-03 0. -1.
    9900012    2    1    2    0    0 -0.63286324306E+01 -0.52852215259E+01 -0.16813462569E+02  0.72461610103E+02  0.70000051858E+02 0.  0.
        -12    1    1    2    0    0  0.63286324306E+01  0.52852215259E+01  0.16813462569E+02  0.18726389897E+02  0.00000000000E+00 0.  1.
         11    1    3    3    0    0  0.14736672396E+02  0.94150861028E+01 -0.24400273443E+02  0.30019771884E+02  0.51100000000E-03 0. -1.
        -11    1    3    3    0    0 -0.94834012831E+01  0.10116969748E+02 -0.53185943695E+00  0.13876990001E+02  0.51100000000E-03 0.  1.
        -12    1    3    3    0    0 -0.11581903543E+02 -0.24817277377E+02  0.81186703103E+01  0.28564848217E+02  0.00000000000E+00 0.  1.
</event>
<event>
 7    1  0.1358622E-013  0.7246150E+02  0.7816164E-02  0.1226708E+00
        -11   -1    0    0    0    0  0.00000000000E+00  0.00000000000E+00  0.45593999997E+02  0.45594000000E+02  0.51100000000E-03 0.  1.
         11   -1    0    0    0    0 -0.00000000000E+00 -0.00000000000E+00 -0.45593999997E+02  0.45594000000E+02  0.51100000000E-03 0. -1.
    9900012    2    1    2    0    0 -0.14256690968E+02 -0.98200858036E+01 -0.71410290213E+01  0.72461504919E+02  0.69999914836E+02 0.  0.
        -12    1    1    2    0    0  0.14256690968E+02  0.98200858036E+01  0.71410290213E+01  0.18726495081E+02  0.00000000000E+00 0.  1.
         11    1    3    3    0    0  0.16698302512E+02 -0.11194236267E+02  0.45076012082E+01  0.20602492599E+02  0.51100000000E-03 0. -1.
        -11    1    3    3    0    0 -0.28032936577E+02  0.18214594955E+02 -0.82181112699E+01  0.34426070871E+02  0.51100000000E-03 0.  1.
         12    1    3    3    0    0 -0.29220569021E+01 -0.16840444492E+02 -0.34305189596E+01  0.17432941449E+02  0.00000000000E+00 0. -1.
</event>
<event>
 7    1  0.1358622E-013  0.7246158E+02  0.7816164E-02  0.1226708E+00
        -11   -1    0    0    0    0  0.00000000000E+00  0.00000000000E+00  0.45593999997E+02  0.45594000000E+02  0.51100000000E-03 0.  1.
         11   -1    0    0    0    0 -0.00000000000E+00 -0.00000000000E+00 -0.45593999997E+02  0.45594000000E+02  0.51100000000E-03 0. -1.
    9900012    2    1    2    0    0 -0.23218095194E+01 -0.17252923875E+02 -0.69010715015E+01  0.72461575634E+02  0.70000006956E+02 0.  0.
        -12    1    1    2    0    0  0.23218095194E+01  0.17252923875E+02  0.69010715015E+01  0.18726424366E+02  0.00000000000E+00 0.  1.
         11    1    3    3    0    0 -0.10460143075E+02 -0.94544797143E-01 -0.20003946818E+02  0.22573910171E+02  0.51100000000E-03 0. -1.
        -11    1    3    3    0    0  0.22807796586E+02 -0.69430087604E+01 -0.50940849980E+01  0.24379307989E+02  0.51100000000E-03 0.  1.
         12    1    3    3    0    0 -0.14669463031E+02 -0.10215370317E+02  0.18196960315E+02  0.25508357474E+02  0.00000000000E+00 0. -1.
</event>
<event>
 7    1  0.1358622E-013  0.7246135E+02  0.7816164E-02  0.1226709E+00
        -11   -1    0    0    0    0  0.00000000000E+00  0.00000000000E+00  0.45593999997E+02  0.45594000000E+02  0.51100000000E-03 0. -1.
         11   -1    0    0    0    0 -0.00000000000E+00 -0.00000000000E+00 -0.45593999997E+02  0.45594000000E+02  0.51100000000E-03 0.  1.
    9900012    2    1    2    0    0 -0.90767647112E+01  0.13842651110E+02  0.87567624480E+01  0.72461346910E+02  0.69999709000E+02 0.  0.
        -12    1    1    2    0    0  0.90767647112E+01 -0.13842651110E+02 -0.87567624480E+01  0.18726653090E+02  0.00000000000E+00 0.  1.
         11    1    3    3    0    0 -0.34995619715E+01  0.22381480467E+01 -0.45920997533E-01  0.41543169920E+01  0.51100000000E-03 0. -1.
        -11    1    3    3    0    0 -0.32048505432E+02  0.22179755736E+02  0.21427632683E+01  0.39033827632E+02  0.51100000000E-03 0.  1.
         12    1    3    3    0    0  0.26471302692E+02 -0.10575252673E+02  0.66599201772E+01  0.29273202286E+02  0.00000000000E+00 0. -1.
</event>
<event>
 7    1  0.1358622E-013  0.7246135E+02  0.7816164E-02  0.1226709E+00
        -11   -1    0    0    0    0  0.00000000000E+00  0.00000000000E+00  0.45593999997E+02  0.45594000000E+02  0.51100000000E-03 0.  1.
         11   -1    0    0    0    0 -0.00000000000E+00 -0.00000000000E+00 -0.45593999997E+02  0.45594000000E+02  0.51100000000E-03 0. -1.
    9900012    2    1    2    0    0  0.64652487430E+01  0.85411371538E+01 -0.15360241727E+02  0.72461348108E+02  0.69999710560E+02 0.  0.
        -12    1    1    2    0    0 -0.64652487430E+01 -0.85411371538E+01  0.15360241727E+02  0.18726651892E+02  0.00000000000E+00 0.  1.
         11    1    3    3    0    0 -0.15685519024E+02 -0.79954347316E+01 -0.31911309158E+02  0.36445769797E+02  0.51100000000E-03 0. -1.
        -11    1    3    3    0    0  0.56050296634E+01  0.10873336319E+02  0.13579175055E+02  0.18276755611E+02  0.51100000000E-03 0.  1.
        -12    1    3    3    0    0  0.16545738104E+02  0.56632355665E+01  0.29718923763E+01  0.17738822700E+02  0.00000000000E+00 0.  1.
</event>
<event>
 7    1  0.1358622E-013  0.7246157E+02  0.7816164E-02  0.1226708E+00
        -11   -1    0    0    0    0  0.00000000000E+00  0.00000000000E+00  0.45593999997E+02  0.45594000000E+02  0.51100000000E-03 0.  1.
         11   -1    0    0    0    0 -0.00000000000E+00 -0.00000000000E+00 -0.45593999997E+02  0.45594000000E+02  0.51100000000E-03 0. -1.
    9900012    2    1    2    0    0  0.18425851703E+02  0.95958349030E+00  0.32010239431E+01  0.72461565056E+02  0.69999993176E+02 0.  0.
        -12    1    1    2    0    0 -0.18425851703E+02 -0.95958349030E+00 -0.32010239431E+01  0.18726434944E+02  0.00000000000E+00 0.  1.
         11    1    3    3    0    0  0.33859150790E+00 -0.16341913106E+02 -0.58039134626E+01  0.17345263905E+02  0.51100000000E-03 0. -1.
        -11    1    3    3    0    0  0.89498975065E+01 -0.32893953608E+01  0.25481133838E+02  0.27206781675E+02  0.51100000000E-03 0.  1.
         12    1    3    3    0    0  0.91373626882E+01  0.20590891957E+02 -0.16476196432E+02  0.27909519476E+02  0.00000000000E+00 0. -1.
</event>
<event>
 7    1  0.1358622E-013  0.7246155E+02  0.7816164E-02  0.1226708E+00
        -11   -1    0    0    0    0  0.00000000000E+00  0.00000000000E+00  0.45593999997E+02  0.45594000000E+02  0.51100000000E-03 0.  1.
         11   -1    0    0    0    0 -0.00000000000E+00 -0.00000000000E+00 -0.45593999997E+02  0.45594000000E+02  0.51100000000E-03 0. -1.
    9900012    2    1    2    0    0  0.61024805530E+01 -0.13378601308E+02 -0.11595376137E+02  0.72461548398E+02  0.69999971476E+02 0.  0.
        -12    1    1    2    0    0 -0.61024805530E+01  0.13378601308E+02  0.11595376137E+02  0.18726451602E+02  0.00000000000E+00 0.  1.
         11    1    3    3    0    0  0.96953392783E+01 -0.16237428659E+02 -0.11345580614E+02  0.22053931462E+02  0.51100000000E-03 0. -1.
        -11    1    3    3    0    0  0.14173526480E+02 -0.17526520355E+02  0.44113975523E+01  0.22967982003E+02  0.51100000000E-03 0.  1.
         12    1    3    3    0    0 -0.17766385206E+02  0.20385347707E+02 -0.46611930757E+01  0.27439634934E+02  0.00000000000E+00 0. -1.
</event>
<event>
 7    1  0.1358622E-013  0.7246162E+02  0.7816164E-02  0.1226708E+00
        -11   -1    0    0    0    0  0.00000000000E+00  0.00000000000E+00  0.45593999997E+02  0.45594000000E+02  0.51100000000E-03 0.  1.
         11   -1    0    0    0    0 -0.00000000000E+00 -0.00000000000E+00 -0.45593999997E+02  0.45594000000E+02  0.51100000000E-03 0. -1.
    9900012    2    1    2    0    0  0.14836030709E+02  0.64175139177E+01  0.94543741039E+01  0.72461615357E+02  0.70000058703E+02 0.  0.
        -12    1    1    2    0    0 -0.14836030709E+02 -0.64175139177E+01 -0.94543741039E+01  0.18726384643E+02  0.00000000000E+00 0.  1.
         11    1    3    3    0    0  0.11574827414E+02 -0.12554200663E+02 -0.21656307616E+01  0.17212627366E+02  0.51100000000E-03 0. -1.
        -11    1    3    3    0    0  0.19325305655E+02  0.19441193503E+02  0.22813970300E+02  0.35663772720E+02  0.51100000000E-03 0.  1.
         12    1    3    3    0    0 -0.16064102360E+02 -0.46947892151E+00 -0.11193965435E+02  0.19585215272E+02  0.00000000000E+00 0. -1.
</event>
<event>
 7    1  0.1358622E-013  0.7246156E+02  0.7816164E-02  0.1226708E+00
        -11   -1    0    0    0    0  0.00000000000E+00  0.00000000000E+00  0.45593999997E+02  0.45594000000E+02  0.51100000000E-03 0.  1.
         11   -1    0    0    0    0 -0.00000000000E+00 -0.00000000000E+00 -0.45593999997E+02  0.45594000000E+02  0.51100000000E-03 0. -1.
    9900012    2    1    2    0    0  0.11944814778E+02  0.55592263753E+01 -0.13307740231E+02  0.72461560188E+02  0.69999986835E+02 0.  0.
        -12    1    1    2    0    0 -0.11944814778E+02 -0.55592263753E+01  0.13307740231E+02  0.18726439812E+02  0.00000000000E+00 0.  1.
         11    1    3    3    0    0 -0.76152120018E+01  0.15139789226E+01 -0.36493901789E+02  0.37310701602E+02  0.51100000000E-03 0. -1.
        -11    1    3    3    0    0  0.74664708511E+01 -0.18293501447E+01 -0.72245922547E+00  0.77211823263E+01  0.51100000000E-03 0.  1.
        -12    1    3    3    0    0  0.12093555928E+02  0.58745975974E+01  0.23908620784E+02  0.27429676259E+02  0.00000000000E+00 0.  1.
</event>
<event>
 7    1  0.1358622E-013  0.7246177E+02  0.7816164E-02  0.1226707E+00
        -11   -1    0    0    0    0  0.00000000000E+00  0.00000000000E+00  0.45593999997E+02  0.45594000000E+02  0.51100000000E-03 0. -1.
         11   -1    0    0    0    0 -0.00000000000E+00 -0.00000000000E+00 -0.45593999997E+02  0.45594000000E+02  0.51100000000E-03 0.  1.
    9900012    2    1    2    0    0 -0.99432447927E+01 -0.15437888468E+02  0.36708505408E+01  0.72461770774E+02  0.70000261161E+02 0.  0.
        -12    1    1    2    0    0  0.99432447927E+01  0.15437888468E+02 -0.36708505408E+01  0.18726229226E+02  0.00000000000E+00 0.  1.
         11    1    3    3    0    0 -0.17423478400E+01  0.64391094962E+01  0.31388731694E+01  0.73722745564E+01  0.51100000000E-03 0. -1.
        -11    1    3    3    0    0  0.28638122980E+01  0.12581651948E+02  0.20146523357E+02  0.23924501881E+02  0.51100000000E-03 0.  1.
        -12    1    3    3    0    0 -0.11064709251E+02 -0.34458649912E+02 -0.19614545985E+02  0.41164994337E+02  0.00000000000E+00 0.  1.
</event>
<event>
 7    1  0.1358622E-013  0.7246150E+02  0.7816164E-02  0.1226708E+00
        -11   -1    0    0    0    0  0.00000000000E+00  0.00000000000E+00  0.45593999997E+02  0.45594000000E+02  0.51100000000E-03 0. -1.
         11   -1    0    0    0    0 -0.00000000000E+00 -0.00000000000E+00 -0.45593999997E+02  0.45594000000E+02  0.51100000000E-03 0.  1.
    9900012    2    1    2    0    0  0.46907601807E+01  0.17124085215E+01  0.18048441930E+02  0.72461499256E+02  0.69999907460E+02 0.  0.
        -12    1    1    2    0    0 -0.46907601807E+01 -0.17124085215E+01 -0.18048441930E+02  0.18726500744E+02  0.00000000000E+00 0.  1.
         11    1    3    3    0    0  0.46878480582E+01  0.58274425881E+01  0.42218951282E+01  0.85883295971E+01  0.51100000000E-03 0. -1.
        -11    1    3    3    0    0 -0.25473788065E+02 -0.10983683239E+02  0.22898552829E+02  0.35970806188E+02  0.51100000000E-03 0.  1.
         12    1    3    3    0    0  0.25476700188E+02  0.68686491724E+01 -0.90720060272E+01  0.27902363471E+02  0.00000000000E+00 0. -1.
</event>
<event>
 7    1  0.1358622E-013  0.7246158E+02  0.7816164E-02  0.1226708E+00
        -11   -1    0    0    0    0  0.00000000000E+00  0.00000000000E+00  0.45593999997E+02  0.45594000000E+02  0.51100000000E-03 0. -1.
         11   -1    0    0    0    0 -0.00000000000E+00 -0.00000000000E+00 -0.45593999997E+02  0.45594000000E+02  0.51100000000E-03 0.  1.
    9900012    2    1    2    0    0  0.44546016176E+01  0.16901913541E+02 -0.67201728925E+01  0.72461578008E+02  0.70000010049E+02 0.  0.
        -12    1    1    2    0    0 -0.44546016176E+01 -0.16901913541E+02  0.67201728925E+01  0.18726421992E+02  0.00000000000E+00 0.  1.
         11    1    3    3    0    0 -0.13255606853E+02  0.19268926023E+02  0.21674389301E+01  0.23488303789E+02  0.51100000000E-03 0. -1.
        -11    1    3    3    0    0 -0.60573388049E+01  0.63537900994E+01 -0.19605469934E+02  0.21481071985E+02  0.51100000000E-03 0.  1.
         12    1    3    3    0    0  0.23767547276E+02 -0.87208025814E+01  0.10717858112E+02  0.27492202234E+02  0.00000000000E+00 0. -1.
</event>
<event>
 7    1  0.1358622E-013  0.7246154E+02  0.7816164E-02  0.1226708E+00
        -11   -1    0    0    0    0  0.00000000000E+00  0.00000000000E+00  0.45593999997E+02  0.45594000000E+02  0.51100000000E-03 0. -1.
         11   -1    0    0    0    0 -0.00000000000E+00 -0.00000000000E+00 -0.45593999997E+02  0.45594000000E+02  0.51100000000E-03 0.  1.
    9900012    2    1    2    0    0  0.12919257836E+01 -0.15964769813E+02  0.97024352721E+01  0.72461542844E+02  0.69999964241E+02 0.  0.
        -12    1    1    2    0    0 -0.12919257836E+01  0.15964769813E+02 -0.97024352721E+01  0.18726457156E+02  0.00000000000E+00 0.  1.
         11    1    3    3    0    0 -0.31504592375E+01  0.15445882470E+02 -0.29963731604E+01  0.16046150038E+02  0.51100000000E-03 0. -1.
        -11    1    3    3    0    0  0.82405971042E+01 -0.26554615699E+02 -0.12491953767E+02  0.30481206747E+02  0.51100000000E-03 0.  1.
         12    1    3    3    0    0 -0.37982120831E+01 -0.48560365835E+01  0.25190762199E+02  0.25934186058E+02  0.00000000000E+00 0. -1.
</event>
<event>
 7    1  0.1358622E-013  0.7246154E+02  0.7816164E-02  0.1226708E+00
        -11   -1    0    0    0    0  0.00000000000E+00  0.00000000000E+00  0.45593999997E+02  0.45594000000E+02  0.51100000000E-03 0. -1.
         11   -1    0    0    0    0 -0.00000000000E+00 -0.00000000000E+00 -0.45593999997E+02  0.45594000000E+02  0.51100000000E-03 0.  1.
    9900012    2    1    2    0    0 -0.54322068328E+01  0.17873975041E+02 -0.13009235339E+01  0.72461541262E+02  0.69999962180E+02 0.  0.
        -12    1    1    2    0    0  0.54322068328E+01 -0.17873975041E+02  0.13009235339E+01  0.18726458738E+02  0.00000000000E+00 0.  1.
         11    1    3    3    0    0  0.19778522319E+02  0.12143583164E+02 -0.69166173224E+01  0.24217682644E+02  0.51100000000E-03 0. -1.
        -11    1    3    3    0    0  0.10046110316E+02  0.42160557767E+01 -0.41010475678E+01  0.11641222023E+02  0.51100000000E-03 0.  1.
        -12    1    3    3    0    0 -0.35256839468E+02  0.15143361001E+01  0.97167413562E+01  0.36602636594E+02  0.00000000000E+00 0.  1.
</event>
<event>
 7    1  0.1358622E-013  0.7246157E+02  0.7816164E-02  0.1226708E+00
        -11   -1    0    0    0    0  0.00000000000E+00  0.00000000000E+00  0.45593999997E+02  0.45594000000E+02  0.51100000000E-03 0. -1.
         11   -1    0    0    0    0 -0.00000000000E+00 -0.00000000000E+00 -0.45593999997E+02  0.45594000000E+02  0.51100000000E-03 0.  1.
    9900012    2    1    2    0    0  0.50795786502E+00  0.64478128472E+01  0.17574043783E+02  0.72461566100E+02  0.69999994536E+02 0.  0.
        -12    1    1    2    0    0 -0.50795786502E+00 -0.64478128472E+01 -0.17574043783E+02  0.18726433900E+02  0.00000000000E+00 0.  1.
         11    1    3    3    0    0 -0.22854054237E+01 -0.12603777514E+02  0.61476930692E+01  0.14208181302E+02  0.51100000000E-03 0. -1.
        -11    1    3    3    0    0 -0.19076621455E+02  0.13793592147E+02 -0.11444114460E+02  0.26175340045E+02  0.51100000000E-03 0.  1.
         12    1    3    3    0    0  0.21869984744E+02  0.52579982147E+01  0.22870465174E+02  0.32078044753E+02  0.00000000000E+00 0. -1.
</event>
<event>
 7    1  0.1358622E-013  0.7246181E+02  0.7816164E-02  0.1226707E+00
        -11   -1    0    0    0    0  0.00000000000E+00  0.00000000000E+00  0.45593999997E+02  0.45594000000E+02  0.51100000000E-03 0.  1.
         11   -1    0    0    0    0 -0.00000000000E+00 -0.00000000000E+00 -0.45593999997E+02  0.45594000000E+02  0.51100000000E-03 0. -1.
    9900012    2    1    2    0    0  0.31621304499E+01 -0.10007255093E+02 -0.15508905119E+02  0.72461805473E+02  0.70000306363E+02 0.  0.
        -12    1    1    2    0    0 -0.31621304499E+01  0.10007255093E+02  0.15508905119E+02  0.18726194527E+02  0.00000000000E+00 0.  1.
         11    1    3    3    0    0  0.78366166640E+01 -0.10280519415E+02 -0.47485382188E+01  0.13771356348E+02  0.51100000000E-03 0. -1.
        -11    1    3    3    0    0 -0.19198793387E+02 -0.21904394697E+02  0.21441160769E+01  0.29206050890E+02  0.51100000000E-03 0.  1.
        -12    1    3    3    0    0  0.14524307173E+02  0.22177659018E+02 -0.12904482977E+02  0.29484398235E+02  0.00000000000E+00 0.  1.
</event>
<event>
 7    1  0.1358622E-013  0.7246156E+02  0.7816164E-02  0.1226708E+00
        -11   -1    0    0    0    0  0.00000000000E+00  0.00000000000E+00  0.45593999997E+02  0.45594000000E+02  0.51100000000E-03 0.  1.
         11   -1    0    0    0    0 -0.00000000000E+00 -0.00000000000E+00 -0.45593999997E+02  0.45594000000E+02  0.51100000000E-03 0. -1.
    9900012    2    1    2    0    0  0.35587329867E+01 -0.94399345398E+01 -0.15776653251E+02  0.72461555265E+02  0.69999980422E+02 0.  0.
        -12    1    1    2    0    0 -0.35587329867E+01  0.94399345398E+01  0.15776653251E+02  0.18726444735E+02  0.00000000000E+00 0.  1.
         11    1    3    3    0    0 -0.51322508853E+01 -0.67149918434E+01  0.35127887615E+01  0.91526389501E+01  0.51100000000E-03 0. -1.
        -11    1    3    3    0    0 -0.19003140504E+02  0.15576045114E+02 -0.17308296313E+02  0.30055110246E+02  0.51100000000E-03 0.  1.
         12    1    3    3    0    0  0.27694124376E+02 -0.18300987810E+02 -0.19811457002E+01  0.33253806069E+02  0.00000000000E+00 0. -1.
</event>
<event>
 7    1  0.1358622E-013  0.7246152E+02  0.7816164E-02  0.1226708E+00
        -11   -1    0    0    0    0  0.00000000000E+00  0.00000000000E+00  0.45593999997E+02  0.45594000000E+02  0.51100000000E-03 0.  1.
         11   -1    0    0    0    0 -0.00000000000E+00 -0.00000000000E+00 -0.45593999997E+02  0.45594000000E+02  0.51100000000E-03 0. -1.
    9900012    2    1    2    0    0 -0.16650693659E+02  0.70248245733E+01 -0.49078730714E+01  0.72461522015E+02  0.69999937108E+02 0.  0.
        -12    1    1    2    0    0  0.16650693659E+02 -0.70248245733E+01  0.49078730714E+01  0.18726477985E+02  0.00000000000E+00 0.  1.
         11    1    3    3    0    0  0.21147524864E+02  0.46038945993E+01 -0.11101540791E+02  0.24324018203E+02  0.51100000000E-03 0. -1.
        -11    1    3    3    0    0  0.41451396063E+01  0.40052796816E+01  0.72579708061E+00  0.58095808237E+01  0.51100000000E-03 0.  1.
        -12    1    3    3    0    0 -0.41943358130E+02 -0.15843497076E+01  0.54678706389E+01  0.42327922988E+02  0.00000000000E+00 0.  1.
</event>
<event>
 7    1  0.1358622E-013  0.7246157E+02  0.7816164E-02  0.1226708E+00
        -11   -1    0    0    0    0  0.00000000000E+00  0.00000000000E+00  0.45593999997E+02  0.45594000000E+02  0.51100000000E-03 0. -1.
         11   -1    0    0    0    0 -0.00000000000E+00 -0.00000000000E+00 -0.45593999997E+02  0.45594000000E+02  0.51100000000E-03 0.  1.
    9900012    2    1    2    0    0  0.14717438981E+02 -0.33432332819E+01  0.11085974311E+02  0.72461573610E+02  0.70000004319E+02 0.  0.
        -12    1    1    2    0    0 -0.14717438981E+02  0.33432332819E+01 -0.11085974311E+02  0.18726426390E+02  0.00000000000E+00 0.  1.
         11    1    3    3    0    0  0.16088715658E+02 -0.58729068420E+01  0.29139700596E+01  0.17373227336E+02  0.51100000000E-03 0. -1.
        -11    1    3    3    0    0  0.10458630038E+02  0.24448170581E+01 -0.21011858115E+02  0.23597844275E+02  0.51100000000E-03 0.  1.
        -12    1    3    3    0    0 -0.11829906715E+02  0.84856501971E-01  0.29183862366E+02  0.31490501999E+02  0.00000000000E+00 0.  1.
</event>
<event>
 7    1  0.1358622E-013  0.7246150E+02  0.7816164E-02  0.1226708E+00
        -11   -1    0    0    0    0  0.00000000000E+00  0.00000000000E+00  0.45593999997E+02  0.45594000000E+02  0.51100000000E-03 0.  1.
         11   -1    0    0    0    0 -0.00000000000E+00 -0.00000000000E+00 -0.45593999997E+02  0.45594000000E+02  0.51100000000E-03 0. -1.
    9900012    2    1    2    0    0  0.55736414551E+01  0.12651944823E+01 -0.17832992428E+02  0.72461499658E+02  0.69999907982E+02 0.  0.
        -12    1    1    2    0    0 -0.55736414551E+01 -0.12651944823E+01  0.17832992428E+02  0.18726500342E+02  0.00000000000E+00 0.  1.
         11    1    3    3    0    0 -0.20442226038E+02  0.36159092298E+01 -0.15781966986E+02  0.26077382675E+02  0.51100000000E-03 0. -1.
        -11    1    3    3    0    0 -0.85335728439E+01  0.65703334492E+00  0.64024913705E+01  0.10688566523E+02  0.51100000000E-03 0.  1.
         12    1    3    3    0    0  0.34549440337E+02 -0.30077480924E+01 -0.84535168119E+01  0.35695550460E+02  0.00000000000E+00 0. -1.
</event>
<event>
 7    1  0.1358622E-013  0.7246158E+02  0.7816164E-02  0.1226708E+00
        -11   -1    0    0    0    0  0.00000000000E+00  0.00000000000E+00  0.45593999997E+02  0.45594000000E+02  0.51100000000E-03 0.  1.
         11   -1    0    0    0    0 -0.00000000000E+00 -0.00000000000E+00 -0.45593999997E+02  0.45594000000E+02  0.51100000000E-03 0. -1.
    9900012    2    1    2    0    0  0.66553755735E+01 -0.93021261574E+01 -0.14827516760E+02  0.72461579404E+02  0.70000011867E+02 0.  0.
        -12    1    1    2    0    0 -0.66553755735E+01  0.93021261574E+01  0.14827516760E+02  0.18726420596E+02  0.00000000000E+00 0.  1.
         11    1    3    3    0    0  0.90955158003E+01  0.37819407383E+01 -0.19311304307E+02  0.21678513734E+02  0.51100000000E-03 0. -1.
        -11    1    3    3    0    0 -0.94161739216E+01  0.10590425696E+02 -0.14021256003E+02  0.19935322117E+02  0.51100000000E-03 0.  1.
         12    1    3    3    0    0  0.69760336948E+01 -0.23674492591E+02  0.18505043550E+02  0.30847743554E+02  0.00000000000E+00 0. -1.
</event>
<event>
 7    1  0.1358622E-013  0.7246159E+02  0.7816164E-02  0.1226708E+00
        -11   -1    0    0    0    0  0.00000000000E+00  0.00000000000E+00  0.45593999997E+02  0.45594000000E+02  0.51100000000E-03 0. -1.
         11   -1    0    0    0    0 -0.00000000000E+00 -0.00000000000E+00 -0.45593999997E+02  0.45594000000E+02  0.51100000000E-03 0.  1.
    9900012    2    1    2    0    0  0.11510189944E+02  0.21555008491E+01  0.14613269073E+02  0.72461593792E+02  0.70000030611E+02 0.  0.
        -12    1    1    2    0    0 -0.11510189944E+02 -0.21555008491E+01 -0.14613269073E+02  0.18726406208E+02  0.00000000000E+00 0.  1.
         11    1    3    3    0    0 -0.22949552193E+02  0.96923413112E+01  0.21182837156E+02  0.32700703604E+02  0.51100000000E-03 0. -1.
        -11    1    3    3    0    0  0.10033427222E+00  0.97204269310E+00  0.29485159850E+01  0.31062325634E+01  0.51100000000E-03 0.  1.
        -12    1    3    3    0    0  0.34359407864E+02 -0.85088831552E+01 -0.95180840677E+01  0.36654657625E+02  0.00000000000E+00 0.  1.
</event>
<event>
 7    1  0.1358622E-013  0.7246157E+02  0.7816164E-02  0.1226708E+00
        -11   -1    0    0    0    0  0.00000000000E+00  0.00000000000E+00  0.45593999997E+02  0.45594000000E+02  0.51100000000E-03 0. -1.
         11   -1    0    0    0    0 -0.00000000000E+00 -0.00000000000E+00 -0.45593999997E+02  0.45594000000E+02  0.51100000000E-03 0.  1.
    9900012    2    1    2    0    0  0.17734557628E+02 -0.52435073966E+01  0.29445427066E+01  0.72461568524E+02  0.69999997694E+02 0.  0.
        -12    1    1    2    0    0 -0.17734557628E+02  0.52435073966E+01 -0.29445427066E+01  0.18726431476E+02  0.00000000000E+00 0.  1.
         11    1    3    3    0    0  0.26394271243E+02 -0.10269321825E+02  0.15652549109E+02  0.32359215365E+02  0.51100000000E-03 0. -1.
        -11    1    3    3    0    0  0.11513288823E+02 -0.69517398798E+01 -0.60139144520E-01  0.13449391208E+02  0.51100000000E-03 0.  1.
        -12    1    3    3    0    0 -0.20173002438E+02  0.11977554309E+02 -0.12647867258E+02  0.26652961951E+02  0.00000000000E+00 0.  1.
</event>
<event>
 7    1  0.1358622E-013  0.7246148E+02  0.7816164E-02  0.1226708E+00
        -11   -1    0    0    0    0  0.00000000000E+00  0.00000000000E+00  0.45593999997E+02  0.45594000000E+02  0.51100000000E-03 0. -1.
         11   -1    0    0    0    0 -0.00000000000E+00 -0.00000000000E+00 -0.45593999997E+02  0.45594000000E+02  0.51100000000E-03 0.  1.
    9900012    2    1    2    0    0  0.18337337813E+00  0.38163488105E+01  0.18332604679E+02  0.72461480346E+02  0.69999882826E+02 0.  0.
        -12    1    1    2    0    0 -0.18337337813E+00 -0.38163488105E+01 -0.18332604679E+02  0.18726519654E+02  0.00000000000E+00 0.  1.
         11    1    3    3    0    0 -0.18664325809E+02  0.66559785759E+01 -0.15831751877E+02  0.25363427932E+02  0.51100000000E-03 0. -1.
        -11    1    3    3    0    0 -0.55052071992E+00  0.40450298784E+01 -0.26873251199E+01  0.48874386279E+01  0.51100000000E-03 0.  1.
         12    1    3    3    0    0  0.19398219907E+02 -0.68846596438E+01  0.36851681675E+02  0.42210613787E+02  0.00000000000E+00 0. -1.
</event>
<event>
 7    1  0.1358622E-013  0.7246152E+02  0.7816164E-02  0.1226708E+00
        -11   -1    0    0    0    0  0.00000000000E+00  0.00000000000E+00  0.45593999997E+02  0.45594000000E+02  0.51100000000E-03 0.  1.
         11   -1    0    0    0    0 -0.00000000000E+00 -0.00000000000E+00 -0.45593999997E+02  0.45594000000E+02  0.51100000000E-03 0. -1.
    9900012    2    1    2    0    0  0.36265245190E+01  0.16254767393E+02 -0.85622398222E+01  0.72461518914E+02  0.69999933067E+02 0.  0.
        -12    1    1    2    0    0 -0.36265245190E+01 -0.16254767393E+02  0.85622398222E+01  0.18726481086E+02  0.00000000000E+00 0.  1.
         11    1    3    3    0    0 -0.10241520064E+02 -0.10545180936E+02 -0.26652395231E+01  0.14939647793E+02  0.51100000000E-03 0. -1.
        -11    1    3    3    0    0 -0.41465410131E+01 -0.19451789661E+01  0.16333318036E+02  0.16963336992E+02  0.51100000000E-03 0.  1.
         12    1    3    3    0    0  0.18014585596E+02  0.28745127295E+02 -0.22230318335E+02  0.40558534129E+02  0.00000000000E+00 0. -1.
</event>
<event>
 7    1  0.1358622E-013  0.7246154E+02  0.7816164E-02  0.1226708E+00
        -11   -1    0    0    0    0  0.00000000000E+00  0.00000000000E+00  0.45593999997E+02  0.45594000000E+02  0.51100000000E-03 0.  1.
         11   -1    0    0    0    0 -0.00000000000E+00 -0.00000000000E+00 -0.45593999997E+02  0.45594000000E+02  0.51100000000E-03 0. -1.
    9900012    2    1    2    0    0 -0.88519464584E+01  0.29707619262E+01 -0.16232622391E+02  0.72461537114E+02  0.69999956777E+02 0.  0.
        -12    1    1    2    0    0  0.88519464584E+01 -0.29707619262E+01  0.16232622391E+02  0.18726462886E+02  0.00000000000E+00 0.  1.
         11    1    3    3    0    0  0.17155605170E+02  0.11665012579E+01 -0.23210602369E+02  0.28886113905E+02  0.51100000000E-03 0. -1.
        -11    1    3    3    0    0  0.76214014824E+01 -0.33346261608E+01 -0.16454431286E+01  0.84801518582E+01  0.51100000000E-03 0.  1.
        -12    1    3    3    0    0 -0.33628953110E+02  0.51388868290E+01  0.86234231064E+01  0.35095271351E+02  0.00000000000E+00 0.  1.
</event>
<event>
 7    1  0.1358622E-013  0.7246158E+02  0.7816164E-02  0.1226708E+00
        -11   -1    0    0    0    0  0.00000000000E+00  0.00000000000E+00  0.45593999997E+02  0.45594000000E+02  0.51100000000E-03 0. -1.
         11   -1    0    0    0    0 -0.00000000000E+00 -0.00000000000E+00 -0.45593999997E+02  0.45594000000E+02  0.51100000000E-03 0.  1.
    9900012    2    1    2    0    0 -0.13492278456E+02  0.68808061194E+01  0.11013259960E+02  0.72461575735E+02  0.70000007088E+02 0.  0.
        -12    1    1    2    0    0  0.13492278456E+02 -0.68808061194E+01 -0.11013259960E+02  0.18726424265E+02  0.00000000000E+00 0.  1.
         11    1    3    3    0    0 -0.45882566006E+01  0.59365247625E+01  0.20118960726E+02  0.21472470884E+02  0.51100000000E-03 0. -1.
        -11    1    3    3    0    0 -0.19102943126E+02 -0.84402898194E+01  0.13215865443E+02  0.24714773476E+02  0.51100000000E-03 0.  1.
        -12    1    3    3    0    0  0.10198921271E+02  0.93845711764E+01 -0.22321566208E+02  0.26274331376E+02  0.00000000000E+00 0.  1.
</event>
<event>
 7    1  0.1358622E-013  0.7246158E+02  0.7816164E-02  0.1226708E+00
        -11   -1    0    0    0    0  0.00000000000E+00  0.00000000000E+00  0.45593999997E+02  0.45594000000E+02  0.51100000000E-03 0. -1.
         11   -1    0    0    0    0 -0.00000000000E+00 -0.00000000000E+00 -0.45593999997E+02  0.45594000000E+02  0.51100000000E-03 0.  1.
    9900012    2    1    2    0    0 -0.61306589181E+01 -0.17683109713E+02  0.63372222535E+00  0.72461576109E+02  0.70000007575E+02 0.  0.
        -12    1    1    2    0    0  0.61306589181E+01  0.17683109713E+02 -0.63372222535E+00  0.18726423891E+02  0.00000000000E+00 0.  1.
         11    1    3    3    0    0  0.34337572727E+01  0.12041584347E+02  0.48743285249E+01  0.13436871713E+02  0.51100000000E-03 0. -1.
        -11    1    3    3    0    0  0.19934457188E+02 -0.82526612343E+01  0.31316780729E+01  0.21801293737E+02  0.51100000000E-03 0.  1.
        -12    1    3    3    0    0 -0.29498873378E+02 -0.21472032825E+02 -0.73722843725E+01  0.37223410659E+02  0.00000000000E+00 0.  1.
</event>
<event>
 7    1  0.1358622E-013  0.7246145E+02  0.7816164E-02  0.1226708E+00
        -11   -1    0    0    0    0  0.00000000000E+00  0.00000000000E+00  0.45593999997E+02  0.45594000000E+02  0.51100000000E-03 0. -1.
         11   -1    0    0    0    0 -0.00000000000E+00 -0.00000000000E+00 -0.45593999997E+02  0.45594000000E+02  0.51100000000E-03 0.  1.
    9900012    2    1    2    0    0 -0.15361048880E+02  0.28213294698E+01  0.10332561565E+02  0.72461453303E+02  0.69999847597E+02 0.  0.
        -12    1    1    2    0    0  0.15361048880E+02 -0.28213294698E+01 -0.10332561565E+02  0.18726546697E+02  0.00000000000E+00 0.  1.
         11    1    3    3    0    0  0.63677722744E+01  0.11676333133E+02  0.36200938933E+01  0.13783699040E+02  0.51100000000E-03 0. -1.
        -11    1    3    3    0    0  0.73479481117E+01 -0.13347049642E+01 -0.18189773657E+02  0.19663205353E+02  0.51100000000E-03 0.  1.
        -12    1    3    3    0    0 -0.29076769266E+02 -0.75202986987E+01  0.24902241329E+02  0.39014548911E+02  0.00000000000E+00 0.  1.
</event>
<event>
 7    1  0.1358622E-013  0.7246154E+02  0.7816164E-02  0.1226708E+00
        -11   -1    0    0    0    0  0.00000000000E+00  0.00000000000E+00  0.45593999997E+02  0.45594000000E+02  0.51100000000E-03 0. -1.
         11   -1    0    0    0    0 -0.00000000000E+00 -0.00000000000E+00 -0.45593999997E+02  0.45594000000E+02  0.51100000000E-03 0.  1.
    9900012    2    1    2    0    0  0.54507565615E+01 -0.66840348159E+01  0.16622069865E+02  0.72461540775E+02  0.69999961545E+02 0.  0.
        -12    1    1    2    0    0 -0.54507565615E+01  0.66840348159E+01 -0.16622069865E+02  0.18726459225E+02  0.00000000000E+00 0.  1.
         11    1    3    3    0    0  0.59349891347E+01 -0.26403985270E+02  0.28457607987E+02  0.39271236125E+02  0.51100000000E-03 0. -1.
        -11    1    3    3    0    0 -0.23238944297E+01  0.77327718681E+01  0.70680434090E+01  0.10730959136E+02  0.51100000000E-03 0.  1.
        -12    1    3    3    0    0  0.18396618565E+01  0.11987178587E+02 -0.18903581531E+02  0.22459345513E+02  0.00000000000E+00 0.  1.
</event>
<event>
 7    1  0.1358622E-013  0.7246160E+02  0.7816164E-02  0.1226708E+00
        -11   -1    0    0    0    0  0.00000000000E+00  0.00000000000E+00  0.45593999997E+02  0.45594000000E+02  0.51100000000E-03 0. -1.
         11   -1    0    0    0    0 -0.00000000000E+00 -0.00000000000E+00 -0.45593999997E+02  0.45594000000E+02  0.51100000000E-03 0.  1.
    9900012    2    1    2    0    0 -0.11918487568E+02  0.13684182228E+02  0.46228684185E+01  0.72461598809E+02  0.70000037146E+02 0.  0.
        -12    1    1    2    0    0  0.11918487568E+02 -0.13684182228E+02 -0.46228684185E+01  0.18726401191E+02  0.00000000000E+00 0.  1.
         11    1    3    3    0    0 -0.20053588460E+02 -0.11151503113E+02 -0.56761932744E+01  0.23637292615E+02  0.51100000000E-03 0. -1.
        -11    1    3    3    0    0 -0.48983689130E+01  0.20594444739E+02 -0.10722118607E+02  0.23729496408E+02  0.51100000000E-03 0.  1.
        -12    1    3    3    0    0  0.13033469805E+02  0.42412406023E+01  0.21021180300E+02  0.25094809786E+02  0.00000000000E+00 0.  1.
</event>
<event>
 7    1  0.1358622E-013  0.7246162E+02  0.7816164E-02  0.1226708E+00
        -11   -1    0    0    0    0  0.00000000000E+00  0.00000000000E+00  0.45593999997E+02  0.45594000000E+02  0.51100000000E-03 0. -1.
         11   -1    0    0    0    0 -0.00000000000E+00 -0.00000000000E+00 -0.45593999997E+02  0.45594000000E+02  0.51100000000E-03 0.  1.
    9900012    2    1    2    0    0  0.15468837105E+02  0.10004096278E+02  0.33630908708E+01  0.72461621708E+02  0.70000066976E+02 0.  0.
        -12    1    1    2    0    0 -0.15468837105E+02 -0.10004096278E+02 -0.33630908708E+01  0.18726378292E+02  0.00000000000E+00 0.  1.
         11    1    3    3    0    0  0.13490093774E+02  0.23651041002E+02  0.18275955216E+02  0.32792756972E+02  0.51100000000E-03 0. -1.
        -11    1    3    3    0    0 -0.12632149898E+01  0.11051524422E+02 -0.83491941897E+01  0.13908305002E+02  0.51100000000E-03 0.  1.
        -12    1    3    3    0    0  0.32419583210E+01 -0.24698469146E+02 -0.65636701557E+01  0.25760559734E+02  0.00000000000E+00 0.  1.
</event>
<event>
 7    1  0.1358622E-013  0.7246164E+02  0.7816164E-02  0.1226708E+00
        -11   -1    0    0    0    0  0.00000000000E+00  0.00000000000E+00  0.45593999997E+02  0.45594000000E+02  0.51100000000E-03 0. -1.
         11   -1    0    0    0    0 -0.00000000000E+00 -0.00000000000E+00 -0.45593999997E+02  0.45594000000E+02  0.51100000000E-03 0.  1.
    9900012    2    1    2    0    0  0.57569516611E+01 -0.15142493638E+02  0.93935630086E+01  0.72461638047E+02  0.70000088260E+02 0.  0.
        -12    1    1    2    0    0 -0.57569516611E+01  0.15142493638E+02 -0.93935630086E+01  0.18726361953E+02  0.00000000000E+00 0.  1.
         11    1    3    3    0    0 -0.31437742103E+01 -0.35255130760E+01  0.85836105417E+01  0.97974960540E+01  0.51100000000E-03 0. -1.
        -11    1    3    3    0    0  0.69872315458E+00 -0.25497506403E+02 -0.22707828721E+02  0.34150498273E+02  0.51100000000E-03 0.  1.
         12    1    3    3    0    0  0.82020027169E+01  0.13880525841E+02  0.23517781188E+02  0.28513643720E+02  0.00000000000E+00 0. -1.
</event>
<event>
 7    1  0.1358622E-013  0.7246151E+02  0.7816164E-02  0.1226708E+00
        -11   -1    0    0    0    0  0.00000000000E+00  0.00000000000E+00  0.45593999997E+02  0.45594000000E+02  0.51100000000E-03 0. -1.
         11   -1    0    0    0    0 -0.00000000000E+00 -0.00000000000E+00 -0.45593999997E+02  0.45594000000E+02  0.51100000000E-03 0.  1.
    9900012    2    1    2    0    0  0.30392895083E+01  0.11711238153E+01  0.18441058238E+02  0.72461509655E+02  0.69999921006E+02 0.  0.
        -12    1    1    2    0    0 -0.30392895083E+01 -0.11711238153E+01 -0.18441058238E+02  0.18726490345E+02  0.00000000000E+00 0.  1.
         11    1    3    3    0    0 -0.92363774260E+01  0.53110203921E+01 -0.14168840568E+01  0.10748263406E+02  0.51100000000E-03 0. -1.
        -11    1    3    3    0    0 -0.94957491927E+00 -0.10452060379E+02 -0.18156758323E+02  0.20971769877E+02  0.51100000000E-03 0.  1.
         12    1    3    3    0    0  0.13225241854E+02  0.63121638021E+01  0.38014700618E+02  0.40741476372E+02  0.00000000000E+00 0. -1.
</event>
<event>
 7    1  0.1358622E-013  0.7246153E+02  0.7816164E-02  0.1226708E+00
        -11   -1    0    0    0    0  0.00000000000E+00  0.00000000000E+00  0.45593999997E+02  0.45594000000E+02  0.51100000000E-03 0. -1.
         11   -1    0    0    0    0 -0.00000000000E+00 -0.00000000000E+00 -0.45593999997E+02  0.45594000000E+02  0.51100000000E-03 0.  1.
    9900012    2    1    2    0    0 -0.56792761630E+01 -0.15973055922E+02 -0.79553643684E+01  0.72461534358E+02  0.69999953186E+02 0.  0.
        -12    1    1    2    0    0  0.56792761630E+01  0.15973055922E+02  0.79553643684E+01  0.18726465642E+02  0.00000000000E+00 0.  1.
         11    1    3    3    0    0  0.15999839600E+02 -0.15924139284E+02 -0.87766547012E+01  0.24219883302E+02  0.51100000000E-03 0. -1.
        -11    1    3    3    0    0 -0.30113277728E+00 -0.11847345620E+01 -0.19016201268E+02  0.19055450346E+02  0.51100000000E-03 0.  1.
         12    1    3    3    0    0 -0.21377982985E+02  0.11358179239E+01  0.19837491601E+02  0.29186200710E+02  0.00000000000E+00 0. -1.
</event>
<event>
 7    1  0.1358622E-013  0.7246148E+02  0.7816164E-02  0.1226708E+00
        -11   -1    0    0    0    0  0.00000000000E+00  0.00000000000E+00  0.45593999997E+02  0.45594000000E+02  0.51100000000E-03 0.  1.
         11   -1    0    0    0    0 -0.00000000000E+00 -0.00000000000E+00 -0.45593999997E+02  0.45594000000E+02  0.51100000000E-03 0. -1.
    9900012    2    1    2    0    0 -0.38801008493E+01  0.53917738794E+01 -0.17508746516E+02  0.72461478360E+02  0.69999880238E+02 0.  0.
        -12    1    1    2    0    0  0.38801008493E+01 -0.53917738794E+01  0.17508746516E+02  0.18726521640E+02  0.00000000000E+00 0.  1.
         11    1    3    3    0    0  0.15262824150E+02  0.56339525375E+00 -0.33557844104E+02  0.36870043618E+02  0.51100000000E-03 0. -1.
        -11    1    3    3    0    0 -0.18109729958E+01 -0.55495665421E+01 -0.40418757286E+01  0.71002867311E+01  0.51100000000E-03 0.  1.
        -12    1    3    3    0    0 -0.17331952003E+02  0.10377945168E+02  0.20090973317E+02  0.28491148011E+02  0.00000000000E+00 0.  1.
</event>
<event>
 7    1  0.1358622E-013  0.7246157E+02  0.7816164E-02  0.1226708E+00
        -11   -1    0    0    0    0  0.00000000000E+00  0.00000000000E+00  0.45593999997E+02  0.45594000000E+02  0.51100000000E-03 0. -1.
         11   -1    0    0    0    0 -0.00000000000E+00 -0.00000000000E+00 -0.45593999997E+02  0.45594000000E+02  0.51100000000E-03 0.  1.
    9900012    2    1    2    0    0  0.61478187225E+00  0.26293809844E+01  0.18530718998E+02  0.72461570877E+02  0.70000000759E+02 0.  0.
        -12    1    1    2    0    0 -0.61478187225E+00 -0.26293809844E+01 -0.18530718998E+02  0.18726429123E+02  0.00000000000E+00 0.  1.
         11    1    3    3    0    0 -0.70629561648E+00 -0.26010248573E+02  0.13594615425E+02  0.29357204451E+02  0.51100000000E-03 0. -1.
        -11    1    3    3    0    0  0.78520840016E+01  0.82731581500E+01 -0.11449320742E+02  0.16161290625E+02  0.51100000000E-03 0.  1.
        -12    1    3    3    0    0 -0.65310065129E+01  0.20366471408E+02  0.16385424315E+02  0.26943075802E+02  0.00000000000E+00 0.  1.
</event>
<event>
 7    1  0.1358622E-013  0.7246199E+02  0.7816164E-02  0.1226707E+00
        -11   -1    0    0    0    0  0.00000000000E+00  0.00000000000E+00  0.45593999997E+02  0.45594000000E+02  0.51100000000E-03 0.  1.
         11   -1    0    0    0    0 -0.00000000000E+00 -0.00000000000E+00 -0.45593999997E+02  0.45594000000E+02  0.51100000000E-03 0. -1.
    9900012    2    1    2    0    0 -0.12654260827E+01 -0.11202921087E+02 -0.14951813442E+02  0.72461989499E+02  0.70000546090E+02 0.  0.
        -12    1    1    2    0    0  0.12654260827E+01  0.11202921087E+02  0.14951813442E+02  0.18726010501E+02  0.00000000000E+00 0.  1.
         11    1    3    3    0    0 -0.69956450664E-01 -0.52124874246E+01 -0.21551616645E+02  0.22173116590E+02  0.51100000000E-03 0.  1.
        -11    1    3    3    0    0  0.29460251988E+01 -0.11712780092E+02 -0.19672183395E+02  0.23083827277E+02  0.51100000000E-03 0. -1.
        -12    1    3    3    0    0 -0.41414948309E+01  0.57223464295E+01  0.26271986597E+02  0.27205045632E+02  0.00000000000E+00 0.  1.
</event>
<event>
 7    1  0.1358622E-013  0.7246156E+02  0.7816164E-02  0.1226708E+00
        -11   -1    0    0    0    0  0.00000000000E+00  0.00000000000E+00  0.45593999997E+02  0.45594000000E+02  0.51100000000E-03 0.  1.
         11   -1    0    0    0    0 -0.00000000000E+00 -0.00000000000E+00 -0.45593999997E+02  0.45594000000E+02  0.51100000000E-03 0. -1.
    9900012    2    1    2    0    0  0.39733991326E+01 -0.17951634632E+02  0.35539484803E+01  0.72461557828E+02  0.69999983761E+02 0.  0.
        -12    1    1    2    0    0 -0.39733991326E+01  0.17951634632E+02 -0.35539484803E+01  0.18726442172E+02  0.00000000000E+00 0.  1.
         11    1    3    3    0    0 -0.81028724629E+01  0.72668185470E+00  0.48455573116E+01  0.94691094930E+01  0.51100000000E-03 0. -1.
        -11    1    3    3    0    0 -0.14306332501E+02 -0.30586774099E+02 -0.35801104853E+01  0.33956429299E+02  0.51100000000E-03 0.  1.
         12    1    3    3    0    0  0.26382604097E+02  0.11908457613E+02  0.22885016539E+01  0.29036019036E+02  0.00000000000E+00 0. -1.
</event>
<event>
 7    1  0.1358622E-013  0.7246153E+02  0.7816164E-02  0.1226708E+00
        -11   -1    0    0    0    0  0.00000000000E+00  0.00000000000E+00  0.45593999997E+02  0.45594000000E+02  0.51100000000E-03 0. -1.
         11   -1    0    0    0    0 -0.00000000000E+00 -0.00000000000E+00 -0.45593999997E+02  0.45594000000E+02  0.51100000000E-03 0.  1.
    9900012    2    1    2    0    0  0.11643670806E+02 -0.84658570510E+01 -0.11976429747E+02  0.72461530099E+02  0.69999947638E+02 0.  0.
        -12    1    1    2    0    0 -0.11643670806E+02  0.84658570510E+01  0.11976429747E+02  0.18726469901E+02  0.00000000000E+00 0.  1.
         11    1    3    3    0    0  0.83115111640E+01 -0.18302467123E+02 -0.69373912902E+01  0.21264734158E+02  0.51100000000E-03 0. -1.
        -11    1    3    3    0    0  0.20233519560E+00 -0.19826734176E+02 -0.76553115209E+01  0.21254273038E+02  0.51100000000E-03 0.  1.
         12    1    3    3    0    0  0.31298244468E+01  0.29663344248E+02  0.26162730637E+01  0.29942522903E+02  0.00000000000E+00 0. -1.
</event>
<event>
 7    1  0.1358622E-013  0.7246159E+02  0.7816164E-02  0.1226708E+00
        -11   -1    0    0    0    0  0.00000000000E+00  0.00000000000E+00  0.45593999997E+02  0.45594000000E+02  0.51100000000E-03 0.  1.
         11   -1    0    0    0    0 -0.00000000000E+00 -0.00000000000E+00 -0.45593999997E+02  0.45594000000E+02  0.51100000000E-03 0. -1.
    9900012    2    1    2    0    0  0.17629977815E+02 -0.21832375140E+01 -0.59241853066E+01  0.72461585091E+02  0.70000019276E+02 0.  0.
        -12    1    1    2    0    0 -0.17629977815E+02  0.21832375140E+01  0.59241853066E+01  0.18726414909E+02  0.00000000000E+00 0.  1.
         11    1    3    3    0    0 -0.11089281893E+01  0.21517942509E+02  0.13021538909E+02  0.25175624071E+02  0.51100000000E-03 0. -1.
        -11    1    3    3    0    0  0.16093217055E+01 -0.18288978164E+02  0.33403894386E+01  0.18661051431E+02  0.51100000000E-03 0.  1.
         12    1    3    3    0    0  0.17129584299E+02 -0.54122018585E+01 -0.22286113654E+02  0.28624909590E+02  0.00000000000E+00 0. -1.
</event>
<event>
 7    1  0.1358622E-013  0.7246158E+02  0.7816164E-02  0.1226708E+00
        -11   -1    0    0    0    0  0.00000000000E+00  0.00000000000E+00  0.45593999997E+02  0.45594000000E+02  0.51100000000E-03 0. -1.
         11   -1    0    0    0    0 -0.00000000000E+00 -0.00000000000E+00 -0.45593999997E+02  0.45594000000E+02  0.51100000000E-03 0.  1.
    9900012    2    1    2    0    0 -0.94761640609E+01  0.35134622354E+01  0.15765051841E+02  0.72461575842E+02  0.70000007227E+02 0.  0.
        -12    1    1    2    0    0  0.94761640609E+01 -0.35134622354E+01 -0.15765051841E+02  0.18726424158E+02  0.00000000000E+00 0.  1.
         11    1    3    3    0    0  0.92780626273E+01 -0.68272038173E+01  0.19577255309E+02  0.22714798784E+02  0.51100000000E-03 0. -1.
        -11    1    3    3    0    0 -0.22767804579E+02 -0.97706964193E+01  0.80555706123E+01  0.26052478808E+02  0.51100000000E-03 0.  1.
        -12    1    3    3    0    0  0.40135778908E+01  0.20111362472E+02 -0.11867774080E+02  0.23694298251E+02  0.00000000000E+00 0.  1.
</event>
<event>
 7    1  0.1358622E-013  0.7246157E+02  0.7816164E-02  0.1226708E+00
        -11   -1    0    0    0    0  0.00000000000E+00  0.00000000000E+00  0.45593999997E+02  0.45594000000E+02  0.51100000000E-03 0.  1.
         11   -1    0    0    0    0 -0.00000000000E+00 -0.00000000000E+00 -0.45593999997E+02  0.45594000000E+02  0.51100000000E-03 0. -1.
    9900012    2    1    2    0    0  0.26681765248E+01  0.11209505533E+00 -0.18535030274E+02  0.72461572724E+02  0.70000003164E+02 0.  0.
        -12    1    1    2    0    0 -0.26681765248E+01 -0.11209505533E+00  0.18535030274E+02  0.18726427276E+02  0.00000000000E+00 0.  1.
         11    1    3    3    0    0  0.15481278624E+02 -0.33564389804E+01 -0.25713810245E+01  0.16048291843E+02  0.51100000000E-03 0. -1.
        -11    1    3    3    0    0  0.10264713151E+02  0.29209227556E+01 -0.28295727345E+02  0.30241433697E+02  0.51100000000E-03 0.  1.
        -12    1    3    3    0    0 -0.23077815250E+02  0.54761128011E+00  0.12332078095E+02  0.26171847183E+02  0.00000000000E+00 0.  1.
</event>
<event>
 7    1  0.1358622E-013  0.7246166E+02  0.7816164E-02  0.1226708E+00
        -11   -1    0    0    0    0  0.00000000000E+00  0.00000000000E+00  0.45593999997E+02  0.45594000000E+02  0.51100000000E-03 0.  1.
         11   -1    0    0    0    0 -0.00000000000E+00 -0.00000000000E+00 -0.45593999997E+02  0.45594000000E+02  0.51100000000E-03 0. -1.
    9900012    2    1    2    0    0  0.51470355963E+00 -0.18038367199E+02 -0.50028365856E+01  0.72461655326E+02  0.70000110769E+02 0.  0.
        -12    1    1    2    0    0 -0.51470355963E+00  0.18038367199E+02  0.50028365856E+01  0.18726344674E+02  0.00000000000E+00 0.  1.
         11    1    3    3    0    0 -0.10626094858E+02 -0.23939261285E+02  0.27192219827E+01  0.26332419017E+02  0.51100000000E-03 0. -1.
        -11    1    3    3    0    0  0.42835839790E+01  0.64131178536E+01  0.17958269199E+02  0.19544221785E+02  0.51100000000E-03 0.  1.
         12    1    3    3    0    0  0.68572144382E+01 -0.51222376707E+00 -0.25680327767E+02  0.26585014524E+02  0.00000000000E+00 0. -1.
</event>
<event>
 7    1  0.1358622E-013  0.7246160E+02  0.7816164E-02  0.1226708E+00
        -11   -1    0    0    0    0  0.00000000000E+00  0.00000000000E+00  0.45593999997E+02  0.45594000000E+02  0.51100000000E-03 0. -1.
         11   -1    0    0    0    0 -0.00000000000E+00 -0.00000000000E+00 -0.45593999997E+02  0.45594000000E+02  0.51100000000E-03 0.  1.
    9900012    2    1    2    0    0 -0.27139733056E+01  0.64667675703E+01  0.17363563513E+02  0.72461599604E+02  0.70000038182E+02 0.  0.
        -12    1    1    2    0    0  0.27139733056E+01 -0.64667675703E+01 -0.17363563513E+02  0.18726400396E+02  0.00000000000E+00 0.  1.
         11    1    3    3    0    0 -0.38046687616E+01  0.18204480347E+02 -0.82828715669E+01  0.20358894144E+02  0.51100000000E-03 0. -1.
        -11    1    3    3    0    0  0.13298040778E+02  0.87507906938E+01 -0.14743604570E+01  0.15987118731E+02  0.51100000000E-03 0.  1.
        -12    1    3    3    0    0 -0.12207345322E+02 -0.20488503471E+02  0.27120795537E+02  0.36115586730E+02  0.00000000000E+00 0.  1.
</event>
<event>
 7    1  0.1358622E-013  0.7246144E+02  0.7816164E-02  0.1226708E+00
        -11   -1    0    0    0    0  0.00000000000E+00  0.00000000000E+00  0.45593999997E+02  0.45594000000E+02  0.51100000000E-03 0.  1.
         11   -1    0    0    0    0 -0.00000000000E+00 -0.00000000000E+00 -0.45593999997E+02  0.45594000000E+02  0.51100000000E-03 0. -1.
    9900012    2    1    2    0    0 -0.90757182621E+01  0.45591884785E+01 -0.15733055819E+02  0.72461443804E+02  0.69999835223E+02 0.  0.
        -12    1    1    2    0    0  0.90757182621E+01 -0.45591884785E+01  0.15733055819E+02  0.18726556196E+02  0.00000000000E+00 0.  1.
         11    1    3    3    0    0  0.54516146979E+01  0.93865206323E+01  0.30101792066E+01  0.11264459664E+02  0.51100000000E-03 0. -1.
        -11    1    3    3    0    0 -0.64785112870E+00 -0.15275766743E+02  0.16136902305E+02  0.22229898267E+02  0.51100000000E-03 0.  1.
         12    1    3    3    0    0 -0.13879481831E+02  0.10448434590E+02 -0.34880137331E+02  0.38967085874E+02  0.00000000000E+00 0. -1.
</event>
<event>
 7    1  0.1358622E-013  0.7246154E+02  0.7816164E-02  0.1226708E+00
        -11   -1    0    0    0    0  0.00000000000E+00  0.00000000000E+00  0.45593999997E+02  0.45594000000E+02  0.51100000000E-03 0.  1.
         11   -1    0    0    0    0 -0.00000000000E+00 -0.00000000000E+00 -0.45593999997E+02  0.45594000000E+02  0.51100000000E-03 0. -1.
    9900012    2    1    2    0    0  0.15515455786E+02  0.94866470002E+01  0.44670386983E+01  0.72461540797E+02  0.69999961574E+02 0.  0.
        -12    1    1    2    0    0 -0.15515455786E+02 -0.94866470002E+01 -0.44670386983E+01  0.18726459203E+02  0.00000000000E+00 0.  1.
         11    1    3    3    0    0  0.11490408763E+02 -0.10078684149E+02 -0.21990183718E+02  0.26780170797E+02  0.51100000000E-03 0. -1.
        -11    1    3    3    0    0  0.39445552133E+01  0.10464912787E+02 -0.54933324036E+01  0.12459960539E+02  0.51100000000E-03 0.  1.
        -12    1    3    3    0    0  0.80491809268E-01  0.91004183619E+01  0.31950554820E+02  0.33221409461E+02  0.00000000000E+00 0.  1.
</event>
<event>
 7    1  0.1358622E-013  0.7246160E+02  0.7816164E-02  0.1226708E+00
        -11   -1    0    0    0    0  0.00000000000E+00  0.00000000000E+00  0.45593999997E+02  0.45594000000E+02  0.51100000000E-03 0.  1.
         11   -1    0    0    0    0 -0.00000000000E+00 -0.00000000000E+00 -0.45593999997E+02  0.45594000000E+02  0.51100000000E-03 0. -1.
    9900012    2    1    2    0    0  0.46080519191E+00 -0.65702034575E-01 -0.18720619160E+02  0.72461595115E+02  0.70000032333E+02 0.  0.
        -12    1    1    2    0    0 -0.46080519191E+00  0.65702034575E-01  0.18720619160E+02  0.18726404885E+02  0.00000000000E+00 0.  1.
         11    1    3    3    0    0 -0.61215879939E+01 -0.99053772576E+01 -0.62267126409E+01  0.13204631337E+02  0.51100000000E-03 0. -1.
        -11    1    3    3    0    0 -0.19092546525E+02  0.14605654253E+02  0.87624551566E+01  0.25585759508E+02  0.51100000000E-03 0.  1.
         12    1    3    3    0    0  0.25674939710E+02 -0.47659790303E+01 -0.21256361676E+02  0.33671204269E+02  0.00000000000E+00 0. -1.
</event>
<event>
 7    1  0.1358622E-013  0.7246159E+02  0.7816164E-02  0.1226708E+00
        -11   -1    0    0    0    0  0.00000000000E+00  0.00000000000E+00  0.45593999997E+02  0.45594000000E+02  0.51100000000E-03 0.  1.
         11   -1    0    0    0    0 -0.00000000000E+00 -0.00000000000E+00 -0.45593999997E+02  0.45594000000E+02  0.51100000000E-03 0. -1.
    9900012    2    1    2    0    0  0.70831369418E+01  0.17152720143E+02 -0.25083112212E+01  0.72461594514E+02  0.70000031550E+02 0.  0.
        -12    1    1    2    0    0 -0.70831369418E+01 -0.17152720143E+02  0.25083112212E+01  0.18726405486E+02  0.00000000000E+00 0.  1.
         11    1    3    3    0    0 -0.15329109051E+02  0.80006994962E+01  0.17389281604E+02  0.24523048173E+02  0.51100000000E-03 0. -1.
        -11    1    3    3    0    0  0.17422043574E+02 -0.14065012230E+01  0.68340319646E+01  0.18767254491E+02  0.51100000000E-03 0.  1.
         12    1    3    3    0    0  0.49902024192E+01  0.10558521870E+02 -0.26731624790E+02  0.29171291850E+02  0.00000000000E+00 0. -1.
</event>
<event>
 7    1  0.1358622E-013  0.7246148E+02  0.7816164E-02  0.1226708E+00
        -11   -1    0    0    0    0  0.00000000000E+00  0.00000000000E+00  0.45593999997E+02  0.45594000000E+02  0.51100000000E-03 0.  1.
         11   -1    0    0    0    0 -0.00000000000E+00 -0.00000000000E+00 -0.45593999997E+02  0.45594000000E+02  0.51100000000E-03 0. -1.
    9900012    2    1    2    0    0 -0.33891468910E+01  0.13355259339E+02 -0.12682001795E+02  0.72461483020E+02  0.69999886309E+02 0.  0.
        -12    1    1    2    0    0  0.33891468910E+01 -0.13355259339E+02  0.12682001795E+02  0.18726516980E+02  0.00000000000E+00 0.  1.
         11    1    3    3    0    0 -0.11643349556E+02  0.17632422400E+02 -0.78160284518E+01  0.22529096954E+02  0.51100000000E-03 0. -1.
        -11    1    3    3    0    0  0.21039983585E+01 -0.17845854772E+02  0.16157724405E+02  0.24165541580E+02  0.51100000000E-03 0.  1.
         12    1    3    3    0    0  0.61502043061E+01  0.13568691711E+02 -0.21023697748E+02  0.25766844486E+02  0.00000000000E+00 0. -1.
</event>
<event>
 7    1  0.1358622E-013  0.7246136E+02  0.7816164E-02  0.1226709E+00
        -11   -1    0    0    0    0  0.00000000000E+00  0.00000000000E+00  0.45593999997E+02  0.45594000000E+02  0.51100000000E-03 0. -1.
         11   -1    0    0    0    0 -0.00000000000E+00 -0.00000000000E+00 -0.45593999997E+02  0.45594000000E+02  0.51100000000E-03 0.  1.
    9900012    2    1    2    0    0  0.19081092581E+01 -0.10757980598E+02  0.15208939903E+02  0.72461364412E+02  0.69999731799E+02 0.  0.
        -12    1    1    2    0    0 -0.19081092581E+01  0.10757980598E+02 -0.15208939903E+02  0.18726635588E+02  0.00000000000E+00 0.  1.
         11    1    3    3    0    0 -0.41048573632E+00  0.87934043953E+01 -0.64200410365E+01  0.10895383728E+02  0.51100000000E-03 0. -1.
        -11    1    3    3    0    0 -0.16598582115E+02  0.11874496907E+02  0.11870161485E+02  0.23609687396E+02  0.51100000000E-03 0.  1.
        -12    1    3    3    0    0  0.18917177110E+02 -0.31425881900E+02  0.97588194543E+01  0.37956293288E+02  0.00000000000E+00 0.  1.
</event>
<event>
 7    1  0.1358622E-013  0.7246164E+02  0.7816164E-02  0.1226708E+00
        -11   -1    0    0    0    0  0.00000000000E+00  0.00000000000E+00  0.45593999997E+02  0.45594000000E+02  0.51100000000E-03 0.  1.
         11   -1    0    0    0    0 -0.00000000000E+00 -0.00000000000E+00 -0.45593999997E+02  0.45594000000E+02  0.51100000000E-03 0. -1.
    9900012    2    1    2    0    0 -0.20820579533E+01  0.44685183946E+00 -0.18604887160E+02  0.72461642422E+02  0.70000093960E+02 0.  0.
        -12    1    1    2    0    0  0.20820579533E+01 -0.44685183946E+00  0.18604887160E+02  0.18726357578E+02  0.00000000000E+00 0.  1.
         11    1    3    3    0    0  0.60293642632E+01 -0.45121176493E+01 -0.48976642512E+01  0.89832930753E+01  0.51100000000E-03 0. -1.
        -11    1    3    3    0    0  0.17896273799E+02  0.43584972614E+01  0.15709503534E+02  0.24208709503E+02  0.51100000000E-03 0.  1.
         12    1    3    3    0    0 -0.26007696015E+02  0.60047222737E+00 -0.29416726442E+02  0.39269639844E+02  0.00000000000E+00 0. -1.
</event>
<event>
 7    1  0.1358622E-013  0.7246155E+02  0.7816164E-02  0.1226708E+00
        -11   -1    0    0    0    0  0.00000000000E+00  0.00000000000E+00  0.45593999997E+02  0.45594000000E+02  0.51100000000E-03 0.  1.
         11   -1    0    0    0    0 -0.00000000000E+00 -0.00000000000E+00 -0.45593999997E+02  0.45594000000E+02  0.51100000000E-03 0. -1.
    9900012    2    1    2    0    0 -0.15627611476E+02  0.91566082059E+01 -0.47554539587E+01  0.72461546608E+02  0.69999969145E+02 0.  0.
        -12    1    1    2    0    0  0.15627611476E+02 -0.91566082059E+01  0.47554539587E+01  0.18726453392E+02  0.00000000000E+00 0.  1.
         11    1    3    3    0    0 -0.30226238344E+02  0.62734166141E+01  0.15577788831E+02  0.34578154166E+02  0.51100000000E-03 0. -1.
        -11    1    3    3    0    0  0.48636828411E+01 -0.98707714081E+01 -0.18776451694E+02  0.21763333325E+02  0.51100000000E-03 0.  1.
        -12    1    3    3    0    0  0.97349440268E+01  0.12753963000E+02 -0.15567910958E+01  0.16120059117E+02  0.00000000000E+00 0.  1.
</event>
<event>
 7    1  0.1358622E-013  0.7246158E+02  0.7816164E-02  0.1226708E+00
        -11   -1    0    0    0    0  0.00000000000E+00  0.00000000000E+00  0.45593999997E+02  0.45594000000E+02  0.51100000000E-03 0. -1.
         11   -1    0    0    0    0 -0.00000000000E+00 -0.00000000000E+00 -0.45593999997E+02  0.45594000000E+02  0.51100000000E-03 0.  1.
    9900012    2    1    2    0    0 -0.11516112055E+02 -0.11588391443E+02  0.91524380345E+01  0.72461580826E+02  0.70000013720E+02 0.  0.
        -12    1    1    2    0    0  0.11516112055E+02  0.11588391443E+02 -0.91524380345E+01  0.18726419174E+02  0.00000000000E+00 0.  1.
         11    1    3    3    0    0 -0.13198524492E+02  0.10392721372E+02 -0.24824206394E+02  0.29974171041E+02  0.51100000000E-03 0.  1.
        -11    1    3    3    0    0  0.84529323470E+00 -0.10757586798E+01  0.12245100116E+02  0.12321292728E+02  0.51100000000E-03 0. -1.
        -12    1    3    3    0    0  0.83711920152E+00 -0.20905354135E+02  0.21731544312E+02  0.30166117057E+02  0.00000000000E+00 0.  1.
</event>
<event>
 7    1  0.1358622E-013  0.7246172E+02  0.7816164E-02  0.1226708E+00
        -11   -1    0    0    0    0  0.00000000000E+00  0.00000000000E+00  0.45593999997E+02  0.45594000000E+02  0.51100000000E-03 0.  1.
         11   -1    0    0    0    0 -0.00000000000E+00 -0.00000000000E+00 -0.45593999997E+02  0.45594000000E+02  0.51100000000E-03 0. -1.
    9900012    2    1    2    0    0  0.12244998631E+02  0.58079749584E+01  0.12922893364E+02  0.72461715331E+02  0.70000188937E+02 0.  0.
        -12    1    1    2    0    0 -0.12244998631E+02 -0.58079749584E+01 -0.12922893364E+02  0.18726284669E+02  0.00000000000E+00 0.  1.
         11    1    3    3    0    0  0.11998101004E+02 -0.16090687916E+02 -0.75821021418E+01  0.21455836933E+02  0.51100000000E-03 0. -1.
        -11    1    3    3    0    0  0.20545993425E+02  0.79017061542E+01  0.87204289356E+01  0.23677429908E+02  0.51100000000E-03 0.  1.
         12    1    3    3    0    0 -0.20299095798E+02  0.13996956720E+02  0.11784566571E+02  0.27328448491E+02  0.00000000000E+00 0. -1.
</event>
<event>
 7    1  0.1358622E-013  0.7246155E+02  0.7816164E-02  0.1226708E+00
        -11   -1    0    0    0    0  0.00000000000E+00  0.00000000000E+00  0.45593999997E+02  0.45594000000E+02  0.51100000000E-03 0.  1.
         11   -1    0    0    0    0 -0.00000000000E+00 -0.00000000000E+00 -0.45593999997E+02  0.45594000000E+02  0.51100000000E-03 0. -1.
    9900012    2    1    2    0    0  0.11269838055E+02  0.13007589281E+02 -0.73806029737E+01  0.72461550018E+02  0.69999973586E+02 0.  0.
        -12    1    1    2    0    0 -0.11269838055E+02 -0.13007589281E+02  0.73806029737E+01  0.18726449982E+02  0.00000000000E+00 0.  1.
         11    1    3    3    0    0 -0.11170556050E+02 -0.11188300116E+02  0.69793601699E+01  0.17282096244E+02  0.51100000000E-03 0. -1.
        -11    1    3    3    0    0  0.61118556784E+00  0.97616281004E+01  0.13684980022E+02  0.16820868272E+02  0.51100000000E-03 0.  1.
        -12    1    3    3    0    0  0.21829208537E+02  0.14434261296E+02 -0.28044943166E+02  0.38358585501E+02  0.00000000000E+00 0.  1.
</event>
<event>
 7    1  0.1358622E-013  0.7246163E+02  0.7816164E-02  0.1226708E+00
        -11   -1    0    0    0    0  0.00000000000E+00  0.00000000000E+00  0.45593999997E+02  0.45594000000E+02  0.51100000000E-03 0. -1.
         11   -1    0    0    0    0 -0.00000000000E+00 -0.00000000000E+00 -0.45593999997E+02  0.45594000000E+02  0.51100000000E-03 0.  1.
    9900012    2    1    2    0    0 -0.13769954683E+02 -0.66672289039E+01 -0.10798771652E+02  0.72461626555E+02  0.70000073290E+02 0.  0.
        -12    1    1    2    0    0  0.13769954683E+02  0.66672289039E+01  0.10798771652E+02  0.18726373445E+02  0.00000000000E+00 0.  1.
         11    1    3    3    0    0  0.94850254250E+01 -0.13319293310E+02 -0.21771239399E+02  0.27227856082E+02  0.51100000000E-03 0. -1.
        -11    1    3    3    0    0  0.16666902436E+01  0.79927477031E+01 -0.98050062527E+01  0.12759311113E+02  0.51100000000E-03 0.  1.
         12    1    3    3    0    0 -0.24921670352E+02 -0.13406832970E+01  0.20777474001E+02  0.32474459359E+02  0.00000000000E+00 0. -1.
</event>
<event>
 7    1  0.1358622E-013  0.7246166E+02  0.7816164E-02  0.1226708E+00
        -11   -1    0    0    0    0  0.00000000000E+00  0.00000000000E+00  0.45593999997E+02  0.45594000000E+02  0.51100000000E-03 0. -1.
         11   -1    0    0    0    0 -0.00000000000E+00 -0.00000000000E+00 -0.45593999997E+02  0.45594000000E+02  0.51100000000E-03 0.  1.
    9900012    2    1    2    0    0  0.68753836482E+01 -0.46042107377E+01  0.16798992660E+02  0.72461659962E+02  0.70000116809E+02 0.  0.
        -12    1    1    2    0    0 -0.68753836482E+01  0.46042107377E+01 -0.16798992660E+02  0.18726340038E+02  0.00000000000E+00 0.  1.
         11    1    3    3    0    0  0.19922495459E+02  0.95087301771E+01  0.27887806092E+01  0.22250821837E+02  0.51100000000E-03 0. -1.
        -11    1    3    3    0    0 -0.10598136306E+02  0.86681890310E+01  0.22027855730E+02  0.25936160520E+02  0.51100000000E-03 0.  1.
        -12    1    3    3    0    0 -0.24489755050E+01 -0.22781129946E+02 -0.80176436793E+01  0.24274677604E+02  0.00000000000E+00 0.  1.
</event>
<event>
 7    1  0.1358622E-013  0.7246163E+02  0.7816164E-02  0.1226708E+00
        -11   -1    0    0    0    0  0.00000000000E+00  0.00000000000E+00  0.45593999997E+02  0.45594000000E+02  0.51100000000E-03 0.  1.
         11   -1    0    0    0    0 -0.00000000000E+00 -0.00000000000E+00 -0.45593999997E+02  0.45594000000E+02  0.51100000000E-03 0. -1.
    9900012    2    1    2    0    0 -0.12291888535E+02 -0.13313911809E+02  0.47250494661E+01  0.72461631856E+02  0.70000080196E+02 0.  0.
        -12    1    1    2    0    0  0.12291888535E+02  0.13313911809E+02 -0.47250494661E+01  0.18726368144E+02  0.00000000000E+00 0.  1.
         11    1    3    3    0    0 -0.43049812833E+01 -0.19885756237E+02 -0.28714588646E+02  0.35192382221E+02  0.51100000000E-03 0. -1.
        -11    1    3    3    0    0 -0.59122817698E+01  0.20677809703E+01  0.40377866263E+01  0.74521483458E+01  0.51100000000E-03 0.  1.
        -12    1    3    3    0    0 -0.20746254816E+01  0.45040634581E+01  0.29401851486E+02  0.29817101290E+02  0.00000000000E+00 0.  1.
</event>
<event>
 7    1  0.1358622E-013  0.7246163E+02  0.7816164E-02  0.1226708E+00
        -11   -1    0    0    0    0  0.00000000000E+00  0.00000000000E+00  0.45593999997E+02  0.45594000000E+02  0.51100000000E-03 0.  1.
         11   -1    0    0    0    0 -0.00000000000E+00 -0.00000000000E+00 -0.45593999997E+02  0.45594000000E+02  0.51100000000E-03 0. -1.
    9900012    2    1    2    0    0 -0.13534828970E+02  0.31114671256E+01 -0.12562004414E+02  0.72461634154E+02  0.70000083188E+02 0.  0.
        -12    1    1    2    0    0  0.13534828970E+02 -0.31114671256E+01  0.12562004414E+02  0.18726365846E+02  0.00000000000E+00 0.  1.
         11    1    3    3    0    0  0.54578357538E+01  0.15318738593E+02  0.16742091943E+02  0.23339866454E+02  0.51100000000E-03 0. -1.
        -11    1    3    3    0    0  0.13287679151E+01  0.44538867766E+01 -0.21080278636E+02  0.21586590264E+02  0.51100000000E-03 0.  1.
        -12    1    3    3    0    0 -0.20321432638E+02 -0.16661158244E+02 -0.82238177220E+01  0.27535177436E+02  0.00000000000E+00 0.  1.
</event>
<event>
 7    1  0.1358622E-013  0.7246161E+02  0.7816164E-02  0.1226708E+00
        -11   -1    0    0    0    0  0.00000000000E+00  0.00000000000E+00  0.45593999997E+02  0.45594000000E+02  0.51100000000E-03 0.  1.
         11   -1    0    0    0    0 -0.00000000000E+00 -0.00000000000E+00 -0.45593999997E+02  0.45594000000E+02  0.51100000000E-03 0. -1.
    9900012    2    1    2    0    0  0.38098907869E+01  0.12621040131E+02  0.13299311643E+02  0.72461611882E+02  0.70000054175E+02 0.  0.
        -12    1    1    2    0    0 -0.38098907869E+01 -0.12621040131E+02 -0.13299311643E+02  0.18726388118E+02  0.00000000000E+00 0.  1.
         11    1    3    3    0    0 -0.73701901260E+01 -0.16048105191E+02 -0.89454960220E+01  0.19796042080E+02  0.51100000000E-03 0. -1.
        -11    1    3    3    0    0 -0.12592691933E+02  0.68091220624E+01  0.17656152180E+01  0.14424196017E+02  0.51100000000E-03 0.  1.
        -12    1    3    3    0    0  0.23772772846E+02  0.21860023259E+02  0.20479192447E+02  0.38241373784E+02  0.00000000000E+00 0.  1.
</event>
<event>
 7    1  0.1358622E-013  0.7246160E+02  0.7816164E-02  0.1226708E+00
        -11   -1    0    0    0    0  0.00000000000E+00  0.00000000000E+00  0.45593999997E+02  0.45594000000E+02  0.51100000000E-03 0.  1.
         11   -1    0    0    0    0 -0.00000000000E+00 -0.00000000000E+00 -0.45593999997E+02  0.45594000000E+02  0.51100000000E-03 0. -1.
    9900012    2    1    2    0    0 -0.17414093789E+02 -0.20190414206E+01 -0.65841292811E+01  0.72461602879E+02  0.70000042447E+02 0.  0.
        -12    1    1    2    0    0  0.17414093789E+02  0.20190414206E+01  0.65841292811E+01  0.18726397121E+02  0.00000000000E+00 0.  1.
         11    1    3    3    0    0 -0.61641421195E+01  0.19256408381E+02 -0.49617192664E+01  0.20818851317E+02  0.51100000000E-03 0. -1.
        -11    1    3    3    0    0  0.13742861676E+02  0.41416808376E+00  0.95221881290E+01  0.16724528372E+02  0.51100000000E-03 0.  1.
        -12    1    3    3    0    0 -0.24992813346E+02 -0.21689617886E+02 -0.11144598144E+02  0.34918223190E+02  0.00000000000E+00 0.  1.
</event>
<event>
 7    1  0.1358622E-013  0.7246157E+02  0.7816164E-02  0.1226708E+00
        -11   -1    0    0    0    0  0.00000000000E+00  0.00000000000E+00  0.45593999997E+02  0.45594000000E+02  0.51100000000E-03 0. -1.
         11   -1    0    0    0    0 -0.00000000000E+00 -0.00000000000E+00 -0.45593999997E+02  0.45594000000E+02  0.51100000000E-03 0.  1.
    9900012    2    1    2    0    0  0.18664635282E+02  0.44746585219E+00  0.14527396194E+01  0.72461567123E+02  0.69999995868E+02 0.  0.
        -12    1    1    2    0    0 -0.18664635282E+02 -0.44746585219E+00 -0.14527396194E+01  0.18726432877E+02  0.00000000000E+00 0.  1.
         11    1    3    3    0    0  0.28800843424E+01 -0.27428962539E+01 -0.77593192534E+01  0.87192546250E+01  0.51100000000E-03 0. -1.
        -11    1    3    3    0    0 -0.13228444209E+02 -0.20847887278E+02 -0.98205144147E+00  0.24710130826E+02  0.51100000000E-03 0.  1.
         12    1    3    3    0    0  0.29012995149E+02  0.24038249384E+02  0.10194110314E+02  0.39032181672E+02  0.00000000000E+00 0. -1.
</event>
<event>
 7    1  0.1358622E-013  0.7246155E+02  0.7816164E-02  0.1226708E+00
        -11   -1    0    0    0    0  0.00000000000E+00  0.00000000000E+00  0.45593999997E+02  0.45594000000E+02  0.51100000000E-03 0. -1.
         11   -1    0    0    0    0 -0.00000000000E+00 -0.00000000000E+00 -0.45593999997E+02  0.45594000000E+02  0.51100000000E-03 0.  1.
    9900012    2    1    2    0    0  0.11542544935E+02  0.95837989107E+01  0.11207155724E+02  0.72461551203E+02  0.69999975130E+02 0.  0.
        -12    1    1    2    0    0 -0.11542544935E+02 -0.95837989107E+01 -0.11207155724E+02  0.18726448797E+02  0.00000000000E+00 0.  1.
         11    1    3    3    0    0  0.18592123729E+02 -0.10954884737E+02 -0.55629067963E+01  0.22285028531E+02  0.51100000000E-03 0. -1.
        -11    1    3    3    0    0 -0.12992132252E+02 -0.49459724019E+01  0.19410614494E+02  0.23875303113E+02  0.51100000000E-03 0.  1.
        -12    1    3    3    0    0  0.59425534579E+01  0.25484656049E+02 -0.26405519735E+01  0.26301219559E+02  0.00000000000E+00 0.  1.
</event>
<event>
 7    1  0.1358622E-013  0.7246227E+02  0.7816164E-02  0.1226706E+00
        -11   -1    0    0    0    0  0.00000000000E+00  0.00000000000E+00  0.45593999997E+02  0.45594000000E+02  0.51100000000E-03 0.  1.
         11   -1    0    0    0    0 -0.00000000000E+00 -0.00000000000E+00 -0.45593999997E+02  0.45594000000E+02  0.51100000000E-03 0. -1.
    9900012    2    1    2    0    0  0.45569235652E+01 -0.13522843498E+02 -0.12125191816E+02  0.72462265696E+02  0.70000905884E+02 0.  0.
        -12    1    1    2    0    0 -0.45569235652E+01  0.13522843498E+02  0.12125191816E+02  0.18725734304E+02  0.00000000000E+00 0.  1.
         11    1    3    3    0    0  0.22081913924E+02 -0.10997272727E+02 -0.22101405743E+02  0.33121338530E+02  0.51100000000E-03 0. -1.
        -11    1    3    3    0    0 -0.18534477789E+01  0.91456032013E+01 -0.83719795840E+01  0.12536641057E+02  0.51100000000E-03 0.  1.
         12    1    3    3    0    0 -0.15671542579E+02 -0.11671173972E+02  0.18348193511E+02  0.26804286109E+02  0.00000000000E+00 0. -1.
</event>
<event>
 7    1  0.1358622E-013  0.7246157E+02  0.7816164E-02  0.1226708E+00
        -11   -1    0    0    0    0  0.00000000000E+00  0.00000000000E+00  0.45593999997E+02  0.45594000000E+02  0.51100000000E-03 0. -1.
         11   -1    0    0    0    0 -0.00000000000E+00 -0.00000000000E+00 -0.45593999997E+02  0.45594000000E+02  0.51100000000E-03 0.  1.
    9900012    2    1    2    0    0  0.15550120737E+02  0.10113631346E+02  0.25665681479E+01  0.72461573058E+02  0.70000003600E+02 0.  0.
        -12    1    1    2    0    0 -0.15550120737E+02 -0.10113631346E+02 -0.25665681479E+01  0.18726426942E+02  0.00000000000E+00 0.  1.
         11    1    3    3    0    0  0.25626797315E+02 -0.15110041692E+02 -0.77865753966E+01  0.30751859411E+02  0.51100000000E-03 0. -1.
        -11    1    3    3    0    0  0.27455678930E+01 -0.37445604038E+01 -0.47255654615E+01  0.66250165936E+01  0.51100000000E-03 0.  1.
         12    1    3    3    0    0 -0.12822244471E+02  0.28968233442E+02  0.15078709006E+02  0.35084697053E+02  0.00000000000E+00 0. -1.
</event>
<event>
 7    1  0.1358622E-013  0.7246162E+02  0.7816164E-02  0.1226708E+00
        -11   -1    0    0    0    0  0.00000000000E+00  0.00000000000E+00  0.45593999997E+02  0.45594000000E+02  0.51100000000E-03 0.  1.
         11   -1    0    0    0    0 -0.00000000000E+00 -0.00000000000E+00 -0.45593999997E+02  0.45594000000E+02  0.51100000000E-03 0. -1.
    9900012    2    1    2    0    0  0.23545058126E+01  0.66693861057E+01 -0.17339340921E+02  0.72461624157E+02  0.70000070166E+02 0.  0.
        -12    1    1    2    0    0 -0.23545058126E+01 -0.66693861057E+01  0.17339340921E+02  0.18726375843E+02  0.00000000000E+00 0.  1.
         11    1    3    3    0    0 -0.66058370861E+01 -0.21229615880E+02  0.47506919360E+01  0.22735495336E+02  0.51100000000E-03 0. -1.
        -11    1    3    3    0    0 -0.12608742569E+02  0.11505735551E+02 -0.11776571362E+02  0.20737646275E+02  0.51100000000E-03 0.  1.
        -12    1    3    3    0    0  0.21569085467E+02  0.16393266435E+02 -0.10313461495E+02  0.28988482546E+02  0.00000000000E+00 0.  1.
</event>
<event>
 7    1  0.1358622E-013  0.7246175E+02  0.7816164E-02  0.1226708E+00
        -11   -1    0    0    0    0  0.00000000000E+00  0.00000000000E+00  0.45593999997E+02  0.45594000000E+02  0.51100000000E-03 0.  1.
         11   -1    0    0    0    0 -0.00000000000E+00 -0.00000000000E+00 -0.45593999997E+02  0.45594000000E+02  0.51100000000E-03 0. -1.
    9900012    2    1    2    0    0  0.13964279908E+02 -0.37543569759E+01 -0.11898584240E+02  0.72461745261E+02  0.70000227926E+02 0.  0.
        -12    1    1    2    0    0 -0.13964279908E+02  0.37543569759E+01  0.11898584240E+02  0.18726254739E+02  0.00000000000E+00 0.  1.
         11    1    3    3    0    0 -0.95362157193E+01  0.20764183655E+02 -0.46633737123E+01  0.23320329924E+02  0.51100000000E-03 0. -1.
        -11    1    3    3    0    0 -0.91305228934E+01 -0.35533438354E+01 -0.20635560822E+01  0.10012540371E+02  0.51100000000E-03 0.  1.
        -12    1    3    3    0    0  0.32631018521E+02 -0.20965196796E+02 -0.51716544455E+01  0.39128874966E+02  0.00000000000E+00 0.  1.
</event>
<event>
 7    1  0.1358622E-013  0.7246146E+02  0.7816164E-02  0.1226708E+00
        -11   -1    0    0    0    0  0.00000000000E+00  0.00000000000E+00  0.45593999997E+02  0.45594000000E+02  0.51100000000E-03 0.  1.
         11   -1    0    0    0    0 -0.00000000000E+00 -0.00000000000E+00 -0.45593999997E+02  0.45594000000E+02  0.51100000000E-03 0. -1.
    9900012    2    1    2    0    0  0.14990497291E+02  0.85962739575E+01 -0.72161168983E+01  0.72461460595E+02  0.69999857096E+02 0.  0.
        -12    1    1    2    0    0 -0.14990497291E+02 -0.85962739575E+01  0.72161168983E+01  0.18726539405E+02  0.00000000000E+00 0.  1.
         11    1    3    3    0    0  0.42927055908E+01  0.24867229609E+02 -0.59121798068E+01  0.25918339068E+02  0.51100000000E-03 0. -1.
        -11    1    3    3    0    0  0.74890312111E+01  0.92597401493E+01 -0.13555440677E+02  0.18043789744E+02  0.51100000000E-03 0.  1.
        -12    1    3    3    0    0  0.32087604894E+01 -0.25530695801E+02  0.12251503585E+02  0.28499331783E+02  0.00000000000E+00 0.  1.
</event>
<event>
 7    1  0.1358622E-013  0.7246163E+02  0.7816164E-02  0.1226708E+00
        -11   -1    0    0    0    0  0.00000000000E+00  0.00000000000E+00  0.45593999997E+02  0.45594000000E+02  0.51100000000E-03 0.  1.
         11   -1    0    0    0    0 -0.00000000000E+00 -0.00000000000E+00 -0.45593999997E+02  0.45594000000E+02  0.51100000000E-03 0. -1.
    9900012    2    1    2    0    0 -0.22326994099E+01  0.90478663405E+01 -0.16242789901E+02  0.72461626733E+02  0.70000073522E+02 0.  0.
        -12    1    1    2    0    0  0.22326994099E+01 -0.90478663405E+01  0.16242789901E+02  0.18726373267E+02  0.00000000000E+00 0.  1.
         11    1    3    3    0    0 -0.21521681285E+02 -0.92797843901E+01 -0.11465105805E+01  0.23465115607E+02  0.51100000000E-03 0. -1.
        -11    1    3    3    0    0 -0.47792315820E+01 -0.88501540880E+01 -0.12201282654E+01  0.10131880138E+02  0.51100000000E-03 0.  1.
        -12    1    3    3    0    0  0.24068213457E+02  0.27177804819E+02 -0.13876151055E+02  0.38864630988E+02  0.00000000000E+00 0.  1.
</event>
<event>
 7    1  0.1358622E-013  0.7246152E+02  0.7816164E-02  0.1226708E+00
        -11   -1    0    0    0    0  0.00000000000E+00  0.00000000000E+00  0.45593999997E+02  0.45594000000E+02  0.51100000000E-03 0. -1.
         11   -1    0    0    0    0 -0.00000000000E+00 -0.00000000000E+00 -0.45593999997E+02  0.45594000000E+02  0.51100000000E-03 0.  1.
    9900012    2    1    2    0    0 -0.45692112897E+01  0.89494983375E+01  0.15802213639E+02  0.72461516929E+02  0.69999930482E+02 0.  0.
        -12    1    1    2    0    0  0.45692112897E+01 -0.89494983375E+01 -0.15802213639E+02  0.18726483071E+02  0.00000000000E+00 0.  1.
         11    1    3    3    0    0  0.16262371332E+02 -0.68417955109E+01  0.12754963710E+02  0.21770713967E+02  0.51100000000E-03 0. -1.
        -11    1    3    3    0    0  0.24236295297E+01 -0.13201715787E+02  0.37274894467E+00  0.13427517338E+02  0.51100000000E-03 0.  1.
         12    1    3    3    0    0 -0.23255212152E+02  0.28993009636E+02  0.26745009849E+01  0.37263285624E+02  0.00000000000E+00 0. -1.
</event>
<event>
 7    1  0.1358622E-013  0.7246159E+02  0.7816164E-02  0.1226708E+00
        -11   -1    0    0    0    0  0.00000000000E+00  0.00000000000E+00  0.45593999997E+02  0.45594000000E+02  0.51100000000E-03 0.  1.
         11   -1    0    0    0    0 -0.00000000000E+00 -0.00000000000E+00 -0.45593999997E+02  0.45594000000E+02  0.51100000000E-03 0. -1.
    9900012    2    1    2    0    0  0.21147534306E+01  0.13146071267E+02  0.13167646028E+02  0.72461594212E+02  0.70000031157E+02 0.  0.
        -12    1    1    2    0    0 -0.21147534306E+01 -0.13146071267E+02 -0.13167646028E+02  0.18726405788E+02  0.00000000000E+00 0.  1.
         11    1    3    3    0    0 -0.39218353816E+01  0.84406224594E+01 -0.11963008332E+02  0.15157126010E+02  0.51100000000E-03 0. -1.
        -11    1    3    3    0    0  0.23823714167E+02  0.75767882195E+01 -0.16199888693E+01  0.25051974785E+02  0.51100000000E-03 0.  1.
        -12    1    3    3    0    0 -0.17787125355E+02 -0.28713394120E+01  0.26750643230E+02  0.32252493417E+02  0.00000000000E+00 0.  1.
</event>
<event>
 7    1  0.1358622E-013  0.7246156E+02  0.7816164E-02  0.1226708E+00
        -11   -1    0    0    0    0  0.00000000000E+00  0.00000000000E+00  0.45593999997E+02  0.45594000000E+02  0.51100000000E-03 0. -1.
         11   -1    0    0    0    0 -0.00000000000E+00 -0.00000000000E+00 -0.45593999997E+02  0.45594000000E+02  0.51100000000E-03 0.  1.
    9900012    2    1    2    0    0 -0.11869264777E+02 -0.40444334123E+01  0.13908362445E+02  0.72461563236E+02  0.69999990805E+02 0.  0.
        -12    1    1    2    0    0  0.11869264777E+02  0.40444334123E+01 -0.13908362445E+02  0.18726436764E+02  0.00000000000E+00 0.  1.
         11    1    3    3    0    0  0.18939286737E+02 -0.39810904239E+01  0.27834184492E+02  0.33901142896E+02  0.51100000000E-03 0. -1.
        -11    1    3    3    0    0 -0.22308480565E+02 -0.64471339303E+01 -0.31681208299E+01  0.23436527705E+02  0.51100000000E-03 0.  1.
        -12    1    3    3    0    0 -0.85000709489E+01  0.63837909418E+01 -0.10757701217E+02  0.15123892634E+02  0.00000000000E+00 0.  1.
</event>
<event>
 7    1  0.1358622E-013  0.7246161E+02  0.7816164E-02  0.1226708E+00
        -11   -1    0    0    0    0  0.00000000000E+00  0.00000000000E+00  0.45593999997E+02  0.45594000000E+02  0.51100000000E-03 0. -1.
         11   -1    0    0    0    0 -0.00000000000E+00 -0.00000000000E+00 -0.45593999997E+02  0.45594000000E+02  0.51100000000E-03 0.  1.
    9900012    2    1    2    0    0 -0.15729638820E+02 -0.10007857357E+02  0.17603915342E+01  0.72461608873E+02  0.70000050255E+02 0.  0.
        -12    1    1    2    0    0  0.15729638820E+02  0.10007857357E+02 -0.17603915342E+01  0.18726391127E+02  0.00000000000E+00 0.  1.
         11    1    3    3    0    0 -0.70242665419E+01 -0.24158961784E+02  0.60143036071E+01  0.25868274064E+02  0.51100000000E-03 0. -1.
        -11    1    3    3    0    0  0.88418584785E+01 -0.11805524703E+02  0.11705057251E+01  0.14795910204E+02  0.51100000000E-03 0.  1.
         12    1    3    3    0    0 -0.17547230757E+02  0.25956629129E+02 -0.54244177980E+01  0.31797424604E+02  0.00000000000E+00 0. -1.
</event>
<event>
 7    1  0.1358622E-013  0.7246154E+02  0.7816164E-02  0.1226708E+00
        -11   -1    0    0    0    0  0.00000000000E+00  0.00000000000E+00  0.45593999997E+02  0.45594000000E+02  0.51100000000E-03 0.  1.
         11   -1    0    0    0    0 -0.00000000000E+00 -0.00000000000E+00 -0.45593999997E+02  0.45594000000E+02  0.51100000000E-03 0. -1.
    9900012    2    1    2    0    0 -0.97767974658E+01 -0.53091693617E+01 -0.15063438864E+02  0.72461541755E+02  0.69999962822E+02 0.  0.
        -12    1    1    2    0    0  0.97767974658E+01  0.53091693617E+01  0.15063438864E+02  0.18726458245E+02  0.00000000000E+00 0.  1.
         11    1    3    3    0    0  0.94847164061E+01  0.22385692997E+02 -0.48772530532E+01  0.24796505679E+02  0.51100000000E-03 0. -1.
        -11    1    3    3    0    0  0.29775094194E+01  0.54230791002E+01  0.92270834080E+00  0.62551371059E+01  0.51100000000E-03 0.  1.
        -12    1    3    3    0    0 -0.22239023291E+02 -0.33117941459E+02 -0.11108894151E+02  0.41409898970E+02  0.00000000000E+00 0.  1.
</event>
<event>
 7    1  0.1358622E-013  0.7246158E+02  0.7816164E-02  0.1226708E+00
        -11   -1    0    0    0    0  0.00000000000E+00  0.00000000000E+00  0.45593999997E+02  0.45594000000E+02  0.51100000000E-03 0. -1.
         11   -1    0    0    0    0 -0.00000000000E+00 -0.00000000000E+00 -0.45593999997E+02  0.45594000000E+02  0.51100000000E-03 0.  1.
    9900012    2    1    2    0    0  0.15702995323E+02  0.15462076664E-01  0.10202673164E+02  0.72461579069E+02  0.70000011430E+02 0.  0.
        -12    1    1    2    0    0 -0.15702995323E+02 -0.15462076664E-01 -0.10202673164E+02  0.18726420931E+02  0.00000000000E+00 0.  1.
         11    1    3    3    0    0  0.14702294972E+02  0.46918323770E+01 -0.94426819400E+01  0.18092402023E+02  0.51100000000E-03 0. -1.
        -11    1    3    3    0    0  0.19321476631E+02  0.61673200842E+01 -0.58932743759E+01  0.21120747604E+02  0.51100000000E-03 0.  1.
         12    1    3    3    0    0 -0.18320776279E+02 -0.10843690385E+02  0.25538629480E+02  0.33248429442E+02  0.00000000000E+00 0. -1.
</event>
<event>
 7    1  0.1358622E-013  0.7246154E+02  0.7816164E-02  0.1226708E+00
        -11   -1    0    0    0    0  0.00000000000E+00  0.00000000000E+00  0.45593999997E+02  0.45594000000E+02  0.51100000000E-03 0. -1.
         11   -1    0    0    0    0 -0.00000000000E+00 -0.00000000000E+00 -0.45593999997E+02  0.45594000000E+02  0.51100000000E-03 0.  1.
    9900012    2    1    2    0    0  0.10607004806E+02  0.38320931758E+01  0.14949469434E+02  0.72461544772E+02  0.69999966752E+02 0.  0.
        -12    1    1    2    0    0 -0.10607004806E+02 -0.38320931758E+01 -0.14949469434E+02  0.18726455228E+02  0.00000000000E+00 0.  1.
         11    1    3    3    0    0 -0.22325277965E+02  0.60219925474E+01 -0.11390154107E+02  0.25776307752E+02  0.51100000000E-03 0. -1.
        -11    1    3    3    0    0  0.46570389343E+01 -0.73400815214E-01 -0.32684687297E+01  0.56900164686E+01  0.51100000000E-03 0.  1.
         12    1    3    3    0    0  0.28275243836E+02 -0.21164985564E+01  0.29608092271E+02  0.40995220552E+02  0.00000000000E+00 0. -1.
</event>
<event>
 7    1  0.1358622E-013  0.7246155E+02  0.7816164E-02  0.1226708E+00
        -11   -1    0    0    0    0  0.00000000000E+00  0.00000000000E+00  0.45593999997E+02  0.45594000000E+02  0.51100000000E-03 0.  1.
         11   -1    0    0    0    0 -0.00000000000E+00 -0.00000000000E+00 -0.45593999997E+02  0.45594000000E+02  0.51100000000E-03 0. -1.
    9900012    2    1    2    0    0 -0.14952825120E+02 -0.21118165755E+01 -0.11073979066E+02  0.72461554511E+02  0.69999979439E+02 0.  0.
        -12    1    1    2    0    0  0.14952825120E+02  0.21118165755E+01  0.11073979066E+02  0.18726445489E+02  0.00000000000E+00 0.  1.
         11    1    3    3    0    0 -0.14731115173E+02 -0.12602900207E+02 -0.13236342629E+02  0.23474232987E+02  0.51100000000E-03 0. -1.
        -11    1    3    3    0    0  0.13251288617E+02  0.22960397457E+02 -0.83986830026E+01  0.27808530666E+02  0.51100000000E-03 0.  1.
         12    1    3    3    0    0 -0.13472998564E+02 -0.12469313825E+02  0.10561046567E+02  0.21178790857E+02  0.00000000000E+00 0. -1.
</event>
<event>
 7    1  0.1358622E-013  0.7246156E+02  0.7816164E-02  0.1226708E+00
        -11   -1    0    0    0    0  0.00000000000E+00  0.00000000000E+00  0.45593999997E+02  0.45594000000E+02  0.51100000000E-03 0. -1.
         11   -1    0    0    0    0 -0.00000000000E+00 -0.00000000000E+00 -0.45593999997E+02  0.45594000000E+02  0.51100000000E-03 0.  1.
    9900012    2    1    2    0    0  0.49794558476E+01  0.11432737690E+02  0.13970574286E+02  0.72461563673E+02  0.69999991375E+02 0.  0.
        -12    1    1    2    0    0 -0.49794558476E+01 -0.11432737690E+02 -0.13970574286E+02  0.18726436327E+02  0.00000000000E+00 0.  1.
         11    1    3    3    0    0  0.61438196008E+00  0.31724231528E+01  0.23932330807E+02  0.24149496723E+02  0.51100000000E-03 0. -1.
        -11    1    3    3    0    0 -0.19718609433E+02 -0.30938074811E+01 -0.22327145591E+00  0.19961088475E+02  0.51100000000E-03 0.  1.
        -12    1    3    3    0    0  0.24083683321E+02  0.11354122019E+02 -0.97384850659E+01  0.28350978475E+02  0.00000000000E+00 0.  1.
</event>
<event>
 7    1  0.1358622E-013  0.7246125E+02  0.7816164E-02  0.1226709E+00
        -11   -1    0    0    0    0  0.00000000000E+00  0.00000000000E+00  0.45593999997E+02  0.45594000000E+02  0.51100000000E-03 0.  1.
         11   -1    0    0    0    0 -0.00000000000E+00 -0.00000000000E+00 -0.45593999997E+02  0.45594000000E+02  0.51100000000E-03 0. -1.
    9900012    2    1    2    0    0 -0.44922619228E+01 -0.59812563806E+01 -0.17167857706E+02  0.72461249527E+02  0.69999582140E+02 0.  0.
        -12    1    1    2    0    0  0.44922619228E+01  0.59812563806E+01  0.17167857706E+02  0.18726750473E+02  0.00000000000E+00 0.  1.
         11    1    3    3    0    0  0.11385592813E+02  0.90713441665E+01 -0.22753523311E+02  0.27011920184E+02  0.51100000000E-03 0. -1.
        -11    1    3    3    0    0 -0.75037044186E+01  0.23710384387E+00 -0.16017543961E+02  0.17689644232E+02  0.51100000000E-03 0.  1.
        -12    1    3    3    0    0 -0.83741503168E+01 -0.15289704391E+02  0.21603209567E+02  0.27759685111E+02  0.00000000000E+00 0.  1.
</event>
<event>
 7    1  0.1358622E-013  0.7246161E+02  0.7816164E-02  0.1226708E+00
        -11   -1    0    0    0    0  0.00000000000E+00  0.00000000000E+00  0.45593999997E+02  0.45594000000E+02  0.51100000000E-03 0. -1.
         11   -1    0    0    0    0 -0.00000000000E+00 -0.00000000000E+00 -0.45593999997E+02  0.45594000000E+02  0.51100000000E-03 0.  1.
    9900012    2    1    2    0    0 -0.96304820246E+00 -0.11812103170E+02  0.14499113691E+02  0.72461613777E+02  0.70000056644E+02 0.  0.
        -12    1    1    2    0    0  0.96304820246E+00  0.11812103170E+02 -0.14499113691E+02  0.18726386223E+02  0.00000000000E+00 0.  1.
         11    1    3    3    0    0 -0.35576011068E+01  0.67462144453E+01  0.10430429699E+02  0.12921369856E+02  0.51100000000E-03 0. -1.
        -11    1    3    3    0    0 -0.10715149691E+02  0.82990983458E+01 -0.17845972290E+02  0.22409109610E+02  0.51100000000E-03 0.  1.
        -12    1    3    3    0    0  0.13309702596E+02 -0.26857415961E+02  0.21914656282E+02  0.37131134311E+02  0.00000000000E+00 0.  1.
</event>
<event>
 7    1  0.1358622E-013  0.7246165E+02  0.7816164E-02  0.1226708E+00
        -11   -1    0    0    0    0  0.00000000000E+00  0.00000000000E+00  0.45593999997E+02  0.45594000000E+02  0.51100000000E-03 0.  1.
         11   -1    0    0    0    0 -0.00000000000E+00 -0.00000000000E+00 -0.45593999997E+02  0.45594000000E+02  0.51100000000E-03 0. -1.
    9900012    2    1    2    0    0  0.13835235722E+02  0.82890320517E+01 -0.95160127757E+01  0.72461646938E+02  0.70000099843E+02 0.  0.
        -12    1    1    2    0    0 -0.13835235722E+02 -0.82890320517E+01  0.95160127757E+01  0.18726353062E+02  0.00000000000E+00 0.  1.
         11    1    3    3    0    0  0.56737188454E+01  0.85636326649E+01 -0.24403669775E+02  0.26477650740E+02  0.51100000000E-03 0. -1.
        -11    1    3    3    0    0 -0.94147143056E+01 -0.16001832640E+02  0.12269162073E+02  0.22253715006E+02  0.51100000000E-03 0.  1.
         12    1    3    3    0    0  0.17576231182E+02  0.15727232027E+02  0.26184949259E+01  0.23730281193E+02  0.00000000000E+00 0. -1.
</event>
<event>
 7    1  0.1358622E-013  0.7246157E+02  0.7816164E-02  0.1226708E+00
        -11   -1    0    0    0    0  0.00000000000E+00  0.00000000000E+00  0.45593999997E+02  0.45594000000E+02  0.51100000000E-03 0. -1.
         11   -1    0    0    0    0 -0.00000000000E+00 -0.00000000000E+00 -0.45593999997E+02  0.45594000000E+02  0.51100000000E-03 0.  1.
    9900012    2    1    2    0    0 -0.79950972283E+01  0.16794459529E+02  0.21687881707E+01  0.72461572346E+02  0.70000002672E+02 0.  0.
        -12    1    1    2    0    0  0.79950972283E+01 -0.16794459529E+02 -0.21687881707E+01  0.18726427654E+02  0.00000000000E+00 0.  1.
         11    1    3    3    0    0 -0.25062250026E+02  0.22021345802E+02 -0.19228888409E+01  0.33417862724E+02  0.51100000000E-03 0. -1.
        -11    1    3    3    0    0  0.12569803157E+02  0.30837348219E+01 -0.13732033908E+02  0.18870032522E+02  0.51100000000E-03 0.  1.
        -12    1    3    3    0    0  0.44973496403E+01 -0.83106210947E+01  0.17823710920E+02  0.20173677100E+02  0.00000000000E+00 0.  1.
</event>
<event>
 7    1  0.1358622E-013  0.7246162E+02  0.7816164E-02  0.1226708E+00
        -11   -1    0    0    0    0  0.00000000000E+00  0.00000000000E+00  0.45593999997E+02  0.45594000000E+02  0.51100000000E-03 0.  1.
         11   -1    0    0    0    0 -0.00000000000E+00 -0.00000000000E+00 -0.45593999997E+02  0.45594000000E+02  0.51100000000E-03 0. -1.
    9900012    2    1    2    0    0 -0.10741748316E+02  0.63922263093E+01 -0.13943875067E+02  0.72461618450E+02  0.70000062732E+02 0.  0.
        -12    1    1    2    0    0  0.10741748316E+02 -0.63922263093E+01  0.13943875067E+02  0.18726381550E+02  0.00000000000E+00 0.  1.
         11    1    3    3    0    0  0.81691162179E+01 -0.15018968005E+02 -0.33344936787E+01  0.17419032926E+02  0.51100000000E-03 0. -1.
        -11    1    3    3    0    0 -0.25130071648E+02  0.13351689934E+01 -0.19880990574E+02  0.32071123518E+02  0.51100000000E-03 0.  1.
        -12    1    3    3    0    0  0.62192071135E+01  0.20076025321E+02  0.92716091861E+01  0.22971462006E+02  0.00000000000E+00 0.  1.
</event>
<event>
 7    1  0.1358622E-013  0.7246153E+02  0.7816164E-02  0.1226708E+00
        -11   -1    0    0    0    0  0.00000000000E+00  0.00000000000E+00  0.45593999997E+02  0.45594000000E+02  0.51100000000E-03 0. -1.
         11   -1    0    0    0    0 -0.00000000000E+00 -0.00000000000E+00 -0.45593999997E+02  0.45594000000E+02  0.51100000000E-03 0.  1.
    9900012    2    1    2    0    0  0.13476301295E+01 -0.18274945091E+01  0.18588298664E+02  0.72461529688E+02  0.69999947102E+02 0.  0.
        -12    1    1    2    0    0 -0.13476301295E+01  0.18274945091E+01 -0.18588298664E+02  0.18726470312E+02  0.00000000000E+00 0.  1.
         11    1    3    3    0    0 -0.21085682154E+01 -0.14745623654E+02  0.15604983145E+02  0.21573014997E+02  0.51100000000E-03 0. -1.
        -11    1    3    3    0    0  0.16612512616E+02  0.47217552898E+01 -0.17905174581E+02  0.24877013999E+02  0.51100000000E-03 0.  1.
         12    1    3    3    0    0 -0.13156314271E+02  0.81963738550E+01  0.20888490100E+02  0.26011500692E+02  0.00000000000E+00 0. -1.
</event>
<event>
 7    1  0.1358622E-013  0.7246162E+02  0.7816164E-02  0.1226708E+00
        -11   -1    0    0    0    0  0.00000000000E+00  0.00000000000E+00  0.45593999997E+02  0.45594000000E+02  0.51100000000E-03 0. -1.
         11   -1    0    0    0    0 -0.00000000000E+00 -0.00000000000E+00 -0.45593999997E+02  0.45594000000E+02  0.51100000000E-03 0.  1.
    9900012    2    1    2    0    0 -0.14491458957E+02 -0.10404207399E+02  0.56945190737E+01  0.72461615891E+02  0.70000059398E+02 0.  0.
        -12    1    1    2    0    0  0.14491458957E+02  0.10404207399E+02 -0.56945190737E+01  0.18726384109E+02  0.00000000000E+00 0.  1.
         11    1    3    3    0    0 -0.87378223331E+00  0.55572630383E+01  0.47049712732E+01  0.73337182119E+01  0.51100000000E-03 0. -1.
        -11    1    3    3    0    0 -0.14610404282E+02  0.14069603264E+02 -0.19992090837E+02  0.28479841039E+02  0.51100000000E-03 0.  1.
         12    1    3    3    0    0  0.99272755823E+00 -0.30031073701E+02  0.20981638637E+02  0.36648056641E+02  0.00000000000E+00 0. -1.
</event>
<event>
 7    1  0.1358622E-013  0.7246157E+02  0.7816164E-02  0.1226708E+00
        -11   -1    0    0    0    0  0.00000000000E+00  0.00000000000E+00  0.45593999997E+02  0.45594000000E+02  0.51100000000E-03 0. -1.
         11   -1    0    0    0    0 -0.00000000000E+00 -0.00000000000E+00 -0.45593999997E+02  0.45594000000E+02  0.51100000000E-03 0.  1.
    9900012    2    1    2    0    0  0.16126734354E+02  0.90691818824E+01 -0.28909232334E+01  0.72461573269E+02  0.70000003876E+02 0.  0.
        -12    1    1    2    0    0 -0.16126734354E+02 -0.90691818824E+01  0.28909232334E+01  0.18726426731E+02  0.00000000000E+00 0.  1.
         11    1    3    3    0    0  0.30437058828E+00 -0.17918706389E+02  0.70052521316E+01  0.19241783644E+02  0.51100000000E-03 0. -1.
        -11    1    3    3    0    0 -0.47318987700E+00 -0.46820865558E+01 -0.16358384418E+02  0.17021826700E+02  0.51100000000E-03 0.  1.
        -12    1    3    3    0    0  0.16295553643E+02  0.31669974827E+02  0.64622090533E+01  0.36197962925E+02  0.00000000000E+00 0.  1.
</event>
<event>
 7    1  0.1358622E-013  0.7246153E+02  0.7816164E-02  0.1226708E+00
        -11   -1    0    0    0    0  0.00000000000E+00  0.00000000000E+00  0.45593999997E+02  0.45594000000E+02  0.51100000000E-03 0.  1.
         11   -1    0    0    0    0 -0.00000000000E+00 -0.00000000000E+00 -0.45593999997E+02  0.45594000000E+02  0.51100000000E-03 0. -1.
    9900012    2    1    2    0    0  0.14616876496E+02 -0.11554664651E+02 -0.18754989932E+01  0.72461525420E+02  0.69999941543E+02 0.  0.
        -12    1    1    2    0    0 -0.14616876496E+02  0.11554664651E+02  0.18754989932E+01  0.18726474580E+02  0.00000000000E+00 0.  1.
         11    1    3    3    0    0 -0.11368435813E+02 -0.70834340518E+00  0.69687373562E+01  0.13353141346E+02  0.51100000000E-03 0. -1.
        -11    1    3    3    0    0  0.14711911634E+02 -0.23378806519E+02  0.13800598018E+02  0.30878235767E+02  0.51100000000E-03 0.  1.
         12    1    3    3    0    0  0.11273400675E+02  0.12532485273E+02 -0.22644834368E+02  0.28230148307E+02  0.00000000000E+00 0. -1.
</event>
<event>
 7    1  0.1358622E-013  0.7246158E+02  0.7816164E-02  0.1226708E+00
        -11   -1    0    0    0    0  0.00000000000E+00  0.00000000000E+00  0.45593999997E+02  0.45594000000E+02  0.51100000000E-03 0. -1.
         11   -1    0    0    0    0 -0.00000000000E+00 -0.00000000000E+00 -0.45593999997E+02  0.45594000000E+02  0.51100000000E-03 0.  1.
    9900012    2    1    2    0    0  0.11794102612E+02  0.13061126964E+02 -0.64019487446E+01  0.72461579047E+02  0.70000011402E+02 0.  0.
        -12    1    1    2    0    0 -0.11794102612E+02 -0.13061126964E+02  0.64019487446E+01  0.18726420953E+02  0.00000000000E+00 0.  1.
         11    1    3    3    0    0 -0.48836345686E+01 -0.24825204530E+01  0.26322794951E+02  0.26886843041E+02  0.51100000000E-03 0. -1.
        -11    1    3    3    0    0  0.31402415112E+01 -0.54180895813E+01 -0.10144423355E+02  0.11921666701E+02  0.51100000000E-03 0.  1.
        -12    1    3    3    0    0  0.13537495669E+02  0.20961736998E+02 -0.22580320341E+02  0.33653069305E+02  0.00000000000E+00 0.  1.
</event>
<event>
 7    1  0.1358622E-013  0.7246157E+02  0.7816164E-02  0.1226708E+00
        -11   -1    0    0    0    0  0.00000000000E+00  0.00000000000E+00  0.45593999997E+02  0.45594000000E+02  0.51100000000E-03 0.  1.
         11   -1    0    0    0    0 -0.00000000000E+00 -0.00000000000E+00 -0.45593999997E+02  0.45594000000E+02  0.51100000000E-03 0. -1.
    9900012    2    1    2    0    0 -0.14830490687E+02  0.83962545352E+01  0.77613610771E+01  0.72461567612E+02  0.69999996505E+02 0.  0.
        -12    1    1    2    0    0  0.14830490687E+02 -0.83962545352E+01 -0.77613610771E+01  0.18726432388E+02  0.00000000000E+00 0.  1.
         11    1    3    3    0    0  0.16878769256E+02 -0.52648245343E+00 -0.50095947958E+01  0.17614371282E+02  0.51100000000E-03 0. -1.
        -11    1    3    3    0    0  0.88486805118E+01  0.87045782382E+01  0.57734174315E+01  0.13689455000E+02  0.51100000000E-03 0.  1.
        -12    1    3    3    0    0 -0.40557940454E+02  0.21815875047E+00  0.69975384414E+01  0.41157741330E+02  0.00000000000E+00 0.  1.
</event>
<event>
 7    1  0.1358622E-013  0.7246156E+02  0.7816164E-02  0.1226708E+00
        -11   -1    0    0    0    0  0.00000000000E+00  0.00000000000E+00  0.45593999997E+02  0.45594000000E+02  0.51100000000E-03 0.  1.
         11   -1    0    0    0    0 -0.00000000000E+00 -0.00000000000E+00 -0.45593999997E+02  0.45594000000E+02  0.51100000000E-03 0. -1.
    9900012    2    1    2    0    0  0.60109587133E+01 -0.80210339991E+01 -0.15818062352E+02  0.72461555927E+02  0.69999981284E+02 0.  0.
        -12    1    1    2    0    0 -0.60109587133E+01  0.80210339991E+01  0.15818062352E+02  0.18726444073E+02  0.00000000000E+00 0.  1.
         11    1    3    3    0    0 -0.12879955973E+02  0.12725585244E+02 -0.13660133323E+02  0.22681116117E+02  0.51100000000E-03 0. -1.
        -11    1    3    3    0    0 -0.98142392355E+01 -0.42274523460E+01 -0.11168846513E+02  0.15457482907E+02  0.51100000000E-03 0.  1.
        -12    1    3    3    0    0  0.28705153921E+02 -0.16519166897E+02  0.90109174847E+01  0.34322956903E+02  0.00000000000E+00 0.  1.
</event>
<event>
 7    1  0.1358622E-013  0.7246155E+02  0.7816164E-02  0.1226708E+00
        -11   -1    0    0    0    0  0.00000000000E+00  0.00000000000E+00  0.45593999997E+02  0.45594000000E+02  0.51100000000E-03 0.  1.
         11   -1    0    0    0    0 -0.00000000000E+00 -0.00000000000E+00 -0.45593999997E+02  0.45594000000E+02  0.51100000000E-03 0. -1.
    9900012    2    1    2    0    0 -0.11142284888E+02 -0.11497727248E+02 -0.97124526637E+01  0.72461548624E+02  0.69999971770E+02 0.  0.
        -12    1    1    2    0    0  0.11142284888E+02  0.11497727248E+02  0.97124526637E+01  0.18726451376E+02  0.00000000000E+00 0.  1.
         11    1    3    3    0    0  0.60487369661E+01 -0.16845005475E+02 -0.17024777567E+01  0.17978872576E+02  0.51100000000E-03 0. -1.
        -11    1    3    3    0    0  0.16201248278E+02 -0.47958307239E+01 -0.98098492467E+01  0.19537491666E+02  0.51100000000E-03 0.  1.
        -12    1    3    3    0    0 -0.33392270133E+02  0.10143108951E+02  0.17998743396E+01  0.34945184381E+02  0.00000000000E+00 0.  1.
</event>
<event>
 7    1  0.1358622E-013  0.7246162E+02  0.7816164E-02  0.1226708E+00
        -11   -1    0    0    0    0  0.00000000000E+00  0.00000000000E+00  0.45593999997E+02  0.45594000000E+02  0.51100000000E-03 0.  1.
         11   -1    0    0    0    0 -0.00000000000E+00 -0.00000000000E+00 -0.45593999997E+02  0.45594000000E+02  0.51100000000E-03 0. -1.
    9900012    2    1    2    0    0 -0.18321260757E+02 -0.58079774828E+00 -0.38303452569E+01  0.72461615764E+02  0.70000059233E+02 0.  0.
        -12    1    1    2    0    0  0.18321260757E+02  0.58079774828E+00  0.38303452569E+01  0.18726384236E+02  0.00000000000E+00 0.  1.
         11    1    3    3    0    0 -0.10511418522E+02  0.70998205845E-01 -0.10950491452E+02  0.15179203648E+02  0.51100000000E-03 0. -1.
        -11    1    3    3    0    0 -0.31124747187E+02 -0.49782526174E+01  0.10729273396E+02  0.33296399122E+02  0.51100000000E-03 0.  1.
        -12    1    3    3    0    0  0.23314904953E+02  0.43264566633E+01 -0.36091272009E+01  0.23986012994E+02  0.00000000000E+00 0.  1.
</event>
<event>
 7    1  0.1358622E-013  0.7246153E+02  0.7816164E-02  0.1226708E+00
        -11   -1    0    0    0    0  0.00000000000E+00  0.00000000000E+00  0.45593999997E+02  0.45594000000E+02  0.51100000000E-03 0. -1.
         11   -1    0    0    0    0 -0.00000000000E+00 -0.00000000000E+00 -0.45593999997E+02  0.45594000000E+02  0.51100000000E-03 0.  1.
    9900012    2    1    2    0    0  0.97771729232E+01  0.15833982977E+02 -0.20910437097E+01  0.72461532339E+02  0.69999950556E+02 0.  0.
        -12    1    1    2    0    0 -0.97771729232E+01 -0.15833982977E+02  0.20910437097E+01  0.18726467661E+02  0.00000000000E+00 0.  1.
         11    1    3    3    0    0  0.29856539950E+02  0.31239697075E+02  0.34573006204E+01  0.43350716015E+02  0.51100000000E-03 0. -1.
        -11    1    3    3    0    0  0.17467500933E+01 -0.29773876680E+01 -0.43814289468E+00  0.34796469176E+01  0.51100000000E-03 0.  1.
        -12    1    3    3    0    0 -0.21826117121E+02 -0.12428326430E+02 -0.51102014354E+01  0.25631169406E+02  0.00000000000E+00 0.  1.
</event>
<event>
 7    1  0.1358622E-013  0.7246163E+02  0.7816164E-02  0.1226708E+00
        -11   -1    0    0    0    0  0.00000000000E+00  0.00000000000E+00  0.45593999997E+02  0.45594000000E+02  0.51100000000E-03 0.  1.
         11   -1    0    0    0    0 -0.00000000000E+00 -0.00000000000E+00 -0.45593999997E+02  0.45594000000E+02  0.51100000000E-03 0. -1.
    9900012    2    1    2    0    0 -0.14757747722E+01 -0.77813571195E+01 -0.16969078365E+02  0.72461626877E+02  0.70000073709E+02 0.  0.
        -12    1    1    2    0    0  0.14757747722E+01  0.77813571195E+01  0.16969078365E+02  0.18726373123E+02  0.00000000000E+00 0.  1.
         11    1    3    3    0    0  0.49016309948E+01  0.20389981667E+01 -0.17965222770E+01  0.56045510513E+01  0.51100000000E-03 0. -1.
        -11    1    3    3    0    0  0.27019479852E+02 -0.16933049838E+01  0.42088988293E+01  0.27397707985E+02  0.51100000000E-03 0.  1.
         12    1    3    3    0    0 -0.33396885619E+02 -0.81270503024E+01 -0.19381454917E+02  0.39459367840E+02  0.00000000000E+00 0. -1.
</event>
<event>
 7    1  0.1358622E-013  0.7246213E+02  0.7816164E-02  0.1226707E+00
        -11   -1    0    0    0    0  0.00000000000E+00  0.00000000000E+00  0.45593999997E+02  0.45594000000E+02  0.51100000000E-03 0.  1.
         11   -1    0    0    0    0 -0.00000000000E+00 -0.00000000000E+00 -0.45593999997E+02  0.45594000000E+02  0.51100000000E-03 0. -1.
    9900012    2    1    2    0    0 -0.81945973252E+01  0.12300876349E+02 -0.11497623239E+02  0.72462126872E+02  0.70000725042E+02 0.  0.
        -12    1    1    2    0    0  0.81945973252E+01 -0.12300876349E+02  0.11497623239E+02  0.18725873128E+02  0.00000000000E+00 0.  1.
         11    1    3    3    0    0  0.60043211971E+01 -0.28285691560E+01 -0.13441571663E+02  0.14990948120E+02  0.51100000000E-03 0. -1.
        -11    1    3    3    0    0  0.20211487634E+02  0.27160400916E+01  0.41981709150E+01  0.20820800788E+02  0.51100000000E-03 0.  1.
        -12    1    3    3    0    0 -0.34410406156E+02  0.12413405413E+02 -0.22542224909E+01  0.36650377963E+02  0.00000000000E+00 0.  1.
</event>
<event>
 7    1  0.1358622E-013  0.7246153E+02  0.7816164E-02  0.1226708E+00
        -11   -1    0    0    0    0  0.00000000000E+00  0.00000000000E+00  0.45593999997E+02  0.45594000000E+02  0.51100000000E-03 0. -1.
         11   -1    0    0    0    0 -0.00000000000E+00 -0.00000000000E+00 -0.45593999997E+02  0.45594000000E+02  0.51100000000E-03 0.  1.
    9900012    2    1    2    0    0 -0.26087054393E+01 -0.43100093989E+01  0.18036052869E+02  0.72461528678E+02  0.69999945787E+02 0.  0.
        -12    1    1    2    0    0  0.26087054393E+01  0.43100093989E+01 -0.18036052869E+02  0.18726471322E+02  0.00000000000E+00 0.  1.
         11    1    3    3    0    0  0.84823825006E+01 -0.10452675055E+00  0.22686284013E+02  0.24220429834E+02  0.51100000000E-03 0. -1.
        -11    1    3    3    0    0  0.43833396926E+01 -0.19878148350E+02 -0.13585508746E+02  0.24472852242E+02  0.51100000000E-03 0.  1.
        -12    1    3    3    0    0 -0.15474427632E+02  0.15672665702E+02  0.89352776013E+01  0.23768246603E+02  0.00000000000E+00 0.  1.
</event>
<event>
 7    1  0.1358622E-013  0.7246158E+02  0.7816164E-02  0.1226708E+00
        -11   -1    0    0    0    0  0.00000000000E+00  0.00000000000E+00  0.45593999997E+02  0.45594000000E+02  0.51100000000E-03 0.  1.
         11   -1    0    0    0    0 -0.00000000000E+00 -0.00000000000E+00 -0.45593999997E+02  0.45594000000E+02  0.51100000000E-03 0. -1.
    9900012    2    1    2    0    0 -0.41620002003E+01  0.18178501772E+02  0.17025444327E+01  0.72461579363E+02  0.70000011813E+02 0.  0.
        -12    1    1    2    0    0  0.41620002003E+01 -0.18178501772E+02 -0.17025444327E+01  0.18726420637E+02  0.00000000000E+00 0.  1.
         11    1    3    3    0    0  0.41814687356E+01  0.10005841686E+01  0.62735948692E+01  0.76055139412E+01  0.51100000000E-03 0. -1.
        -11    1    3    3    0    0  0.23689656354E+02  0.68897488100E+01  0.11905377549E+02  0.27393547993E+02  0.51100000000E-03 0.  1.
         12    1    3    3    0    0 -0.32033125289E+02  0.10288168793E+02 -0.16476427985E+02  0.37462517428E+02  0.00000000000E+00 0. -1.
</event>
<event>
 7    1  0.1358622E-013  0.7246156E+02  0.7816164E-02  0.1226708E+00
        -11   -1    0    0    0    0  0.00000000000E+00  0.00000000000E+00  0.45593999997E+02  0.45594000000E+02  0.51100000000E-03 0.  1.
         11   -1    0    0    0    0 -0.00000000000E+00 -0.00000000000E+00 -0.45593999997E+02  0.45594000000E+02  0.51100000000E-03 0. -1.
    9900012    2    1    2    0    0 -0.23490938217E+01  0.12148801348E+02 -0.14055881921E+02  0.72461563272E+02  0.69999990852E+02 0.  0.
        -12    1    1    2    0    0  0.23490938217E+01 -0.12148801348E+02  0.14055881921E+02  0.18726436728E+02  0.00000000000E+00 0.  1.
         11    1    3    3    0    0  0.10532299443E+02 -0.76277257395E+01  0.88849305790E+01  0.15749715019E+02  0.51100000000E-03 0. -1.
        -11    1    3    3    0    0  0.15684489419E+02 -0.19195891715E+01 -0.47993599663E+01  0.16514293423E+02  0.51100000000E-03 0.  1.
        -12    1    3    3    0    0 -0.28565882684E+02  0.21696116259E+02 -0.18141452534E+02  0.40197554829E+02  0.00000000000E+00 0.  1.
</event>
<event>
 7    1  0.1358622E-013  0.7246143E+02  0.7816164E-02  0.1226708E+00
        -11   -1    0    0    0    0  0.00000000000E+00  0.00000000000E+00  0.45593999997E+02  0.45594000000E+02  0.51100000000E-03 0.  1.
         11   -1    0    0    0    0 -0.00000000000E+00 -0.00000000000E+00 -0.45593999997E+02  0.45594000000E+02  0.51100000000E-03 0. -1.
    9900012    2    1    2    0    0 -0.45988534465E+01 -0.10590707198E+02 -0.14743539340E+02  0.72461428390E+02  0.69999815143E+02 0.  0.
        -12    1    1    2    0    0  0.45988534465E+01  0.10590707198E+02  0.14743539340E+02  0.18726571610E+02  0.00000000000E+00 0.  1.
         11    1    3    3    0    0 -0.74813513996E+01 -0.76217756317E+01 -0.26994693959E+02  0.29030597388E+02  0.51100000000E-03 0. -1.
        -11    1    3    3    0    0 -0.43896689007E+01 -0.20200552352E+02 -0.69561580492E+00  0.20683698654E+02  0.51100000000E-03 0.  1.
         12    1    3    3    0    0  0.72721668539E+01  0.17231620786E+02  0.12946770423E+02  0.22747132348E+02  0.00000000000E+00 0. -1.
</event>
<event>
 7    1  0.1358622E-013  0.7246156E+02  0.7816164E-02  0.1226708E+00
        -11   -1    0    0    0    0  0.00000000000E+00  0.00000000000E+00  0.45593999997E+02  0.45594000000E+02  0.51100000000E-03 0. -1.
         11   -1    0    0    0    0 -0.00000000000E+00 -0.00000000000E+00 -0.45593999997E+02  0.45594000000E+02  0.51100000000E-03 0.  1.
    9900012    2    1    2    0    0 -0.15933013900E+02  0.83783938947E+01  0.51595558330E+01  0.72461563270E+02  0.69999990850E+02 0.  0.
        -12    1    1    2    0    0  0.15933013900E+02 -0.83783938947E+01 -0.51595558330E+01  0.18726436730E+02  0.00000000000E+00 0.  1.
         11    1    3    3    0    0  0.14298266699E+01 -0.25265144676E+01  0.41076132999E+01  0.50299271310E+01  0.51100000000E-03 0. -1.
        -11    1    3    3    0    0 -0.12392425814E+02 -0.73989549665E+01  0.29730393298E+02  0.33048646539E+02  0.51100000000E-03 0.  1.
         12    1    3    3    0    0 -0.49704147563E+01  0.18303863329E+02 -0.28678450764E+02  0.34382989600E+02  0.00000000000E+00 0. -1.
</event>
<event>
 7    1  0.1358622E-013  0.7246156E+02  0.7816164E-02  0.1226708E+00
        -11   -1    0    0    0    0  0.00000000000E+00  0.00000000000E+00  0.45593999997E+02  0.45594000000E+02  0.51100000000E-03 0.  1.
         11   -1    0    0    0    0 -0.00000000000E+00 -0.00000000000E+00 -0.45593999997E+02  0.45594000000E+02  0.51100000000E-03 0. -1.
    9900012    2    1    2    0    0  0.82697902519E+01  0.11914261364E+02 -0.11846538613E+02  0.72461560622E+02  0.69999987401E+02 0.  0.
        -12    1    1    2    0    0 -0.82697902519E+01 -0.11914261364E+02  0.11846538613E+02  0.18726439378E+02  0.00000000000E+00 0.  1.
         11    1    3    3    0    0 -0.10659839783E+01  0.65544681508E+01 -0.19249775655E+02  0.20362986952E+02  0.51100000000E-03 0. -1.
        -11    1    3    3    0    0  0.48122753548E+01  0.27236580742E+02 -0.22766704421E+01  0.27751982870E+02  0.51100000000E-03 0.  1.
        -12    1    3    3    0    0  0.45234988753E+01 -0.21876787530E+02  0.96799074844E+01  0.24346590800E+02  0.00000000000E+00 0.  1.
</event>
<event>
 7    1  0.1358622E-013  0.7246152E+02  0.7816164E-02  0.1226708E+00
        -11   -1    0    0    0    0  0.00000000000E+00  0.00000000000E+00  0.45593999997E+02  0.45594000000E+02  0.51100000000E-03 0. -1.
         11   -1    0    0    0    0 -0.00000000000E+00 -0.00000000000E+00 -0.45593999997E+02  0.45594000000E+02  0.51100000000E-03 0.  1.
    9900012    2    1    2    0    0 -0.14644535510E+02 -0.10486237959E+02 -0.51241897053E+01  0.72461523371E+02  0.69999938873E+02 0.  0.
        -12    1    1    2    0    0  0.14644535510E+02  0.10486237959E+02  0.51241897053E+01  0.18726476629E+02  0.00000000000E+00 0.  1.
         11    1    3    3    0    0 -0.16881264293E+02 -0.33610794670E+02 -0.17832555557E+01  0.37654250798E+02  0.51100000000E-03 0. -1.
        -11    1    3    3    0    0 -0.10033471605E+02  0.14788707060E+02 -0.75307947779E+01  0.19393021405E+02  0.51100000000E-03 0.  1.
        -12    1    3    3    0    0  0.12270200388E+02  0.83358496514E+01  0.41898606283E+01  0.15414251168E+02  0.00000000000E+00 0.  1.
</event>
<event>
 7    1  0.1358622E-013  0.7246156E+02  0.7816164E-02  0.1226708E+00
        -11   -1    0    0    0    0  0.00000000000E+00  0.00000000000E+00  0.45593999997E+02  0.45594000000E+02  0.51100000000E-03 0.  1.
         11   -1    0    0    0    0 -0.00000000000E+00 -0.00000000000E+00 -0.45593999997E+02  0.45594000000E+02  0.51100000000E-03 0. -1.
    9900012    2    1    2    0    0  0.64048347257E+01  0.15325310512E+02 -0.86482758797E+01  0.72461555440E+02  0.69999980650E+02 0.  0.
        -12    1    1    2    0    0 -0.64048347257E+01 -0.15325310512E+02  0.86482758797E+01  0.18726444560E+02  0.00000000000E+00 0.  1.
         11    1    3    3    0    0  0.18823782209E+02  0.16978265176E+02 -0.22214383834E+02  0.33705713380E+02  0.51100000000E-03 0. -1.
        -11    1    3    3    0    0  0.11724836923E+02  0.18620010235E+01  0.36593262065E+01  0.12422943179E+02  0.51100000000E-03 0.  1.
         12    1    3    3    0    0 -0.24143784406E+02 -0.35149556875E+01  0.99067817482E+01  0.26332898882E+02  0.00000000000E+00 0. -1.
</event>
<event>
 7    1  0.1358622E-013  0.7246157E+02  0.7816164E-02  0.1226708E+00
        -11   -1    0    0    0    0  0.00000000000E+00  0.00000000000E+00  0.45593999997E+02  0.45594000000E+02  0.51100000000E-03 0.  1.
         11   -1    0    0    0    0 -0.00000000000E+00 -0.00000000000E+00 -0.45593999997E+02  0.45594000000E+02  0.51100000000E-03 0. -1.
    9900012    2    1    2    0    0 -0.87173413594E+01 -0.36053925609E+01 -0.16176779390E+02  0.72461572489E+02  0.70000002859E+02 0.  0.
        -12    1    1    2    0    0  0.87173413594E+01  0.36053925609E+01  0.16176779390E+02  0.18726427511E+02  0.00000000000E+00 0.  1.
         11    1    3    3    0    0 -0.84104857299E+01  0.91002361637E+01 -0.67220434126E+01  0.14097391119E+02  0.51100000000E-03 0. -1.
        -11    1    3    3    0    0  0.29085915162E+01  0.18678190043E+02  0.99135353998E+01  0.21345090121E+02  0.51100000000E-03 0.  1.
         12    1    3    3    0    0 -0.32154471457E+01 -0.31383818768E+02 -0.19368271377E+02  0.37019091249E+02  0.00000000000E+00 0. -1.
</event>
<event>
 7    1  0.1358622E-013  0.7246153E+02  0.7816164E-02  0.1226708E+00
        -11   -1    0    0    0    0  0.00000000000E+00  0.00000000000E+00  0.45593999997E+02  0.45594000000E+02  0.51100000000E-03 0.  1.
         11   -1    0    0    0    0 -0.00000000000E+00 -0.00000000000E+00 -0.45593999997E+02  0.45594000000E+02  0.51100000000E-03 0. -1.
    9900012    2    1    2    0    0  0.42170750744E+01  0.18144767577E+02  0.19142192613E+01  0.72461533489E+02  0.69999952055E+02 0.  0.
        -12    1    1    2    0    0 -0.42170750744E+01 -0.18144767577E+02 -0.19142192613E+01  0.18726466511E+02  0.00000000000E+00 0.  1.
         11    1    3    3    0    0  0.23701382987E+02 -0.11214478946E+02 -0.42307292006E+00  0.26224017322E+02  0.51100000000E-03 0. -1.
        -11    1    3    3    0    0 -0.62830121642E+01 -0.51530498396E+01  0.43780592209E+01  0.92302528301E+01  0.51100000000E-03 0.  1.
        -12    1    3    3    0    0 -0.13201295748E+02  0.34512296362E+02 -0.20407670395E+01  0.37007263338E+02  0.00000000000E+00 0.  1.
</event>
<event>
 7    1  0.1358622E-013  0.7246157E+02  0.7816164E-02  0.1226708E+00
        -11   -1    0    0    0    0  0.00000000000E+00  0.00000000000E+00  0.45593999997E+02  0.45594000000E+02  0.51100000000E-03 0.  1.
         11   -1    0    0    0    0 -0.00000000000E+00 -0.00000000000E+00 -0.45593999997E+02  0.45594000000E+02  0.51100000000E-03 0. -1.
    9900012    2    1    2    0    0  0.93206174264E+01 -0.12772011143E+01 -0.16191783488E+02  0.72461574702E+02  0.70000005742E+02 0.  0.
        -12    1    1    2    0    0 -0.93206174264E+01  0.12772011143E+01  0.16191783488E+02  0.18726425298E+02  0.00000000000E+00 0.  1.
         11    1    3    3    0    0  0.27506560023E+02 -0.19163054005E+02  0.47012806940E+01  0.33851669434E+02  0.51100000000E-03 0. -1.
        -11    1    3    3    0    0  0.27609774333E+01 -0.10385195067E+01 -0.60156988996E+01  0.67000113929E+01  0.51100000000E-03 0.  1.
        -12    1    3    3    0    0 -0.20946920030E+02  0.18924372397E+02 -0.14877365283E+02  0.31909893875E+02  0.00000000000E+00 0.  1.
</event>
<event>
 7    1  0.1358622E-013  0.7246176E+02  0.7816164E-02  0.1226708E+00
        -11   -1    0    0    0    0  0.00000000000E+00  0.00000000000E+00  0.45593999997E+02  0.45594000000E+02  0.51100000000E-03 0.  1.
         11   -1    0    0    0    0 -0.00000000000E+00 -0.00000000000E+00 -0.45593999997E+02  0.45594000000E+02  0.51100000000E-03 0. -1.
    9900012    2    1    2    0    0 -0.12593650422E+02  0.35383375923E+01  0.13399711785E+02  0.72461757990E+02  0.70000244508E+02 0.  0.
        -12    1    1    2    0    0  0.12593650422E+02 -0.35383375923E+01 -0.13399711785E+02  0.18726242010E+02  0.00000000000E+00 0.  1.
         11    1    3    3    0    0 -0.27253085199E+02  0.43411815702E+01 -0.63177145850E+01  0.28310599219E+02  0.51100000000E-03 0. -1.
        -11    1    3    3    0    0 -0.86785597949E+01 -0.61266523863E+01  0.17018497727E+02  0.20061967369E+02  0.51100000000E-03 0.  1.
        -12    1    3    3    0    0  0.23337994572E+02  0.53238084084E+01  0.26989286438E+01  0.24089191402E+02  0.00000000000E+00 0.  1.
</event>
<event>
 7    1  0.1358622E-013  0.7246156E+02  0.7816164E-02  0.1226708E+00
        -11   -1    0    0    0    0  0.00000000000E+00  0.00000000000E+00  0.45593999997E+02  0.45594000000E+02  0.51100000000E-03 0.  1.
         11   -1    0    0    0    0 -0.00000000000E+00 -0.00000000000E+00 -0.45593999997E+02  0.45594000000E+02  0.51100000000E-03 0. -1.
    9900012    2    1    2    0    0 -0.10222093895E+02  0.14864932516E+02  0.50221715901E+01  0.72461558005E+02  0.69999983991E+02 0.  0.
        -12    1    1    2    0    0  0.10222093895E+02 -0.14864932516E+02 -0.50221715901E+01  0.18726441995E+02  0.00000000000E+00 0.  1.
         11    1    3    3    0    0 -0.63736945210E+01  0.22566776816E+01  0.28296275120E+01  0.73296226453E+01  0.51100000000E-03 0. -1.
        -11    1    3    3    0    0 -0.29745211064E+02  0.16934504639E+02  0.13169326568E+02  0.36674053378E+02  0.51100000000E-03 0.  1.
         12    1    3    3    0    0  0.25896811690E+02 -0.43262498049E+01 -0.10976782490E+02  0.28457881982E+02  0.00000000000E+00 0. -1.
</event>
<event>
 7    1  0.1358622E-013  0.7246153E+02  0.7816164E-02  0.1226708E+00
        -11   -1    0    0    0    0  0.00000000000E+00  0.00000000000E+00  0.45593999997E+02  0.45594000000E+02  0.51100000000E-03 0.  1.
         11   -1    0    0    0    0 -0.00000000000E+00 -0.00000000000E+00 -0.45593999997E+02  0.45594000000E+02  0.51100000000E-03 0. -1.
    9900012    2    1    2    0    0  0.18278751729E+02 -0.21261156963E+01 -0.34709388214E+01  0.72461533461E+02  0.69999952018E+02 0.  0.
        -12    1    1    2    0    0 -0.18278751729E+02  0.21261156963E+01  0.34709388214E+01  0.18726466539E+02  0.00000000000E+00 0.  1.
         11    1    3    3    0    0  0.17723993302E+02 -0.20184390040E+02  0.16176826242E+02  0.31356645984E+02  0.51100000000E-03 0. -1.
        -11    1    3    3    0    0 -0.63775012215E+01  0.34241167886E+01  0.69051372495E+01  0.10003900155E+02  0.51100000000E-03 0.  1.
         12    1    3    3    0    0  0.69322596484E+01  0.14634157555E+02 -0.26552902313E+02  0.31100987322E+02  0.00000000000E+00 0. -1.
</event>
<event>
 7    1  0.1358622E-013  0.7246143E+02  0.7816164E-02  0.1226708E+00
        -11   -1    0    0    0    0  0.00000000000E+00  0.00000000000E+00  0.45593999997E+02  0.45594000000E+02  0.51100000000E-03 0. -1.
         11   -1    0    0    0    0 -0.00000000000E+00 -0.00000000000E+00 -0.45593999997E+02  0.45594000000E+02  0.51100000000E-03 0.  1.
    9900012    2    1    2    0    0 -0.15170615076E+02  0.10416450533E+02  0.34690711575E+01  0.72461429086E+02  0.69999816049E+02 0.  0.
        -12    1    1    2    0    0  0.15170615076E+02 -0.10416450533E+02 -0.34690711575E+01  0.18726570914E+02  0.00000000000E+00 0.  1.
         11    1    3    3    0    0 -0.23333314405E+02  0.23509948213E+02  0.56732015187E+01  0.33605750130E+02  0.51100000000E-03 0. -1.
        -11    1    3    3    0    0 -0.37111939335E+01 -0.22965534909E+02 -0.26042979338E+01  0.23408783011E+02  0.51100000000E-03 0.  1.
        -12    1    3    3    0    0  0.11873893262E+02  0.98720372292E+01  0.40016757256E+00  0.15446895945E+02  0.00000000000E+00 0.  1.
</event>
<event>
 7    1  0.1358622E-013  0.7246155E+02  0.7816164E-02  0.1226708E+00
        -11   -1    0    0    0    0  0.00000000000E+00  0.00000000000E+00  0.45593999997E+02  0.45594000000E+02  0.51100000000E-03 0. -1.
         11   -1    0    0    0    0 -0.00000000000E+00 -0.00000000000E+00 -0.45593999997E+02  0.45594000000E+02  0.51100000000E-03 0.  1.
    9900012    2    1    2    0    0 -0.18060396620E+02  0.25049859631E+01  0.42693207856E+01  0.72461548636E+02  0.69999971785E+02 0.  0.
        -12    1    1    2    0    0  0.18060396620E+02 -0.25049859631E+01 -0.42693207856E+01  0.18726451364E+02  0.00000000000E+00 0.  1.
         11    1    3    3    0    0 -0.18982144879E+02 -0.98212216582E+01  0.26020093989E+02  0.33672295890E+02  0.51100000000E-03 0. -1.
        -11    1    3    3    0    0 -0.96414750163E+01 -0.13970928734E+01  0.14376711638E+01  0.98476803168E+01  0.51100000000E-03 0.  1.
        -12    1    3    3    0    0  0.10563223276E+02  0.13723300495E+02 -0.23188444367E+02  0.28941572428E+02  0.00000000000E+00 0.  1.
</event>
<event>
 7    1  0.1358622E-013  0.7246158E+02  0.7816164E-02  0.1226708E+00
        -11   -1    0    0    0    0  0.00000000000E+00  0.00000000000E+00  0.45593999997E+02  0.45594000000E+02  0.51100000000E-03 0.  1.
         11   -1    0    0    0    0 -0.00000000000E+00 -0.00000000000E+00 -0.45593999997E+02  0.45594000000E+02  0.51100000000E-03 0. -1.
    9900012    2    1    2    0    0  0.87578867813E+01 -0.11469439369E+02 -0.11934411292E+02  0.72461580342E+02  0.70000013089E+02 0.  0.
        -12    1    1    2    0    0 -0.87578867813E+01  0.11469439369E+02  0.11934411292E+02  0.18726419658E+02  0.00000000000E+00 0.  1.
         11    1    3    3    0    0  0.32736301060E+01 -0.53646789830E-03  0.53848243501E+01  0.63018241725E+01  0.51100000000E-03 0. -1.
        -11    1    3    3    0    0 -0.12275505260E+02 -0.26004482711E+00  0.19923969795E+02  0.23403423369E+02  0.51100000000E-03 0.  1.
         12    1    3    3    0    0  0.17759761936E+02 -0.11208858074E+02 -0.37243205438E+02  0.42756332801E+02  0.00000000000E+00 0. -1.
</event>
<event>
 7    1  0.1358622E-013  0.7246158E+02  0.7816164E-02  0.1226708E+00
        -11   -1    0    0    0    0  0.00000000000E+00  0.00000000000E+00  0.45593999997E+02  0.45594000000E+02  0.51100000000E-03 0.  1.
         11   -1    0    0    0    0 -0.00000000000E+00 -0.00000000000E+00 -0.45593999997E+02  0.45594000000E+02  0.51100000000E-03 0. -1.
    9900012    2    1    2    0    0  0.72881531900E+01 -0.11385042634E+02 -0.12959261015E+02  0.72461579660E+02  0.70000012201E+02 0.  0.
        -12    1    1    2    0    0 -0.72881531900E+01  0.11385042634E+02  0.12959261015E+02  0.18726420340E+02  0.00000000000E+00 0.  1.
         11    1    3    3    0    0  0.15426304188E+02 -0.14929893685E+01  0.79023846597E+01  0.17396768715E+02  0.51100000000E-03 0. -1.
        -11    1    3    3    0    0  0.11735511130E+02  0.78812450372E+01  0.76133409726E+01  0.16056126739E+02  0.51100000000E-03 0.  1.
         12    1    3    3    0    0 -0.19873662128E+02 -0.17773298302E+02 -0.28474986647E+02  0.39008684206E+02  0.00000000000E+00 0. -1.
</event>
<event>
 7    1  0.1358622E-013  0.7246152E+02  0.7816164E-02  0.1226708E+00
        -11   -1    0    0    0    0  0.00000000000E+00  0.00000000000E+00  0.45593999997E+02  0.45594000000E+02  0.51100000000E-03 0. -1.
         11   -1    0    0    0    0 -0.00000000000E+00 -0.00000000000E+00 -0.45593999997E+02  0.45594000000E+02  0.51100000000E-03 0.  1.
    9900012    2    1    2    0    0  0.51627475224E-01  0.12255759337E+02 -0.14158904653E+02  0.72461524536E+02  0.69999940392E+02 0.  0.
        -12    1    1    2    0    0 -0.51627475224E-01 -0.12255759337E+02  0.14158904653E+02  0.18726475464E+02  0.00000000000E+00 0.  1.
         11    1    3    3    0    0  0.14250407229E+02  0.18524413137E+02 -0.95471492460E+01  0.25246307597E+02  0.51100000000E-03 0. -1.
        -11    1    3    3    0    0  0.64405607911E+01  0.13845905119E+02 -0.94991588737E+01  0.17983990976E+02  0.51100000000E-03 0.  1.
        -12    1    3    3    0    0 -0.20639340545E+02 -0.20114558919E+02  0.48874034666E+01  0.29231225963E+02  0.00000000000E+00 0.  1.
</event>
<event>
 7    1  0.1358622E-013  0.7246137E+02  0.7816164E-02  0.1226709E+00
        -11   -1    0    0    0    0  0.00000000000E+00  0.00000000000E+00  0.45593999997E+02  0.45594000000E+02  0.51100000000E-03 0.  1.
         11   -1    0    0    0    0 -0.00000000000E+00 -0.00000000000E+00 -0.45593999997E+02  0.45594000000E+02  0.51100000000E-03 0. -1.
    9900012    2    1    2    0    0 -0.37546781127E+01  0.18015875602E+02 -0.34665861202E+01  0.72461371880E+02  0.69999741528E+02 0.  0.
        -12    1    1    2    0    0  0.37546781127E+01 -0.18015875602E+02  0.34665861202E+01  0.18726628120E+02  0.00000000000E+00 0.  1.
         11    1    3    3    0    0 -0.29203360790E+02 -0.75926472573E+01 -0.26707516448E+01  0.30292201776E+02  0.51100000000E-03 0. -1.
        -11    1    3    3    0    0  0.83021404662E+01 -0.28986687283E+01 -0.13579918605E+01  0.88978626013E+01  0.51100000000E-03 0.  1.
        -12    1    3    3    0    0  0.17146542211E+02  0.28507191587E+02  0.56215738512E+00  0.33271307503E+02  0.00000000000E+00 0.  1.
</event>
<event>
 7    1  0.1358622E-013  0.7246147E+02  0.7816164E-02  0.1226708E+00
        -11   -1    0    0    0    0  0.00000000000E+00  0.00000000000E+00  0.45593999997E+02  0.45594000000E+02  0.51100000000E-03 0. -1.
         11   -1    0    0    0    0 -0.00000000000E+00 -0.00000000000E+00 -0.45593999997E+02  0.45594000000E+02  0.51100000000E-03 0.  1.
    9900012    2    1    2    0    0 -0.91777949404E+00 -0.18459617449E+02 -0.30138459071E+01  0.72461466345E+02  0.69999864587E+02 0.  0.
        -12    1    1    2    0    0  0.91777949404E+00  0.18459617449E+02  0.30138459071E+01  0.18726533655E+02  0.00000000000E+00 0.  1.
         11    1    3    3    0    0  0.47624509084E+01 -0.23343967375E+02  0.24175812104E+02  0.33942475493E+02  0.51100000000E-03 0. -1.
        -11    1    3    3    0    0  0.29012557769E+01 -0.61365603859E+01  0.11870452109E+01  0.68908442913E+01  0.51100000000E-03 0.  1.
        -12    1    3    3    0    0 -0.85814861793E+01  0.11020910311E+02 -0.28376703222E+02  0.31628146561E+02  0.00000000000E+00 0.  1.
</event>
<event>
 7    1  0.1358622E-013  0.7246162E+02  0.7816164E-02  0.1226708E+00
        -11   -1    0    0    0    0  0.00000000000E+00  0.00000000000E+00  0.45593999997E+02  0.45594000000E+02  0.51100000000E-03 0. -1.
         11   -1    0    0    0    0 -0.00000000000E+00 -0.00000000000E+00 -0.45593999997E+02  0.45594000000E+02  0.51100000000E-03 0.  1.
    9900012    2    1    2    0    0  0.12742617373E+01 -0.14733450061E+02 -0.11488211530E+02  0.72461620268E+02  0.70000065100E+02 0.  0.
        -12    1    1    2    0    0 -0.12742617373E+01  0.14733450061E+02  0.11488211530E+02  0.18726379732E+02  0.00000000000E+00 0.  1.
         11    1    3    3    0    0 -0.96225301930E+01  0.18405321565E+02  0.94982573586E+01  0.22837816059E+02  0.51100000000E-03 0. -1.
        -11    1    3    3    0    0  0.68254283002E+01  0.37251595403E+01 -0.23914618704E+01  0.81352550803E+01  0.51100000000E-03 0.  1.
        -12    1    3    3    0    0  0.40713636301E+01 -0.36863931166E+02 -0.18595007019E+02  0.41488549129E+02  0.00000000000E+00 0.  1.
</event>
<event>
 7    1  0.1358622E-013  0.7246158E+02  0.7816164E-02  0.1226708E+00
        -11   -1    0    0    0    0  0.00000000000E+00  0.00000000000E+00  0.45593999997E+02  0.45594000000E+02  0.51100000000E-03 0. -1.
         11   -1    0    0    0    0 -0.00000000000E+00 -0.00000000000E+00 -0.45593999997E+02  0.45594000000E+02  0.51100000000E-03 0.  1.
    9900012    2    1    2    0    0  0.95917405967E+01  0.48079870716E+01  0.15347987485E+02  0.72461576231E+02  0.70000007733E+02 0.  0.
        -12    1    1    2    0    0 -0.95917405967E+01 -0.48079870716E+01 -0.15347987485E+02  0.18726423769E+02  0.00000000000E+00 0.  1.
         11    1    3    3    0    0  0.14945056555E+02 -0.10916200312E+02  0.21242343106E+02  0.28173662977E+02  0.51100000000E-03 0. -1.
        -11    1    3    3    0    0  0.28863637481E+01  0.33534113524E+01  0.16681523969E+02  0.17258322791E+02  0.51100000000E-03 0.  1.
        -12    1    3    3    0    0 -0.82396797060E+01  0.12370776031E+02 -0.22575879591E+02  0.27029590462E+02  0.00000000000E+00 0.  1.
</event>
<event>
 7    1  0.1358622E-013  0.7246135E+02  0.7816164E-02  0.1226709E+00
        -11   -1    0    0    0    0  0.00000000000E+00  0.00000000000E+00  0.45593999997E+02  0.45594000000E+02  0.51100000000E-03 0.  1.
         11   -1    0    0    0    0 -0.00000000000E+00 -0.00000000000E+00 -0.45593999997E+02  0.45594000000E+02  0.51100000000E-03 0. -1.
    9900012    2    1    2    0    0 -0.82048157179E+01 -0.16610903995E+02 -0.27288219707E+01  0.72461345151E+02  0.69999706708E+02 0.  0.
        -12    1    1    2    0    0  0.82048157179E+01  0.16610903995E+02  0.27288219707E+01  0.18726654849E+02  0.00000000000E+00 0.  1.
         11    1    3    3    0    0  0.11717544477E+02  0.77544271894E+01  0.12564650945E+02  0.18849467982E+02  0.51100000000E-03 0.  1.
        -11    1    3    3    0    0  0.99822480986E+01 -0.12115829515E+02 -0.14370336532E+02  0.21282508646E+02  0.51100000000E-03 0. -1.
        -12    1    3    3    0    0 -0.29904608293E+02 -0.12249501669E+02 -0.92313638293E+00  0.32329368523E+02  0.00000000000E+00 0.  1.
</event>
<event>
 7    1  0.1358622E-013  0.7246158E+02  0.7816164E-02  0.1226708E+00
        -11   -1    0    0    0    0  0.00000000000E+00  0.00000000000E+00  0.45593999997E+02  0.45594000000E+02  0.51100000000E-03 0.  1.
         11   -1    0    0    0    0 -0.00000000000E+00 -0.00000000000E+00 -0.45593999997E+02  0.45594000000E+02  0.51100000000E-03 0. -1.
    9900012    2    1    2    0    0  0.17148950813E+02  0.55774529542E+01 -0.50482131179E+01  0.72461576125E+02  0.70000007596E+02 0.  0.
        -12    1    1    2    0    0 -0.17148950813E+02 -0.55774529542E+01  0.50482131179E+01  0.18726423875E+02  0.00000000000E+00 0.  1.
         11    1    3    3    0    0 -0.27580083585E+01  0.25869913882E+01  0.68105998033E+01  0.77899553587E+01  0.51100000000E-03 0. -1.
        -11    1    3    3    0    0  0.72878614444E+00  0.39192811136E+01  0.23821687861E+02  0.24152944055E+02  0.51100000000E-03 0.  1.
         12    1    3    3    0    0  0.19178173027E+02 -0.92881954761E+00 -0.35680500782E+02  0.40518676712E+02  0.00000000000E+00 0. -1.
</event>
<event>
 7    1  0.1358622E-013  0.7246149E+02  0.7816164E-02  0.1226708E+00
        -11   -1    0    0    0    0  0.00000000000E+00  0.00000000000E+00  0.45593999997E+02  0.45594000000E+02  0.51100000000E-03 0. -1.
         11   -1    0    0    0    0 -0.00000000000E+00 -0.00000000000E+00 -0.45593999997E+02  0.45594000000E+02  0.51100000000E-03 0.  1.
    9900012    2    1    2    0    0  0.97862659501E+00 -0.50765647771E+01  0.17998694379E+02  0.72461488865E+02  0.69999893923E+02 0.  0.
        -12    1    1    2    0    0 -0.97862659501E+00  0.50765647771E+01 -0.17998694379E+02  0.18726511135E+02  0.00000000000E+00 0.  1.
         11    1    3    3    0    0  0.19857759286E+01 -0.18265145503E+02  0.35005373229E+02  0.39533972751E+02  0.51100000000E-03 0. -1.
        -11    1    3    3    0    0  0.13787399959E+01  0.11107224596E+02  0.38467741332E+01  0.11835076412E+02  0.51100000000E-03 0.  1.
        -12    1    3    3    0    0 -0.23858893295E+01  0.20813561304E+01 -0.20853452983E+02  0.21092439701E+02  0.00000000000E+00 0.  1.
</event>
<event>
 7    1  0.1358622E-013  0.7246159E+02  0.7816164E-02  0.1226708E+00
        -11   -1    0    0    0    0  0.00000000000E+00  0.00000000000E+00  0.45593999997E+02  0.45594000000E+02  0.51100000000E-03 0.  1.
         11   -1    0    0    0    0 -0.00000000000E+00 -0.00000000000E+00 -0.45593999997E+02  0.45594000000E+02  0.51100000000E-03 0. -1.
    9900012    2    1    2    0    0  0.38148083388E+01 -0.12839188306E+02 -0.13087438470E+02  0.72461586442E+02  0.70000021035E+02 0.  0.
        -12    1    1    2    0    0 -0.38148083388E+01  0.12839188306E+02  0.13087438470E+02  0.18726413558E+02  0.00000000000E+00 0.  1.
         11    1    3    3    0    0  0.20105248941E+02  0.64452501197E+01 -0.51258000160E+01  0.21726392018E+02  0.51100000000E-03 0. -1.
        -11    1    3    3    0    0  0.10623268717E+02  0.53547262856E+01  0.36491382635E+01  0.12443598440E+02  0.51100000000E-03 0.  1.
         12    1    3    3    0    0 -0.26913709318E+02 -0.24639164712E+02 -0.11610776718E+02  0.38291595983E+02  0.00000000000E+00 0. -1.
</event>
<event>
 7    1  0.1358622E-013  0.7246163E+02  0.7816164E-02  0.1226708E+00
        -11   -1    0    0    0    0  0.00000000000E+00  0.00000000000E+00  0.45593999997E+02  0.45594000000E+02  0.51100000000E-03 0. -1.
         11   -1    0    0    0    0 -0.00000000000E+00 -0.00000000000E+00 -0.45593999997E+02  0.45594000000E+02  0.51100000000E-03 0.  1.
    9900012    2    1    2    0    0 -0.12049399306E+02 -0.61215630472E+01  0.12962072347E+02  0.72461631497E+02  0.70000079728E+02 0.  0.
        -12    1    1    2    0    0  0.12049399306E+02  0.61215630472E+01 -0.12962072347E+02  0.18726368503E+02  0.00000000000E+00 0.  1.
         11    1    3    3    0    0 -0.11987920762E+02 -0.31496894807E+00 -0.48695310244E+01  0.12943020602E+02  0.51100000000E-03 0. -1.
        -11    1    3    3    0    0  0.83470694139E+01 -0.22112747183E+02  0.29481116474E+02  0.37786021021E+02  0.51100000000E-03 0.  1.
         12    1    3    3    0    0 -0.84085479572E+01  0.16306153084E+02 -0.11649513102E+02  0.21732589875E+02  0.00000000000E+00 0. -1.
</event>
<event>
 7    1  0.1358622E-013  0.7246157E+02  0.7816164E-02  0.1226708E+00
        -11   -1    0    0    0    0  0.00000000000E+00  0.00000000000E+00  0.45593999997E+02  0.45594000000E+02  0.51100000000E-03 0. -1.
         11   -1    0    0    0    0 -0.00000000000E+00 -0.00000000000E+00 -0.45593999997E+02  0.45594000000E+02  0.51100000000E-03 0.  1.
    9900012    2    1    2    0    0 -0.13552417741E+02  0.60437217159E+01  0.11422984088E+02  0.72461570434E+02  0.70000000182E+02 0.  0.
        -12    1    1    2    0    0  0.13552417741E+02 -0.60437217159E+01 -0.11422984088E+02  0.18726429566E+02  0.00000000000E+00 0.  1.
         11    1    3    3    0    0 -0.24624009165E+01  0.56819411718E+01 -0.11876333890E+02  0.13393848614E+02  0.51100000000E-03 0. -1.
        -11    1    3    3    0    0  0.11994837855E+02 -0.77211769848E+01 -0.10237992634E+02  0.17558735793E+02  0.51100000000E-03 0.  1.
         12    1    3    3    0    0 -0.23084854680E+02  0.80829575290E+01  0.33537310612E+02  0.41508986028E+02  0.00000000000E+00 0. -1.
</event>
<event>
 7    1  0.1358622E-013  0.7246156E+02  0.7816164E-02  0.1226708E+00
        -11   -1    0    0    0    0  0.00000000000E+00  0.00000000000E+00  0.45593999997E+02  0.45594000000E+02  0.51100000000E-03 0.  1.
         11   -1    0    0    0    0 -0.00000000000E+00 -0.00000000000E+00 -0.45593999997E+02  0.45594000000E+02  0.51100000000E-03 0. -1.
    9900012    2    1    2    0    0  0.16410327380E+02 -0.86511161567E+01 -0.25570950760E+01  0.72461564389E+02  0.69999992307E+02 0.  0.
        -12    1    1    2    0    0 -0.16410327380E+02  0.86511161567E+01  0.25570950760E+01  0.18726435611E+02  0.00000000000E+00 0.  1.
         11    1    3    3    0    0 -0.30036530443E+01 -0.21904377276E+02  0.35212209120E+00  0.22112161036E+02  0.51100000000E-03 0. -1.
        -11    1    3    3    0    0 -0.34981033536E+01 -0.13852484902E+02  0.23191175644E+01  0.14474334927E+02  0.51100000000E-03 0.  1.
        -12    1    3    3    0    0  0.22912083778E+02  0.27105746022E+02 -0.52283347316E+01  0.35875068425E+02  0.00000000000E+00 0.  1.
</event>
<event>
 7    1  0.1358622E-013  0.7246154E+02  0.7816164E-02  0.1226708E+00
        -11   -1    0    0    0    0  0.00000000000E+00  0.00000000000E+00  0.45593999997E+02  0.45594000000E+02  0.51100000000E-03 0. -1.
         11   -1    0    0    0    0 -0.00000000000E+00 -0.00000000000E+00 -0.45593999997E+02  0.45594000000E+02  0.51100000000E-03 0.  1.
    9900012    2    1    2    0    0 -0.17654029591E+02  0.59101412170E+01 -0.20213429680E+01  0.72461538578E+02  0.69999958683E+02 0.  0.
        -12    1    1    2    0    0  0.17654029591E+02 -0.59101412170E+01  0.20213429680E+01  0.18726461422E+02  0.00000000000E+00 0.  1.
         11    1    3    3    0    0  0.25379043257E+00 -0.17797904663E+02  0.18258328151E+02  0.25498948353E+02  0.51100000000E-03 0. -1.
        -11    1    3    3    0    0 -0.87059339984E+01  0.22447751864E+02  0.62773182598E+00  0.24085034732E+02  0.51100000000E-03 0.  1.
        -12    1    3    3    0    0 -0.92018860252E+01  0.12602940167E+01 -0.20907402945E+02  0.22877555493E+02  0.00000000000E+00 0.  1.
</event>
<event>
 7    1  0.1358622E-013  0.7246156E+02  0.7816164E-02  0.1226708E+00
        -11   -1    0    0    0    0  0.00000000000E+00  0.00000000000E+00  0.45593999997E+02  0.45594000000E+02  0.51100000000E-03 0.  1.
         11   -1    0    0    0    0 -0.00000000000E+00 -0.00000000000E+00 -0.45593999997E+02  0.45594000000E+02  0.51100000000E-03 0. -1.
    9900012    2    1    2    0    0 -0.10590003504E+02 -0.13556574987E+02 -0.73993748369E+01  0.72461557530E+02  0.69999983372E+02 0.  0.
        -12    1    1    2    0    0  0.10590003504E+02  0.13556574987E+02  0.73993748369E+01  0.18726442470E+02  0.00000000000E+00 0.  1.
         11    1    3    3    0    0 -0.12159199405E+02  0.13310888000E+00  0.71620961404E+01  0.14112387096E+02  0.51100000000E-03 0. -1.
        -11    1    3    3    0    0 -0.24199031099E+02 -0.82642650289E+01  0.43368747289E+01  0.25936454369E+02  0.51100000000E-03 0.  1.
         12    1    3    3    0    0  0.25768227000E+02 -0.54254188384E+01 -0.18898345706E+02  0.32412716065E+02  0.00000000000E+00 0. -1.
</event>
<event>
 7    1  0.1358622E-013  0.7246155E+02  0.7816164E-02  0.1226708E+00
        -11   -1    0    0    0    0  0.00000000000E+00  0.00000000000E+00  0.45593999997E+02  0.45594000000E+02  0.51100000000E-03 0.  1.
         11   -1    0    0    0    0 -0.00000000000E+00 -0.00000000000E+00 -0.45593999997E+02  0.45594000000E+02  0.51100000000E-03 0. -1.
    9900012    2    1    2    0    0 -0.31381964374E+01 -0.24669555115E+01 -0.18296058069E+02  0.72461551131E+02  0.69999975036E+02 0.  0.
        -12    1    1    2    0    0  0.31381964374E+01  0.24669555115E+01  0.18296058069E+02  0.18726448869E+02  0.00000000000E+00 0.  1.
         11    1    3    3    0    0 -0.67557421184E+01  0.89130225830E+01 -0.24793150691E+02  0.27198940137E+02  0.51100000000E-03 0. -1.
        -11    1    3    3    0    0  0.18873965940E+01  0.13379913846E+02  0.13876497977E+02  0.19368571367E+02  0.51100000000E-03 0.  1.
        -12    1    3    3    0    0  0.17301490869E+01 -0.24759891941E+02 -0.73794053550E+01  0.25894039626E+02  0.00000000000E+00 0.  1.
</event>
<event>
 7    1  0.1358622E-013  0.7246166E+02  0.7816164E-02  0.1226708E+00
        -11   -1    0    0    0    0  0.00000000000E+00  0.00000000000E+00  0.45593999997E+02  0.45594000000E+02  0.51100000000E-03 0. -1.
         11   -1    0    0    0    0 -0.00000000000E+00 -0.00000000000E+00 -0.45593999997E+02  0.45594000000E+02  0.51100000000E-03 0.  1.
    9900012    2    1    2    0    0  0.14395109181E+02 -0.76859286587E+01  0.91860375263E+01  0.72461656173E+02  0.70000111873E+02 0.  0.
        -12    1    1    2    0    0 -0.14395109181E+02  0.76859286587E+01 -0.91860375263E+01  0.18726343827E+02  0.00000000000E+00 0.  1.
         11    1    3    3    0    0 -0.62229998194E+00  0.14009078781E+02  0.18874738082E+02  0.23513767956E+02  0.51100000000E-03 0. -1.
        -11    1    3    3    0    0  0.31334964483E+01 -0.16795590515E+02  0.13938898525E+02  0.22050023880E+02  0.51100000000E-03 0.  1.
        -12    1    3    3    0    0  0.11883912715E+02 -0.48994169243E+01 -0.23627599081E+02  0.26897864338E+02  0.00000000000E+00 0.  1.
</event>
<event>
 7    1  0.1358622E-013  0.7246140E+02  0.7816164E-02  0.1226708E+00
        -11   -1    0    0    0    0  0.00000000000E+00  0.00000000000E+00  0.45593999997E+02  0.45594000000E+02  0.51100000000E-03 0.  1.
         11   -1    0    0    0    0 -0.00000000000E+00 -0.00000000000E+00 -0.45593999997E+02  0.45594000000E+02  0.51100000000E-03 0. -1.
    9900012    2    1    2    0    0  0.85367190200E+01  0.14298757653E+02 -0.85647915061E+01  0.72461396048E+02  0.69999773011E+02 0.  0.
        -12    1    1    2    0    0 -0.85367190200E+01 -0.14298757653E+02  0.85647915061E+01  0.18726603952E+02  0.00000000000E+00 0.  1.
         11    1    3    3    0    0  0.25259435987E+01  0.14577149910E+02 -0.20190082130E+02  0.25030243851E+02  0.51100000000E-03 0. -1.
        -11    1    3    3    0    0  0.18625103586E+02  0.16254055943E+02  0.29377877889E+01  0.24894164287E+02  0.51100000000E-03 0.  1.
        -12    1    3    3    0    0 -0.12614328165E+02 -0.16532448201E+02  0.86875028345E+01  0.22536987910E+02  0.00000000000E+00 0.  1.
</event>
<event>
 7    1  0.1358622E-013  0.7246159E+02  0.7816164E-02  0.1226708E+00
        -11   -1    0    0    0    0  0.00000000000E+00  0.00000000000E+00  0.45593999997E+02  0.45594000000E+02  0.51100000000E-03 0.  1.
         11   -1    0    0    0    0 -0.00000000000E+00 -0.00000000000E+00 -0.45593999997E+02  0.45594000000E+02  0.51100000000E-03 0. -1.
    9900012    2    1    2    0    0 -0.55187149646E+01 -0.15075591722E+01 -0.17831141752E+02  0.72461586417E+02  0.70000021003E+02 0.  0.
        -12    1    1    2    0    0  0.55187149646E+01  0.15075591722E+01  0.17831141752E+02  0.18726413583E+02  0.00000000000E+00 0.  1.
         11    1    3    3    0    0  0.11984488721E+02 -0.14382503981E+02 -0.16647253909E+02  0.25052254462E+02  0.51100000000E-03 0. -1.
        -11    1    3    3    0    0 -0.17786945900E-01 -0.12757220351E+02  0.79906946647E+01  0.15053178699E+02  0.51100000000E-03 0.  1.
         12    1    3    3    0    0 -0.17485416740E+02  0.25632165160E+02 -0.91745825075E+01  0.32356153256E+02  0.00000000000E+00 0. -1.
</event>
<event>
 7    1  0.1358622E-013  0.7246136E+02  0.7816164E-02  0.1226709E+00
        -11   -1    0    0    0    0  0.00000000000E+00  0.00000000000E+00  0.45593999997E+02  0.45594000000E+02  0.51100000000E-03 0.  1.
         11   -1    0    0    0    0 -0.00000000000E+00 -0.00000000000E+00 -0.45593999997E+02  0.45594000000E+02  0.51100000000E-03 0. -1.
    9900012    2    1    2    0    0  0.36548135895E+01  0.16631324209E+02 -0.77928370843E+01  0.72461363432E+02  0.69999730523E+02 0.  0.
        -12    1    1    2    0    0 -0.36548135895E+01 -0.16631324209E+02  0.77928370843E+01  0.18726636568E+02  0.00000000000E+00 0.  1.
         11    1    3    3    0    0 -0.17909898855E+02 -0.24896335844E+01 -0.14593810248E+02  0.23236653163E+02  0.51100000000E-03 0. -1.
        -11    1    3    3    0    0 -0.10978512693E+02  0.98357499529E+01  0.39656461020E+01  0.15264208704E+02  0.51100000000E-03 0.  1.
        -12    1    3    3    0    0  0.32543225138E+02  0.92852078404E+01  0.28353270618E+01  0.33960501565E+02  0.00000000000E+00 0.  1.
</event>
<event>
 7    1  0.1358622E-013  0.7246160E+02  0.7816164E-02  0.1226708E+00
        -11   -1    0    0    0    0  0.00000000000E+00  0.00000000000E+00  0.45593999997E+02  0.45594000000E+02  0.51100000000E-03 0. -1.
         11   -1    0    0    0    0 -0.00000000000E+00 -0.00000000000E+00 -0.45593999997E+02  0.45594000000E+02  0.51100000000E-03 0.  1.
    9900012    2    1    2    0    0  0.18084500854E+02  0.13738431627E+01  0.46627727156E+01  0.72461599770E+02  0.70000038397E+02 0.  0.
        -12    1    1    2    0    0 -0.18084500854E+02 -0.13738431627E+01 -0.46627727156E+01  0.18726400230E+02  0.00000000000E+00 0.  1.
         11    1    3    3    0    0  0.36828685505E+02 -0.11237078262E+00  0.17081624350E+02  0.40597371761E+02  0.51100000000E-03 0. -1.
        -11    1    3    3    0    0 -0.11850342714E+02 -0.73661033056E+01  0.14464180977E+01  0.14027908822E+02  0.51100000000E-03 0.  1.
        -12    1    3    3    0    0 -0.68938419366E+01  0.88523172509E+01 -0.13865269732E+02  0.17836319186E+02  0.00000000000E+00 0.  1.
</event>
<event>
 7    1  0.1526413E-013  0.7246154E+02  0.7816164E-02  0.1226708E+00
        -11   -1    0    0    0    0  0.00000000000E+00  0.00000000000E+00  0.45593999997E+02  0.45594000000E+02  0.51100000000E-03 0.  1.
         11   -1    0    0    0    0 -0.00000000000E+00 -0.00000000000E+00 -0.45593999997E+02  0.45594000000E+02  0.51100000000E-03 0. -1.
    9900012    2    1    2    0    0 -0.84958572215E+01 -0.14110158658E+02 -0.89109079833E+01  0.72461536149E+02  0.69999955519E+02 0.  0.
        -12    1    1    2    0    0  0.84958572215E+01  0.14110158658E+02  0.89109079833E+01  0.18726463851E+02  0.00000000000E+00 0.  1.
         11    1    3    3    0    0  0.19299258044E+01 -0.32716468952E+01 -0.31380214828E+02  0.31609273480E+02  0.51100000000E-03 0. -1.
        -11    1    3    3    0    0  0.69147545969E+01  0.51277379962E+01  0.12686093155E+02  0.15331160683E+02  0.51100000000E-03 0.  1.
        -12    1    3    3    0    0 -0.17340537623E+02 -0.15966249759E+02  0.97832136896E+01  0.25521101985E+02  0.00000000000E+00 0.  1.
</event>
<event>
 7    1  0.1358622E-013  0.7246151E+02  0.7816164E-02  0.1226708E+00
        -11   -1    0    0    0    0  0.00000000000E+00  0.00000000000E+00  0.45593999997E+02  0.45594000000E+02  0.51100000000E-03 0. -1.
         11   -1    0    0    0    0 -0.00000000000E+00 -0.00000000000E+00 -0.45593999997E+02  0.45594000000E+02  0.51100000000E-03 0.  1.
    9900012    2    1    2    0    0 -0.15059906110E+02 -0.11046291064E+02  0.13638225163E+01  0.72461512604E+02  0.69999924848E+02 0.  0.
        -12    1    1    2    0    0  0.15059906110E+02  0.11046291064E+02 -0.13638225163E+01  0.18726487396E+02  0.00000000000E+00 0.  1.
         11    1    3    3    0    0  0.12511892250E+02 -0.12308643148E+01 -0.30380108898E+01  0.12934140291E+02  0.51100000000E-03 0. -1.
        -11    1    3    3    0    0  0.12713076539E+02  0.79962763594E+01 -0.14713683718E+01  0.15090648622E+02  0.51100000000E-03 0.  1.
         12    1    3    3    0    0 -0.40284874899E+02 -0.17811703108E+02  0.58732017779E+01  0.44436723691E+02  0.00000000000E+00 0. -1.
</event>
<event>
 7    1  0.1358622E-013  0.7246155E+02  0.7816164E-02  0.1226708E+00
        -11   -1    0    0    0    0  0.00000000000E+00  0.00000000000E+00  0.45593999997E+02  0.45594000000E+02  0.51100000000E-03 0. -1.
         11   -1    0    0    0    0 -0.00000000000E+00 -0.00000000000E+00 -0.45593999997E+02  0.45594000000E+02  0.51100000000E-03 0.  1.
    9900012    2    1    2    0    0  0.71367117564E+01 -0.14403533671E+02  0.96065294829E+01  0.72461552242E+02  0.69999976484E+02 0.  0.
        -12    1    1    2    0    0 -0.71367117564E+01  0.14403533671E+02 -0.96065294829E+01  0.18726447758E+02  0.00000000000E+00 0.  1.
         11    1    3    3    0    0  0.74882785511E+01 -0.13978986970E+01  0.17678596617E+02  0.19249966624E+02  0.51100000000E-03 0. -1.
        -11    1    3    3    0    0  0.19358290203E+02  0.10412556958E+02 -0.29744951380E+01  0.22181351708E+02  0.51100000000E-03 0.  1.
         12    1    3    3    0    0 -0.19709856998E+02 -0.23418191932E+02 -0.50975719959E+01  0.31030233910E+02  0.00000000000E+00 0. -1.
</event>
<event>
 7    1  0.1358622E-013  0.7246159E+02  0.7816164E-02  0.1226708E+00
        -11   -1    0    0    0    0  0.00000000000E+00  0.00000000000E+00  0.45593999997E+02  0.45594000000E+02  0.51100000000E-03 0.  1.
         11   -1    0    0    0    0 -0.00000000000E+00 -0.00000000000E+00 -0.45593999997E+02  0.45594000000E+02  0.51100000000E-03 0. -1.
    9900012    2    1    2    0    0  0.12353641277E+02  0.18187502729E+01 -0.13955579955E+02  0.72461587711E+02  0.70000022688E+02 0.  0.
        -12    1    1    2    0    0 -0.12353641277E+02 -0.18187502729E+01  0.13955579955E+02  0.18726412289E+02  0.00000000000E+00 0.  1.
         11    1    3    3    0    0  0.14812551107E+01 -0.22336775230E+02  0.56437828473E+01  0.23086314766E+02  0.51100000000E-03 0. -1.
        -11    1    3    3    0    0  0.73865769422E+01 -0.16970228687E+01  0.82593045524E+01  0.11209706396E+02  0.51100000000E-03 0.  1.
        -12    1    3    3    0    0  0.34858092237E+01  0.25852548371E+02 -0.27858667355E+02  0.38165566549E+02  0.00000000000E+00 0.  1.
</event>
<event>
 7    1  0.1358622E-013  0.7246154E+02  0.7816164E-02  0.1226708E+00
        -11   -1    0    0    0    0  0.00000000000E+00  0.00000000000E+00  0.45593999997E+02  0.45594000000E+02  0.51100000000E-03 0.  1.
         11   -1    0    0    0    0 -0.00000000000E+00 -0.00000000000E+00 -0.45593999997E+02  0.45594000000E+02  0.51100000000E-03 0. -1.
    9900012    2    1    2    0    0 -0.30948253148E+00 -0.53400765161E+01 -0.17946252492E+02  0.72461543444E+02  0.69999965022E+02 0.  0.
        -12    1    1    2    0    0  0.30948253148E+00  0.53400765161E+01  0.17946252492E+02  0.18726456556E+02  0.00000000000E+00 0.  1.
         11    1    3    3    0    0 -0.10807515450E+01 -0.12680874890E+00  0.29931094173E+01  0.31847776384E+01  0.51100000000E-03 0. -1.
        -11    1    3    3    0    0 -0.14815567981E+02 -0.11620696398E+02  0.18494406299E+02  0.26392891164E+02  0.51100000000E-03 0.  1.
         12    1    3    3    0    0  0.15586836995E+02  0.64074286304E+01 -0.39433768208E+02  0.42883874642E+02  0.00000000000E+00 0. -1.
</event>
<event>
 7    1  0.1358622E-013  0.7246165E+02  0.7816164E-02  0.1226708E+00
        -11   -1    0    0    0    0  0.00000000000E+00  0.00000000000E+00  0.45593999997E+02  0.45594000000E+02  0.51100000000E-03 0.  1.
         11   -1    0    0    0    0 -0.00000000000E+00 -0.00000000000E+00 -0.45593999997E+02  0.45594000000E+02  0.51100000000E-03 0. -1.
    9900012    2    1    2    0    0  0.92685681381E+01  0.16262445470E+02 -0.55024671266E+00  0.72461647994E+02  0.70000101219E+02 0.  0.
        -12    1    1    2    0    0 -0.92685681381E+01 -0.16262445470E+02  0.55024671266E+00  0.18726352006E+02  0.00000000000E+00 0.  1.
         11    1    3    3    0    0 -0.36439918508E+01 -0.12508716141E+02 -0.34493377419E+01  0.13477558652E+02  0.51100000000E-03 0. -1.
        -11    1    3    3    0    0  0.11369456715E+02  0.92019045132E+01  0.25284822104E+02  0.29210645692E+02  0.51100000000E-03 0.  1.
         12    1    3    3    0    0  0.15431032738E+01  0.19569257097E+02 -0.22385731075E+02  0.29773443650E+02  0.00000000000E+00 0. -1.
</event>
<event>
 7    1  0.1358622E-013  0.7246152E+02  0.7816164E-02  0.1226708E+00
        -11   -1    0    0    0    0  0.00000000000E+00  0.00000000000E+00  0.45593999997E+02  0.45594000000E+02  0.51100000000E-03 0.  1.
         11   -1    0    0    0    0 -0.00000000000E+00 -0.00000000000E+00 -0.45593999997E+02  0.45594000000E+02  0.51100000000E-03 0. -1.
    9900012    2    1    2    0    0 -0.18113490577E+02 -0.42106835216E+01  0.22028822057E+01  0.72461519107E+02  0.69999933319E+02 0.  0.
        -12    1    1    2    0    0  0.18113490577E+02  0.42106835216E+01 -0.22028822057E+01  0.18726480893E+02  0.00000000000E+00 0.  1.
         11    1    3    3    0    0 -0.96084613664E+01  0.21099915895E+01 -0.91571076652E+01  0.13439762475E+02  0.51100000000E-03 0. -1.
        -11    1    3    3    0    0  0.14513456082E+02 -0.34984574876E+01 -0.16843911861E+02  0.22507709330E+02  0.51100000000E-03 0.  1.
        -12    1    3    3    0    0 -0.23018485293E+02 -0.28222176235E+01  0.28203901732E+02  0.36514047302E+02  0.00000000000E+00 0.  1.
</event>
<event>
 7    1  0.1358622E-013  0.7246151E+02  0.7816164E-02  0.1226708E+00
        -11   -1    0    0    0    0  0.00000000000E+00  0.00000000000E+00  0.45593999997E+02  0.45594000000E+02  0.51100000000E-03 0.  1.
         11   -1    0    0    0    0 -0.00000000000E+00 -0.00000000000E+00 -0.45593999997E+02  0.45594000000E+02  0.51100000000E-03 0. -1.
    9900012    2    1    2    0    0  0.84971778572E+01 -0.10155293970E+02 -0.13241961608E+02  0.72461506084E+02  0.69999916354E+02 0.  0.
        -12    1    1    2    0    0 -0.84971778572E+01  0.10155293970E+02  0.13241961608E+02  0.18726493916E+02  0.00000000000E+00 0.  1.
         11    1    3    3    0    0  0.23866583181E+02 -0.22637846544E+02  0.48975779303E+01  0.33257663158E+02  0.51100000000E-03 0. -1.
        -11    1    3    3    0    0  0.44517149434E+01 -0.26284186446E+01  0.34615630671E+01  0.62216372151E+01  0.51100000000E-03 0.  1.
         12    1    3    3    0    0 -0.19821120267E+02  0.15110971219E+02 -0.21601102605E+02  0.32982205711E+02  0.00000000000E+00 0. -1.
</event>
<event>
 7    1  0.1358622E-013  0.7246150E+02  0.7816164E-02  0.1226708E+00
        -11   -1    0    0    0    0  0.00000000000E+00  0.00000000000E+00  0.45593999997E+02  0.45594000000E+02  0.51100000000E-03 0.  1.
         11   -1    0    0    0    0 -0.00000000000E+00 -0.00000000000E+00 -0.45593999997E+02  0.45594000000E+02  0.51100000000E-03 0. -1.
    9900012    2    1    2    0    0  0.18421298107E+02  0.16554311416E+01  0.29321017826E+01  0.72461497468E+02  0.69999905131E+02 0.  0.
        -12    1    1    2    0    0 -0.18421298107E+02 -0.16554311416E+01 -0.29321017826E+01  0.18726502532E+02  0.00000000000E+00 0.  1.
         11    1    3    3    0    0  0.26205358805E+02 -0.85344062663E+01 -0.88270634620E+01  0.28939142525E+02  0.51100000000E-03 0. -1.
        -11    1    3    3    0    0 -0.85948419927E+01 -0.14529274876E+02  0.72968154292E+01  0.18390613176E+02  0.51100000000E-03 0.  1.
        -12    1    3    3    0    0  0.81078129415E+00  0.24719112284E+02  0.44623498154E+01  0.25131741768E+02  0.00000000000E+00 0.  1.
</event>
<event>
 7    1  0.1358622E-013  0.7246157E+02  0.7816164E-02  0.1226708E+00
        -11   -1    0    0    0    0  0.00000000000E+00  0.00000000000E+00  0.45593999997E+02  0.45594000000E+02  0.51100000000E-03 0. -1.
         11   -1    0    0    0    0 -0.00000000000E+00 -0.00000000000E+00 -0.45593999997E+02  0.45594000000E+02  0.51100000000E-03 0.  1.
    9900012    2    1    2    0    0  0.14681103628E+02  0.89757773223E+01 -0.73878161404E+01  0.72461569224E+02  0.69999998606E+02 0.  0.
        -12    1    1    2    0    0 -0.14681103628E+02 -0.89757773223E+01  0.73878161404E+01  0.18726430776E+02  0.00000000000E+00 0.  1.
         11    1    3    3    0    0  0.21975342244E+02  0.11162486784E+02 -0.18839744364E+02  0.31023422537E+02  0.51100000000E-03 0. -1.
        -11    1    3    3    0    0 -0.10519854185E+02 -0.16511874914E+02 -0.41497327169E+01  0.20013236299E+02  0.51100000000E-03 0.  1.
         12    1    3    3    0    0  0.32256155695E+01  0.14325165453E+02  0.15601660941E+02  0.21424910389E+02  0.00000000000E+00 0. -1.
</event>
<event>
 7    1  0.1358622E-013  0.7246164E+02  0.7816164E-02  0.1226708E+00
        -11   -1    0    0    0    0  0.00000000000E+00  0.00000000000E+00  0.45593999997E+02  0.45594000000E+02  0.51100000000E-03 0. -1.
         11   -1    0    0    0    0 -0.00000000000E+00 -0.00000000000E+00 -0.45593999997E+02  0.45594000000E+02  0.51100000000E-03 0.  1.
    9900012    2    1    2    0    0 -0.16770609183E+02  0.59496872710E+01 -0.58330606884E+01  0.72461636018E+02  0.70000085617E+02 0.  0.
        -12    1    1    2    0    0  0.16770609183E+02 -0.59496872710E+01  0.58330606884E+01  0.18726363982E+02  0.00000000000E+00 0.  1.
         11    1    3    3    0    0 -0.10497433271E+02  0.55996008171E+01  0.14451643637E+02  0.18719018101E+02  0.51100000000E-03 0. -1.
        -11    1    3    3    0    0 -0.85694540585E+01  0.24183120639E+02 -0.82888229824E+01  0.26962259798E+02  0.51100000000E-03 0.  1.
        -12    1    3    3    0    0  0.22962781462E+01 -0.23833034185E+02 -0.11995881343E+02  0.26780358119E+02  0.00000000000E+00 0.  1.
</event>
<event>
 7    1  0.1358622E-013  0.7246158E+02  0.7816164E-02  0.1226708E+00
        -11   -1    0    0    0    0  0.00000000000E+00  0.00000000000E+00  0.45593999997E+02  0.45594000000E+02  0.51100000000E-03 0.  1.
         11   -1    0    0    0    0 -0.00000000000E+00 -0.00000000000E+00 -0.45593999997E+02  0.45594000000E+02  0.51100000000E-03 0. -1.
    9900012    2    1    2    0    0  0.19589642679E+01  0.17888283860E+02  0.51817533451E+01  0.72461579942E+02  0.70000012567E+02 0.  0.
        -12    1    1    2    0    0 -0.19589642679E+01 -0.17888283860E+02 -0.51817533451E+01  0.18726420058E+02  0.00000000000E+00 0.  1.
         11    1    3    3    0    0 -0.15182651527E+02 -0.11666057622E+02 -0.78124481497E+01  0.20679558849E+02  0.51100000000E-03 0.  1.
        -11    1    3    3    0    0 -0.33803959469E+01  0.19109772727E+02 -0.76461874681E+01  0.20858443697E+02  0.51100000000E-03 0. -1.
         12    1    3    3    0    0  0.20522011742E+02  0.10444568755E+02  0.20640388963E+02  0.30923577396E+02  0.00000000000E+00 0. -1.
</event>
<event>
 7    1  0.1358622E-013  0.7246159E+02  0.7816164E-02  0.1226708E+00
        -11   -1    0    0    0    0  0.00000000000E+00  0.00000000000E+00  0.45593999997E+02  0.45594000000E+02  0.51100000000E-03 0.  1.
         11   -1    0    0    0    0 -0.00000000000E+00 -0.00000000000E+00 -0.45593999997E+02  0.45594000000E+02  0.51100000000E-03 0. -1.
    9900012    2    1    2    0    0 -0.11992764892E+02  0.12694176381E+01 -0.14326222170E+02  0.72461588904E+02  0.70000024243E+02 0.  0.
        -12    1    1    2    0    0  0.11992764892E+02 -0.12694176381E+01  0.14326222170E+02  0.18726411096E+02  0.00000000000E+00 0.  1.
         11    1    3    3    0    0 -0.26760642989E+02 -0.51949348147E+01 -0.17763560308E+02  0.32537108599E+02  0.51100000000E-03 0. -1.
        -11    1    3    3    0    0  0.17213310617E+02  0.12016549592E+02 -0.11404497429E+02  0.23890543911E+02  0.51100000000E-03 0.  1.
         12    1    3    3    0    0 -0.24454325196E+01 -0.55521971393E+01  0.14841835567E+02  0.16033936394E+02  0.00000000000E+00 0. -1.
</event>
<event>
 7    1  0.1358622E-013  0.7246156E+02  0.7816164E-02  0.1226708E+00
        -11   -1    0    0    0    0  0.00000000000E+00  0.00000000000E+00  0.45593999997E+02  0.45594000000E+02  0.51100000000E-03 0. -1.
         11   -1    0    0    0    0 -0.00000000000E+00 -0.00000000000E+00 -0.45593999997E+02  0.45594000000E+02  0.51100000000E-03 0.  1.
    9900012    2    1    2    0    0  0.15189840766E+01 -0.17715978005E+02  0.58750669604E+01  0.72461558771E+02  0.69999984989E+02 0.  0.
        -12    1    1    2    0    0 -0.15189840766E+01  0.17715978005E+02 -0.58750669604E+01  0.18726441229E+02  0.00000000000E+00 0.  1.
         11    1    3    3    0    0  0.61274168301E+00  0.62302158300E+01  0.24218592750E+01  0.67124097214E+01  0.51100000000E-03 0. -1.
        -11    1    3    3    0    0  0.89024938684E+01  0.40189155229E+01 -0.23901855630E+02  0.25820627062E+02  0.51100000000E-03 0.  1.
         12    1    3    3    0    0 -0.79962514748E+01 -0.27965109358E+02  0.27355063316E+02  0.39928521987E+02  0.00000000000E+00 0. -1.
</event>
<event>
 7    1  0.1358622E-013  0.7246153E+02  0.7816164E-02  0.1226708E+00
        -11   -1    0    0    0    0  0.00000000000E+00  0.00000000000E+00  0.45593999997E+02  0.45594000000E+02  0.51100000000E-03 0.  1.
         11   -1    0    0    0    0 -0.00000000000E+00 -0.00000000000E+00 -0.45593999997E+02  0.45594000000E+02  0.51100000000E-03 0. -1.
    9900012    2    1    2    0    0  0.21542789312E+00  0.45338524791E+01 -0.18168056776E+02  0.72461534383E+02  0.69999953219E+02 0.  0.
        -12    1    1    2    0    0 -0.21542789312E+00 -0.45338524791E+01  0.18168056776E+02  0.18726465617E+02  0.00000000000E+00 0.  1.
         11    1    3    3    0    0  0.42779892139E+01  0.46904404228E+01  0.70851864774E+01  0.95132166355E+01  0.51100000000E-03 0. -1.
        -11    1    3    3    0    0 -0.89169615523E+01 -0.25937218111E+02 -0.13540481832E+01  0.27460606938E+02  0.51100000000E-03 0.  1.
         12    1    3    3    0    0  0.48544002315E+01  0.25780630168E+02 -0.23899195071E+02  0.35487710809E+02  0.00000000000E+00 0. -1.
</event>
<event>
 7    1  0.1358622E-013  0.7246153E+02  0.7816164E-02  0.1226708E+00
        -11   -1    0    0    0    0  0.00000000000E+00  0.00000000000E+00  0.45593999997E+02  0.45594000000E+02  0.51100000000E-03 0. -1.
         11   -1    0    0    0    0 -0.00000000000E+00 -0.00000000000E+00 -0.45593999997E+02  0.45594000000E+02  0.51100000000E-03 0.  1.
    9900012    2    1    2    0    0 -0.74655575695E-01  0.83586341833E+01  0.16757334693E+02  0.72461531970E+02  0.69999950075E+02 0.  0.
        -12    1    1    2    0    0  0.74655575695E-01 -0.83586341833E+01 -0.16757334693E+02  0.18726468030E+02  0.00000000000E+00 0.  1.
         11    1    3    3    0    0 -0.32891466998E+01  0.22586967853E+01 -0.10681808264E+02  0.11402685001E+02  0.51100000000E-03 0. -1.
        -11    1    3    3    0    0  0.52124809385E+01 -0.12225639170E+02 -0.11756897816E+02  0.17744319011E+02  0.51100000000E-03 0.  1.
         12    1    3    3    0    0 -0.19979898144E+01  0.18325576568E+02  0.39196040774E+02  0.43314527958E+02  0.00000000000E+00 0. -1.
</event>
<event>
 7    1  0.1358622E-013  0.7246157E+02  0.7816164E-02  0.1226708E+00
        -11   -1    0    0    0    0  0.00000000000E+00  0.00000000000E+00  0.45593999997E+02  0.45594000000E+02  0.51100000000E-03 0. -1.
         11   -1    0    0    0    0 -0.00000000000E+00 -0.00000000000E+00 -0.45593999997E+02  0.45594000000E+02  0.51100000000E-03 0.  1.
    9900012    2    1    2    0    0 -0.38080870635E+01 -0.10548084390E+02  0.14997180057E+02  0.72461574259E+02  0.70000005165E+02 0.  0.
        -12    1    1    2    0    0  0.38080870635E+01  0.10548084390E+02 -0.14997180057E+02  0.18726425741E+02  0.00000000000E+00 0.  1.
         11    1    3    3    0    0  0.59589082166E+01 -0.17549727730E+00 -0.19806075417E+01  0.62818940554E+01  0.51100000000E-03 0. -1.
        -11    1    3    3    0    0  0.84660676542E+01 -0.83300423348E+01 -0.20930143126E+02  0.24065219683E+02  0.51100000000E-03 0.  1.
         12    1    3    3    0    0 -0.18233062934E+02 -0.20425447776E+01  0.37907930725E+02  0.42114460521E+02  0.00000000000E+00 0. -1.
</event>
<event>
 7    1  0.1358622E-013  0.7246157E+02  0.7816164E-02  0.1226708E+00
        -11   -1    0    0    0    0  0.00000000000E+00  0.00000000000E+00  0.45593999997E+02  0.45594000000E+02  0.51100000000E-03 0.  1.
         11   -1    0    0    0    0 -0.00000000000E+00 -0.00000000000E+00 -0.45593999997E+02  0.45594000000E+02  0.51100000000E-03 0. -1.
    9900012    2    1    2    0    0  0.10973026448E+02  0.83471089601E+01 -0.12672707690E+02  0.72461573283E+02  0.70000003893E+02 0.  0.
        -12    1    1    2    0    0 -0.10973026448E+02 -0.83471089601E+01  0.12672707690E+02  0.18726426717E+02  0.00000000000E+00 0.  1.
         11    1    3    3    0    0 -0.75672333341E+01 -0.11857322664E+02 -0.13557237990E+02  0.19536064682E+02  0.51100000000E-03 0. -1.
        -11    1    3    3    0    0 -0.13868917635E+02  0.93314906798E+00  0.54781218045E+01  0.14940798583E+02  0.51100000000E-03 0.  1.
        -12    1    3    3    0    0  0.32409177416E+02  0.19271282556E+02 -0.45935915040E+01  0.37984710017E+02  0.00000000000E+00 0.  1.
</event>
<event>
 7    1  0.1358622E-013  0.7246159E+02  0.7816164E-02  0.1226708E+00
        -11   -1    0    0    0    0  0.00000000000E+00  0.00000000000E+00  0.45593999997E+02  0.45594000000E+02  0.51100000000E-03 0.  1.
         11   -1    0    0    0    0 -0.00000000000E+00 -0.00000000000E+00 -0.45593999997E+02  0.45594000000E+02  0.51100000000E-03 0. -1.
    9900012    2    1    2    0    0 -0.16786537590E+01 -0.86012145711E+01 -0.16549310449E+02  0.72461589589E+02  0.70000025135E+02 0.  0.
        -12    1    1    2    0    0  0.16786537590E+01  0.86012145711E+01  0.16549310449E+02  0.18726410411E+02  0.00000000000E+00 0.  1.
         11    1    3    3    0    0  0.54333244174E+00 -0.22876576033E+02 -0.71918664868E+01  0.23986577183E+02  0.51100000000E-03 0. -1.
        -11    1    3    3    0    0 -0.75111477184E+01  0.25896970523E+01  0.17219810914E+02  0.18964328595E+02  0.51100000000E-03 0.  1.
         12    1    3    3    0    0  0.52891615176E+01  0.11685664409E+02 -0.26577254876E+02  0.29510683811E+02  0.00000000000E+00 0. -1.
</event>
<event>
 7    1  0.1358622E-013  0.7246160E+02  0.7816164E-02  0.1226708E+00
        -11   -1    0    0    0    0  0.00000000000E+00  0.00000000000E+00  0.45593999997E+02  0.45594000000E+02  0.51100000000E-03 0.  1.
         11   -1    0    0    0    0 -0.00000000000E+00 -0.00000000000E+00 -0.45593999997E+02  0.45594000000E+02  0.51100000000E-03 0. -1.
    9900012    2    1    2    0    0  0.80310330646E+00  0.15292496803E+02 -0.10778342013E+02  0.72461599119E+02  0.70000037550E+02 0.  0.
        -12    1    1    2    0    0 -0.80310330646E+00 -0.15292496803E+02  0.10778342013E+02  0.18726400881E+02  0.00000000000E+00 0.  1.
         11    1    3    3    0    0  0.16670333070E+02 -0.65877682238E+00 -0.12819805794E+02  0.21039995543E+02  0.51100000000E-03 0. -1.
        -11    1    3    3    0    0  0.92972644874E+01 -0.40443935739E+01 -0.12540977097E+02  0.16126758916E+02  0.51100000000E-03 0.  1.
         12    1    3    3    0    0 -0.25164494251E+02  0.19995667199E+02  0.14582440878E+02  0.35294844661E+02  0.00000000000E+00 0. -1.
</event>
<event>
 7    1  0.1358622E-013  0.7246158E+02  0.7816164E-02  0.1226708E+00
        -11   -1    0    0    0    0  0.00000000000E+00  0.00000000000E+00  0.45593999997E+02  0.45594000000E+02  0.51100000000E-03 0. -1.
         11   -1    0    0    0    0 -0.00000000000E+00 -0.00000000000E+00 -0.45593999997E+02  0.45594000000E+02  0.51100000000E-03 0.  1.
    9900012    2    1    2    0    0  0.12469062744E+02  0.11438595398E+02  0.80224614795E+01  0.72461578062E+02  0.70000010119E+02 0.  0.
        -12    1    1    2    0    0 -0.12469062744E+02 -0.11438595398E+02 -0.80224614795E+01  0.18726421938E+02  0.00000000000E+00 0.  1.
         11    1    3    3    0    0 -0.14106434042E+02 -0.77035971615E+01  0.18767634089E+02  0.24709532172E+02  0.51100000000E-03 0. -1.
        -11    1    3    3    0    0  0.19196292975E+02 -0.47959686070E+01  0.15512027245E+01  0.19847045348E+02  0.51100000000E-03 0.  1.
        -12    1    3    3    0    0  0.73792038102E+01  0.23938161167E+02 -0.12296375334E+02  0.27905000543E+02  0.00000000000E+00 0.  1.
</event>
<event>
 7    1  0.1358622E-013  0.7246163E+02  0.7816164E-02  0.1226708E+00
        -11   -1    0    0    0    0  0.00000000000E+00  0.00000000000E+00  0.45593999997E+02  0.45594000000E+02  0.51100000000E-03 0. -1.
         11   -1    0    0    0    0 -0.00000000000E+00 -0.00000000000E+00 -0.45593999997E+02  0.45594000000E+02  0.51100000000E-03 0.  1.
    9900012    2    1    2    0    0 -0.15995033223E+02 -0.96584129109E+01  0.12452814434E+01  0.72461634799E+02  0.70000084029E+02 0.  0.
        -12    1    1    2    0    0  0.15995033223E+02  0.96584129109E+01 -0.12452814434E+01  0.18726365201E+02  0.00000000000E+00 0.  1.
         11    1    3    3    0    0  0.23221122787E+02 -0.58614969666E+01  0.11536802684E+02  0.26583368985E+02  0.51100000000E-03 0. -1.
        -11    1    3    3    0    0 -0.24327029649E+02 -0.10386711811E+02 -0.12830676138E+02  0.29399224551E+02  0.51100000000E-03 0.  1.
        -12    1    3    3    0    0 -0.14889126361E+02  0.65897958670E+01  0.25391548973E+01  0.16479041263E+02  0.00000000000E+00 0.  1.
</event>
<event>
 7    1  0.1358622E-013  0.7246156E+02  0.7816164E-02  0.1226708E+00
        -11   -1    0    0    0    0  0.00000000000E+00  0.00000000000E+00  0.45593999997E+02  0.45594000000E+02  0.51100000000E-03 0.  1.
         11   -1    0    0    0    0 -0.00000000000E+00 -0.00000000000E+00 -0.45593999997E+02  0.45594000000E+02  0.51100000000E-03 0. -1.
    9900012    2    1    2    0    0 -0.82840756173E+01  0.19515582522E+01  0.16680679755E+02  0.72461559721E+02  0.69999986226E+02 0.  0.
        -12    1    1    2    0    0  0.82840756173E+01 -0.19515582522E+01 -0.16680679755E+02  0.18726440279E+02  0.00000000000E+00 0.  1.
         11    1    3    3    0    0  0.41380066348E-01  0.32567743905E+01  0.21661582981E+02  0.21905078618E+02  0.51100000000E-03 0. -1.
        -11    1    3    3    0    0  0.14140762151E+02 -0.37614755431E+01  0.14587654772E+02  0.20661788995E+02  0.51100000000E-03 0.  1.
         12    1    3    3    0    0 -0.22466217835E+02  0.24562594048E+01 -0.19568557999E+02  0.29894692107E+02  0.00000000000E+00 0. -1.
</event>
<event>
 7    1  0.1358622E-013  0.7246138E+02  0.7816164E-02  0.1226709E+00
        -11   -1    0    0    0    0  0.00000000000E+00  0.00000000000E+00  0.45593999997E+02  0.45594000000E+02  0.51100000000E-03 0. -1.
         11   -1    0    0    0    0 -0.00000000000E+00 -0.00000000000E+00 -0.45593999997E+02  0.45594000000E+02  0.51100000000E-03 0.  1.
    9900012    2    1    2    0    0 -0.12098257090E+02  0.14170670773E+00  0.14293296390E+02  0.72461381856E+02  0.69999754524E+02 0.  0.
        -12    1    1    2    0    0  0.12098257090E+02 -0.14170670773E+00 -0.14293296390E+02  0.18726618144E+02  0.00000000000E+00 0.  1.
         11    1    3    3    0    0 -0.58704353605E+01 -0.26259640061E+01  0.19545073466E+02  0.20575898409E+02  0.51100000000E-03 0. -1.
        -11    1    3    3    0    0  0.21676576491E+02 -0.48019859575E+01  0.12979785382E+01  0.22240004183E+02  0.51100000000E-03 0.  1.
        -12    1    3    3    0    0 -0.27904398221E+02  0.75696566714E+01 -0.65497556147E+01  0.29645479264E+02  0.00000000000E+00 0.  1.
</event>
<event>
 7    1  0.1358622E-013  0.7246147E+02  0.7816164E-02  0.1226708E+00
        -11   -1    0    0    0    0  0.00000000000E+00  0.00000000000E+00  0.45593999997E+02  0.45594000000E+02  0.51100000000E-03 0.  1.
         11   -1    0    0    0    0 -0.00000000000E+00 -0.00000000000E+00 -0.45593999997E+02  0.45594000000E+02  0.51100000000E-03 0. -1.
    9900012    2    1    2    0    0  0.54575768527E+01  0.10532834463E+02 -0.14489901896E+02  0.72461467917E+02  0.69999866634E+02 0.  0.
        -12    1    1    2    0    0 -0.54575768527E+01 -0.10532834463E+02  0.14489901896E+02  0.18726532083E+02  0.00000000000E+00 0.  1.
         11    1    3    3    0    0  0.33992278992E+01  0.32975647641E+02 -0.13586527611E+02  0.35826551891E+02  0.51100000000E-03 0. -1.
        -11    1    3    3    0    0  0.33439195214E+01  0.59353355061E+01 -0.42526824468E+01  0.80308974336E+01  0.51100000000E-03 0.  1.
        -12    1    3    3    0    0 -0.12855705678E+01 -0.28378148684E+02  0.33493081623E+01  0.28604018592E+02  0.00000000000E+00 0.  1.
</event>
<event>
 7    1  0.1358622E-013  0.7246110E+02  0.7816164E-02  0.1226709E+00
        -11   -1    0    0    0    0  0.00000000000E+00  0.00000000000E+00  0.45593999997E+02  0.45594000000E+02  0.51100000000E-03 0. -1.
         11   -1    0    0    0    0 -0.00000000000E+00 -0.00000000000E+00 -0.45593999997E+02  0.45594000000E+02  0.51100000000E-03 0.  1.
    9900012    2    1    2    0    0  0.14822701284E+02 -0.73697498335E+01  0.87562009252E+01  0.72461101148E+02  0.69999388847E+02 0.  0.
        -12    1    1    2    0    0 -0.14822701284E+02  0.73697498335E+01 -0.87562009252E+01  0.18726898852E+02  0.00000000000E+00 0.  1.
         11    1    3    3    0    0  0.94320787010E+01 -0.13390321586E+02 -0.88284404279E+01  0.18606616604E+02  0.51100000000E-03 0. -1.
        -11    1    3    3    0    0 -0.41024918244E+01 -0.18220219124E+02 -0.50610426795E+01  0.19349960655E+02  0.51100000000E-03 0.  1.
        -12    1    3    3    0    0  0.94931144078E+01  0.24240790876E+02  0.22645684033E+02  0.34504523889E+02  0.00000000000E+00 0.  1.
</event>
<event>
 7    1  0.1358622E-013  0.7246164E+02  0.7816164E-02  0.1226708E+00
        -11   -1    0    0    0    0  0.00000000000E+00  0.00000000000E+00  0.45593999997E+02  0.45594000000E+02  0.51100000000E-03 0.  1.
         11   -1    0    0    0    0 -0.00000000000E+00 -0.00000000000E+00 -0.45593999997E+02  0.45594000000E+02  0.51100000000E-03 0. -1.
    9900012    2    1    2    0    0  0.11562804076E+02 -0.13539963478E+02 -0.58006585365E+01  0.72461636537E+02  0.70000086293E+02 0.  0.
        -12    1    1    2    0    0 -0.11562804076E+02  0.13539963478E+02  0.58006585365E+01  0.18726363463E+02  0.00000000000E+00 0.  1.
         11    1    3    3    0    0  0.14995873583E+02 -0.19743458203E+02 -0.13333661881E+02  0.28150788724E+02  0.51100000000E-03 0. -1.
        -11    1    3    3    0    0  0.19601658100E+02  0.24059872459E+00  0.96451648648E+00  0.19626848456E+02  0.51100000000E-03 0.  1.
        -12    1    3    3    0    0 -0.23034727607E+02  0.59628960005E+01  0.65684868577E+01  0.24683999357E+02  0.00000000000E+00 0.  1.
</event>
<event>
 7    1  0.1358622E-013  0.7246158E+02  0.7816164E-02  0.1226708E+00
        -11   -1    0    0    0    0  0.00000000000E+00  0.00000000000E+00  0.45593999997E+02  0.45594000000E+02  0.51100000000E-03 0. -1.
         11   -1    0    0    0    0 -0.00000000000E+00 -0.00000000000E+00 -0.45593999997E+02  0.45594000000E+02  0.51100000000E-03 0.  1.
    9900012    2    1    2    0    0 -0.13383543104E+02  0.11596348793E+02  0.60896924960E+01  0.72461577863E+02  0.70000009860E+02 0.  0.
        -12    1    1    2    0    0  0.13383543104E+02 -0.11596348793E+02 -0.60896924960E+01  0.18726422137E+02  0.00000000000E+00 0.  1.
         11    1    3    3    0    0  0.49634819548E+01  0.37694350179E+01 -0.80255993034E+01  0.10161448613E+02  0.51100000000E-03 0. -1.
        -11    1    3    3    0    0  0.16015626982E+01 -0.23582498676E+01 -0.20703732637E+02  0.20899064354E+02  0.51100000000E-03 0.  1.
         12    1    3    3    0    0 -0.19948587757E+02  0.10185163643E+02  0.34819024436E+02  0.41401064897E+02  0.00000000000E+00 0. -1.
</event>
<event>
 7    1  0.1358622E-013  0.7246148E+02  0.7816164E-02  0.1226708E+00
        -11   -1    0    0    0    0  0.00000000000E+00  0.00000000000E+00  0.45593999997E+02  0.45594000000E+02  0.51100000000E-03 0. -1.
         11   -1    0    0    0    0 -0.00000000000E+00 -0.00000000000E+00 -0.45593999997E+02  0.45594000000E+02  0.51100000000E-03 0.  1.
    9900012    2    1    2    0    0  0.14608427921E+02  0.11550290983E+02  0.19665486502E+01  0.72461475984E+02  0.69999877144E+02 0.  0.
        -12    1    1    2    0    0 -0.14608427921E+02 -0.11550290983E+02 -0.19665486502E+01  0.18726524016E+02  0.00000000000E+00 0.  1.
         11    1    3    3    0    0  0.15266149011E+02 -0.56486182198E-01 -0.74743302011E+01  0.16997767751E+02  0.51100000000E-03 0. -1.
        -11    1    3    3    0    0  0.34256836138E+01 -0.15484474720E+02 -0.12636885284E+02  0.20277947024E+02  0.51100000000E-03 0.  1.
         12    1    3    3    0    0 -0.40834047039E+01  0.27091251885E+02  0.22077764135E+02  0.35185761209E+02  0.00000000000E+00 0. -1.
</event>
<event>
 7    1  0.1358622E-013  0.7246156E+02  0.7816164E-02  0.1226708E+00
        -11   -1    0    0    0    0  0.00000000000E+00  0.00000000000E+00  0.45593999997E+02  0.45594000000E+02  0.51100000000E-03 0. -1.
         11   -1    0    0    0    0 -0.00000000000E+00 -0.00000000000E+00 -0.45593999997E+02  0.45594000000E+02  0.51100000000E-03 0.  1.
    9900012    2    1    2    0    0  0.90091201327E+00 -0.16414609334E+00  0.18704037303E+02  0.72461558859E+02  0.69999985103E+02 0.  0.
        -12    1    1    2    0    0 -0.90091201327E+00  0.16414609334E+00 -0.18704037303E+02  0.18726441141E+02  0.00000000000E+00 0.  1.
         11    1    3    3    0    0  0.26757007777E+01 -0.15909850471E+02 -0.81067324437E+00  0.16153634515E+02  0.51100000000E-03 0. -1.
        -11    1    3    3    0    0  0.59037671216E+01  0.11278959957E+02 -0.15572320095E+02  0.20113839945E+02  0.51100000000E-03 0.  1.
         12    1    3    3    0    0 -0.76785558860E+01  0.44667444206E+01  0.35087030642E+02  0.36194084399E+02  0.00000000000E+00 0. -1.
</event>
<event>
 7    1  0.1358622E-013  0.7246141E+02  0.7816164E-02  0.1226708E+00
        -11   -1    0    0    0    0  0.00000000000E+00  0.00000000000E+00  0.45593999997E+02  0.45594000000E+02  0.51100000000E-03 0.  1.
         11   -1    0    0    0    0 -0.00000000000E+00 -0.00000000000E+00 -0.45593999997E+02  0.45594000000E+02  0.51100000000E-03 0. -1.
    9900012    2    1    2    0    0  0.14110100946E+02 -0.11045799069E+02  0.54387830857E+01  0.72461414961E+02  0.69999797649E+02 0.  0.
        -12    1    1    2    0    0 -0.14110100946E+02  0.11045799069E+02 -0.54387830857E+01  0.18726585039E+02  0.00000000000E+00 0.  1.
         11    1    3    3    0    0 -0.27932470593E+01  0.53166369561E+00 -0.70690409222E+01  0.76194642358E+01  0.51100000000E-03 0. -1.
        -11    1    3    3    0    0  0.32328527037E+01  0.23000734593E+02 -0.49762529640E+01  0.23753909620E+02  0.51100000000E-03 0.  1.
         12    1    3    3    0    0  0.13670495302E+02 -0.34578197357E+02  0.17484076972E+02  0.41088041105E+02  0.00000000000E+00 0. -1.
</event>
<event>
 7    1  0.1358622E-013  0.7246157E+02  0.7816164E-02  0.1226708E+00
        -11   -1    0    0    0    0  0.00000000000E+00  0.00000000000E+00  0.45593999997E+02  0.45594000000E+02  0.51100000000E-03 0. -1.
         11   -1    0    0    0    0 -0.00000000000E+00 -0.00000000000E+00 -0.45593999997E+02  0.45594000000E+02  0.51100000000E-03 0.  1.
    9900012    2    1    2    0    0  0.53125596604E+01 -0.89836260777E+00  0.17934571445E+02  0.72461569522E+02  0.69999998994E+02 0.  0.
        -12    1    1    2    0    0 -0.53125596604E+01  0.89836260777E+00 -0.17934571445E+02  0.18726430478E+02  0.00000000000E+00 0.  1.
         11    1    3    3    0    0 -0.35653361129E+01  0.11880216272E+02  0.51926529326E+01  0.13446739567E+02  0.51100000000E-03 0. -1.
        -11    1    3    3    0    0 -0.22854449291E+02 -0.43958842807E+01  0.12001458761E+02  0.26185581217E+02  0.51100000000E-03 0.  1.
        -12    1    3    3    0    0  0.31732345064E+02 -0.83826945986E+01  0.74045975186E+00  0.32829248738E+02  0.00000000000E+00 0.  1.
</event>
<event>
 7    1  0.1358622E-013  0.7246161E+02  0.7816164E-02  0.1226708E+00
        -11   -1    0    0    0    0  0.00000000000E+00  0.00000000000E+00  0.45593999997E+02  0.45594000000E+02  0.51100000000E-03 0.  1.
         11   -1    0    0    0    0 -0.00000000000E+00 -0.00000000000E+00 -0.45593999997E+02  0.45594000000E+02  0.51100000000E-03 0. -1.
    9900012    2    1    2    0    0  0.14431820678E+02 -0.25641997074E+01 -0.11654407104E+02  0.72461607577E+02  0.70000048568E+02 0.  0.
        -12    1    1    2    0    0 -0.14431820678E+02  0.25641997074E+01  0.11654407104E+02  0.18726392423E+02  0.00000000000E+00 0.  1.
         11    1    3    3    0    0 -0.80527074327E+01 -0.13481218143E+02 -0.90612942525E+00  0.15729285121E+02  0.51100000000E-03 0. -1.
        -11    1    3    3    0    0 -0.48777254646E+01 -0.21781960087E+01  0.15639518637E+02  0.16526684090E+02  0.51100000000E-03 0.  1.
         12    1    3    3    0    0  0.27362253575E+02  0.13095214444E+02 -0.26387796316E+02  0.40205638367E+02  0.00000000000E+00 0. -1.
</event>
<event>
 7    1  0.1358622E-013  0.7246153E+02  0.7816164E-02  0.1226708E+00
        -11   -1    0    0    0    0  0.00000000000E+00  0.00000000000E+00  0.45593999997E+02  0.45594000000E+02  0.51100000000E-03 0. -1.
         11   -1    0    0    0    0 -0.00000000000E+00 -0.00000000000E+00 -0.45593999997E+02  0.45594000000E+02  0.51100000000E-03 0.  1.
    9900012    2    1    2    0    0 -0.11272499345E+02  0.13028172665E+02  0.73401635341E+01  0.72461534098E+02  0.69999952847E+02 0.  0.
        -12    1    1    2    0    0  0.11272499345E+02 -0.13028172665E+02 -0.73401635341E+01  0.18726465902E+02  0.00000000000E+00 0.  1.
         11    1    3    3    0    0 -0.16193971091E+02  0.32385448792E+02  0.81189269410E+01  0.37107667241E+02  0.51100000000E-03 0. -1.
        -11    1    3    3    0    0  0.12317754903E+02  0.22263251918E+01  0.16903903063E+00  0.12518473716E+02  0.51100000000E-03 0.  1.
        -12    1    3    3    0    0 -0.73962831576E+01 -0.21583601319E+02 -0.94780243747E+00  0.22835393141E+02  0.00000000000E+00 0.  1.
</event>
<event>
 7    1  0.1358622E-013  0.7246159E+02  0.7816164E-02  0.1226708E+00
        -11   -1    0    0    0    0  0.00000000000E+00  0.00000000000E+00  0.45593999997E+02  0.45594000000E+02  0.51100000000E-03 0.  1.
         11   -1    0    0    0    0 -0.00000000000E+00 -0.00000000000E+00 -0.45593999997E+02  0.45594000000E+02  0.51100000000E-03 0. -1.
    9900012    2    1    2    0    0  0.94409689196E+01 -0.15429227256E+02 -0.48461654792E+01  0.72461594373E+02  0.70000031367E+02 0.  0.
        -12    1    1    2    0    0 -0.94409689196E+01  0.15429227256E+02  0.48461654792E+01  0.18726405627E+02  0.00000000000E+00 0.  1.
         11    1    3    3    0    0 -0.22394769456E+02 -0.70309279327E+01 -0.66477964924E+01  0.24395754652E+02  0.51100000000E-03 0. -1.
        -11    1    3    3    0    0 -0.45977161236E+01  0.70709277982E+01  0.79353862823E+00  0.84715239063E+01  0.51100000000E-03 0.  1.
        -12    1    3    3    0    0  0.36433454500E+02 -0.15469227122E+02  0.10080923850E+01  0.39594315814E+02  0.00000000000E+00 0.  1.
</event>
<event>
 7    1  0.1358622E-013  0.7246158E+02  0.7816164E-02  0.1226708E+00
        -11   -1    0    0    0    0  0.00000000000E+00  0.00000000000E+00  0.45593999997E+02  0.45594000000E+02  0.51100000000E-03 0.  1.
         11   -1    0    0    0    0 -0.00000000000E+00 -0.00000000000E+00 -0.45593999997E+02  0.45594000000E+02  0.51100000000E-03 0. -1.
    9900012    2    1    2    0    0 -0.92451788603E+01 -0.14303720795E+02  0.77851878757E+01  0.72461577197E+02  0.70000008992E+02 0.  0.
        -12    1    1    2    0    0  0.92451788603E+01  0.14303720795E+02 -0.77851878757E+01  0.18726422803E+02  0.00000000000E+00 0.  1.
         11    1    3    3    0    0  0.56047267158E+01 -0.57508705749E+01  0.67649598353E+01  0.10500007417E+02  0.51100000000E-03 0.  1.
        -11    1    3    3    0    0  0.11268501688E+02 -0.67427286015E+01 -0.22965190855E+02  0.26454555573E+02  0.51100000000E-03 0. -1.
         12    1    3    3    0    0 -0.26118407264E+02 -0.18101216186E+01  0.23985418896E+02  0.35507014207E+02  0.00000000000E+00 0. -1.
</event>
<event>
 7    1  0.1358622E-013  0.7246158E+02  0.7816164E-02  0.1226708E+00
        -11   -1    0    0    0    0  0.00000000000E+00  0.00000000000E+00  0.45593999997E+02  0.45594000000E+02  0.51100000000E-03 0.  1.
         11   -1    0    0    0    0 -0.00000000000E+00 -0.00000000000E+00 -0.45593999997E+02  0.45594000000E+02  0.51100000000E-03 0. -1.
    9900012    2    1    2    0    0 -0.94560074875E+01  0.57172506854E+01 -0.15118719467E+02  0.72461582528E+02  0.70000015937E+02 0.  0.
        -12    1    1    2    0    0  0.94560074875E+01 -0.57172506854E+01  0.15118719467E+02  0.18726417472E+02  0.00000000000E+00 0.  1.
         11    1    3    3    0    0  0.21737701086E+02  0.33634972468E+01 -0.16461877099E+02  0.27474245397E+02  0.51100000000E-03 0. -1.
        -11    1    3    3    0    0 -0.22005468162E+02  0.32822841143E+01 -0.14565385383E+02  0.26592564180E+02  0.51100000000E-03 0.  1.
        -12    1    3    3    0    0 -0.91882404117E+01 -0.92853067572E+00  0.15908543015E+02  0.18394772951E+02  0.00000000000E+00 0.  1.
</event>
<event>
 7    1  0.1358622E-013  0.7246158E+02  0.7816164E-02  0.1226708E+00
        -11   -1    0    0    0    0  0.00000000000E+00  0.00000000000E+00  0.45593999997E+02  0.45594000000E+02  0.51100000000E-03 0. -1.
         11   -1    0    0    0    0 -0.00000000000E+00 -0.00000000000E+00 -0.45593999997E+02  0.45594000000E+02  0.51100000000E-03 0.  1.
    9900012    2    1    2    0    0  0.51373214763E+01 -0.13341050590E+02  0.12095588816E+02  0.72461575579E+02  0.70000006884E+02 0.  0.
        -12    1    1    2    0    0 -0.51373214763E+01  0.13341050590E+02 -0.12095588816E+02  0.18726424421E+02  0.00000000000E+00 0.  1.
         11    1    3    3    0    0 -0.70941557410E+01 -0.13014388642E+02 -0.37402464044E+01  0.15286948709E+02  0.51100000000E-03 0. -1.
        -11    1    3    3    0    0 -0.30067783304E+00 -0.72100564742E+01 -0.18566360689E+02  0.19919464626E+02  0.51100000000E-03 0.  1.
         12    1    3    3    0    0  0.12532155050E+02  0.68833945263E+01  0.34402195909E+02  0.37255162243E+02  0.00000000000E+00 0. -1.
</event>
<event>
 7    1  0.2047055E-013  0.7246162E+02  0.7816164E-02  0.1226708E+00
        -11   -1    0    0    0    0  0.00000000000E+00  0.00000000000E+00  0.45593999997E+02  0.45594000000E+02  0.51100000000E-03 0. -1.
         11   -1    0    0    0    0 -0.00000000000E+00 -0.00000000000E+00 -0.45593999997E+02  0.45594000000E+02  0.51100000000E-03 0.  1.
    9900012    2    1    2    0    0 -0.88695374514E+01  0.15093710472E+02  0.66474439165E+01  0.72461620183E+02  0.70000064989E+02 0.  0.
        -12    1    1    2    0    0  0.88695374514E+01 -0.15093710472E+02 -0.66474439165E+01  0.18726379817E+02  0.00000000000E+00 0.  1.
         11    1    3    3    0    0 -0.48662180185E+01  0.29397374804E+02  0.20865060473E+02  0.36376317460E+02  0.51100000000E-03 0. -1.
        -11    1    3    3    0    0  0.85084716086E+00  0.84417274902E+01  0.60470051743E+00  0.85060194502E+01  0.51100000000E-03 0.  1.
        -12    1    3    3    0    0 -0.48541665937E+01 -0.22745391821E+02 -0.14822317074E+02  0.27579283273E+02  0.00000000000E+00 0.  1.
</event>
<event>
 7    1  0.1358622E-013  0.7246156E+02  0.7816164E-02  0.1226708E+00
        -11   -1    0    0    0    0  0.00000000000E+00  0.00000000000E+00  0.45593999997E+02  0.45594000000E+02  0.51100000000E-03 0.  1.
         11   -1    0    0    0    0 -0.00000000000E+00 -0.00000000000E+00 -0.45593999997E+02  0.45594000000E+02  0.51100000000E-03 0. -1.
    9900012    2    1    2    0    0 -0.35069123534E+01  0.18227979942E+02  0.24742129532E+01  0.72461563693E+02  0.69999991401E+02 0.  0.
        -12    1    1    2    0    0  0.35069123534E+01 -0.18227979942E+02 -0.24742129532E+01  0.18726436307E+02  0.00000000000E+00 0.  1.
         11    1    3    3    0    0  0.14809128196E+01  0.34682756764E+02  0.10514347430E+01  0.34730278358E+02  0.51100000000E-03 0. -1.
        -11    1    3    3    0    0 -0.16960890839E+02 -0.13517728815E+00 -0.24074311041E+01  0.17131427720E+02  0.51100000000E-03 0.  1.
        -12    1    3    3    0    0  0.11973065666E+02 -0.16319599534E+02  0.38302093143E+01  0.20599857615E+02  0.00000000000E+00 0.  1.
</event>
<event>
 7    1  0.1358622E-013  0.7246156E+02  0.7816164E-02  0.1226708E+00
        -11   -1    0    0    0    0  0.00000000000E+00  0.00000000000E+00  0.45593999997E+02  0.45594000000E+02  0.51100000000E-03 0.  1.
         11   -1    0    0    0    0 -0.00000000000E+00 -0.00000000000E+00 -0.45593999997E+02  0.45594000000E+02  0.51100000000E-03 0. -1.
    9900012    2    1    2    0    0 -0.10558632093E+01  0.44599590070E+01 -0.18156914027E+02  0.72461558575E+02  0.69999984734E+02 0.  0.
        -12    1    1    2    0    0  0.10558632093E+01 -0.44599590070E+01  0.18156914027E+02  0.18726441425E+02  0.00000000000E+00 0.  1.
         11    1    3    3    0    0  0.19643647847E+02 -0.14875094768E+02 -0.25099399477E+02  0.35172733750E+02  0.51100000000E-03 0. -1.
        -11    1    3    3    0    0 -0.10618381184E+02 -0.16585944902E+00 -0.56001273364E+01  0.12005788386E+02  0.51100000000E-03 0.  1.
        -12    1    3    3    0    0 -0.10081129872E+02  0.19500913224E+02  0.12542612786E+02  0.25283036439E+02  0.00000000000E+00 0.  1.
</event>
<event>
 7    1  0.1358622E-013  0.7246170E+02  0.7816164E-02  0.1226708E+00
        -11   -1    0    0    0    0  0.00000000000E+00  0.00000000000E+00  0.45593999997E+02  0.45594000000E+02  0.51100000000E-03 0.  1.
         11   -1    0    0    0    0 -0.00000000000E+00 -0.00000000000E+00 -0.45593999997E+02  0.45594000000E+02  0.51100000000E-03 0. -1.
    9900012    2    1    2    0    0  0.16207544047E+02  0.64711054334E+01 -0.67907807307E+01  0.72461697843E+02  0.70000166155E+02 0.  0.
        -12    1    1    2    0    0 -0.16207544047E+02 -0.64711054334E+01  0.67907807307E+01  0.18726302157E+02  0.00000000000E+00 0.  1.
         11    1    3    3    0    0  0.35451147161E+01  0.16842965912E+02 -0.32958242185E+02  0.37181972342E+02  0.51100000000E-03 0. -1.
        -11    1    3    3    0    0 -0.11551371950E+00  0.42198557631E+01  0.38703275951E+01  0.57271251109E+01  0.51100000000E-03 0.  1.
        -12    1    3    3    0    0  0.12777943050E+02 -0.14591716241E+02  0.22297133859E+02  0.29552600390E+02  0.00000000000E+00 0.  1.
</event>
<event>
 7    1  0.1358622E-013  0.7246157E+02  0.7816164E-02  0.1226708E+00
        -11   -1    0    0    0    0  0.00000000000E+00  0.00000000000E+00  0.45593999997E+02  0.45594000000E+02  0.51100000000E-03 0.  1.
         11   -1    0    0    0    0 -0.00000000000E+00 -0.00000000000E+00 -0.45593999997E+02  0.45594000000E+02  0.51100000000E-03 0. -1.
    9900012    2    1    2    0    0  0.17148226612E+02 -0.52300894958E+01 -0.54095966637E+01  0.72461568195E+02  0.69999997266E+02 0.  0.
        -12    1    1    2    0    0 -0.17148226612E+02  0.52300894958E+01  0.54095966637E+01  0.18726431805E+02  0.00000000000E+00 0.  1.
         11    1    3    3    0    0 -0.73462187510E+01 -0.57405079976E+01  0.28398902824E+02  0.29890099429E+02  0.51100000000E-03 0.  1.
        -11    1    3    3    0    0  0.10611674245E+02 -0.30690611208E+01 -0.18875283188E+02  0.21870141338E+02  0.51100000000E-03 0. -1.
        -12    1    3    3    0    0  0.13882771118E+02  0.35794796226E+01 -0.14933216299E+02  0.20701327429E+02  0.00000000000E+00 0.  1.
</event>
<event>
 7    1  0.1358622E-013  0.7246157E+02  0.7816164E-02  0.1226708E+00
        -11   -1    0    0    0    0  0.00000000000E+00  0.00000000000E+00  0.45593999997E+02  0.45594000000E+02  0.51100000000E-03 0.  1.
         11   -1    0    0    0    0 -0.00000000000E+00 -0.00000000000E+00 -0.45593999997E+02  0.45594000000E+02  0.51100000000E-03 0. -1.
    9900012    2    1    2    0    0  0.87538472949E+01 -0.13702107546E+02 -0.92898662862E+01  0.72461569233E+02  0.69999998617E+02 0.  0.
        -12    1    1    2    0    0 -0.87538472949E+01  0.13702107546E+02  0.92898662862E+01  0.18726430767E+02  0.00000000000E+00 0.  1.
         11    1    3    3    0    0  0.65287349398E+00  0.22247949829E+02  0.77519347230E+01  0.23568835517E+02  0.51100000000E-03 0. -1.
        -11    1    3    3    0    0 -0.81359859925E+01 -0.25884818440E+01 -0.49504789166E+01  0.98692323963E+01  0.51100000000E-03 0.  1.
         12    1    3    3    0    0  0.16236959793E+02 -0.33361575532E+02 -0.12091322093E+02  0.39023501319E+02  0.00000000000E+00 0. -1.
</event>
<event>
 7    1  0.1358622E-013  0.7246166E+02  0.7816164E-02  0.1226708E+00
        -11   -1    0    0    0    0  0.00000000000E+00  0.00000000000E+00  0.45593999997E+02  0.45594000000E+02  0.51100000000E-03 0. -1.
         11   -1    0    0    0    0 -0.00000000000E+00 -0.00000000000E+00 -0.45593999997E+02  0.45594000000E+02  0.51100000000E-03 0.  1.
    9900012    2    1    2    0    0  0.36715197828E+00 -0.17246982604E+02  0.72857871929E+01  0.72461657470E+02  0.70000113563E+02 0.  0.
        -12    1    1    2    0    0 -0.36715197828E+00  0.17246982604E+02 -0.72857871929E+01  0.18726342530E+02  0.00000000000E+00 0.  1.
         11    1    3    3    0    0 -0.50508752048E+00  0.46387827376E+01  0.16777083679E+02  0.17413901221E+02  0.51100000000E-03 0. -1.
        -11    1    3    3    0    0 -0.76624519650E+01 -0.13588393706E+02 -0.28575095404E+02  0.32556008527E+02  0.51100000000E-03 0.  1.
         12    1    3    3    0    0  0.85346914638E+01 -0.82973716360E+01  0.19083798918E+02  0.22491747722E+02  0.00000000000E+00 0. -1.
</event>
<event>
 7    1  0.1358622E-013  0.7246161E+02  0.7816164E-02  0.1226708E+00
        -11   -1    0    0    0    0  0.00000000000E+00  0.00000000000E+00  0.45593999997E+02  0.45594000000E+02  0.51100000000E-03 0.  1.
         11   -1    0    0    0    0 -0.00000000000E+00 -0.00000000000E+00 -0.45593999997E+02  0.45594000000E+02  0.51100000000E-03 0. -1.
    9900012    2    1    2    0    0 -0.14725040806E+02 -0.76250295403E+01 -0.87011366150E+01  0.72461610048E+02  0.70000051786E+02 0.  0.
        -12    1    1    2    0    0  0.14725040806E+02  0.76250295403E+01  0.87011366150E+01  0.18726389952E+02  0.00000000000E+00 0.  1.
         11    1    3    3    0    0 -0.42898642025E+01 -0.12915496629E+02 -0.32668268269E+02  0.35389669961E+02  0.51100000000E-03 0. -1.
        -11    1    3    3    0    0  0.41713251915E+01  0.52789996553E+01 -0.22214761055E+01  0.70853897255E+01  0.51100000000E-03 0.  1.
        -12    1    3    3    0    0 -0.14606501795E+02  0.11467433281E-01  0.26188607759E+02  0.29986550361E+02  0.00000000000E+00 0.  1.
</event>
<event>
 7    1  0.1358622E-013  0.7246159E+02  0.7816164E-02  0.1226708E+00
        -11   -1    0    0    0    0  0.00000000000E+00  0.00000000000E+00  0.45593999997E+02  0.45594000000E+02  0.51100000000E-03 0. -1.
         11   -1    0    0    0    0 -0.00000000000E+00 -0.00000000000E+00 -0.45593999997E+02  0.45594000000E+02  0.51100000000E-03 0.  1.
    9900012    2    1    2    0    0  0.17509140522E+02  0.53198992957E+00 -0.66200771024E+01  0.72461589881E+02  0.70000025515E+02 0.  0.
        -12    1    1    2    0    0 -0.17509140522E+02 -0.53198992957E+00  0.66200771024E+01  0.18726410119E+02  0.00000000000E+00 0.  1.
         11    1    3    3    0    0  0.17251014624E+01  0.82657523346E+00  0.43862740002E+01  0.47852483257E+01  0.51100000000E-03 0. -1.
        -11    1    3    3    0    0 -0.13127792414E+02 -0.23917872987E+02 -0.13133243377E+02  0.30280119943E+02  0.51100000000E-03 0.  1.
         12    1    3    3    0    0  0.28911831474E+02  0.23623287683E+02  0.21268922745E+01  0.37396221612E+02  0.00000000000E+00 0. -1.
</event>
<event>
 7    1  0.1358622E-013  0.7246155E+02  0.7816164E-02  0.1226708E+00
        -11   -1    0    0    0    0  0.00000000000E+00  0.00000000000E+00  0.45593999997E+02  0.45594000000E+02  0.51100000000E-03 0.  1.
         11   -1    0    0    0    0 -0.00000000000E+00 -0.00000000000E+00 -0.45593999997E+02  0.45594000000E+02  0.51100000000E-03 0. -1.
    9900012    2    1    2    0    0 -0.86331473674E+01  0.16585031788E+02  0.10418129232E+01  0.72461551137E+02  0.69999975043E+02 0.  0.
        -12    1    1    2    0    0  0.86331473674E+01 -0.16585031788E+02 -0.10418129232E+01  0.18726448863E+02  0.00000000000E+00 0.  1.
         11    1    3    3    0    0 -0.14017278845E+02  0.38223224091E+02  0.29531513899E+01  0.40819359004E+02  0.51100000000E-03 0. -1.
        -11    1    3    3    0    0 -0.58346867792E+01  0.13513604170E+01 -0.73778441353E+00  0.60344072526E+01  0.51100000000E-03 0.  1.
        -12    1    3    3    0    0  0.11218818257E+02 -0.22989552720E+02 -0.11735540532E+01  0.25607784880E+02  0.00000000000E+00 0.  1.
</event>
<event>
 7    1  0.1358622E-013  0.7246156E+02  0.7816164E-02  0.1226708E+00
        -11   -1    0    0    0    0  0.00000000000E+00  0.00000000000E+00  0.45593999997E+02  0.45594000000E+02  0.51100000000E-03 0.  1.
         11   -1    0    0    0    0 -0.00000000000E+00 -0.00000000000E+00 -0.45593999997E+02  0.45594000000E+02  0.51100000000E-03 0. -1.
    9900012    2    1    2    0    0  0.25807147015E+01 -0.18255047631E+02  0.32821662529E+01  0.72461562333E+02  0.69999989629E+02 0.  0.
        -12    1    1    2    0    0 -0.25807147015E+01  0.18255047631E+02 -0.32821662529E+01  0.18726437667E+02  0.00000000000E+00 0.  1.
         11    1    3    3    0    0  0.89813330339E+01  0.13502531326E+02  0.11343932278E+02  0.19790591074E+02  0.51100000000E-03 0. -1.
        -11    1    3    3    0    0 -0.72874699381E+01 -0.83357099143E+00  0.13221757594E+02  0.15120083758E+02  0.51100000000E-03 0.  1.
         12    1    3    3    0    0  0.88685160568E+00 -0.30924007966E+02 -0.21283523619E+02  0.37550887501E+02  0.00000000000E+00 0. -1.
</event>
<event>
 7    1  0.1358622E-013  0.7246157E+02  0.7816164E-02  0.1226708E+00
        -11   -1    0    0    0    0  0.00000000000E+00  0.00000000000E+00  0.45593999997E+02  0.45594000000E+02  0.51100000000E-03 0.  1.
         11   -1    0    0    0    0 -0.00000000000E+00 -0.00000000000E+00 -0.45593999997E+02  0.45594000000E+02  0.51100000000E-03 0. -1.
    9900012    2    1    2    0    0  0.13951067488E+02 -0.11979059512E+02 -0.35424744800E+01  0.72461567444E+02  0.69999996287E+02 0.  0.
        -12    1    1    2    0    0 -0.13951067488E+02  0.11979059512E+02  0.35424744800E+01  0.18726432556E+02  0.00000000000E+00 0.  1.
         11    1    3    3    0    0  0.84278363733E+01 -0.40377341547E+02 -0.83979927679E+01  0.42093757484E+02  0.51100000000E-03 0. -1.
        -11    1    3    3    0    0 -0.27412942251E+00  0.72802504391E+01  0.43035097385E+01  0.84615240782E+01  0.51100000000E-03 0.  1.
        -12    1    3    3    0    0  0.57973605372E+01  0.21118031596E+02  0.55200854941E+00  0.21906285882E+02  0.00000000000E+00 0.  1.
</event>
<event>
 7    1  0.1358622E-013  0.7246159E+02  0.7816164E-02  0.1226708E+00
        -11   -1    0    0    0    0  0.00000000000E+00  0.00000000000E+00  0.45593999997E+02  0.45594000000E+02  0.51100000000E-03 0.  1.
         11   -1    0    0    0    0 -0.00000000000E+00 -0.00000000000E+00 -0.45593999997E+02  0.45594000000E+02  0.51100000000E-03 0. -1.
    9900012    2    1    2    0    0  0.50972200159E+01  0.11139360264E+02  0.14163737642E+02  0.72461589160E+02  0.70000024576E+02 0.  0.
        -12    1    1    2    0    0 -0.50972200159E+01 -0.11139360264E+02 -0.14163737642E+02  0.18726410840E+02  0.00000000000E+00 0.  1.
         11    1    3    3    0    0  0.28187526977E+02 -0.76947110986E+01 -0.54468674126E+01  0.29722274826E+02  0.51100000000E-03 0. -1.
        -11    1    3    3    0    0 -0.46472655495E+01  0.86410797491E+01 -0.44346813172E+01  0.10767160023E+02  0.51100000000E-03 0.  1.
        -12    1    3    3    0    0 -0.18443041412E+02  0.10192991613E+02  0.24045286372E+02  0.31972154310E+02  0.00000000000E+00 0.  1.
</event>
<event>
 7    1  0.1358622E-013  0.7246160E+02  0.7816164E-02  0.1226708E+00
        -11   -1    0    0    0    0  0.00000000000E+00  0.00000000000E+00  0.45593999997E+02  0.45594000000E+02  0.51100000000E-03 0. -1.
         11   -1    0    0    0    0 -0.00000000000E+00 -0.00000000000E+00 -0.45593999997E+02  0.45594000000E+02  0.51100000000E-03 0.  1.
    9900012    2    1    2    0    0 -0.13857797464E+02  0.10577541729E+02 -0.68377663199E+01  0.72461601846E+02  0.70000041102E+02 0.  0.
        -12    1    1    2    0    0  0.13857797464E+02 -0.10577541729E+02  0.68377663199E+01  0.18726398154E+02  0.00000000000E+00 0.  1.
         11    1    3    3    0    0  0.20480895761E+02  0.10568575454E+02 -0.17108316972E+02  0.28702898603E+02  0.51100000000E-03 0. -1.
        -11    1    3    3    0    0 -0.44139527788E+01  0.96519632598E+01 -0.21702928537E+00  0.10615577039E+02  0.51100000000E-03 0.  1.
        -12    1    3    3    0    0 -0.29924740446E+02 -0.96429969849E+01  0.10487579937E+02  0.33143126204E+02  0.00000000000E+00 0.  1.
</event>
<event>
 7    1  0.1358622E-013  0.7246149E+02  0.7816164E-02  0.1226708E+00
        -11   -1    0    0    0    0  0.00000000000E+00  0.00000000000E+00  0.45593999997E+02  0.45594000000E+02  0.51100000000E-03 0. -1.
         11   -1    0    0    0    0 -0.00000000000E+00 -0.00000000000E+00 -0.45593999997E+02  0.45594000000E+02  0.51100000000E-03 0.  1.
    9900012    2    1    2    0    0  0.57944635979E+01  0.15823038822E+02  0.81693177959E+01  0.72461491538E+02  0.69999897405E+02 0.  0.
        -12    1    1    2    0    0 -0.57944635979E+01 -0.15823038822E+02 -0.81693177959E+01  0.18726508462E+02  0.00000000000E+00 0.  1.
         11    1    3    3    0    0  0.78998482809E+01  0.16181320340E+02  0.78135469334E+01  0.19628913539E+02  0.51100000000E-03 0. -1.
        -11    1    3    3    0    0 -0.11169034612E+02  0.20330660528E+02 -0.13001144522E+02  0.26591593611E+02  0.51100000000E-03 0.  1.
        -12    1    3    3    0    0  0.90636499286E+01 -0.20688942046E+02  0.13356915385E+02  0.26240984387E+02  0.00000000000E+00 0.  1.
</event>
<event>
 7    1  0.1358622E-013  0.7246154E+02  0.7816164E-02  0.1226708E+00
        -11   -1    0    0    0    0  0.00000000000E+00  0.00000000000E+00  0.45593999997E+02  0.45594000000E+02  0.51100000000E-03 0.  1.
         11   -1    0    0    0    0 -0.00000000000E+00 -0.00000000000E+00 -0.45593999997E+02  0.45594000000E+02  0.51100000000E-03 0. -1.
    9900012    2    1    2    0    0  0.12451479331E+02 -0.13973787101E+02  0.61181747663E+00  0.72461537865E+02  0.69999957755E+02 0.  0.
        -12    1    1    2    0    0 -0.12451479331E+02  0.13973787101E+02 -0.61181747663E+00  0.18726462135E+02  0.00000000000E+00 0.  1.
         11    1    3    3    0    0  0.11907131521E+02 -0.15347357315E+02  0.22111205522E+02  0.29431727226E+02  0.51100000000E-03 0. -1.
        -11    1    3    3    0    0  0.54772467501E+01 -0.67772832242E+01  0.81231204422E+01  0.11912887385E+02  0.51100000000E-03 0.  1.
         12    1    3    3    0    0 -0.49328989407E+01  0.81508534384E+01 -0.29622508488E+02  0.31116923255E+02  0.00000000000E+00 0. -1.
</event>
<event>
 7    1  0.1388593E-013  0.7246156E+02  0.7816164E-02  0.1226708E+00
        -11   -1    0    0    0    0  0.00000000000E+00  0.00000000000E+00  0.45593999997E+02  0.45594000000E+02  0.51100000000E-03 0. -1.
         11   -1    0    0    0    0 -0.00000000000E+00 -0.00000000000E+00 -0.45593999997E+02  0.45594000000E+02  0.51100000000E-03 0.  1.
    9900012    2    1    2    0    0 -0.94283671881E+01  0.13183467569E+02  0.93798498200E+01  0.72461561267E+02  0.69999988240E+02 0.  0.
        -12    1    1    2    0    0  0.94283671881E+01 -0.13183467569E+02 -0.93798498200E+01  0.18726438733E+02  0.00000000000E+00 0.  1.
         11    1    3    3    0    0 -0.29131152363E+02  0.14414102419E+02  0.16491496843E+02  0.36446671383E+02  0.51100000000E-03 0. -1.
        -11    1    3    3    0    0  0.63310381035E+01  0.12452395528E+01  0.11367586966E+02  0.13071139916E+02  0.51100000000E-03 0.  1.
        -12    1    3    3    0    0  0.13371747071E+02 -0.24758744029E+01 -0.18479233989E+02  0.22943749968E+02  0.00000000000E+00 0.  1.
</event>
<event>
 7    1  0.1358622E-013  0.7246171E+02  0.7816164E-02  0.1226708E+00
        -11   -1    0    0    0    0  0.00000000000E+00  0.00000000000E+00  0.45593999997E+02  0.45594000000E+02  0.51100000000E-03 0. -1.
         11   -1    0    0    0    0 -0.00000000000E+00 -0.00000000000E+00 -0.45593999997E+02  0.45594000000E+02  0.51100000000E-03 0.  1.
    9900012    2    1    2    0    0  0.75571952486E+01  0.93191306244E+01  0.14377644869E+02  0.72461706517E+02  0.70000177456E+02 0.  0.
        -12    1    1    2    0    0 -0.75571952486E+01 -0.93191306244E+01 -0.14377644869E+02  0.18726293483E+02  0.00000000000E+00 0.  1.
         11    1    3    3    0    0 -0.10832543081E+02 -0.17865768041E+02  0.27795157347E+02  0.34772121441E+02  0.51100000000E-03 0. -1.
        -11    1    3    3    0    0 -0.90566825670E+00  0.84964647518E+00 -0.32755849660E+01  0.35030831070E+01  0.51100000000E-03 0.  1.
        -12    1    3    3    0    0  0.19295406586E+02  0.26335252190E+02 -0.10141927512E+02  0.34186501969E+02  0.00000000000E+00 0.  1.
</event>
<event>
 7    1  0.1358622E-013  0.7246172E+02  0.7816164E-02  0.1226708E+00
        -11   -1    0    0    0    0  0.00000000000E+00  0.00000000000E+00  0.45593999997E+02  0.45594000000E+02  0.51100000000E-03 0. -1.
         11   -1    0    0    0    0 -0.00000000000E+00 -0.00000000000E+00 -0.45593999997E+02  0.45594000000E+02  0.51100000000E-03 0.  1.
    9900012    2    1    2    0    0 -0.12423165126E+02  0.38021419118E+01  0.13486371491E+02  0.72461720849E+02  0.70000196125E+02 0.  0.
        -12    1    1    2    0    0  0.12423165126E+02 -0.38021419118E+01 -0.13486371491E+02  0.18726279151E+02  0.00000000000E+00 0.  1.
         11    1    3    3    0    0 -0.25611882599E+02 -0.12948388392E+02  0.11918197575E+02  0.31075275154E+02  0.51100000000E-03 0. -1.
        -11    1    3    3    0    0 -0.32158180011E+01  0.68633116110E+01 -0.14515674436E+02  0.16375327058E+02  0.51100000000E-03 0.  1.
        -12    1    3    3    0    0  0.16404535475E+02  0.98872186927E+01  0.16083848352E+02  0.25011118636E+02  0.00000000000E+00 0.  1.
</event>
<event>
 7    1  0.1358622E-013  0.7246158E+02  0.7816164E-02  0.1226708E+00
        -11   -1    0    0    0    0  0.00000000000E+00  0.00000000000E+00  0.45593999997E+02  0.45594000000E+02  0.51100000000E-03 0.  1.
         11   -1    0    0    0    0 -0.00000000000E+00 -0.00000000000E+00 -0.45593999997E+02  0.45594000000E+02  0.51100000000E-03 0. -1.
    9900012    2    1    2    0    0  0.57440245470E+01 -0.19300227989E+01 -0.17718920298E+02  0.72461576355E+02  0.70000007895E+02 0.  0.
        -12    1    1    2    0    0 -0.57440245470E+01  0.19300227989E+01  0.17718920298E+02  0.18726423645E+02  0.00000000000E+00 0.  1.
         11    1    3    3    0    0  0.97108435391E+01 -0.47083994040E+00  0.69553297909E+01  0.11954027993E+02  0.51100000000E-03 0. -1.
        -11    1    3    3    0    0 -0.18433017874E+02  0.20702573043E+02 -0.18516836453E+02  0.33335355271E+02  0.51100000000E-03 0.  1.
         12    1    3    3    0    0  0.14466198882E+02 -0.22161755902E+02 -0.61574136357E+01  0.27172193092E+02  0.00000000000E+00 0. -1.
</event>
<event>
 7    1  0.1358622E-013  0.7246154E+02  0.7816164E-02  0.1226708E+00
        -11   -1    0    0    0    0  0.00000000000E+00  0.00000000000E+00  0.45593999997E+02  0.45594000000E+02  0.51100000000E-03 0. -1.
         11   -1    0    0    0    0 -0.00000000000E+00 -0.00000000000E+00 -0.45593999997E+02  0.45594000000E+02  0.51100000000E-03 0.  1.
    9900012    2    1    2    0    0  0.98961582113E+01  0.44102547218E+01  0.15274029109E+02  0.72461541198E+02  0.69999962097E+02 0.  0.
        -12    1    1    2    0    0 -0.98961582113E+01 -0.44102547218E+01 -0.15274029109E+02  0.18726458802E+02  0.00000000000E+00 0.  1.
         11    1    3    3    0    0 -0.13042008929E+01  0.21727473411E+00  0.32743776101E+02  0.32770459593E+02  0.51100000000E-03 0. -1.
        -11    1    3    3    0    0  0.57920807792E+01 -0.14514222871E+02 -0.43875968798E+01  0.16231508616E+02  0.51100000000E-03 0.  1.
         12    1    3    3    0    0  0.54082783250E+01  0.18707202859E+02 -0.13082150113E+02  0.23459572989E+02  0.00000000000E+00 0. -1.
</event>
<event>
 7    1  0.1358622E-013  0.7246165E+02  0.7816164E-02  0.1226708E+00
        -11   -1    0    0    0    0  0.00000000000E+00  0.00000000000E+00  0.45593999997E+02  0.45594000000E+02  0.51100000000E-03 0. -1.
         11   -1    0    0    0    0 -0.00000000000E+00 -0.00000000000E+00 -0.45593999997E+02  0.45594000000E+02  0.51100000000E-03 0.  1.
    9900012    2    1    2    0    0 -0.43136594512E+01  0.95181507044E+01  0.15539408406E+02  0.72461653204E+02  0.70000108006E+02 0.  0.
        -12    1    1    2    0    0  0.43136594512E+01 -0.95181507044E+01 -0.15539408406E+02  0.18726346796E+02  0.00000000000E+00 0.  1.
         11    1    3    3    0    0 -0.35306726169E+01  0.25697519028E+01 -0.71794189627E+01  0.84031738571E+01  0.51100000000E-03 0. -1.
        -11    1    3    3    0    0  0.28008080219E+02 -0.41777266708E+01  0.15795839121E+02  0.32425522224E+02  0.51100000000E-03 0.  1.
         12    1    3    3    0    0 -0.28791067053E+02  0.11126125472E+02  0.69229882478E+01  0.31632957123E+02  0.00000000000E+00 0. -1.
</event>
<event>
 7    1  0.1358622E-013  0.7246153E+02  0.7816164E-02  0.1226708E+00
        -11   -1    0    0    0    0  0.00000000000E+00  0.00000000000E+00  0.45593999997E+02  0.45594000000E+02  0.51100000000E-03 0. -1.
         11   -1    0    0    0    0 -0.00000000000E+00 -0.00000000000E+00 -0.45593999997E+02  0.45594000000E+02  0.51100000000E-03 0.  1.
    9900012    2    1    2    0    0  0.94783612884E+00 -0.18419709778E+02  0.32398438724E+01  0.72461529699E+02  0.69999947117E+02 0.  0.
        -12    1    1    2    0    0 -0.94783612884E+00  0.18419709778E+02 -0.32398438724E+01  0.18726470301E+02  0.00000000000E+00 0.  1.
         11    1    3    3    0    0 -0.82096048548E+01 -0.33977488521E+02  0.48612253050E+01  0.35291625775E+02  0.51100000000E-03 0. -1.
        -11    1    3    3    0    0 -0.18012666887E+01 -0.15902955562E+01 -0.13428710908E+02  0.13641989538E+02  0.51100000000E-03 0.  1.
        -12    1    3    3    0    0  0.10958707672E+02  0.17148074300E+02  0.11807329475E+02  0.23527914386E+02  0.00000000000E+00 0.  1.
</event>
<event>
 7    1  0.1358622E-013  0.7246152E+02  0.7816164E-02  0.1226708E+00
        -11   -1    0    0    0    0  0.00000000000E+00  0.00000000000E+00  0.45593999997E+02  0.45594000000E+02  0.51100000000E-03 0. -1.
         11   -1    0    0    0    0 -0.00000000000E+00 -0.00000000000E+00 -0.45593999997E+02  0.45594000000E+02  0.51100000000E-03 0.  1.
    9900012    2    1    2    0    0 -0.10352528969E+02  0.14608785188E+02  0.54853840254E+01  0.72461524127E+02  0.69999939858E+02 0.  0.
        -12    1    1    2    0    0  0.10352528969E+02 -0.14608785188E+02 -0.54853840254E+01  0.18726475873E+02  0.00000000000E+00 0.  1.
         11    1    3    3    0    0  0.28261672948E+01  0.20799183028E+01  0.15499112459E+01  0.38360796207E+01  0.51100000000E-03 0. -1.
        -11    1    3    3    0    0  0.19046129702E+02  0.19953180651E+02  0.17734100228E+02  0.32793029532E+02  0.51100000000E-03 0.  1.
         12    1    3    3    0    0 -0.32224825966E+02 -0.74243137661E+01 -0.13798627448E+02  0.35832414974E+02  0.00000000000E+00 0. -1.
</event>
<event>
 7    1  0.1358622E-013  0.7246157E+02  0.7816164E-02  0.1226708E+00
        -11   -1    0    0    0    0  0.00000000000E+00  0.00000000000E+00  0.45593999997E+02  0.45594000000E+02  0.51100000000E-03 0. -1.
         11   -1    0    0    0    0 -0.00000000000E+00 -0.00000000000E+00 -0.45593999997E+02  0.45594000000E+02  0.51100000000E-03 0.  1.
    9900012    2    1    2    0    0  0.11829562793E+02  0.65288547748E+01  0.12965910811E+02  0.72461565644E+02  0.69999993942E+02 0.  0.
        -12    1    1    2    0    0 -0.11829562793E+02 -0.65288547748E+01 -0.12965910811E+02  0.18726434356E+02  0.00000000000E+00 0.  1.
         11    1    3    3    0    0  0.18482874630E+02  0.69499842690E+01 -0.79649445638E+00  0.19762422412E+02  0.51100000000E-03 0. -1.
        -11    1    3    3    0    0  0.12034301355E+02  0.11510244763E+02 -0.10614135828E+02  0.19747658678E+02  0.51100000000E-03 0.  1.
         12    1    3    3    0    0 -0.18687613192E+02 -0.11931374257E+02  0.24376541096E+02  0.32951484554E+02  0.00000000000E+00 0. -1.
</event>
<event>
 7    1  0.1358622E-013  0.7246156E+02  0.7816164E-02  0.1226708E+00
        -11   -1    0    0    0    0  0.00000000000E+00  0.00000000000E+00  0.45593999997E+02  0.45594000000E+02  0.51100000000E-03 0. -1.
         11   -1    0    0    0    0 -0.00000000000E+00 -0.00000000000E+00 -0.45593999997E+02  0.45594000000E+02  0.51100000000E-03 0.  1.
    9900012    2    1    2    0    0  0.11705108787E+02 -0.86820412639E+01 -0.11759761999E+02  0.72461563754E+02  0.69999991479E+02 0.  0.
        -12    1    1    2    0    0 -0.11705108787E+02  0.86820412639E+01  0.11759761999E+02  0.18726436246E+02  0.00000000000E+00 0.  1.
         11    1    3    3    0    0  0.13541524006E+02 -0.14636553977E+02 -0.37724288285E+01  0.20293664140E+02  0.51100000000E-03 0. -1.
        -11    1    3    3    0    0  0.12991621409E+02  0.15198934940E+02 -0.22029989576E+02  0.29750803202E+02  0.51100000000E-03 0.  1.
         12    1    3    3    0    0 -0.14828036629E+02 -0.92444222276E+01  0.14042656406E+02  0.22417096411E+02  0.00000000000E+00 0. -1.
</event>
<event>
 7    1  0.1358622E-013  0.7246154E+02  0.7816164E-02  0.1226708E+00
        -11   -1    0    0    0    0  0.00000000000E+00  0.00000000000E+00  0.45593999997E+02  0.45594000000E+02  0.51100000000E-03 0.  1.
         11   -1    0    0    0    0 -0.00000000000E+00 -0.00000000000E+00 -0.45593999997E+02  0.45594000000E+02  0.51100000000E-03 0. -1.
    9900012    2    1    2    0    0  0.17354031429E+02 -0.44777982865E+01 -0.54283853744E+01  0.72461536049E+02  0.69999955389E+02 0.  0.
        -12    1    1    2    0    0 -0.17354031429E+02  0.44777982865E+01  0.54283853744E+01  0.18726463951E+02  0.00000000000E+00 0.  1.
         11    1    3    3    0    0  0.15494698987E+02 -0.24708722650E+02 -0.22304312113E+02  0.36716331663E+02  0.51100000000E-03 0. -1.
        -11    1    3    3    0    0  0.11452729758E+02  0.13918902744E+02  0.39459320176E+01  0.18451863111E+02  0.51100000000E-03 0.  1.
        -12    1    3    3    0    0 -0.95933973152E+01  0.63120216200E+01  0.12929994721E+02  0.17293341275E+02  0.00000000000E+00 0.  1.
</event>
<event>
 7    1  0.1358622E-013  0.7246153E+02  0.7816164E-02  0.1226708E+00
        -11   -1    0    0    0    0  0.00000000000E+00  0.00000000000E+00  0.45593999997E+02  0.45594000000E+02  0.51100000000E-03 0. -1.
         11   -1    0    0    0    0 -0.00000000000E+00 -0.00000000000E+00 -0.45593999997E+02  0.45594000000E+02  0.51100000000E-03 0.  1.
    9900012    2    1    2    0    0  0.13189990695E+01  0.12140734900E+02 -0.14196603349E+02  0.72461528119E+02  0.69999945058E+02 0.  0.
        -12    1    1    2    0    0 -0.13189990695E+01 -0.12140734900E+02  0.14196603349E+02  0.18726471881E+02  0.00000000000E+00 0.  1.
         11    1    3    3    0    0  0.19002980120E+02 -0.66137531964E+01  0.25876790170E+01  0.20286721464E+02  0.51100000000E-03 0. -1.
        -11    1    3    3    0    0 -0.24691082170E+02 -0.10674645602E+01 -0.18803343079E+02  0.31054061417E+02  0.51100000000E-03 0.  1.
         12    1    3    3    0    0  0.70071011192E+01  0.19821952657E+02  0.20190607123E+01  0.21120745237E+02  0.00000000000E+00 0. -1.
</event>
<event>
 7    1  0.1358622E-013  0.7246159E+02  0.7816164E-02  0.1226708E+00
        -11   -1    0    0    0    0  0.00000000000E+00  0.00000000000E+00  0.45593999997E+02  0.45594000000E+02  0.51100000000E-03 0. -1.
         11   -1    0    0    0    0 -0.00000000000E+00 -0.00000000000E+00 -0.45593999997E+02  0.45594000000E+02  0.51100000000E-03 0.  1.
    9900012    2    1    2    0    0 -0.10753449792E+02 -0.14782860390E+02 -0.40631230292E+01  0.72461585167E+02  0.70000019375E+02 0.  0.
        -12    1    1    2    0    0  0.10753449792E+02  0.14782860390E+02  0.40631230292E+01  0.18726414833E+02  0.00000000000E+00 0.  1.
         11    1    3    3    0    0  0.18471246219E+02 -0.76871369545E+01  0.96249590347E+01  0.22201775788E+02  0.51100000000E-03 0. -1.
        -11    1    3    3    0    0 -0.21119499766E+02  0.72231399771E+01  0.73972908534E+01  0.23514398434E+02  0.51100000000E-03 0.  1.
        -12    1    3    3    0    0 -0.81051962453E+01 -0.14318863412E+02 -0.21085372917E+02  0.26745410946E+02  0.00000000000E+00 0.  1.
</event>
<event>
 7    1  0.1358622E-013  0.7246159E+02  0.7816164E-02  0.1226708E+00
        -11   -1    0    0    0    0  0.00000000000E+00  0.00000000000E+00  0.45593999997E+02  0.45594000000E+02  0.51100000000E-03 0. -1.
         11   -1    0    0    0    0 -0.00000000000E+00 -0.00000000000E+00 -0.45593999997E+02  0.45594000000E+02  0.51100000000E-03 0.  1.
    9900012    2    1    2    0    0  0.10207635479E+02  0.65466579205E+01  0.14269684451E+02  0.72461589604E+02  0.70000025154E+02 0.  0.
        -12    1    1    2    0    0 -0.10207635479E+02 -0.65466579205E+01 -0.14269684451E+02  0.18726410396E+02  0.00000000000E+00 0.  1.
         11    1    3    3    0    0  0.16909780362E+02  0.67306890099E+01 -0.13285942567E+02  0.22533510969E+02  0.51100000000E-03 0. -1.
        -11    1    3    3    0    0  0.13959511382E+02  0.44203102765E+01 -0.65642858297E+00  0.14657353093E+02  0.51100000000E-03 0.  1.
         12    1    3    3    0    0 -0.20661656265E+02 -0.46043413659E+01  0.28212055601E+02  0.35270725542E+02  0.00000000000E+00 0. -1.
</event>
<event>
 7    1  0.1358622E-013  0.7246159E+02  0.7816164E-02  0.1226708E+00
        -11   -1    0    0    0    0  0.00000000000E+00  0.00000000000E+00  0.45593999997E+02  0.45594000000E+02  0.51100000000E-03 0. -1.
         11   -1    0    0    0    0 -0.00000000000E+00 -0.00000000000E+00 -0.45593999997E+02  0.45594000000E+02  0.51100000000E-03 0.  1.
    9900012    2    1    2    0    0 -0.14398396165E+02  0.10042037327E+02 -0.65208908671E+01  0.72461592349E+02  0.70000028731E+02 0.  0.
        -12    1    1    2    0    0  0.14398396165E+02 -0.10042037327E+02  0.65208908671E+01  0.18726407651E+02  0.00000000000E+00 0.  1.
         11    1    3    3    0    0 -0.11103172784E+02 -0.15384823770E+02 -0.42622955715E+01  0.19445832770E+02  0.51100000000E-03 0. -1.
        -11    1    3    3    0    0 -0.24454624269E+02  0.10666398280E+02 -0.47409433639E+01  0.27097550528E+02  0.51100000000E-03 0.  1.
        -12    1    3    3    0    0  0.21159400888E+02  0.14760462817E+02  0.24823480684E+01  0.25918209051E+02  0.00000000000E+00 0.  1.
</event>
<event>
 7    1  0.1358622E-013  0.7246158E+02  0.7816164E-02  0.1226708E+00
        -11   -1    0    0    0    0  0.00000000000E+00  0.00000000000E+00  0.45593999997E+02  0.45594000000E+02  0.51100000000E-03 0.  1.
         11   -1    0    0    0    0 -0.00000000000E+00 -0.00000000000E+00 -0.45593999997E+02  0.45594000000E+02  0.51100000000E-03 0. -1.
    9900012    2    1    2    0    0 -0.53521611643E+01 -0.10461171454E+02 -0.14580705737E+02  0.72461582374E+02  0.70000015736E+02 0.  0.
        -12    1    1    2    0    0  0.53521611643E+01  0.10461171454E+02  0.14580705737E+02  0.18726417626E+02  0.00000000000E+00 0.  1.
         11    1    3    3    0    0 -0.55766565546E-01 -0.26382923997E+01 -0.24884952393E+02  0.25024479066E+02  0.51100000000E-03 0. -1.
        -11    1    3    3    0    0 -0.62267421020E+00  0.17099522807E+02 -0.49915795513E+01  0.17824064353E+02  0.51100000000E-03 0.  1.
        -12    1    3    3    0    0 -0.46737203886E+01 -0.24922401860E+02  0.15295826207E+02  0.29613038955E+02  0.00000000000E+00 0.  1.
</event>
<event>
 7    1  0.1358622E-013  0.7246156E+02  0.7816164E-02  0.1226708E+00
        -11   -1    0    0    0    0  0.00000000000E+00  0.00000000000E+00  0.45593999997E+02  0.45594000000E+02  0.51100000000E-03 0. -1.
         11   -1    0    0    0    0 -0.00000000000E+00 -0.00000000000E+00 -0.45593999997E+02  0.45594000000E+02  0.51100000000E-03 0.  1.
    9900012    2    1    2    0    0 -0.16100543794E+02  0.79999395164E+01  0.52395488964E+01  0.72461563730E+02  0.69999991449E+02 0.  0.
        -12    1    1    2    0    0  0.16100543794E+02 -0.79999395164E+01 -0.52395488964E+01  0.18726436270E+02  0.00000000000E+00 0.  1.
         11    1    3    3    0    0  0.46222176505E+01 -0.13883501916E+02  0.60668821297E+01  0.15840567556E+02  0.51100000000E-03 0. -1.
        -11    1    3    3    0    0  0.67824403694E+01  0.23072048284E+01  0.16996292348E+02  0.18444474655E+02  0.51100000000E-03 0.  1.
        -12    1    3    3    0    0 -0.27505201814E+02  0.19576236604E+02 -0.17823625581E+02  0.38176521519E+02  0.00000000000E+00 0.  1.
</event>
<event>
 7    1  0.1358622E-013  0.7246160E+02  0.7816164E-02  0.1226708E+00
        -11   -1    0    0    0    0  0.00000000000E+00  0.00000000000E+00  0.45593999997E+02  0.45594000000E+02  0.51100000000E-03 0.  1.
         11   -1    0    0    0    0 -0.00000000000E+00 -0.00000000000E+00 -0.45593999997E+02  0.45594000000E+02  0.51100000000E-03 0. -1.
    9900012    2    1    2    0    0 -0.12279567714E+02  0.10689566219E+02 -0.92533023890E+01  0.72461595799E+02  0.70000033225E+02 0.  0.
        -12    1    1    2    0    0  0.12279567714E+02 -0.10689566219E+02  0.92533023890E+01  0.18726404201E+02  0.00000000000E+00 0.  1.
         11    1    3    3    0    0 -0.59032629836E+01  0.47575849932E+01  0.34394518338E+01  0.83254404087E+01  0.51100000000E-03 0. -1.
        -11    1    3    3    0    0 -0.25857426698E+02  0.19205337407E+02  0.75291702941E+01  0.33077785687E+02  0.51100000000E-03 0.  1.
         12    1    3    3    0    0  0.19481121968E+02 -0.13273356181E+02 -0.20221924517E+02  0.31058369703E+02  0.00000000000E+00 0. -1.
</event>
<event>
 7    1  0.1358622E-013  0.7246154E+02  0.7816164E-02  0.1226708E+00
        -11   -1    0    0    0    0  0.00000000000E+00  0.00000000000E+00  0.45593999997E+02  0.45594000000E+02  0.51100000000E-03 0. -1.
         11   -1    0    0    0    0 -0.00000000000E+00 -0.00000000000E+00 -0.45593999997E+02  0.45594000000E+02  0.51100000000E-03 0.  1.
    9900012    2    1    2    0    0 -0.16770202755E+02  0.72317243202E+01 -0.41404007488E+01  0.72461535960E+02  0.69999955273E+02 0.  0.
        -12    1    1    2    0    0  0.16770202755E+02 -0.72317243202E+01  0.41404007488E+01  0.18726464040E+02  0.00000000000E+00 0.  1.
         11    1    3    3    0    0  0.26769105986E+00 -0.16211743743E+02  0.22995013715E+02  0.28136505641E+02  0.51100000000E-03 0. -1.
        -11    1    3    3    0    0  0.39987553361E+01  0.65268044300E+01 -0.89475160464E+01  0.11774857280E+02  0.51100000000E-03 0.  1.
        -12    1    3    3    0    0 -0.21036649151E+02  0.16916663634E+02 -0.18187898417E+02  0.32550173038E+02  0.00000000000E+00 0.  1.
</event>
<event>
 7    1  0.1358622E-013  0.7246157E+02  0.7816164E-02  0.1226708E+00
        -11   -1    0    0    0    0  0.00000000000E+00  0.00000000000E+00  0.45593999997E+02  0.45594000000E+02  0.51100000000E-03 0. -1.
         11   -1    0    0    0    0 -0.00000000000E+00 -0.00000000000E+00 -0.45593999997E+02  0.45594000000E+02  0.51100000000E-03 0.  1.
    9900012    2    1    2    0    0  0.82237541619E+01 -0.56982978629E+01  0.15829669338E+02  0.72461570485E+02  0.70000000248E+02 0.  0.
        -12    1    1    2    0    0 -0.82237541619E+01  0.56982978629E+01 -0.15829669338E+02  0.18726429515E+02  0.00000000000E+00 0.  1.
         11    1    3    3    0    0  0.23124691974E+02 -0.11548211072E+02  0.36628989114E+01  0.26106117799E+02  0.51100000000E-03 0. -1.
        -11    1    3    3    0    0 -0.97031184362E+01  0.23916163342E+02  0.53474368832E+01  0.26357702060E+02  0.51100000000E-03 0.  1.
         12    1    3    3    0    0 -0.51978193758E+01 -0.18066250132E+02  0.68193335433E+01  0.19997750625E+02  0.00000000000E+00 0. -1.
</event>
<event>
 7    1  0.1358622E-013  0.7246149E+02  0.7816164E-02  0.1226708E+00
        -11   -1    0    0    0    0  0.00000000000E+00  0.00000000000E+00  0.45593999997E+02  0.45594000000E+02  0.51100000000E-03 0.  1.
         11   -1    0    0    0    0 -0.00000000000E+00 -0.00000000000E+00 -0.45593999997E+02  0.45594000000E+02  0.51100000000E-03 0. -1.
    9900012    2    1    2    0    0 -0.45036474138E+01  0.80320355550E+01 -0.16306006890E+02  0.72461486820E+02  0.69999891260E+02 0.  0.
        -12    1    1    2    0    0  0.45036474138E+01 -0.80320355550E+01  0.16306006890E+02  0.18726513180E+02  0.00000000000E+00 0.  1.
         11    1    3    3    0    0 -0.49327111060E+01 -0.36800684309E+01 -0.31921309911E+02  0.32509145932E+02  0.51100000000E-03 0. -1.
        -11    1    3    3    0    0  0.10896394204E+02 -0.45757679854E+01 -0.39167736319E+01  0.12450308239E+02  0.51100000000E-03 0.  1.
         12    1    3    3    0    0 -0.10467330512E+02  0.16287871971E+02  0.19532076654E+02  0.27502032649E+02  0.00000000000E+00 0. -1.
</event>
<event>
 7    1  0.1358622E-013  0.7246175E+02  0.7816164E-02  0.1226708E+00
        -11   -1    0    0    0    0  0.00000000000E+00  0.00000000000E+00  0.45593999997E+02  0.45594000000E+02  0.51100000000E-03 0.  1.
         11   -1    0    0    0    0 -0.00000000000E+00 -0.00000000000E+00 -0.45593999997E+02  0.45594000000E+02  0.51100000000E-03 0. -1.
    9900012    2    1    2    0    0  0.97912821717E+01 -0.15931149588E+02 -0.10009060926E+01  0.72461747124E+02  0.70000230353E+02 0.  0.
        -12    1    1    2    0    0 -0.97912821717E+01  0.15931149588E+02  0.10009060926E+01  0.18726252876E+02  0.00000000000E+00 0.  1.
         11    1    3    3    0    0  0.23190578059E+02 -0.79998094807E+01 -0.58762438555E+01  0.25225584325E+02  0.51100000000E-03 0.  1.
        -11    1    3    3    0    0 -0.18714345788E+02 -0.23209953237E+02  0.77507591981E+01  0.30805891254E+02  0.51100000000E-03 0. -1.
         12    1    3    3    0    0  0.53150499006E+01  0.15278613130E+02 -0.28754214352E+01  0.16430271545E+02  0.00000000000E+00 0. -1.
</event>
<event>
 7    1  0.1358622E-013  0.7246158E+02  0.7816164E-02  0.1226708E+00
        -11   -1    0    0    0    0  0.00000000000E+00  0.00000000000E+00  0.45593999997E+02  0.45594000000E+02  0.51100000000E-03 0.  1.
         11   -1    0    0    0    0 -0.00000000000E+00 -0.00000000000E+00 -0.45593999997E+02  0.45594000000E+02  0.51100000000E-03 0. -1.
    9900012    2    1    2    0    0 -0.18607407206E+02 -0.14474530881E+01 -0.15323139932E+01  0.72461582576E+02  0.70000015999E+02 0.  0.
        -12    1    1    2    0    0  0.18607407206E+02  0.14474530881E+01  0.15323139932E+01  0.18726417424E+02  0.00000000000E+00 0.  1.
         11    1    3    3    0    0 -0.34233251021E+01  0.10663358889E+02 -0.53241138586E+01  0.12400506691E+02  0.51100000000E-03 0. -1.
        -11    1    3    3    0    0  0.53830210649E+01  0.19299833375E+02 -0.66152982709E+01  0.21100299893E+02  0.51100000000E-03 0.  1.
         12    1    3    3    0    0 -0.20567103169E+02 -0.31410645353E+02  0.10407098136E+02  0.38960775992E+02  0.00000000000E+00 0. -1.
</event>
<event>
 7    1  0.1358622E-013  0.7246157E+02  0.7816164E-02  0.1226708E+00
        -11   -1    0    0    0    0  0.00000000000E+00  0.00000000000E+00  0.45593999997E+02  0.45594000000E+02  0.51100000000E-03 0. -1.
         11   -1    0    0    0    0 -0.00000000000E+00 -0.00000000000E+00 -0.45593999997E+02  0.45594000000E+02  0.51100000000E-03 0.  1.
    9900012    2    1    2    0    0  0.42686641741E+01 -0.18055989663E+02  0.25374969918E+01  0.72461570881E+02  0.70000000765E+02 0.  0.
        -12    1    1    2    0    0 -0.42686641741E+01  0.18055989663E+02 -0.25374969918E+01  0.18726429119E+02  0.00000000000E+00 0.  1.
         11    1    3    3    0    0 -0.11372604668E+02  0.52969571063E+01 -0.15948408014E+02  0.20291515714E+02  0.51100000000E-03 0.  1.
        -11    1    3    3    0    0  0.17402377468E+02  0.59556116195E+01  0.12405163567E+02  0.22185583938E+02  0.51100000000E-03 0. -1.
        -12    1    3    3    0    0 -0.17611086259E+01 -0.29308558389E+02  0.60807414389E+01  0.29984471229E+02  0.00000000000E+00 0.  1.
</event>
<event>
 7    1  0.1358622E-013  0.7246204E+02  0.7816164E-02  0.1226707E+00
        -11   -1    0    0    0    0  0.00000000000E+00  0.00000000000E+00  0.45593999997E+02  0.45594000000E+02  0.51100000000E-03 0.  1.
         11   -1    0    0    0    0 -0.00000000000E+00 -0.00000000000E+00 -0.45593999997E+02  0.45594000000E+02  0.51100000000E-03 0. -1.
    9900012    2    1    2    0    0 -0.43340590149E+01  0.86841795875E+01 -0.16014447458E+02  0.72462040210E+02  0.70000612150E+02 0.  0.
        -12    1    1    2    0    0  0.43340590149E+01 -0.86841795875E+01  0.16014447458E+02  0.18725959790E+02  0.00000000000E+00 0.  1.
         11    1    3    3    0    0 -0.67354197374E+00  0.26379791099E+01  0.12802039560E+01  0.30085735831E+01  0.51100000000E-03 0. -1.
        -11    1    3    3    0    0 -0.25606807236E+02  0.22973872872E+02  0.38160642125E+01  0.34613144294E+02  0.51100000000E-03 0.  1.
         12    1    3    3    0    0  0.21946290195E+02 -0.16927672395E+02 -0.21110715627E+02  0.34840322333E+02  0.00000000000E+00 0. -1.
</event>
<event>
 7    1  0.1358622E-013  0.7246154E+02  0.7816164E-02  0.1226708E+00
        -11   -1    0    0    0    0  0.00000000000E+00  0.00000000000E+00  0.45593999997E+02  0.45594000000E+02  0.51100000000E-03 0. -1.
         11   -1    0    0    0    0 -0.00000000000E+00 -0.00000000000E+00 -0.45593999997E+02  0.45594000000E+02  0.51100000000E-03 0.  1.
    9900012    2    1    2    0    0  0.48462404179E+01 -0.82204970819E+01  0.16112650313E+02  0.72461544954E+02  0.69999966990E+02 0.  0.
        -12    1    1    2    0    0 -0.48462404179E+01  0.82204970819E+01 -0.16112650313E+02  0.18726455046E+02  0.00000000000E+00 0.  1.
         11    1    3    3    0    0  0.26069438587E+01 -0.55373600713E+01  0.20995788953E+02  0.21869651731E+02  0.51100000000E-03 0. -1.
        -11    1    3    3    0    0 -0.11704308539E+02  0.58398929931E+01 -0.22834781981E+02  0.26315821419E+02  0.51100000000E-03 0.  1.
         12    1    3    3    0    0  0.13943605098E+02 -0.85230300037E+01  0.17951643342E+02  0.24276071804E+02  0.00000000000E+00 0. -1.
</event>
<event>
 7    1  0.1358622E-013  0.7246150E+02  0.7816164E-02  0.1226708E+00
        -11   -1    0    0    0    0  0.00000000000E+00  0.00000000000E+00  0.45593999997E+02  0.45594000000E+02  0.51100000000E-03 0.  1.
         11   -1    0    0    0    0 -0.00000000000E+00 -0.00000000000E+00 -0.45593999997E+02  0.45594000000E+02  0.51100000000E-03 0. -1.
    9900012    2    1    2    0    0 -0.13670921077E+01  0.69084997398E+01 -0.17351812507E+02  0.72461502550E+02  0.69999911750E+02 0.  0.
        -12    1    1    2    0    0  0.13670921077E+01 -0.69084997398E+01  0.17351812507E+02  0.18726497450E+02  0.00000000000E+00 0.  1.
         11    1    3    3    0    0  0.60894952555E+01 -0.22269922528E+02 -0.23267663673E+02  0.32778279012E+02  0.51100000000E-03 0. -1.
        -11    1    3    3    0    0 -0.65140286985E-01 -0.43542757122E+01 -0.14011487323E+01  0.45746232922E+01  0.51100000000E-03 0.  1.
        -12    1    3    3    0    0 -0.73914470763E+01  0.33532697980E+02  0.73169998991E+01  0.35108600246E+02  0.00000000000E+00 0.  1.
</event>
<event>
 7    1  0.1358622E-013  0.7246158E+02  0.7816164E-02  0.1226708E+00
        -11   -1    0    0    0    0  0.00000000000E+00  0.00000000000E+00  0.45593999997E+02  0.45594000000E+02  0.51100000000E-03 0.  1.
         11   -1    0    0    0    0 -0.00000000000E+00 -0.00000000000E+00 -0.45593999997E+02  0.45594000000E+02  0.51100000000E-03 0. -1.
    9900012    2    1    2    0    0 -0.38930745033E+01  0.11456587930E+02 -0.14292288991E+02  0.72461575870E+02  0.70000007263E+02 0.  0.
        -12    1    1    2    0    0  0.38930745033E+01 -0.11456587930E+02  0.14292288991E+02  0.18726424130E+02  0.00000000000E+00 0.  1.
         11    1    3    3    0    0 -0.18280096433E+02  0.15797704379E+02 -0.71182110255E+01  0.25187264991E+02  0.51100000000E-03 0. -1.
        -11    1    3    3    0    0  0.13868260237E+01  0.17525327055E+02  0.60644334546E+01  0.18596712833E+02  0.51100000000E-03 0.  1.
         12    1    3    3    0    0  0.13000195906E+02 -0.21866443503E+02 -0.13238511420E+02  0.28677598046E+02  0.00000000000E+00 0. -1.
</event>
<event>
 7    1  0.1358622E-013  0.7246156E+02  0.7816164E-02  0.1226708E+00
        -11   -1    0    0    0    0  0.00000000000E+00  0.00000000000E+00  0.45593999997E+02  0.45594000000E+02  0.51100000000E-03 0.  1.
         11   -1    0    0    0    0 -0.00000000000E+00 -0.00000000000E+00 -0.45593999997E+02  0.45594000000E+02  0.51100000000E-03 0. -1.
    9900012    2    1    2    0    0 -0.90189853890E+01  0.15273555651E+02  0.60046705673E+01  0.72461556977E+02  0.69999982652E+02 0.  0.
        -12    1    1    2    0    0  0.90189853890E+01 -0.15273555651E+02 -0.60046705673E+01  0.18726443023E+02  0.00000000000E+00 0.  1.
         11    1    3    3    0    0 -0.49922024035E+01  0.13722210713E+02  0.19916691291E+02  0.24696067378E+02  0.51100000000E-03 0. -1.
        -11    1    3    3    0    0  0.30883637824E+01  0.22030995671E+02 -0.46067818610E+00  0.22251179424E+02  0.51100000000E-03 0.  1.
        -12    1    3    3    0    0 -0.71151467680E+01 -0.20479650732E+02 -0.13451342538E+02  0.25514310175E+02  0.00000000000E+00 0.  1.
</event>
<event>
 7    1  0.1358622E-013  0.7246156E+02  0.7816164E-02  0.1226708E+00
        -11   -1    0    0    0    0  0.00000000000E+00  0.00000000000E+00  0.45593999997E+02  0.45594000000E+02  0.51100000000E-03 0. -1.
         11   -1    0    0    0    0 -0.00000000000E+00 -0.00000000000E+00 -0.45593999997E+02  0.45594000000E+02  0.51100000000E-03 0.  1.
    9900012    2    1    2    0    0  0.26677081922E+01 -0.17981550486E+02 -0.44974116026E+01  0.72461560509E+02  0.69999987253E+02 0.  0.
        -12    1    1    2    0    0 -0.26677081922E+01  0.17981550486E+02  0.44974116026E+01  0.18726439491E+02  0.00000000000E+00 0.  1.
         11    1    3    3    0    0 -0.14074693020E+01  0.42330850435E+01  0.23970084410E+02  0.24381651415E+02  0.51100000000E-03 0. -1.
        -11    1    3    3    0    0  0.10006367464E+02 -0.27283267769E+01  0.28182315435E+01  0.10747724695E+02  0.51100000000E-03 0.  1.
        -12    1    3    3    0    0 -0.59311899702E+01 -0.19486308753E+02 -0.31285727556E+02  0.37332184399E+02  0.00000000000E+00 0.  1.
</event>
<event>
 7    1  0.1358622E-013  0.7246176E+02  0.7816164E-02  0.1226708E+00
        -11   -1    0    0    0    0  0.00000000000E+00  0.00000000000E+00  0.45593999997E+02  0.45594000000E+02  0.51100000000E-03 0. -1.
         11   -1    0    0    0    0 -0.00000000000E+00 -0.00000000000E+00 -0.45593999997E+02  0.45594000000E+02  0.51100000000E-03 0.  1.
    9900012    2    1    2    0    0  0.10615225106E+02  0.10264594699E+02  0.11516382425E+02  0.72461762457E+02  0.70000250327E+02 0.  0.
        -12    1    1    2    0    0 -0.10615225106E+02 -0.10264594699E+02 -0.11516382425E+02  0.18726237543E+02  0.00000000000E+00 0.  1.
         11    1    3    3    0    0  0.37427858327E+01  0.32525053964E+02  0.16046755848E+02  0.36460745394E+02  0.51100000000E-03 0. -1.
        -11    1    3    3    0    0 -0.10998555730E+01  0.57223942910E+01  0.20366298933E+01  0.61727903160E+01  0.51100000000E-03 0.  1.
        -12    1    3    3    0    0  0.79722948461E+01 -0.27982853557E+02 -0.65670033164E+01  0.29828226747E+02  0.00000000000E+00 0.  1.
</event>
<event>
 7    1  0.1358622E-013  0.7246159E+02  0.7816164E-02  0.1226708E+00
        -11   -1    0    0    0    0  0.00000000000E+00  0.00000000000E+00  0.45593999997E+02  0.45594000000E+02  0.51100000000E-03 0.  1.
         11   -1    0    0    0    0 -0.00000000000E+00 -0.00000000000E+00 -0.45593999997E+02  0.45594000000E+02  0.51100000000E-03 0. -1.
    9900012    2    1    2    0    0 -0.16812835676E+02 -0.79056302304E+01 -0.23469400690E+01  0.72461586555E+02  0.70000021183E+02 0.  0.
        -12    1    1    2    0    0  0.16812835676E+02  0.79056302304E+01  0.23469400690E+01  0.18726413445E+02  0.00000000000E+00 0.  1.
         11    1    3    3    0    0 -0.20782656658E+02  0.22657176252E+00 -0.70845433159E+01  0.21958162646E+02  0.51100000000E-03 0. -1.
        -11    1    3    3    0    0 -0.17899444616E+02  0.87768441216E+01  0.10094247543E+02  0.22345400959E+02  0.51100000000E-03 0.  1.
         12    1    3    3    0    0  0.21869265599E+02 -0.16909046115E+02 -0.53566442962E+01  0.28158022950E+02  0.00000000000E+00 0. -1.
</event>
<event>
 7    1  0.1358622E-013  0.7246152E+02  0.7816164E-02  0.1226708E+00
        -11   -1    0    0    0    0  0.00000000000E+00  0.00000000000E+00  0.45593999997E+02  0.45594000000E+02  0.51100000000E-03 0.  1.
         11   -1    0    0    0    0 -0.00000000000E+00 -0.00000000000E+00 -0.45593999997E+02  0.45594000000E+02  0.51100000000E-03 0. -1.
    9900012    2    1    2    0    0 -0.14657043584E+02  0.32907863624E+01 -0.11181355613E+02  0.72461523693E+02  0.69999939293E+02 0.  0.
        -12    1    1    2    0    0  0.14657043584E+02 -0.32907863624E+01  0.11181355613E+02  0.18726476307E+02  0.00000000000E+00 0.  1.
         11    1    3    3    0    0 -0.14792598182E+01  0.43142071849E+01  0.50816637301E+00  0.45889897110E+01  0.51100000000E-03 0. -1.
        -11    1    3    3    0    0  0.90069569572E+01  0.27344113083E+02 -0.13536612988E+02  0.31812979825E+02  0.51100000000E-03 0.  1.
         12    1    3    3    0    0 -0.22184740723E+02 -0.28367533905E+02  0.18470910015E+01  0.36059554157E+02  0.00000000000E+00 0. -1.
</event>
<event>
 7    1  0.1358622E-013  0.7246144E+02  0.7816164E-02  0.1226708E+00
        -11   -1    0    0    0    0  0.00000000000E+00  0.00000000000E+00  0.45593999997E+02  0.45594000000E+02  0.51100000000E-03 0. -1.
         11   -1    0    0    0    0 -0.00000000000E+00 -0.00000000000E+00 -0.45593999997E+02  0.45594000000E+02  0.51100000000E-03 0.  1.
    9900012    2    1    2    0    0  0.10332755978E+02 -0.15161106527E+02  0.37495274986E+01  0.72461442556E+02  0.69999833597E+02 0.  0.
        -12    1    1    2    0    0 -0.10332755978E+02  0.15161106527E+02 -0.37495274986E+01  0.18726557444E+02  0.00000000000E+00 0.  1.
         11    1    3    3    0    0 -0.75779346090E+01  0.24760861364E+01 -0.71672900357E+01  0.10720361104E+02  0.51100000000E-03 0. -1.
        -11    1    3    3    0    0  0.31239276496E+02  0.43670626737E+01  0.16227462236E+02  0.35472442308E+02  0.51100000000E-03 0.  1.
         12    1    3    3    0    0 -0.13328585910E+02 -0.22004255338E+02 -0.53106447021E+01  0.26268639144E+02  0.00000000000E+00 0. -1.
</event>
<event>
 7    1  0.1358622E-013  0.7246143E+02  0.7816164E-02  0.1226708E+00
        -11   -1    0    0    0    0  0.00000000000E+00  0.00000000000E+00  0.45593999997E+02  0.45594000000E+02  0.51100000000E-03 0. -1.
         11   -1    0    0    0    0 -0.00000000000E+00 -0.00000000000E+00 -0.45593999997E+02  0.45594000000E+02  0.51100000000E-03 0.  1.
    9900012    2    1    2    0    0  0.10563552271E+02  0.13946956156E+02  0.66766874706E+01  0.72461431222E+02  0.69999818833E+02 0.  0.
        -12    1    1    2    0    0 -0.10563552271E+02 -0.13946956156E+02 -0.66766874706E+01  0.18726568778E+02  0.00000000000E+00 0.  1.
         11    1    3    3    0    0 -0.42689464406E+01 -0.17237795740E+02 -0.14946298484E+02  0.23211146984E+02  0.51100000000E-03 0. -1.
        -11    1    3    3    0    0 -0.12748965356E+00  0.11881366427E+02 -0.52043297535E+01  0.12971822163E+02  0.51100000000E-03 0.  1.
         12    1    3    3    0    0  0.14959988365E+02  0.19303385469E+02  0.26827315708E+02  0.36278462075E+02  0.00000000000E+00 0. -1.
</event>
<event>
 7    1  0.1358622E-013  0.7246153E+02  0.7816164E-02  0.1226708E+00
        -11   -1    0    0    0    0  0.00000000000E+00  0.00000000000E+00  0.45593999997E+02  0.45594000000E+02  0.51100000000E-03 0.  1.
         11   -1    0    0    0    0 -0.00000000000E+00 -0.00000000000E+00 -0.45593999997E+02  0.45594000000E+02  0.51100000000E-03 0. -1.
    9900012    2    1    2    0    0  0.52150222045E+01  0.17381818693E+02  0.46213343149E+01  0.72461526532E+02  0.69999942992E+02 0.  0.
        -12    1    1    2    0    0 -0.52150222045E+01 -0.17381818693E+02 -0.46213343149E+01  0.18726473468E+02  0.00000000000E+00 0.  1.
         11    1    3    3    0    0  0.32351092201E+01 -0.39386434177E+01  0.29219818694E+02  0.29661029119E+02  0.51100000000E-03 0. -1.
        -11    1    3    3    0    0 -0.23711263642E-01  0.33828992299E+01  0.62229834516E+01  0.70830849722E+01  0.51100000000E-03 0.  1.
         12    1    3    3    0    0  0.20036242480E+01  0.17937562881E+02 -0.30821467831E+02  0.35717412441E+02  0.00000000000E+00 0. -1.
</event>
<event>
 7    1  0.1358622E-013  0.7246154E+02  0.7816164E-02  0.1226708E+00
        -11   -1    0    0    0    0  0.00000000000E+00  0.00000000000E+00  0.45593999997E+02  0.45594000000E+02  0.51100000000E-03 0. -1.
         11   -1    0    0    0    0 -0.00000000000E+00 -0.00000000000E+00 -0.45593999997E+02  0.45594000000E+02  0.51100000000E-03 0.  1.
    9900012    2    1    2    0    0  0.16936488661E+02 -0.43704472942E+01 -0.66884065221E+01  0.72461541725E+02  0.69999962783E+02 0.  0.
        -12    1    1    2    0    0 -0.16936488661E+02  0.43704472942E+01  0.66884065221E+01  0.18726458275E+02  0.00000000000E+00 0.  1.
         11    1    3    3    0    0 -0.98183636557E+01  0.69580236909E+01 -0.46418192984E+01  0.12898094635E+02  0.51100000000E-03 0. -1.
        -11    1    3    3    0    0  0.22175084323E+02  0.10670809107E+02  0.17161337952E+02  0.30001867480E+02  0.51100000000E-03 0.  1.
        -12    1    3    3    0    0  0.45797679942E+01 -0.21999280092E+02 -0.19207925176E+02  0.29561579610E+02  0.00000000000E+00 0.  1.
</event>
<event>
 7    1  0.1358622E-013  0.7246161E+02  0.7816164E-02  0.1226708E+00
        -11   -1    0    0    0    0  0.00000000000E+00  0.00000000000E+00  0.45593999997E+02  0.45594000000E+02  0.51100000000E-03 0.  1.
         11   -1    0    0    0    0 -0.00000000000E+00 -0.00000000000E+00 -0.45593999997E+02  0.45594000000E+02  0.51100000000E-03 0. -1.
    9900012    2    1    2    0    0  0.34767389069E+01 -0.14159958654E+02 -0.11750985780E+02  0.72461606612E+02  0.70000047311E+02 0.  0.
        -12    1    1    2    0    0 -0.34767389069E+01  0.14159958654E+02  0.11750985780E+02  0.18726393388E+02  0.00000000000E+00 0.  1.
         11    1    3    3    0    0  0.67857601944E+01  0.49192863691E+01  0.13509785483E+02  0.15898434635E+02  0.51100000000E-03 0.  1.
        -11    1    3    3    0    0 -0.23791082529E+02 -0.11877013182E+02 -0.22194395499E+02  0.34636256176E+02  0.51100000000E-03 0. -1.
         12    1    3    3    0    0  0.20482061242E+02 -0.72022318416E+01 -0.30663757636E+01  0.21926915801E+02  0.00000000000E+00 0. -1.
</event>
<event>
 7    1  0.1358622E-013  0.7246158E+02  0.7816164E-02  0.1226708E+00
        -11   -1    0    0    0    0  0.00000000000E+00  0.00000000000E+00  0.45593999997E+02  0.45594000000E+02  0.51100000000E-03 0. -1.
         11   -1    0    0    0    0 -0.00000000000E+00 -0.00000000000E+00 -0.45593999997E+02  0.45594000000E+02  0.51100000000E-03 0.  1.
    9900012    2    1    2    0    0 -0.16189918593E+02  0.87685141178E+01  0.34173753175E+01  0.72461581284E+02  0.70000014315E+02 0.  0.
        -12    1    1    2    0    0  0.16189918593E+02 -0.87685141178E+01 -0.34173753175E+01  0.18726418716E+02  0.00000000000E+00 0.  1.
         11    1    3    3    0    0  0.11110639152E+02  0.14154512592E+02  0.21349566524E+01  0.18120556538E+02  0.51100000000E-03 0. -1.
        -11    1    3    3    0    0 -0.38888895258E+01  0.61272376813E+01  0.20624272178E+02  0.21863831011E+02  0.51100000000E-03 0.  1.
        -12    1    3    3    0    0 -0.23411668219E+02 -0.11513236155E+02 -0.19341853513E+02  0.32477193735E+02  0.00000000000E+00 0.  1.
</event>
<event>
 7    1  0.1358622E-013  0.7246158E+02  0.7816164E-02  0.1226708E+00
        -11   -1    0    0    0    0  0.00000000000E+00  0.00000000000E+00  0.45593999997E+02  0.45594000000E+02  0.51100000000E-03 0.  1.
         11   -1    0    0    0    0 -0.00000000000E+00 -0.00000000000E+00 -0.45593999997E+02  0.45594000000E+02  0.51100000000E-03 0. -1.
    9900012    2    1    2    0    0 -0.95579779626E-01 -0.10547194685E+01 -0.18696450493E+02  0.72461579368E+02  0.70000011820E+02 0.  0.
        -12    1    1    2    0    0  0.95579779626E-01  0.10547194685E+01  0.18696450493E+02  0.18726420632E+02  0.00000000000E+00 0.  1.
         11    1    3    3    0    0 -0.60123440941E+01  0.34492504391E+01 -0.74044301243E+01  0.10142543854E+02  0.51100000000E-03 0. -1.
        -11    1    3    3    0    0 -0.11918406674E+02 -0.16652421473E+02  0.17084744918E+02  0.26669084494E+02  0.51100000000E-03 0.  1.
         12    1    3    3    0    0  0.17835170988E+02  0.12148451566E+02 -0.28376765287E+02  0.35649951020E+02  0.00000000000E+00 0. -1.
</event>
<event>
 7    1  0.1358622E-013  0.7246158E+02  0.7816164E-02  0.1226708E+00
        -11   -1    0    0    0    0  0.00000000000E+00  0.00000000000E+00  0.45593999997E+02  0.45594000000E+02  0.51100000000E-03 0.  1.
         11   -1    0    0    0    0 -0.00000000000E+00 -0.00000000000E+00 -0.45593999997E+02  0.45594000000E+02  0.51100000000E-03 0. -1.
    9900012    2    1    2    0    0 -0.16067987628E+02 -0.95915521624E+01 -0.70749761175E+00  0.72461584108E+02  0.70000017994E+02 0.  0.
        -12    1    1    2    0    0  0.16067987628E+02  0.95915521624E+01  0.70749761175E+00  0.18726415892E+02  0.00000000000E+00 0.  1.
         11    1    3    3    0    0 -0.14780333806E+02  0.20308332536E+02 -0.17594932884E+02  0.30667055635E+02  0.51100000000E-03 0. -1.
        -11    1    3    3    0    0 -0.60864438354E+01 -0.42868661671E+01  0.13633258459E+02  0.15533439946E+02  0.51100000000E-03 0.  1.
        -12    1    3    3    0    0  0.47987900137E+01 -0.25613018531E+02  0.32541768138E+01  0.26261088527E+02  0.00000000000E+00 0.  1.
</event>
<event>
 7    1  0.1358622E-013  0.7246160E+02  0.7816164E-02  0.1226708E+00
        -11   -1    0    0    0    0  0.00000000000E+00  0.00000000000E+00  0.45593999997E+02  0.45594000000E+02  0.51100000000E-03 0.  1.
         11   -1    0    0    0    0 -0.00000000000E+00 -0.00000000000E+00 -0.45593999997E+02  0.45594000000E+02  0.51100000000E-03 0. -1.
    9900012    2    1    2    0    0 -0.18605053926E+01  0.14560477524E+02 -0.11627943404E+02  0.72461600083E+02  0.70000038806E+02 0.  0.
        -12    1    1    2    0    0  0.18605053926E+01 -0.14560477524E+02  0.11627943404E+02  0.18726399917E+02  0.00000000000E+00 0.  1.
         11    1    3    3    0    0 -0.16826060171E+02  0.14259716788E+02  0.33402713341E+01  0.22307246280E+02  0.51100000000E-03 0. -1.
        -11    1    3    3    0    0  0.20828864870E+02  0.12473143424E+02  0.61859466956E+01  0.25053679479E+02  0.51100000000E-03 0.  1.
         12    1    3    3    0    0 -0.58633100916E+01 -0.12172382688E+02 -0.21154161434E+02  0.25100674324E+02  0.00000000000E+00 0. -1.
</event>
<event>
 7    1  0.1358622E-013  0.7246170E+02  0.7816164E-02  0.1226708E+00
        -11   -1    0    0    0    0  0.00000000000E+00  0.00000000000E+00  0.45593999997E+02  0.45594000000E+02  0.51100000000E-03 0.  1.
         11   -1    0    0    0    0 -0.00000000000E+00 -0.00000000000E+00 -0.45593999997E+02  0.45594000000E+02  0.51100000000E-03 0. -1.
    9900012    2    1    2    0    0 -0.17134016055E+02  0.59152392564E+01  0.47021199213E+01  0.72461695148E+02  0.70000162645E+02 0.  0.
        -12    1    1    2    0    0  0.17134016055E+02 -0.59152392564E+01 -0.47021199213E+01  0.18726304852E+02  0.00000000000E+00 0.  1.
         11    1    3    3    0    0  0.95570930873E+01  0.10523613090E+02  0.12208424100E+02  0.18738465252E+02  0.51100000000E-03 0. -1.
        -11    1    3    3    0    0  0.11007484936E+02  0.58357184109E+01  0.37614831748E+01  0.13014188024E+02  0.51100000000E-03 0.  1.
         12    1    3    3    0    0 -0.37698594079E+02 -0.10444092245E+02 -0.11267787353E+02  0.40709041872E+02  0.00000000000E+00 0. -1.
</event>
<event>
 7    1  0.1358622E-013  0.7246170E+02  0.7816164E-02  0.1226708E+00
        -11   -1    0    0    0    0  0.00000000000E+00  0.00000000000E+00  0.45593999997E+02  0.45594000000E+02  0.51100000000E-03 0. -1.
         11   -1    0    0    0    0 -0.00000000000E+00 -0.00000000000E+00 -0.45593999997E+02  0.45594000000E+02  0.51100000000E-03 0.  1.
    9900012    2    1    2    0    0  0.51594042020E+01  0.10979690473E+02  0.14265380248E+02  0.72461704899E+02  0.70000175347E+02 0.  0.
        -12    1    1    2    0    0 -0.51594042020E+01 -0.10979690473E+02 -0.14265380248E+02  0.18726295101E+02  0.00000000000E+00 0.  1.
         11    1    3    3    0    0  0.33896460547E+01  0.43903599756E+01  0.11364532954E+02  0.12645851914E+02  0.51100000000E-03 0. -1.
        -11    1    3    3    0    0  0.29785018755E+02 -0.34177445859E+01  0.76140509165E+00  0.29990132682E+02  0.51100000000E-03 0.  1.
         12    1    3    3    0    0 -0.28015260608E+02  0.10007075083E+02  0.21394422021E+01  0.29825720303E+02  0.00000000000E+00 0. -1.
</event>
<event>
 7    1  0.1358622E-013  0.7246165E+02  0.7816164E-02  0.1226708E+00
        -11   -1    0    0    0    0  0.00000000000E+00  0.00000000000E+00  0.45593999997E+02  0.45594000000E+02  0.51100000000E-03 0.  1.
         11   -1    0    0    0    0 -0.00000000000E+00 -0.00000000000E+00 -0.45593999997E+02  0.45594000000E+02  0.51100000000E-03 0. -1.
    9900012    2    1    2    0    0 -0.19524286832E+01 -0.13972933574E+02 -0.12313467340E+02  0.72461646154E+02  0.70000098821E+02 0.  0.
        -12    1    1    2    0    0  0.19524286832E+01  0.13972933574E+02  0.12313467340E+02  0.18726353846E+02  0.00000000000E+00 0.  1.
         11    1    3    3    0    0 -0.61148813255E+01  0.15940376654E+02 -0.18090367165E+02  0.24874661122E+02  0.51100000000E-03 0. -1.
        -11    1    3    3    0    0  0.22493804172E+01  0.74436175635E+01 -0.42484157849E+01  0.88609362731E+01  0.51100000000E-03 0.  1.
        -12    1    3    3    0    0  0.19130722251E+01 -0.37356927792E+02  0.10025315610E+02  0.38726048759E+02  0.00000000000E+00 0.  1.
</event>
<event>
 7    1  0.1574242E-013  0.7246162E+02  0.7816164E-02  0.1226708E+00
        -11   -1    0    0    0    0  0.00000000000E+00  0.00000000000E+00  0.45593999997E+02  0.45594000000E+02  0.51100000000E-03 0. -1.
         11   -1    0    0    0    0 -0.00000000000E+00 -0.00000000000E+00 -0.45593999997E+02  0.45594000000E+02  0.51100000000E-03 0.  1.
    9900012    2    1    2    0    0  0.10149305419E+02  0.12108237425E+02  0.10052842570E+02  0.72461615999E+02  0.70000059538E+02 0.  0.
        -12    1    1    2    0    0 -0.10149305419E+02 -0.12108237425E+02 -0.10052842570E+02  0.18726384001E+02  0.00000000000E+00 0.  1.
         11    1    3    3    0    0  0.16830492377E+02  0.32402821012E+02 -0.13628577451E+01  0.36538550391E+02  0.51100000000E-03 0. -1.
        -11    1    3    3    0    0  0.97632065513E+00  0.48645815460E+01 -0.31333793990E+01  0.58681702735E+01  0.51100000000E-03 0.  1.
        -12    1    3    3    0    0 -0.76575076135E+01 -0.25159165133E+02  0.14549079714E+02  0.30054895334E+02  0.00000000000E+00 0.  1.
</event>
<event>
 7    1  0.1358622E-013  0.7246160E+02  0.7816164E-02  0.1226708E+00
        -11   -1    0    0    0    0  0.00000000000E+00  0.00000000000E+00  0.45593999997E+02  0.45594000000E+02  0.51100000000E-03 0.  1.
         11   -1    0    0    0    0 -0.00000000000E+00 -0.00000000000E+00 -0.45593999997E+02  0.45594000000E+02  0.51100000000E-03 0. -1.
    9900012    2    1    2    0    0 -0.66105752032E+01  0.17284363793E+02 -0.28686547425E+01  0.72461598416E+02  0.70000036634E+02 0.  0.
        -12    1    1    2    0    0  0.66105752032E+01 -0.17284363793E+02  0.28686547425E+01  0.18726401584E+02  0.00000000000E+00 0.  1.
         11    1    3    3    0    0  0.11887856670E+02  0.80297047647E+00  0.80425472422E+01  0.14375272665E+02  0.51100000000E-03 0. -1.
        -11    1    3    3    0    0 -0.63746542967E+01  0.30040897773E+02  0.81155415460E+01  0.31764032667E+02  0.51100000000E-03 0.  1.
         12    1    3    3    0    0 -0.12123777576E+02 -0.13559504457E+02 -0.19026743531E+02  0.26322293084E+02  0.00000000000E+00 0. -1.
</event>
<event>
 7    1  0.1358622E-013  0.7246156E+02  0.7816164E-02  0.1226708E+00
        -11   -1    0    0    0    0  0.00000000000E+00  0.00000000000E+00  0.45593999997E+02  0.45594000000E+02  0.51100000000E-03 0.  1.
         11   -1    0    0    0    0 -0.00000000000E+00 -0.00000000000E+00 -0.45593999997E+02  0.45594000000E+02  0.51100000000E-03 0. -1.
    9900012    2    1    2    0    0  0.12255460710E+02 -0.20740952258E+01 -0.14006472309E+02  0.72461562679E+02  0.69999990079E+02 0.  0.
        -12    1    1    2    0    0 -0.12255460710E+02  0.20740952258E+01  0.14006472309E+02  0.18726437321E+02  0.00000000000E+00 0.  1.
         11    1    3    3    0    0  0.70427388809E+01  0.21647535031E+01  0.16915046497E+02  0.18450071191E+02  0.51100000000E-03 0. -1.
        -11    1    3    3    0    0  0.10435811860E+02  0.92402153413E+01  0.53774256817E+01  0.14940028647E+02  0.51100000000E-03 0.  1.
         12    1    3    3    0    0 -0.52230900316E+01 -0.13479064070E+02 -0.36298944487E+02  0.39071462842E+02  0.00000000000E+00 0. -1.
</event>
<event>
 7    1  0.1358622E-013  0.7246149E+02  0.7816164E-02  0.1226708E+00
        -11   -1    0    0    0    0  0.00000000000E+00  0.00000000000E+00  0.45593999997E+02  0.45594000000E+02  0.51100000000E-03 0. -1.
         11   -1    0    0    0    0 -0.00000000000E+00 -0.00000000000E+00 -0.45593999997E+02  0.45594000000E+02  0.51100000000E-03 0.  1.
    9900012    2    1    2    0    0  0.70720551954E+01  0.28123094721E+01  0.17110203839E+02  0.72461491391E+02  0.69999897214E+02 0.  0.
        -12    1    1    2    0    0 -0.70720551954E+01 -0.28123094721E+01 -0.17110203839E+02  0.18726508609E+02  0.00000000000E+00 0.  1.
         11    1    3    3    0    0  0.86899950465E+01 -0.47669580817E+00 -0.15089712530E+02  0.17419606118E+02  0.51100000000E-03 0. -1.
        -11    1    3    3    0    0  0.14440150579E+02 -0.14593627153E+02  0.16437204899E+02  0.26299688352E+02  0.51100000000E-03 0.  1.
         12    1    3    3    0    0 -0.16058090430E+02  0.17882632433E+02  0.15762711470E+02  0.28742196922E+02  0.00000000000E+00 0. -1.
</event>
<event>
 7    1  0.1358622E-013  0.7246162E+02  0.7816164E-02  0.1226708E+00
        -11   -1    0    0    0    0  0.00000000000E+00  0.00000000000E+00  0.45593999997E+02  0.45594000000E+02  0.51100000000E-03 0.  1.
         11   -1    0    0    0    0 -0.00000000000E+00 -0.00000000000E+00 -0.45593999997E+02  0.45594000000E+02  0.51100000000E-03 0. -1.
    9900012    2    1    2    0    0 -0.16388633759E+02 -0.44258773882E+01 -0.79058059796E+01  0.72461615530E+02  0.70000058928E+02 0.  0.
        -12    1    1    2    0    0  0.16388633759E+02  0.44258773882E+01  0.79058059796E+01  0.18726384470E+02  0.00000000000E+00 0.  1.
         11    1    3    3    0    0 -0.10491289512E+02 -0.14547480937E+02 -0.21069362870E+02  0.27669738149E+02  0.51100000000E-03 0. -1.
        -11    1    3    3    0    0  0.11207751885E+02 -0.95793971334E+01 -0.15726609201E+01  0.14827400797E+02  0.51100000000E-03 0.  1.
        -12    1    3    3    0    0 -0.17105096132E+02  0.19701000683E+02  0.14736217810E+02  0.29964476584E+02  0.00000000000E+00 0.  1.
</event>
<event>
 7    1  0.1358622E-013  0.7246161E+02  0.7816164E-02  0.1226708E+00
        -11   -1    0    0    0    0  0.00000000000E+00  0.00000000000E+00  0.45593999997E+02  0.45594000000E+02  0.51100000000E-03 0. -1.
         11   -1    0    0    0    0 -0.00000000000E+00 -0.00000000000E+00 -0.45593999997E+02  0.45594000000E+02  0.51100000000E-03 0.  1.
    9900012    2    1    2    0    0  0.15295102016E+01  0.26184321574E+01  0.18479233110E+02  0.72461611006E+02  0.70000053034E+02 0.  0.
        -12    1    1    2    0    0 -0.15295102016E+01 -0.26184321574E+01 -0.18479233110E+02  0.18726388994E+02  0.00000000000E+00 0.  1.
         11    1    3    3    0    0  0.96480339155E+01  0.69445872396E+01  0.36139915585E+02  0.38044780839E+02  0.51100000000E-03 0. -1.
        -11    1    3    3    0    0 -0.15217915753E+02 -0.33844925082E+01 -0.25104665112E+00  0.15591753400E+02  0.51100000000E-03 0.  1.
        -12    1    3    3    0    0  0.70993920394E+01 -0.94166257401E+00 -0.17409635824E+02  0.18825076766E+02  0.00000000000E+00 0.  1.
</event>
<event>
 7    1  0.1358622E-013  0.7246157E+02  0.7816164E-02  0.1226708E+00
        -11   -1    0    0    0    0  0.00000000000E+00  0.00000000000E+00  0.45593999997E+02  0.45594000000E+02  0.51100000000E-03 0. -1.
         11   -1    0    0    0    0 -0.00000000000E+00 -0.00000000000E+00 -0.45593999997E+02  0.45594000000E+02  0.51100000000E-03 0.  1.
    9900012    2    1    2    0    0  0.91905432292E+01  0.29239164067E+01  0.16051912495E+02  0.72461567698E+02  0.69999996618E+02 0.  0.
        -12    1    1    2    0    0 -0.91905432292E+01 -0.29239164067E+01 -0.16051912495E+02  0.18726432302E+02  0.00000000000E+00 0.  1.
         11    1    3    3    0    0  0.36236192691E+01 -0.13250368829E+01 -0.65325385442E+01  0.75868570200E+01  0.51100000000E-03 0. -1.
        -11    1    3    3    0    0  0.97274580755E+01 -0.15803658683E+02 -0.13797522545E+02  0.23124677230E+02  0.51100000000E-03 0.  1.
         12    1    3    3    0    0 -0.41605341153E+01  0.20052611973E+02  0.36381973584E+02  0.41750033448E+02  0.00000000000E+00 0. -1.
</event>
<event>
 7    1  0.1358622E-013  0.7246186E+02  0.7816164E-02  0.1226707E+00
        -11   -1    0    0    0    0  0.00000000000E+00  0.00000000000E+00  0.45593999997E+02  0.45594000000E+02  0.51100000000E-03 0.  1.
         11   -1    0    0    0    0 -0.00000000000E+00 -0.00000000000E+00 -0.45593999997E+02  0.45594000000E+02  0.51100000000E-03 0. -1.
    9900012    2    1    2    0    0 -0.34403442265E+00 -0.12263299219E+01 -0.18682777139E+02  0.72461857675E+02  0.70000374365E+02 0.  0.
        -12    1    1    2    0    0  0.34403442265E+00  0.12263299219E+01  0.18682777139E+02  0.18726142325E+02  0.00000000000E+00 0.  1.
         11    1    3    3    0    0  0.85351985150E+01 -0.30071457305E+02  0.36948775895E+01  0.31476884833E+02  0.51100000000E-03 0. -1.
        -11    1    3    3    0    0  0.31871837818E+01  0.13016544547E+01  0.96264618439E-01  0.34440836105E+01  0.51100000000E-03 0.  1.
        -12    1    3    3    0    0 -0.12066416719E+02  0.27543472929E+02 -0.22473919347E+02  0.37540889231E+02  0.00000000000E+00 0.  1.
</event>
<event>
 7    1  0.1358622E-013  0.7246158E+02  0.7816164E-02  0.1226708E+00
        -11   -1    0    0    0    0  0.00000000000E+00  0.00000000000E+00  0.45593999997E+02  0.45594000000E+02  0.51100000000E-03 0. -1.
         11   -1    0    0    0    0 -0.00000000000E+00 -0.00000000000E+00 -0.45593999997E+02  0.45594000000E+02  0.51100000000E-03 0.  1.
    9900012    2    1    2    0    0  0.13527756321E+01 -0.16324843380E+02  0.90745971147E+01  0.72461579464E+02  0.70000011945E+02 0.  0.
        -12    1    1    2    0    0 -0.13527756321E+01  0.16324843380E+02 -0.90745971147E+01  0.18726420536E+02  0.00000000000E+00 0.  1.
         11    1    3    3    0    0 -0.40417224967E+01 -0.82592234157E+01 -0.17968369294E+01  0.93690402595E+01  0.51100000000E-03 0. -1.
        -11    1    3    3    0    0 -0.19539019393E+02 -0.41898826535E+01 -0.16463590451E+02  0.25891662872E+02  0.51100000000E-03 0.  1.
        -12    1    3    3    0    0  0.24933517522E+02 -0.38757373109E+01  0.27335024495E+02  0.37200876332E+02  0.00000000000E+00 0.  1.
</event>
<event>
 7    1  0.1358622E-013  0.7246153E+02  0.7816164E-02  0.1226708E+00
        -11   -1    0    0    0    0  0.00000000000E+00  0.00000000000E+00  0.45593999997E+02  0.45594000000E+02  0.51100000000E-03 0. -1.
         11   -1    0    0    0    0 -0.00000000000E+00 -0.00000000000E+00 -0.45593999997E+02  0.45594000000E+02  0.51100000000E-03 0.  1.
    9900012    2    1    2    0    0  0.82540490513E+01  0.25116594749E+01  0.16620560181E+02  0.72461527300E+02  0.69999943992E+02 0.  0.
        -12    1    1    2    0    0 -0.82540490513E+01 -0.25116594749E+01 -0.16620560181E+02  0.18726472700E+02  0.00000000000E+00 0.  1.
         11    1    3    3    0    0 -0.62313602011E+01 -0.13620618106E+02  0.26431406721E+01  0.15209775818E+02  0.51100000000E-03 0. -1.
        -11    1    3    3    0    0  0.27576925687E+02  0.11764710576E+02  0.25433093484E+02  0.39315868167E+02  0.51100000000E-03 0.  1.
         12    1    3    3    0    0 -0.13091516434E+02  0.43675670048E+01 -0.11455673975E+02  0.17935883316E+02  0.00000000000E+00 0. -1.
</event>
<event>
 7    1  0.1358622E-013  0.7246160E+02  0.7816164E-02  0.1226708E+00
        -11   -1    0    0    0    0  0.00000000000E+00  0.00000000000E+00  0.45593999997E+02  0.45594000000E+02  0.51100000000E-03 0. -1.
         11   -1    0    0    0    0 -0.00000000000E+00 -0.00000000000E+00 -0.45593999997E+02  0.45594000000E+02  0.51100000000E-03 0.  1.
    9900012    2    1    2    0    0 -0.13125450117E+02  0.50692796737E+00 -0.13347043421E+02  0.72461601926E+02  0.70000041206E+02 0.  0.
        -12    1    1    2    0    0  0.13125450117E+02 -0.50692796737E+00  0.13347043421E+02  0.18726398074E+02  0.00000000000E+00 0.  1.
         11    1    3    3    0    0  0.17639923890E+02 -0.14964624520E+02  0.13903964221E+02  0.26989389086E+02  0.51100000000E-03 0. -1.
        -11    1    3    3    0    0  0.33612539023E+00  0.19282682038E+01  0.37097027474E-02  0.19573483509E+01  0.51100000000E-03 0.  1.
         12    1    3    3    0    0 -0.31101499398E+02  0.13543284284E+02 -0.27254717345E+02  0.43514864489E+02  0.00000000000E+00 0. -1.
</event>
<event>
 7    1  0.1358622E-013  0.7246156E+02  0.7816164E-02  0.1226708E+00
        -11   -1    0    0    0    0  0.00000000000E+00  0.00000000000E+00  0.45593999997E+02  0.45594000000E+02  0.51100000000E-03 0.  1.
         11   -1    0    0    0    0 -0.00000000000E+00 -0.00000000000E+00 -0.45593999997E+02  0.45594000000E+02  0.51100000000E-03 0. -1.
    9900012    2    1    2    0    0 -0.18220525819E+02 -0.31063357780E+01 -0.30071218779E+01  0.72461557063E+02  0.69999982764E+02 0.  0.
        -12    1    1    2    0    0  0.18220525819E+02  0.31063357780E+01  0.30071218779E+01  0.18726442937E+02  0.00000000000E+00 0.  1.
         11    1    3    3    0    0  0.22669964880E+01  0.22739489551E+00 -0.20186488906E+02  0.20314657667E+02  0.51100000000E-03 0. -1.
        -11    1    3    3    0    0 -0.25075621575E+01 -0.10328705107E+02 -0.12712115255E+02  0.16570090274E+02  0.51100000000E-03 0.  1.
        -12    1    3    3    0    0 -0.17979960149E+02  0.69949744337E+01  0.29891482283E+02  0.35576809123E+02  0.00000000000E+00 0.  1.
</event>
<event>
 7    1  0.1358622E-013  0.7246158E+02  0.7816164E-02  0.1226708E+00
        -11   -1    0    0    0    0  0.00000000000E+00  0.00000000000E+00  0.45593999997E+02  0.45594000000E+02  0.51100000000E-03 0.  1.
         11   -1    0    0    0    0 -0.00000000000E+00 -0.00000000000E+00 -0.45593999997E+02  0.45594000000E+02  0.51100000000E-03 0. -1.
    9900012    2    1    2    0    0 -0.56516097473E+01 -0.41084437226E+01 -0.17374081217E+02  0.72461582812E+02  0.70000016307E+02 0.  0.
        -12    1    1    2    0    0  0.56516097473E+01  0.41084437226E+01  0.17374081217E+02  0.18726417188E+02  0.00000000000E+00 0.  1.
         11    1    3    3    0    0 -0.13727960973E+02  0.86779944664E+01  0.75197376386E+00  0.16258227617E+02  0.51100000000E-03 0. -1.
        -11    1    3    3    0    0 -0.19781975334E+02  0.46664167996E+01 -0.71290532865E+01  0.21538927431E+02  0.51100000000E-03 0.  1.
         12    1    3    3    0    0  0.27858326560E+02 -0.17452854989E+02 -0.10997001694E+02  0.34664427764E+02  0.00000000000E+00 0. -1.
</event>
<event>
 7    1  0.1358622E-013  0.7246156E+02  0.7816164E-02  0.1226708E+00
        -11   -1    0    0    0    0  0.00000000000E+00  0.00000000000E+00  0.45593999997E+02  0.45594000000E+02  0.51100000000E-03 0.  1.
         11   -1    0    0    0    0 -0.00000000000E+00 -0.00000000000E+00 -0.45593999997E+02  0.45594000000E+02  0.51100000000E-03 0. -1.
    9900012    2    1    2    0    0  0.15253892000E+02 -0.37840649597E+00 -0.10856109814E+02  0.72461560591E+02  0.69999987360E+02 0.  0.
        -12    1    1    2    0    0 -0.15253892000E+02  0.37840649597E+00  0.10856109814E+02  0.18726439409E+02  0.00000000000E+00 0.  1.
         11    1    3    3    0    0 -0.45552769083E+01  0.13587995529E+01  0.16551497025E+02  0.17220596330E+02  0.51100000000E-03 0. -1.
        -11    1    3    3    0    0  0.33821684897E+02 -0.55983387733E+00 -0.17943387539E+02  0.38290794453E+02  0.51100000000E-03 0.  1.
         12    1    3    3    0    0 -0.14012515988E+02 -0.11773721715E+01 -0.94642193005E+01  0.16950169808E+02  0.00000000000E+00 0. -1.
</event>
<event>
 7    1  0.1358622E-013  0.7246151E+02  0.7816164E-02  0.1226708E+00
        -11   -1    0    0    0    0  0.00000000000E+00  0.00000000000E+00  0.45593999997E+02  0.45594000000E+02  0.51100000000E-03 0.  1.
         11   -1    0    0    0    0 -0.00000000000E+00 -0.00000000000E+00 -0.45593999997E+02  0.45594000000E+02  0.51100000000E-03 0. -1.
    9900012    2    1    2    0    0  0.52803712456E+01 -0.13517190246E+02 -0.11835730392E+02  0.72461514303E+02  0.69999927061E+02 0.  0.
        -12    1    1    2    0    0 -0.52803712456E+01  0.13517190246E+02  0.11835730392E+02  0.18726485697E+02  0.00000000000E+00 0.  1.
         11    1    3    3    0    0 -0.75436705110E+01 -0.15574977852E+02 -0.66421022214E+01  0.18536569857E+02  0.51100000000E-03 0. -1.
        -11    1    3    3    0    0 -0.17437785453E+00  0.19060496909E+02 -0.20209557458E+02  0.27780553683E+02  0.51100000000E-03 0.  1.
        -12    1    3    3    0    0  0.12998419611E+02 -0.17002709302E+02  0.15015929287E+02  0.26144390763E+02  0.00000000000E+00 0.  1.
</event>
<event>
 7    1  0.1358622E-013  0.7246156E+02  0.7816164E-02  0.1226708E+00
        -11   -1    0    0    0    0  0.00000000000E+00  0.00000000000E+00  0.45593999997E+02  0.45594000000E+02  0.51100000000E-03 0. -1.
         11   -1    0    0    0    0 -0.00000000000E+00 -0.00000000000E+00 -0.45593999997E+02  0.45594000000E+02  0.51100000000E-03 0.  1.
    9900012    2    1    2    0    0  0.12832142557E+01  0.18555147232E+02 -0.21770652637E+01  0.72461555042E+02  0.69999980131E+02 0.  0.
        -12    1    1    2    0    0 -0.12832142557E+01 -0.18555147232E+02  0.21770652637E+01  0.18726444958E+02  0.00000000000E+00 0.  1.
         11    1    3    3    0    0 -0.75214515393E+01 -0.40328231694E+00  0.54978261352E+01  0.93252861811E+01  0.51100000000E-03 0. -1.
        -11    1    3    3    0    0 -0.58816317893E+01 -0.19863929921E+02  0.96637461825E+00  0.20738929205E+02  0.51100000000E-03 0.  1.
         12    1    3    3    0    0  0.14686297584E+02  0.38822359469E+02 -0.86412660171E+01  0.42397339656E+02  0.00000000000E+00 0. -1.
</event>
<event>
 7    1  0.1358622E-013  0.7246156E+02  0.7816164E-02  0.1226708E+00
        -11   -1    0    0    0    0  0.00000000000E+00  0.00000000000E+00  0.45593999997E+02  0.45594000000E+02  0.51100000000E-03 0.  1.
         11   -1    0    0    0    0 -0.00000000000E+00 -0.00000000000E+00 -0.45593999997E+02  0.45594000000E+02  0.51100000000E-03 0. -1.
    9900012    2    1    2    0    0 -0.32102823604E+01  0.18390726427E+02  0.14678957296E+01  0.72461562826E+02  0.69999990271E+02 0.  0.
        -12    1    1    2    0    0  0.32102823604E+01 -0.18390726427E+02 -0.14678957296E+01  0.18726437174E+02  0.00000000000E+00 0.  1.
         11    1    3    3    0    0  0.22375902005E+02  0.21277780567E+02 -0.10423289777E+02  0.32589414025E+02  0.51100000000E-03 0.  1.
        -11    1    3    3    0    0 -0.47402648673E+01  0.93112986920E+01 -0.37456287756E+01  0.11099555375E+02  0.51100000000E-03 0. -1.
        -12    1    3    3    0    0 -0.20845919498E+02 -0.12198352832E+02  0.15636814283E+02  0.28772593426E+02  0.00000000000E+00 0.  1.
</event>
<event>
 7    1  0.1358622E-013  0.7246157E+02  0.7816164E-02  0.1226708E+00
        -11   -1    0    0    0    0  0.00000000000E+00  0.00000000000E+00  0.45593999997E+02  0.45594000000E+02  0.51100000000E-03 0.  1.
         11   -1    0    0    0    0 -0.00000000000E+00 -0.00000000000E+00 -0.45593999997E+02  0.45594000000E+02  0.51100000000E-03 0. -1.
    9900012    2    1    2    0    0 -0.12998718945E+01  0.48303273465E+01 -0.18045983881E+02  0.72461567786E+02  0.69999996732E+02 0.  0.
        -12    1    1    2    0    0  0.12998718945E+01 -0.48303273465E+01  0.18045983881E+02  0.18726432214E+02  0.00000000000E+00 0.  1.
         11    1    3    3    0    0  0.16871385450E+02  0.55678577903E+01  0.14464773893E+01  0.17825178385E+02  0.51100000000E-03 0. -1.
        -11    1    3    3    0    0 -0.82427502921E+01 -0.22859113579E+02 -0.13213284623E+01  0.24335733298E+02  0.51100000000E-03 0.  1.
         12    1    3    3    0    0 -0.99285070519E+01  0.22121583135E+02 -0.18171132808E+02  0.30300656102E+02  0.00000000000E+00 0. -1.
</event>
<event>
 7    1  0.1358622E-013  0.7246159E+02  0.7816164E-02  0.1226708E+00
        -11   -1    0    0    0    0  0.00000000000E+00  0.00000000000E+00  0.45593999997E+02  0.45594000000E+02  0.51100000000E-03 0.  1.
         11   -1    0    0    0    0 -0.00000000000E+00 -0.00000000000E+00 -0.45593999997E+02  0.45594000000E+02  0.51100000000E-03 0. -1.
    9900012    2    1    2    0    0  0.10636477370E+02  0.12761014325E+02 -0.86429326450E+01  0.72461590249E+02  0.70000025995E+02 0.  0.
        -12    1    1    2    0    0 -0.10636477370E+02 -0.12761014325E+02  0.86429326450E+01  0.18726409751E+02  0.00000000000E+00 0.  1.
         11    1    3    3    0    0  0.12668677184E+02 -0.66765836495E+01  0.24015552472E+02  0.27961024867E+02  0.51100000000E-03 0. -1.
        -11    1    3    3    0    0 -0.54523796435E+01 -0.34619364540E+01 -0.37694896915E+01  0.74781348333E+01  0.51100000000E-03 0.  1.
         12    1    3    3    0    0  0.34201798297E+01  0.22899534428E+02 -0.28888995425E+02  0.37022430549E+02  0.00000000000E+00 0. -1.
</event>
<event>
 7    1  0.1358622E-013  0.7246155E+02  0.7816164E-02  0.1226708E+00
        -11   -1    0    0    0    0  0.00000000000E+00  0.00000000000E+00  0.45593999997E+02  0.45594000000E+02  0.51100000000E-03 0. -1.
         11   -1    0    0    0    0 -0.00000000000E+00 -0.00000000000E+00 -0.45593999997E+02  0.45594000000E+02  0.51100000000E-03 0.  1.
    9900012    2    1    2    0    0  0.34395652261E+01 -0.14381593853E+02  0.11489954396E+02  0.72461550718E+02  0.69999974498E+02 0.  0.
        -12    1    1    2    0    0 -0.34395652261E+01  0.14381593853E+02 -0.11489954396E+02  0.18726449282E+02  0.00000000000E+00 0.  1.
         11    1    3    3    0    0 -0.26294732314E+02 -0.56546333409E+01 -0.88468007301E+00  0.26910415916E+02  0.51100000000E-03 0. -1.
        -11    1    3    3    0    0 -0.31299173665E+01  0.57875896680E+01 -0.19673411873E+01  0.68675329263E+01  0.51100000000E-03 0.  1.
        -12    1    3    3    0    0  0.32864214907E+02 -0.14514550180E+02  0.14341975656E+02  0.38683601876E+02  0.00000000000E+00 0.  1.
</event>
<event>
 7    1  0.1358622E-013  0.7246158E+02  0.7816164E-02  0.1226708E+00
        -11   -1    0    0    0    0  0.00000000000E+00  0.00000000000E+00  0.45593999997E+02  0.45594000000E+02  0.51100000000E-03 0. -1.
         11   -1    0    0    0    0 -0.00000000000E+00 -0.00000000000E+00 -0.45593999997E+02  0.45594000000E+02  0.51100000000E-03 0.  1.
    9900012    2    1    2    0    0 -0.69168711011E+01 -0.77334548143E+01  0.15589395914E+02  0.72461582987E+02  0.70000016534E+02 0.  0.
        -12    1    1    2    0    0  0.69168711011E+01  0.77334548143E+01 -0.15589395914E+02  0.18726417013E+02  0.00000000000E+00 0.  1.
         11    1    3    3    0    0  0.26686435563E+02 -0.10800843985E+00 -0.66928002276E+00  0.26695045325E+02  0.51100000000E-03 0. -1.
        -11    1    3    3    0    0  0.28825743420E+01  0.12710304508E+01 -0.22764182420E+01  0.38867510233E+01  0.51100000000E-03 0.  1.
        -12    1    3    3    0    0 -0.36485881006E+02 -0.88964768253E+01  0.18535094179E+02  0.41879786639E+02  0.00000000000E+00 0.  1.
</event>
<event>
 7    1  0.1358622E-013  0.7246082E+02  0.7816164E-02  0.1226710E+00
        -11   -1    0    0    0    0  0.00000000000E+00  0.00000000000E+00  0.45593999997E+02  0.45594000000E+02  0.51100000000E-03 0.  1.
         11   -1    0    0    0    0 -0.00000000000E+00 -0.00000000000E+00 -0.45593999997E+02  0.45594000000E+02  0.51100000000E-03 0. -1.
    9900012    2    1    2    0    0 -0.17958196961E+02 -0.47886867026E+01 -0.22976144414E+01  0.72460816802E+02  0.69999018429E+02 0.  0.
        -12    1    1    2    0    0  0.17958196961E+02  0.47886867026E+01  0.22976144414E+01  0.18727183198E+02  0.00000000000E+00 0.  1.
         11    1    3    3    0    0  0.10126626194E+02 -0.20577703712E+02 -0.26935166535E+01  0.23092108617E+02  0.51100000000E-03 0. -1.
        -11    1    3    3    0    0  0.12344569538E+01  0.30647907419E+01  0.14181354193E+02  0.14561168678E+02  0.51100000000E-03 0.  1.
         12    1    3    3    0    0 -0.29319280109E+02  0.12724226267E+02 -0.13785451981E+02  0.34807539507E+02  0.00000000000E+00 0. -1.
</event>
<event>
 7    1  0.1358622E-013  0.7246156E+02  0.7816164E-02  0.1226708E+00
        -11   -1    0    0    0    0  0.00000000000E+00  0.00000000000E+00  0.45593999997E+02  0.45594000000E+02  0.51100000000E-03 0. -1.
         11   -1    0    0    0    0 -0.00000000000E+00 -0.00000000000E+00 -0.45593999997E+02  0.45594000000E+02  0.51100000000E-03 0.  1.
    9900012    2    1    2    0    0 -0.16810030225E+02  0.64900938909E+01  0.50971516048E+01  0.72461564425E+02  0.69999992354E+02 0.  0.
        -12    1    1    2    0    0  0.16810030225E+02 -0.64900938909E+01 -0.50971516048E+01  0.18726435575E+02  0.00000000000E+00 0.  1.
         11    1    3    3    0    0 -0.54802793746E+01  0.16569261887E+02  0.37692191596E+01  0.17854436839E+02  0.51100000000E-03 0. -1.
        -11    1    3    3    0    0  0.13416206849E+02  0.12443615480E+02 -0.78483899947E+01  0.19910685528E+02  0.51100000000E-03 0.  1.
         12    1    3    3    0    0 -0.24745957699E+02 -0.22522783476E+02  0.91763224398E+01  0.34696442058E+02  0.00000000000E+00 0. -1.
</event>
<event>
 7    1  0.1358622E-013  0.7246156E+02  0.7816164E-02  0.1226708E+00
        -11   -1    0    0    0    0  0.00000000000E+00  0.00000000000E+00  0.45593999997E+02  0.45594000000E+02  0.51100000000E-03 0. -1.
         11   -1    0    0    0    0 -0.00000000000E+00 -0.00000000000E+00 -0.45593999997E+02  0.45594000000E+02  0.51100000000E-03 0.  1.
    9900012    2    1    2    0    0 -0.15988486944E+02  0.97457873614E+01  0.25984858878E+00  0.72461558604E+02  0.69999984771E+02 0.  0.
        -12    1    1    2    0    0  0.15988486944E+02 -0.97457873614E+01 -0.25984858878E+00  0.18726441396E+02  0.00000000000E+00 0.  1.
         11    1    3    3    0    0 -0.85602603213E+01 -0.39024843673E+01 -0.15566460310E+02  0.18188516373E+02  0.51100000000E-03 0. -1.
        -11    1    3    3    0    0  0.15379223882E+01 -0.16767485310E+02 -0.34169680797E+01  0.17181077964E+02  0.51100000000E-03 0.  1.
         12    1    3    3    0    0 -0.89661490114E+01  0.30415757039E+02  0.19243276978E+02  0.37091964267E+02  0.00000000000E+00 0. -1.
</event>
<event>
 7    1  0.1358622E-013  0.7246158E+02  0.7816164E-02  0.1226708E+00
        -11   -1    0    0    0    0  0.00000000000E+00  0.00000000000E+00  0.45593999997E+02  0.45594000000E+02  0.51100000000E-03 0. -1.
         11   -1    0    0    0    0 -0.00000000000E+00 -0.00000000000E+00 -0.45593999997E+02  0.45594000000E+02  0.51100000000E-03 0.  1.
    9900012    2    1    2    0    0 -0.90021557128E+01  0.28313638149E+01  0.16174775941E+02  0.72461580020E+02  0.70000012669E+02 0.  0.
        -12    1    1    2    0    0  0.90021557128E+01 -0.28313638149E+01 -0.16174775941E+02  0.18726419980E+02  0.00000000000E+00 0.  1.
         11    1    3    3    0    0  0.25476250702E+00 -0.11351387715E+02  0.10707739521E+02  0.15606876462E+02  0.51100000000E-03 0. -1.
        -11    1    3    3    0    0 -0.30261088270E+02  0.54147723742E+01 -0.60726237911E+01  0.31335762048E+02  0.51100000000E-03 0.  1.
         12    1    3    3    0    0  0.21004170050E+02  0.87679791559E+01  0.11539660212E+02  0.25518941510E+02  0.00000000000E+00 0. -1.
</event>
<event>
 7    1  0.1358622E-013  0.7246160E+02  0.7816164E-02  0.1226708E+00
        -11   -1    0    0    0    0  0.00000000000E+00  0.00000000000E+00  0.45593999997E+02  0.45594000000E+02  0.51100000000E-03 0. -1.
         11   -1    0    0    0    0 -0.00000000000E+00 -0.00000000000E+00 -0.45593999997E+02  0.45594000000E+02  0.51100000000E-03 0.  1.
    9900012    2    1    2    0    0  0.12400727938E+02 -0.13362388709E+02  0.42833069909E+01  0.72461596069E+02  0.70000033577E+02 0.  0.
        -12    1    1    2    0    0 -0.12400727938E+02  0.13362388709E+02 -0.42833069909E+01  0.18726403931E+02  0.00000000000E+00 0.  1.
         11    1    3    3    0    0  0.30487678058E+01  0.66360607627E+01  0.82072465264E+01  0.10985953913E+02  0.51100000000E-03 0. -1.
        -11    1    3    3    0    0  0.27947636610E+02 -0.97585065317E+01  0.14866234636E+02  0.33125575834E+02  0.51100000000E-03 0.  1.
        -12    1    3    3    0    0 -0.18595676477E+02 -0.10239942940E+02 -0.18790174172E+02  0.28350066322E+02  0.00000000000E+00 0.  1.
</event>
<event>
 7    1  0.1358622E-013  0.7246156E+02  0.7816164E-02  0.1226708E+00
        -11   -1    0    0    0    0  0.00000000000E+00  0.00000000000E+00  0.45593999997E+02  0.45594000000E+02  0.51100000000E-03 0.  1.
         11   -1    0    0    0    0 -0.00000000000E+00 -0.00000000000E+00 -0.45593999997E+02  0.45594000000E+02  0.51100000000E-03 0. -1.
    9900012    2    1    2    0    0 -0.18653393969E+01  0.16448692007E+02  0.87544595857E+01  0.72461560871E+02  0.69999987725E+02 0.  0.
        -12    1    1    2    0    0  0.18653393969E+01 -0.16448692007E+02 -0.87544595857E+01  0.18726439129E+02  0.00000000000E+00 0.  1.
         11    1    3    3    0    0  0.10610987682E+02 -0.31891885742E+01 -0.23413127638E+02  0.25902481144E+02  0.51100000000E-03 0. -1.
        -11    1    3    3    0    0 -0.23919747786E+01  0.22357628662E+02  0.17209157109E+02  0.28315017065E+02  0.51100000000E-03 0.  1.
        -12    1    3    3    0    0 -0.10084352301E+02 -0.27197480809E+01  0.14958430115E+02  0.18244062663E+02  0.00000000000E+00 0.  1.
</event>
<event>
 7    1  0.1358622E-013  0.7246158E+02  0.7816164E-02  0.1226708E+00
        -11   -1    0    0    0    0  0.00000000000E+00  0.00000000000E+00  0.45593999997E+02  0.45594000000E+02  0.51100000000E-03 0.  1.
         11   -1    0    0    0    0 -0.00000000000E+00 -0.00000000000E+00 -0.45593999997E+02  0.45594000000E+02  0.51100000000E-03 0. -1.
    9900012    2    1    2    0    0  0.42327733386E+01 -0.17945012330E+02 -0.32770184507E+01  0.72461583162E+02  0.70000016763E+02 0.  0.
        -12    1    1    2    0    0 -0.42327733386E+01  0.17945012330E+02  0.32770184507E+01  0.18726416838E+02  0.00000000000E+00 0.  1.
         11    1    3    3    0    0  0.11556608212E+02 -0.51364643072E+01 -0.24005621346E+01  0.12872496175E+02  0.51100000000E-03 0. -1.
        -11    1    3    3    0    0  0.12479618065E+02  0.10468737851E+02 -0.18227636951E+02  0.24445492188E+02  0.51100000000E-03 0.  1.
        -12    1    3    3    0    0 -0.19803452939E+02 -0.23277285874E+02  0.17351180635E+02  0.35143594799E+02  0.00000000000E+00 0.  1.
</event>
<event>
 7    1  0.1358622E-013  0.7246162E+02  0.7816164E-02  0.1226708E+00
        -11   -1    0    0    0    0  0.00000000000E+00  0.00000000000E+00  0.45593999997E+02  0.45594000000E+02  0.51100000000E-03 0. -1.
         11   -1    0    0    0    0 -0.00000000000E+00 -0.00000000000E+00 -0.45593999997E+02  0.45594000000E+02  0.51100000000E-03 0.  1.
    9900012    2    1    2    0    0  0.30937196161E+01  0.10754729424E+02 -0.15014732370E+02  0.72461615026E+02  0.70000058272E+02 0.  0.
        -12    1    1    2    0    0 -0.30937196161E+01 -0.10754729424E+02  0.15014732370E+02  0.18726384974E+02  0.00000000000E+00 0.  1.
         11    1    3    3    0    0 -0.69718479026E+01 -0.43063931339E+01  0.47651829446E+01  0.94793804522E+01  0.51100000000E-03 0. -1.
        -11    1    3    3    0    0 -0.17993661026E+02 -0.10764294881E+02 -0.11662911322E+02  0.23993027783E+02  0.51100000000E-03 0.  1.
         12    1    3    3    0    0  0.28059228545E+02  0.25825417439E+02 -0.81170039919E+01  0.38989206792E+02  0.00000000000E+00 0. -1.
</event>
<event>
 7    1  0.1358622E-013  0.7246155E+02  0.7816164E-02  0.1226708E+00
        -11   -1    0    0    0    0  0.00000000000E+00  0.00000000000E+00  0.45593999997E+02  0.45594000000E+02  0.51100000000E-03 0.  1.
         11   -1    0    0    0    0 -0.00000000000E+00 -0.00000000000E+00 -0.45593999997E+02  0.45594000000E+02  0.51100000000E-03 0. -1.
    9900012    2    1    2    0    0 -0.10389375599E+02  0.15569193789E+02 -0.58388516064E+00  0.72461552327E+02  0.69999976594E+02 0.  0.
        -12    1    1    2    0    0  0.10389375599E+02 -0.15569193789E+02  0.58388516064E+00  0.18726447673E+02  0.00000000000E+00 0.  1.
         11    1    3    3    0    0  0.80290695676E+01  0.18457282398E+02 -0.14064710891E+02  0.24555107907E+02  0.51100000000E-03 0. -1.
        -11    1    3    3    0    0 -0.16911425999E+02  0.18120474749E+02  0.55467376369E+01  0.25399099062E+02  0.51100000000E-03 0.  1.
        -12    1    3    3    0    0 -0.15070191675E+01 -0.21008563359E+02  0.79340880935E+01  0.22507345358E+02  0.00000000000E+00 0.  1.
</event>
<event>
 7    1  0.1358622E-013  0.7246156E+02  0.7816164E-02  0.1226708E+00
        -11   -1    0    0    0    0  0.00000000000E+00  0.00000000000E+00  0.45593999997E+02  0.45594000000E+02  0.51100000000E-03 0. -1.
         11   -1    0    0    0    0 -0.00000000000E+00 -0.00000000000E+00 -0.45593999997E+02  0.45594000000E+02  0.51100000000E-03 0.  1.
    9900012    2    1    2    0    0 -0.12276904462E+02 -0.38838540937E+01  0.13596790329E+02  0.72461563792E+02  0.69999991530E+02 0.  0.
        -12    1    1    2    0    0  0.12276904462E+02  0.38838540937E+01 -0.13596790329E+02  0.18726436208E+02  0.00000000000E+00 0.  1.
         11    1    3    3    0    0  0.12084270215E+02  0.27491609734E+00 -0.18477553332E+02  0.22079971533E+02  0.51100000000E-03 0. -1.
        -11    1    3    3    0    0  0.51453998039E+01 -0.54212031529E+01  0.10499066355E+01  0.75476411528E+01  0.51100000000E-03 0.  1.
         12    1    3    3    0    0 -0.29506574481E+02  0.12624329619E+01  0.31024437026E+02  0.42833951106E+02  0.00000000000E+00 0. -1.
</event>
<event>
 7    1  0.1358622E-013  0.7246158E+02  0.7816164E-02  0.1226708E+00
        -11   -1    0    0    0    0  0.00000000000E+00  0.00000000000E+00  0.45593999997E+02  0.45594000000E+02  0.51100000000E-03 0.  1.
         11   -1    0    0    0    0 -0.00000000000E+00 -0.00000000000E+00 -0.45593999997E+02  0.45594000000E+02  0.51100000000E-03 0. -1.
    9900012    2    1    2    0    0 -0.50043271824E+01  0.95776331637E+00 -0.18019939933E+02  0.72461579192E+02  0.70000011590E+02 0.  0.
        -12    1    1    2    0    0  0.50043271824E+01 -0.95776331637E+00  0.18019939933E+02  0.18726420808E+02  0.00000000000E+00 0.  1.
         11    1    3    3    0    0  0.10437894641E+01  0.76194909350E+00 -0.26202794740E+02  0.26234643419E+02  0.51100000000E-03 0. -1.
        -11    1    3    3    0    0 -0.20030948121E+02 -0.12489662996E+02 -0.37364011071E+01  0.23899607902E+02  0.51100000000E-03 0.  1.
         12    1    3    3    0    0  0.13982831474E+02  0.12685477218E+02  0.11919255914E+02  0.22327327871E+02  0.00000000000E+00 0. -1.
</event>
<event>
 7    1  0.1358622E-013  0.7246160E+02  0.7816164E-02  0.1226708E+00
        -11   -1    0    0    0    0  0.00000000000E+00  0.00000000000E+00  0.45593999997E+02  0.45594000000E+02  0.51100000000E-03 0. -1.
         11   -1    0    0    0    0 -0.00000000000E+00 -0.00000000000E+00 -0.45593999997E+02  0.45594000000E+02  0.51100000000E-03 0.  1.
    9900012    2    1    2    0    0  0.13978539890E+02  0.11532150742E+02 -0.47210035317E+01  0.72461602788E+02  0.70000042330E+02 0.  0.
        -12    1    1    2    0    0 -0.13978539890E+02 -0.11532150742E+02  0.47210035317E+01  0.18726397212E+02  0.00000000000E+00 0.  1.
         11    1    3    3    0    0  0.24263867868E+02 -0.16142548146E+01 -0.24845562727E+01  0.24444102002E+02  0.51100000000E-03 0. -1.
        -11    1    3    3    0    0  0.98855116967E+01  0.47694577900E+01 -0.17999607675E+02  0.21082147562E+02  0.51100000000E-03 0.  1.
        -12    1    3    3    0    0 -0.20170839675E+02  0.83769477661E+01  0.15763160416E+02  0.26935353225E+02  0.00000000000E+00 0.  1.
</event>
<event>
 7    1  0.1358622E-013  0.7246159E+02  0.7816164E-02  0.1226708E+00
        -11   -1    0    0    0    0  0.00000000000E+00  0.00000000000E+00  0.45593999997E+02  0.45594000000E+02  0.51100000000E-03 0.  1.
         11   -1    0    0    0    0 -0.00000000000E+00 -0.00000000000E+00 -0.45593999997E+02  0.45594000000E+02  0.51100000000E-03 0. -1.
    9900012    2    1    2    0    0 -0.21908150453E+01 -0.18377767032E+02 -0.28524335878E+01  0.72461591668E+02  0.70000027843E+02 0.  0.
        -12    1    1    2    0    0  0.21908150453E+01  0.18377767032E+02  0.28524335878E+01  0.18726408332E+02  0.00000000000E+00 0.  1.
         11    1    3    3    0    0  0.13571143208E+02 -0.38329064097E+02 -0.91011614508E+01  0.41666824004E+02  0.51100000000E-03 0.  1.
        -11    1    3    3    0    0 -0.11189894488E+02  0.10852482823E+02 -0.42620186368E+01  0.16160288524E+02  0.51100000000E-03 0. -1.
        -12    1    3    3    0    0 -0.45720637659E+01  0.90988142427E+01  0.10510746500E+02  0.14634479140E+02  0.00000000000E+00 0.  1.
</event>
<event>
 7    1  0.1358622E-013  0.7246152E+02  0.7816164E-02  0.1226708E+00
        -11   -1    0    0    0    0  0.00000000000E+00  0.00000000000E+00  0.45593999997E+02  0.45594000000E+02  0.51100000000E-03 0. -1.
         11   -1    0    0    0    0 -0.00000000000E+00 -0.00000000000E+00 -0.45593999997E+02  0.45594000000E+02  0.51100000000E-03 0.  1.
    9900012    2    1    2    0    0  0.13745270734E+02 -0.85226879387E+01  0.94399335040E+01  0.72461520838E+02  0.69999935574E+02 0.  0.
        -12    1    1    2    0    0 -0.13745270734E+02  0.85226879387E+01 -0.94399335040E+01  0.18726479162E+02  0.00000000000E+00 0.  1.
         11    1    3    3    0    0  0.17963683721E+02 -0.11723627160E+02  0.13061112968E+02  0.25114339307E+02  0.51100000000E-03 0. -1.
        -11    1    3    3    0    0  0.15684001810E+01  0.23676268184E+02 -0.90379486301E+01  0.25391141565E+02  0.51100000000E-03 0.  1.
        -12    1    3    3    0    0 -0.57868131683E+01 -0.20475328963E+02  0.54167691657E+01  0.21956039966E+02  0.00000000000E+00 0.  1.
</event>
<event>
 7    1  0.1358622E-013  0.7246146E+02  0.7816164E-02  0.1226708E+00
        -11   -1    0    0    0    0  0.00000000000E+00  0.00000000000E+00  0.45593999997E+02  0.45594000000E+02  0.51100000000E-03 0. -1.
         11   -1    0    0    0    0 -0.00000000000E+00 -0.00000000000E+00 -0.45593999997E+02  0.45594000000E+02  0.51100000000E-03 0.  1.
    9900012    2    1    2    0    0 -0.17503510265E+02  0.60415583593E+01  0.27946692458E+01  0.72461455332E+02  0.69999850240E+02 0.  0.
        -12    1    1    2    0    0  0.17503510265E+02 -0.60415583593E+01 -0.27946692458E+01  0.18726544668E+02  0.00000000000E+00 0.  1.
         11    1    3    3    0    0 -0.37200460620E+01 -0.94649148076E+01 -0.43177209244E+01  0.11048351427E+02  0.51100000000E-03 0.  1.
        -11    1    3    3    0    0 -0.23607534024E+02 -0.91682001358E+01 -0.12649770262E+02  0.28308801535E+02  0.51100000000E-03 0. -1.
         12    1    3    3    0    0  0.98240698207E+01  0.24674673303E+02  0.19762160432E+02  0.33104302370E+02  0.00000000000E+00 0. -1.
</event>
<event>
 7    1  0.1358622E-013  0.7246146E+02  0.7816164E-02  0.1226708E+00
        -11   -1    0    0    0    0  0.00000000000E+00  0.00000000000E+00  0.45593999997E+02  0.45594000000E+02  0.51100000000E-03 0. -1.
         11   -1    0    0    0    0 -0.00000000000E+00 -0.00000000000E+00 -0.45593999997E+02  0.45594000000E+02  0.51100000000E-03 0.  1.
    9900012    2    1    2    0    0  0.44704348440E+01  0.18078101600E+02  0.19699159243E+01  0.72461464978E+02  0.69999862806E+02 0.  0.
        -12    1    1    2    0    0 -0.44704348440E+01 -0.18078101600E+02 -0.19699159243E+01  0.18726535022E+02  0.00000000000E+00 0.  1.
         11    1    3    3    0    0  0.14259838769E+02 -0.11197157285E+00  0.26415626708E+02  0.30019008544E+02  0.51100000000E-03 0. -1.
        -11    1    3    3    0    0 -0.42823420633E+01 -0.73083480456E+01 -0.76735560125E+01  0.11429517349E+02  0.51100000000E-03 0.  1.
        -12    1    3    3    0    0 -0.55070618621E+01  0.25498421219E+02 -0.16772154771E+02  0.31012939085E+02  0.00000000000E+00 0.  1.
</event>
<event>
 7    1  0.1358622E-013  0.7246157E+02  0.7816164E-02  0.1226708E+00
        -11   -1    0    0    0    0  0.00000000000E+00  0.00000000000E+00  0.45593999997E+02  0.45594000000E+02  0.51100000000E-03 0. -1.
         11   -1    0    0    0    0 -0.00000000000E+00 -0.00000000000E+00 -0.45593999997E+02  0.45594000000E+02  0.51100000000E-03 0.  1.
    9900012    2    1    2    0    0 -0.14963560405E+02  0.27544803159E+01  0.10917131692E+02  0.72461573054E+02  0.70000003594E+02 0.  0.
        -12    1    1    2    0    0  0.14963560405E+02 -0.27544803159E+01 -0.10917131692E+02  0.18726426946E+02  0.00000000000E+00 0.  1.
         11    1    3    3    0    0  0.19046361580E+02  0.60623274685E+01  0.22337447835E+02  0.29974610586E+02  0.51100000000E-03 0. -1.
        -11    1    3    3    0    0 -0.69931671292E+01  0.30271995082E+01 -0.12585799154E+02  0.14712942056E+02  0.51100000000E-03 0.  1.
        -12    1    3    3    0    0 -0.27016754856E+02 -0.63350466609E+01  0.11654830101E+01  0.27774020411E+02  0.00000000000E+00 0.  1.
</event>
<event>
 7    1  0.1358622E-013  0.7246163E+02  0.7816164E-02  0.1226708E+00
        -11   -1    0    0    0    0  0.00000000000E+00  0.00000000000E+00  0.45593999997E+02  0.45594000000E+02  0.51100000000E-03 0.  1.
         11   -1    0    0    0    0 -0.00000000000E+00 -0.00000000000E+00 -0.45593999997E+02  0.45594000000E+02  0.51100000000E-03 0. -1.
    9900012    2    1    2    0    0 -0.17635454835E+02  0.10179976874E+01 -0.62154088351E+01  0.72461631064E+02  0.70000079163E+02 0.  0.
        -12    1    1    2    0    0  0.17635454835E+02 -0.10179976874E+01  0.62154088351E+01  0.18726368936E+02  0.00000000000E+00 0.  1.
         11    1    3    3    0    0 -0.60980790177E+01  0.10850374829E+02  0.55160308844E+01  0.13614102931E+02  0.51100000000E-03 0. -1.
        -11    1    3    3    0    0 -0.28582977352E+02  0.83255017225E+01 -0.15653927046E+02  0.33635487293E+02  0.51100000000E-03 0.  1.
         12    1    3    3    0    0  0.17045601534E+02 -0.18157878864E+02  0.39224873264E+01  0.25212040840E+02  0.00000000000E+00 0. -1.
</event>
<event>
 7    1  0.1358622E-013  0.7246165E+02  0.7816164E-02  0.1226708E+00
        -11   -1    0    0    0    0  0.00000000000E+00  0.00000000000E+00  0.45593999997E+02  0.45594000000E+02  0.51100000000E-03 0.  1.
         11   -1    0    0    0    0 -0.00000000000E+00 -0.00000000000E+00 -0.45593999997E+02  0.45594000000E+02  0.51100000000E-03 0. -1.
    9900012    2    1    2    0    0  0.52306408172E+01  0.59329065436E+01 -0.16974010776E+02  0.72461654247E+02  0.70000109364E+02 0.  0.
        -12    1    1    2    0    0 -0.52306408172E+01 -0.59329065436E+01  0.16974010776E+02  0.18726345753E+02  0.00000000000E+00 0.  1.
         11    1    3    3    0    0  0.95938972483E+00  0.23133953993E+01 -0.68874452782E+01  0.73286512837E+01  0.51100000000E-03 0. -1.
        -11    1    3    3    0    0 -0.27978298298E+02 -0.50279955706E+01  0.43489167082E+01  0.28757242425E+02  0.51100000000E-03 0.  1.
         12    1    3    3    0    0  0.32249549390E+02  0.86475067149E+01 -0.14435482206E+02  0.36375760539E+02  0.00000000000E+00 0. -1.
</event>
<event>
 7    1  0.1358622E-013  0.7246154E+02  0.7816164E-02  0.1226708E+00
        -11   -1    0    0    0    0  0.00000000000E+00  0.00000000000E+00  0.45593999997E+02  0.45594000000E+02  0.51100000000E-03 0.  1.
         11   -1    0    0    0    0 -0.00000000000E+00 -0.00000000000E+00 -0.45593999997E+02  0.45594000000E+02  0.51100000000E-03 0. -1.
    9900012    2    1    2    0    0 -0.49981150930E+01  0.14457988091E+02 -0.10801197318E+02  0.72461536436E+02  0.69999955893E+02 0.  0.
        -12    1    1    2    0    0  0.49981150930E+01 -0.14457988091E+02  0.10801197318E+02  0.18726463564E+02  0.00000000000E+00 0.  1.
         11    1    3    3    0    0  0.17638943976E+01  0.90348844663E+01 -0.16888580676E+02  0.19234464336E+02  0.51100000000E-03 0. -1.
        -11    1    3    3    0    0 -0.12960651842E+02  0.24133947204E+02 -0.85259082065E+01  0.28690015944E+02  0.51100000000E-03 0.  1.
        -12    1    3    3    0    0  0.61986423514E+01 -0.18710843579E+02  0.14613291565E+02  0.24537056156E+02  0.00000000000E+00 0.  1.
</event>
<event>
 7    1  0.1358622E-013  0.7246158E+02  0.7816164E-02  0.1226708E+00
        -11   -1    0    0    0    0  0.00000000000E+00  0.00000000000E+00  0.45593999997E+02  0.45594000000E+02  0.51100000000E-03 0.  1.
         11   -1    0    0    0    0 -0.00000000000E+00 -0.00000000000E+00 -0.45593999997E+02  0.45594000000E+02  0.51100000000E-03 0. -1.
    9900012    2    1    2    0    0 -0.14752851778E+01  0.15879501498E+02 -0.98154792732E+01  0.72461583697E+02  0.70000017460E+02 0.  0.
        -12    1    1    2    0    0  0.14752851778E+01 -0.15879501498E+02  0.98154792732E+01  0.18726416303E+02  0.00000000000E+00 0.  1.
         11    1    3    3    0    0 -0.24358250022E+01  0.17276941138E+02  0.57418931262E+01  0.18368322608E+02  0.51100000000E-03 0. -1.
        -11    1    3    3    0    0  0.22066811752E+02  0.11987593823E+01  0.69133314772E+01  0.23155460638E+02  0.51100000000E-03 0.  1.
        -12    1    3    3    0    0 -0.21106271928E+02 -0.25961990220E+01 -0.22470703877E+02  0.30937800451E+02  0.00000000000E+00 0.  1.
</event>
<event>
 7    1  0.1358622E-013  0.7246154E+02  0.7816164E-02  0.1226708E+00
        -11   -1    0    0    0    0  0.00000000000E+00  0.00000000000E+00  0.45593999997E+02  0.45594000000E+02  0.51100000000E-03 0. -1.
         11   -1    0    0    0    0 -0.00000000000E+00 -0.00000000000E+00 -0.45593999997E+02  0.45594000000E+02  0.51100000000E-03 0.  1.
    9900012    2    1    2    0    0  0.18604353392E+02 -0.21120186544E+01  0.31245698171E+00  0.72461542318E+02  0.69999963556E+02 0.  0.
        -12    1    1    2    0    0 -0.18604353392E+02  0.21120186544E+01 -0.31245698171E+00  0.18726457682E+02  0.00000000000E+00 0.  1.
         11    1    3    3    0    0 -0.72103747299E+00  0.51997230694E+01  0.10144014813E+02  0.11421823489E+02  0.51100000000E-03 0. -1.
        -11    1    3    3    0    0  0.12998277929E+02  0.24398520911E+02 -0.16975011835E+01  0.27697013599E+02  0.51100000000E-03 0.  1.
         12    1    3    3    0    0  0.63271129368E+01 -0.31710262635E+02 -0.81340566475E+01  0.33342705230E+02  0.00000000000E+00 0. -1.
</event>
<event>
 7    1  0.1358622E-013  0.7246156E+02  0.7816164E-02  0.1226708E+00
        -11   -1    0    0    0    0  0.00000000000E+00  0.00000000000E+00  0.45593999997E+02  0.45594000000E+02  0.51100000000E-03 0. -1.
         11   -1    0    0    0    0 -0.00000000000E+00 -0.00000000000E+00 -0.45593999997E+02  0.45594000000E+02  0.51100000000E-03 0.  1.
    9900012    2    1    2    0    0 -0.13211574307E+02  0.11815539348E+02  0.60437481866E+01  0.72461559924E+02  0.69999986491E+02 0.  0.
        -12    1    1    2    0    0  0.13211574307E+02 -0.11815539348E+02 -0.60437481866E+01  0.18726440076E+02  0.00000000000E+00 0.  1.
         11    1    3    3    0    0 -0.19280781925E+02  0.10085973982E+02  0.21559978388E+02  0.30631815016E+02  0.51100000000E-03 0. -1.
        -11    1    3    3    0    0 -0.14864737001E+02  0.24756058457E-01  0.13034408916E+01  0.14921795381E+02  0.51100000000E-03 0.  1.
        -12    1    3    3    0    0  0.20933944619E+02  0.17048093078E+01 -0.16819671093E+02  0.26907949528E+02  0.00000000000E+00 0.  1.
</event>
<event>
 7    1  0.1358622E-013  0.7246153E+02  0.7816164E-02  0.1226708E+00
        -11   -1    0    0    0    0  0.00000000000E+00  0.00000000000E+00  0.45593999997E+02  0.45594000000E+02  0.51100000000E-03 0.  1.
         11   -1    0    0    0    0 -0.00000000000E+00 -0.00000000000E+00 -0.45593999997E+02  0.45594000000E+02  0.51100000000E-03 0. -1.
    9900012    2    1    2    0    0  0.15659053177E+02  0.35628738751E+01 -0.96322667663E+01  0.72461532642E+02  0.69999950951E+02 0.  0.
        -12    1    1    2    0    0 -0.15659053177E+02 -0.35628738751E+01  0.96322667663E+01  0.18726467358E+02  0.00000000000E+00 0.  1.
         11    1    3    3    0    0 -0.53646280541E+01 -0.13061419969E+02  0.10871770171E+02  0.17820642881E+02  0.51100000000E-03 0. -1.
        -11    1    3    3    0    0  0.27026759466E+02  0.16424126257E+02  0.16678307506E+01  0.31669848598E+02  0.51100000000E-03 0.  1.
         12    1    3    3    0    0 -0.60030782344E+01  0.20016758799E+00 -0.22171867688E+02  0.22971041163E+02  0.00000000000E+00 0. -1.
</event>
<event>
 7    1  0.1358622E-013  0.7246155E+02  0.7816164E-02  0.1226708E+00
        -11   -1    0    0    0    0  0.00000000000E+00  0.00000000000E+00  0.45593999997E+02  0.45594000000E+02  0.51100000000E-03 0.  1.
         11   -1    0    0    0    0 -0.00000000000E+00 -0.00000000000E+00 -0.45593999997E+02  0.45594000000E+02  0.51100000000E-03 0. -1.
    9900012    2    1    2    0    0 -0.13844627199E+02  0.10190648810E+02 -0.74267794604E+01  0.72461546022E+02  0.69999968381E+02 0.  0.
        -12    1    1    2    0    0  0.13844627199E+02 -0.10190648810E+02  0.74267794604E+01  0.18726453978E+02  0.00000000000E+00 0.  1.
         11    1    3    3    0    0 -0.19316109494E+00  0.32740781344E+02  0.55655520105E+01  0.33211013891E+02  0.51100000000E-03 0. -1.
        -11    1    3    3    0    0  0.56013586061E+01 -0.14783434661E+02 -0.25551155520E+01  0.16014174170E+02  0.51100000000E-03 0.  1.
        -12    1    3    3    0    0 -0.19252824710E+02 -0.77666978736E+01 -0.10437215919E+02  0.23236357961E+02  0.00000000000E+00 0.  1.
</event>
<event>
 7    1  0.1358622E-013  0.7246157E+02  0.7816164E-02  0.1226708E+00
        -11   -1    0    0    0    0  0.00000000000E+00  0.00000000000E+00  0.45593999997E+02  0.45594000000E+02  0.51100000000E-03 0.  1.
         11   -1    0    0    0    0 -0.00000000000E+00 -0.00000000000E+00 -0.45593999997E+02  0.45594000000E+02  0.51100000000E-03 0. -1.
    9900012    2    1    2    0    0  0.21673382553E+01 -0.18130208193E+02  0.41565853556E+01  0.72461574659E+02  0.70000005686E+02 0.  0.
        -12    1    1    2    0    0 -0.21673382553E+01  0.18130208193E+02 -0.41565853556E+01  0.18726425341E+02  0.00000000000E+00 0.  1.
         11    1    3    3    0    0  0.21945940380E+00  0.71659683583E+00  0.11516564803E+01  0.13740401612E+01  0.51100000000E-03 0. -1.
        -11    1    3    3    0    0 -0.14854168524E+02  0.98793057022E+01  0.25353434923E+02  0.31000704288E+02  0.51100000000E-03 0.  1.
         12    1    3    3    0    0  0.16802047375E+02 -0.28726110731E+02 -0.22348506048E+02  0.40086830210E+02  0.00000000000E+00 0. -1.
</event>
<event>
 7    1  0.1358622E-013  0.7246158E+02  0.7816164E-02  0.1226708E+00
        -11   -1    0    0    0    0  0.00000000000E+00  0.00000000000E+00  0.45593999997E+02  0.45594000000E+02  0.51100000000E-03 0. -1.
         11   -1    0    0    0    0 -0.00000000000E+00 -0.00000000000E+00 -0.45593999997E+02  0.45594000000E+02  0.51100000000E-03 0.  1.
    9900012    2    1    2    0    0  0.87903315757E+00 -0.45462693229E+01  0.18144908417E+02  0.72461575741E+02  0.70000007096E+02 0.  0.
        -12    1    1    2    0    0 -0.87903315757E+00  0.45462693229E+01 -0.18144908417E+02  0.18726424259E+02  0.00000000000E+00 0.  1.
         11    1    3    3    0    0 -0.13438884376E+02 -0.89855697333E+01 -0.11532510222E+02  0.19858068108E+02  0.51100000000E-03 0. -1.
        -11    1    3    3    0    0  0.14839800194E+01  0.10950934625E+02 -0.70832354695E+01  0.13126210071E+02  0.51100000000E-03 0.  1.
         12    1    3    3    0    0  0.12833937514E+02 -0.65116342146E+01  0.36760654109E+02  0.39477297562E+02  0.00000000000E+00 0. -1.
</event>
<event>
 7    1  0.1358622E-013  0.7246161E+02  0.7816164E-02  0.1226708E+00
        -11   -1    0    0    0    0  0.00000000000E+00  0.00000000000E+00  0.45593999997E+02  0.45594000000E+02  0.51100000000E-03 0.  1.
         11   -1    0    0    0    0 -0.00000000000E+00 -0.00000000000E+00 -0.45593999997E+02  0.45594000000E+02  0.51100000000E-03 0. -1.
    9900012    2    1    2    0    0  0.15718569553E+02 -0.12237767227E+01 -0.10104780159E+02  0.72461611125E+02  0.70000053189E+02 0.  0.
        -12    1    1    2    0    0 -0.15718569553E+02  0.12237767227E+01  0.10104780159E+02  0.18726388875E+02  0.00000000000E+00 0.  1.
         11    1    3    3    0    0  0.86220408283E+01  0.16181153569E+02 -0.89456649836E+01  0.20400839226E+02  0.51100000000E-03 0. -1.
        -11    1    3    3    0    0 -0.71349073795E+01  0.13981082799E+02  0.61047016802E+01  0.16841762450E+02  0.51100000000E-03 0.  1.
         12    1    3    3    0    0  0.14231436104E+02 -0.31386013090E+02 -0.72638168553E+01  0.35219009449E+02  0.00000000000E+00 0. -1.
</event>
<event>
 7    1  0.1358622E-013  0.7246162E+02  0.7816164E-02  0.1226708E+00
        -11   -1    0    0    0    0  0.00000000000E+00  0.00000000000E+00  0.45593999997E+02  0.45594000000E+02  0.51100000000E-03 0. -1.
         11   -1    0    0    0    0 -0.00000000000E+00 -0.00000000000E+00 -0.45593999997E+02  0.45594000000E+02  0.51100000000E-03 0.  1.
    9900012    2    1    2    0    0  0.10883571970E+02  0.12249147114E+02  0.90655144276E+01  0.72461620326E+02  0.70000065176E+02 0.  0.
        -12    1    1    2    0    0 -0.10883571970E+02 -0.12249147114E+02 -0.90655144276E+01  0.18726379674E+02  0.00000000000E+00 0.  1.
         11    1    3    3    0    0 -0.19638685329E+02 -0.13125052374E+02  0.47459464637E+01  0.24092923637E+02  0.51100000000E-03 0. -1.
        -11    1    3    3    0    0 -0.18852993535E+01 -0.30441453198E+01 -0.29721388157E+01  0.46534700795E+01  0.51100000000E-03 0.  1.
        -12    1    3    3    0    0  0.32407556653E+02  0.28418344808E+02  0.72917067796E+01  0.43715226610E+02  0.00000000000E+00 0.  1.
</event>
<event>
 7    1  0.1358622E-013  0.7246155E+02  0.7816164E-02  0.1226708E+00
        -11   -1    0    0    0    0  0.00000000000E+00  0.00000000000E+00  0.45593999997E+02  0.45594000000E+02  0.51100000000E-03 0.  1.
         11   -1    0    0    0    0 -0.00000000000E+00 -0.00000000000E+00 -0.45593999997E+02  0.45594000000E+02  0.51100000000E-03 0. -1.
    9900012    2    1    2    0    0  0.12630483424E+02 -0.13405938173E+02  0.33810598904E+01  0.72461551971E+02  0.69999976130E+02 0.  0.
        -12    1    1    2    0    0 -0.12630483424E+02  0.13405938173E+02 -0.33810598904E+01  0.18726448029E+02  0.00000000000E+00 0.  1.
         11    1    3    3    0    0  0.17563700964E+02  0.21515275379E+02  0.22610059766E+01  0.27865800087E+02  0.51100000000E-03 0. -1.
        -11    1    3    3    0    0  0.49613321570E+01 -0.37702347431E+01 -0.84865459343E+01  0.10528577727E+02  0.51100000000E-03 0.  1.
        -12    1    3    3    0    0 -0.98945496978E+01 -0.31150978808E+02  0.96065998481E+01  0.34067174158E+02  0.00000000000E+00 0.  1.
</event>
<event>
 7    1  0.1358622E-013  0.7246152E+02  0.7816164E-02  0.1226708E+00
        -11   -1    0    0    0    0  0.00000000000E+00  0.00000000000E+00  0.45593999997E+02  0.45594000000E+02  0.51100000000E-03 0. -1.
         11   -1    0    0    0    0 -0.00000000000E+00 -0.00000000000E+00 -0.45593999997E+02  0.45594000000E+02  0.51100000000E-03 0.  1.
    9900012    2    1    2    0    0 -0.79468486508E+01  0.12533501070E+02  0.11421030674E+02  0.72461521575E+02  0.69999936534E+02 0.  0.
        -12    1    1    2    0    0  0.79468486508E+01 -0.12533501070E+02 -0.11421030674E+02  0.18726478425E+02  0.00000000000E+00 0.  1.
         11    1    3    3    0    0 -0.16014737023E+02 -0.40354907832E+01  0.38601183166E+00  0.16519866621E+02  0.51100000000E-03 0. -1.
        -11    1    3    3    0    0  0.89200843231E+01 -0.14605896157E+02 -0.85338569985E+01  0.19123985527E+02  0.51100000000E-03 0.  1.
         12    1    3    3    0    0 -0.85219595090E+00  0.31174888010E+02  0.19568875841E+02  0.36817669427E+02  0.00000000000E+00 0. -1.
</event>
<event>
 7    1  0.1358622E-013  0.7246158E+02  0.7816164E-02  0.1226708E+00
        -11   -1    0    0    0    0  0.00000000000E+00  0.00000000000E+00  0.45593999997E+02  0.45594000000E+02  0.51100000000E-03 0.  1.
         11   -1    0    0    0    0 -0.00000000000E+00 -0.00000000000E+00 -0.45593999997E+02  0.45594000000E+02  0.51100000000E-03 0. -1.
    9900012    2    1    2    0    0 -0.15345743497E+01  0.79500505591E+01  0.16885518195E+02  0.72461576234E+02  0.70000007738E+02 0.  0.
        -12    1    1    2    0    0  0.15345743497E+01 -0.79500505591E+01 -0.16885518195E+02  0.18726423766E+02  0.00000000000E+00 0.  1.
         11    1    3    3    0    0  0.79186501473E+01  0.42596382785E+01  0.44588671925E+01  0.10036485208E+02  0.51100000000E-03 0. -1.
        -11    1    3    3    0    0  0.23332914911E+02 -0.53484067339E+01  0.15113465193E+02  0.28309842868E+02  0.51100000000E-03 0.  1.
         12    1    3    3    0    0 -0.32786139408E+02  0.90388190145E+01 -0.26868141899E+01  0.34115248159E+02  0.00000000000E+00 0. -1.
</event>
<event>
 7    1  0.1358622E-013  0.7246160E+02  0.7816164E-02  0.1226708E+00
        -11   -1    0    0    0    0  0.00000000000E+00  0.00000000000E+00  0.45593999997E+02  0.45594000000E+02  0.51100000000E-03 0. -1.
         11   -1    0    0    0    0 -0.00000000000E+00 -0.00000000000E+00 -0.45593999997E+02  0.45594000000E+02  0.51100000000E-03 0.  1.
    9900012    2    1    2    0    0  0.70167390572E+00  0.17369572448E+02  0.69630166227E+01  0.72461601687E+02  0.70000040894E+02 0.  0.
        -12    1    1    2    0    0 -0.70167390572E+00 -0.17369572448E+02 -0.69630166227E+01  0.18726398313E+02  0.00000000000E+00 0.  1.
         11    1    3    3    0    0  0.38899374823E+01  0.24613048329E+02  0.20295726820E+02  0.32137988255E+02  0.51100000000E-03 0. -1.
        -11    1    3    3    0    0  0.15676036101E+02 -0.10546061542E+02 -0.71085821459E+01  0.20186368229E+02  0.51100000000E-03 0.  1.
        -12    1    3    3    0    0 -0.18864299677E+02  0.33025856615E+01 -0.62241280514E+01  0.20137245203E+02  0.00000000000E+00 0.  1.
</event>
<event>
 7    1  0.1358622E-013  0.7246190E+02  0.7816164E-02  0.1226707E+00
        -11   -1    0    0    0    0  0.00000000000E+00  0.00000000000E+00  0.45593999997E+02  0.45594000000E+02  0.51100000000E-03 0. -1.
         11   -1    0    0    0    0 -0.00000000000E+00 -0.00000000000E+00 -0.45593999997E+02  0.45594000000E+02  0.51100000000E-03 0.  1.
    9900012    2    1    2    0    0  0.10656667823E+02  0.13891600842E+02  0.66427086892E+01  0.72461902655E+02  0.70000432960E+02 0.  0.
        -12    1    1    2    0    0 -0.10656667823E+02 -0.13891600842E+02 -0.66427086892E+01  0.18726097345E+02  0.00000000000E+00 0.  1.
         11    1    3    3    0    0  0.12401661446E+02 -0.75074200070E+01  0.10593803957E+02  0.17955256732E+02  0.51100000000E-03 0. -1.
        -11    1    3    3    0    0  0.12799814460E+02 -0.45202891111E+01  0.14229300425E+02  0.19665738092E+02  0.51100000000E-03 0.  1.
         12    1    3    3    0    0 -0.14544808083E+02  0.25919309960E+02 -0.18180395692E+02  0.34840907831E+02  0.00000000000E+00 0. -1.
</event>
<event>
 7    1  0.1358622E-013  0.7246136E+02  0.7816164E-02  0.1226709E+00
        -11   -1    0    0    0    0  0.00000000000E+00  0.00000000000E+00  0.45593999997E+02  0.45594000000E+02  0.51100000000E-03 0.  1.
         11   -1    0    0    0    0 -0.00000000000E+00 -0.00000000000E+00 -0.45593999997E+02  0.45594000000E+02  0.51100000000E-03 0. -1.
    9900012    2    1    2    0    0 -0.99114118909E+01  0.99043701837E+01 -0.12423942254E+02  0.72461361873E+02  0.69999728492E+02 0.  0.
        -12    1    1    2    0    0  0.99114118909E+01 -0.99043701837E+01  0.12423942254E+02  0.18726638127E+02  0.00000000000E+00 0.  1.
         11    1    3    3    0    0 -0.59713043755E+01 -0.77552488099E+01  0.90468782173E+01  0.13328404473E+02  0.51100000000E-03 0. -1.
        -11    1    3    3    0    0  0.35723430523E+01 -0.17582956931E+02 -0.16778747908E+01  0.18020468179E+02  0.51100000000E-03 0.  1.
         12    1    3    3    0    0 -0.75124505678E+01  0.35242575924E+02 -0.19792945680E+02  0.41112489222E+02  0.00000000000E+00 0. -1.
</event>
<event>
 7    1  0.2428745E-013  0.7246152E+02  0.7816164E-02  0.1226708E+00
        -11   -1    0    0    0    0  0.00000000000E+00  0.00000000000E+00  0.45593999997E+02  0.45594000000E+02  0.51100000000E-03 0. -1.
         11   -1    0    0    0    0 -0.00000000000E+00 -0.00000000000E+00 -0.45593999997E+02  0.45594000000E+02  0.51100000000E-03 0.  1.
    9900012    2    1    2    0    0 -0.51974893919E+01  0.49494074381E+01  0.17296550894E+02  0.72461516005E+02  0.69999929278E+02 0.  0.
        -12    1    1    2    0    0  0.51974893919E+01 -0.49494074381E+01 -0.17296550894E+02  0.18726483995E+02  0.00000000000E+00 0.  1.
         11    1    3    3    0    0 -0.26074381006E+01 -0.52143420170E+01  0.39203977194E+02  0.39635084511E+02  0.51100000000E-03 0. -1.
        -11    1    3    3    0    0 -0.40418846611E+01  0.14566427862E+02 -0.60114140590E+01  0.16268212918E+02  0.51100000000E-03 0.  1.
        -12    1    3    3    0    0  0.14518333698E+01 -0.44026784074E+01 -0.15896012240E+02  0.16558218577E+02  0.00000000000E+00 0.  1.
</event>
<event>
 7    1  0.1358622E-013  0.7246156E+02  0.7816164E-02  0.1226708E+00
        -11   -1    0    0    0    0  0.00000000000E+00  0.00000000000E+00  0.45593999997E+02  0.45594000000E+02  0.51100000000E-03 0.  1.
         11   -1    0    0    0    0 -0.00000000000E+00 -0.00000000000E+00 -0.45593999997E+02  0.45594000000E+02  0.51100000000E-03 0. -1.
    9900012    2    1    2    0    0 -0.17461644961E+02  0.63700076340E+00  0.67353383144E+01  0.72461558883E+02  0.69999985134E+02 0.  0.
        -12    1    1    2    0    0  0.17461644961E+02 -0.63700076340E+00 -0.67353383144E+01  0.18726441117E+02  0.00000000000E+00 0.  1.
         11    1    3    3    0    0 -0.14790634799E+02 -0.13007259927E+02  0.82977253716E+01  0.21372972072E+02  0.51100000000E-03 0. -1.
        -11    1    3    3    0    0 -0.24959420915E+02  0.10737157294E+02 -0.68006559741E+01  0.28009072836E+02  0.51100000000E-03 0.  1.
        -12    1    3    3    0    0  0.22288410754E+02  0.29071033969E+01  0.52382689168E+01  0.23079513975E+02  0.00000000000E+00 0.  1.
</event>
<event>
 7    1  0.1358622E-013  0.7246153E+02  0.7816164E-02  0.1226708E+00
        -11   -1    0    0    0    0  0.00000000000E+00  0.00000000000E+00  0.45593999997E+02  0.45594000000E+02  0.51100000000E-03 0.  1.
         11   -1    0    0    0    0 -0.00000000000E+00 -0.00000000000E+00 -0.45593999997E+02  0.45594000000E+02  0.51100000000E-03 0. -1.
    9900012    2    1    2    0    0 -0.11742460879E+02  0.32975938093E+01 -0.14209899135E+02  0.72461528206E+02  0.69999945172E+02 0.  0.
        -12    1    1    2    0    0  0.11742460879E+02 -0.32975938093E+01  0.14209899135E+02  0.18726471794E+02  0.00000000000E+00 0.  1.
         11    1    3    3    0    0 -0.22583256240E+02  0.52561838372E+01 -0.10419642605E+02  0.25420461900E+02  0.51100000000E-03 0. -1.
        -11    1    3    3    0    0 -0.12371244677E+02 -0.68954643848E+01  0.11977780590E+02  0.18548917814E+02  0.51100000000E-03 0.  1.
        -12    1    3    3    0    0  0.23212040037E+02  0.49368743569E+01 -0.15768037119E+02  0.28492148492E+02  0.00000000000E+00 0.  1.
</event>
<event>
 7    1  0.1358622E-013  0.7246154E+02  0.7816164E-02  0.1226708E+00
        -11   -1    0    0    0    0  0.00000000000E+00  0.00000000000E+00  0.45593999997E+02  0.45594000000E+02  0.51100000000E-03 0. -1.
         11   -1    0    0    0    0 -0.00000000000E+00 -0.00000000000E+00 -0.45593999997E+02  0.45594000000E+02  0.51100000000E-03 0.  1.
    9900012    2    1    2    0    0  0.18819601323E+01  0.18525415622E+02  0.19868656018E+01  0.72461536564E+02  0.69999956060E+02 0.  0.
        -12    1    1    2    0    0 -0.18819601323E+01 -0.18525415622E+02 -0.19868656018E+01  0.18726463436E+02  0.00000000000E+00 0.  1.
         11    1    3    3    0    0  0.11846636419E+02 -0.14775829229E+02 -0.34397255807E+01  0.19248367104E+02  0.51100000000E-03 0.  1.
        -11    1    3    3    0    0  0.72741308285E+01  0.32266365425E+01  0.15234342731E+02  0.17187476877E+02  0.51100000000E-03 0. -1.
        -12    1    3    3    0    0 -0.17238807115E+02  0.30074608308E+02 -0.98077515483E+01  0.36025692583E+02  0.00000000000E+00 0.  1.
</event>
<event>
 7    1  0.1358622E-013  0.7246157E+02  0.7816164E-02  0.1226708E+00
        -11   -1    0    0    0    0  0.00000000000E+00  0.00000000000E+00  0.45593999997E+02  0.45594000000E+02  0.51100000000E-03 0. -1.
         11   -1    0    0    0    0 -0.00000000000E+00 -0.00000000000E+00 -0.45593999997E+02  0.45594000000E+02  0.51100000000E-03 0.  1.
    9900012    2    1    2    0    0  0.81944512756E+01  0.15368386201E+02 -0.68806244397E+01  0.72461566308E+02  0.69999994807E+02 0.  0.
        -12    1    1    2    0    0 -0.81944512756E+01 -0.15368386201E+02  0.68806244397E+01  0.18726433692E+02  0.00000000000E+00 0.  1.
         11    1    3    3    0    0  0.22291678492E+02 -0.96305579585E+00  0.21565618459E+02  0.31030989450E+02  0.51100000000E-03 0. -1.
        -11    1    3    3    0    0  0.11501502322E+01  0.28979689898E+01 -0.18582434774E+02  0.18842185442E+02  0.51100000000E-03 0.  1.
        -12    1    3    3    0    0 -0.15247377448E+02  0.13433473007E+02 -0.98638081247E+01  0.22588391417E+02  0.00000000000E+00 0.  1.
</event>
<event>
 7    1  0.1358622E-013  0.7246160E+02  0.7816164E-02  0.1226708E+00
        -11   -1    0    0    0    0  0.00000000000E+00  0.00000000000E+00  0.45593999997E+02  0.45594000000E+02  0.51100000000E-03 0. -1.
         11   -1    0    0    0    0 -0.00000000000E+00 -0.00000000000E+00 -0.45593999997E+02  0.45594000000E+02  0.51100000000E-03 0.  1.
    9900012    2    1    2    0    0  0.12991318025E+01 -0.10920679989E+02  0.15156819724E+02  0.72461596741E+02  0.70000034452E+02 0.  0.
        -12    1    1    2    0    0 -0.12991318025E+01  0.10920679989E+02 -0.15156819724E+02  0.18726403259E+02  0.00000000000E+00 0.  1.
         11    1    3    3    0    0 -0.35812231104E+01 -0.16122651649E+02 -0.43692455833E+01  0.17083774829E+02  0.51100000000E-03 0. -1.
        -11    1    3    3    0    0 -0.17935994982E+02 -0.13156748648E+02  0.55369167099E+01  0.22922857542E+02  0.51100000000E-03 0.  1.
         12    1    3    3    0    0  0.22816349895E+02  0.18358720308E+02  0.13989148597E+02  0.32454964371E+02  0.00000000000E+00 0. -1.
</event>
<event>
 7    1  0.1358622E-013  0.7246159E+02  0.7816164E-02  0.1226708E+00
        -11   -1    0    0    0    0  0.00000000000E+00  0.00000000000E+00  0.45593999997E+02  0.45594000000E+02  0.51100000000E-03 0.  1.
         11   -1    0    0    0    0 -0.00000000000E+00 -0.00000000000E+00 -0.45593999997E+02  0.45594000000E+02  0.51100000000E-03 0. -1.
    9900012    2    1    2    0    0  0.16583591716E+02  0.70780154992E+01 -0.50561563984E+01  0.72461587233E+02  0.70000022065E+02 0.  0.
        -12    1    1    2    0    0 -0.16583591716E+02 -0.70780154992E+01  0.50561563984E+01  0.18726412767E+02  0.00000000000E+00 0.  1.
         11    1    3    3    0    0 -0.14607546853E+02 -0.15048225601E+01 -0.11551887179E+02  0.18683977459E+02  0.51100000000E-03 0. -1.
        -11    1    3    3    0    0  0.24818934416E+01  0.11517907853E+02 -0.14061686520E+02  0.18345381555E+02  0.51100000000E-03 0.  1.
        -12    1    3    3    0    0  0.28709245128E+02 -0.29350697936E+01  0.20557417300E+02  0.35432228219E+02  0.00000000000E+00 0.  1.
</event>
<event>
 7    1  0.1572411E-013  0.7246157E+02  0.7816164E-02  0.1226708E+00
        -11   -1    0    0    0    0  0.00000000000E+00  0.00000000000E+00  0.45593999997E+02  0.45594000000E+02  0.51100000000E-03 0. -1.
         11   -1    0    0    0    0 -0.00000000000E+00 -0.00000000000E+00 -0.45593999997E+02  0.45594000000E+02  0.51100000000E-03 0.  1.
    9900012    2    1    2    0    0  0.10329578165E+02 -0.93611786082E+00  0.15591748696E+02  0.72461571373E+02  0.70000001406E+02 0.  0.
        -12    1    1    2    0    0 -0.10329578165E+02  0.93611786082E+00 -0.15591748696E+02  0.18726428627E+02  0.00000000000E+00 0.  1.
         11    1    3    3    0    0  0.23557970675E+02 -0.12899112344E+02  0.17638564687E+02  0.32132289773E+02  0.51100000000E-03 0. -1.
        -11    1    3    3    0    0  0.83192393461E+01  0.16272943370E+02 -0.19857120756E+00  0.18277249793E+02  0.51100000000E-03 0.  1.
        -12    1    3    3    0    0 -0.21547631856E+02 -0.43099488869E+01 -0.18482447840E+01  0.22052031807E+02  0.00000000000E+00 0.  1.
</event>
<event>
 7    1  0.1358622E-013  0.7246158E+02  0.7816164E-02  0.1226708E+00
        -11   -1    0    0    0    0  0.00000000000E+00  0.00000000000E+00  0.45593999997E+02  0.45594000000E+02  0.51100000000E-03 0. -1.
         11   -1    0    0    0    0 -0.00000000000E+00 -0.00000000000E+00 -0.45593999997E+02  0.45594000000E+02  0.51100000000E-03 0.  1.
    9900012    2    1    2    0    0 -0.30140807235E+01  0.10549500357E+02  0.15175706583E+02  0.72461582546E+02  0.70000015959E+02 0.  0.
        -12    1    1    2    0    0  0.30140807235E+01 -0.10549500357E+02 -0.15175706583E+02  0.18726417454E+02  0.00000000000E+00 0.  1.
         11    1    3    3    0    0 -0.13768163544E+02  0.14535712107E+02  0.21246224696E+01  0.20133635408E+02  0.51100000000E-03 0. -1.
        -11    1    3    3    0    0  0.32308797101E+01 -0.26488110889E+02  0.42436875862E+01  0.27019761042E+02  0.51100000000E-03 0.  1.
         12    1    3    3    0    0  0.75232031100E+01  0.22501899139E+02  0.88073965268E+01  0.25308186096E+02  0.00000000000E+00 0. -1.
</event>
<event>
 7    1  0.1358622E-013  0.7246159E+02  0.7816164E-02  0.1226708E+00
        -11   -1    0    0    0    0  0.00000000000E+00  0.00000000000E+00  0.45593999997E+02  0.45594000000E+02  0.51100000000E-03 0.  1.
         11   -1    0    0    0    0 -0.00000000000E+00 -0.00000000000E+00 -0.45593999997E+02  0.45594000000E+02  0.51100000000E-03 0. -1.
    9900012    2    1    2    0    0 -0.15330801324E+02  0.46016531846E+01 -0.97195620040E+01  0.72461586387E+02  0.70000020964E+02 0.  0.
        -12    1    1    2    0    0  0.15330801324E+02 -0.46016531846E+01  0.97195620040E+01  0.18726413613E+02  0.00000000000E+00 0.  1.
         11    1    3    3    0    0  0.19533929117E+02 -0.41299880960E+01 -0.23307125038E+02  0.30689627991E+02  0.51100000000E-03 0. -1.
        -11    1    3    3    0    0 -0.73371489057E+01 -0.39305357639E+01 -0.53796500653E+00  0.83409994644E+01  0.51100000000E-03 0.  1.
        -12    1    3    3    0    0 -0.27527581535E+02  0.12662177045E+02  0.14125528041E+02  0.33430958932E+02  0.00000000000E+00 0.  1.
</event>
<event>
 7    1  0.1358622E-013  0.7246178E+02  0.7816164E-02  0.1226707E+00
        -11   -1    0    0    0    0  0.00000000000E+00  0.00000000000E+00  0.45593999997E+02  0.45594000000E+02  0.51100000000E-03 0.  1.
         11   -1    0    0    0    0 -0.00000000000E+00 -0.00000000000E+00 -0.45593999997E+02  0.45594000000E+02  0.51100000000E-03 0. -1.
    9900012    2    1    2    0    0  0.10239760674E+01 -0.17598677168E+02  0.63173911911E+01  0.72461777837E+02  0.70000270362E+02 0.  0.
        -12    1    1    2    0    0 -0.10239760674E+01  0.17598677168E+02 -0.63173911911E+01  0.18726222163E+02  0.00000000000E+00 0.  1.
         11    1    3    3    0    0 -0.17575149722E+00 -0.29418185185E+01  0.29532697971E+01  0.41721682061E+01  0.51100000000E-03 0. -1.
        -11    1    3    3    0    0  0.22108481566E+02  0.18620812965E+02  0.13434521945E+01  0.28936559863E+02  0.51100000000E-03 0.  1.
         12    1    3    3    0    0 -0.20908754001E+02 -0.33277671615E+02  0.20206691995E+01  0.39353049768E+02  0.00000000000E+00 0. -1.
</event>
<event>
 7    1  0.1358622E-013  0.7246152E+02  0.7816164E-02  0.1226708E+00
        -11   -1    0    0    0    0  0.00000000000E+00  0.00000000000E+00  0.45593999997E+02  0.45594000000E+02  0.51100000000E-03 0.  1.
         11   -1    0    0    0    0 -0.00000000000E+00 -0.00000000000E+00 -0.45593999997E+02  0.45594000000E+02  0.51100000000E-03 0. -1.
    9900012    2    1    2    0    0  0.66562534218E+01 -0.80331940630E+01 -0.15551311672E+02  0.72461515781E+02  0.69999928987E+02 0.  0.
        -12    1    1    2    0    0 -0.66562534218E+01  0.80331940630E+01  0.15551311672E+02  0.18726484219E+02  0.00000000000E+00 0.  1.
         11    1    3    3    0    0  0.17148943338E+02  0.66223601303E+01 -0.28843093849E+02  0.34203303559E+02  0.51100000000E-03 0. -1.
        -11    1    3    3    0    0 -0.71191668605E+01  0.83923513372E+01  0.97383917125E+01  0.14695249952E+02  0.51100000000E-03 0.  1.
        -12    1    3    3    0    0 -0.33735230557E+01 -0.23047905530E+02  0.35533904645E+01  0.23562962270E+02  0.00000000000E+00 0.  1.
</event>
<event>
 7    1  0.1358622E-013  0.7246153E+02  0.7816164E-02  0.1226708E+00
        -11   -1    0    0    0    0  0.00000000000E+00  0.00000000000E+00  0.45593999997E+02  0.45594000000E+02  0.51100000000E-03 0. -1.
         11   -1    0    0    0    0 -0.00000000000E+00 -0.00000000000E+00 -0.45593999997E+02  0.45594000000E+02  0.51100000000E-03 0.  1.
    9900012    2    1    2    0    0 -0.11900398028E+02 -0.13731769047E+01  0.14393590299E+02  0.72461533977E+02  0.69999952690E+02 0.  0.
        -12    1    1    2    0    0  0.11900398028E+02  0.13731769047E+01 -0.14393590299E+02  0.18726466023E+02  0.00000000000E+00 0.  1.
         11    1    3    3    0    0 -0.36879056909E+01  0.79347361500E+01  0.15660703307E+02  0.17939295262E+02  0.51100000000E-03 0. -1.
        -11    1    3    3    0    0 -0.17970432721E+02  0.14898056127E+02 -0.12066743339E+02  0.26277268192E+02  0.51100000000E-03 0.  1.
         12    1    3    3    0    0  0.97579403836E+01 -0.24205969182E+02  0.10799630331E+02  0.28244970523E+02  0.00000000000E+00 0. -1.
</event>
<event>
 7    1  0.1358622E-013  0.7246158E+02  0.7816164E-02  0.1226708E+00
        -11   -1    0    0    0    0  0.00000000000E+00  0.00000000000E+00  0.45593999997E+02  0.45594000000E+02  0.51100000000E-03 0. -1.
         11   -1    0    0    0    0 -0.00000000000E+00 -0.00000000000E+00 -0.45593999997E+02  0.45594000000E+02  0.51100000000E-03 0.  1.
    9900012    2    1    2    0    0  0.15161252789E+02  0.62845597175E+00  0.10973609295E+02  0.72461584326E+02  0.70000018279E+02 0.  0.
        -12    1    1    2    0    0 -0.15161252789E+02 -0.62845597175E+00 -0.10973609295E+02  0.18726415674E+02  0.00000000000E+00 0.  1.
         11    1    3    3    0    0 -0.21902186168E+02 -0.37745301235E+01  0.16983442077E+01  0.22289845444E+02  0.51100000000E-03 0. -1.
        -11    1    3    3    0    0  0.26229747930E+01 -0.69115367305E+01 -0.72294823753E+01  0.10339959014E+02  0.51100000000E-03 0.  1.
         12    1    3    3    0    0  0.34440464164E+02  0.11314522826E+02  0.16504747462E+02  0.39831779868E+02  0.00000000000E+00 0. -1.
</event>
<event>
 7    1  0.1358622E-013  0.7246157E+02  0.7816164E-02  0.1226708E+00
        -11   -1    0    0    0    0  0.00000000000E+00  0.00000000000E+00  0.45593999997E+02  0.45594000000E+02  0.51100000000E-03 0. -1.
         11   -1    0    0    0    0 -0.00000000000E+00 -0.00000000000E+00 -0.45593999997E+02  0.45594000000E+02  0.51100000000E-03 0.  1.
    9900012    2    1    2    0    0  0.13516563289E+02 -0.47665579302E+01 -0.12052445274E+02  0.72461574961E+02  0.70000006080E+02 0.  0.
        -12    1    1    2    0    0 -0.13516563289E+02  0.47665579302E+01  0.12052445274E+02  0.18726425039E+02  0.00000000000E+00 0.  1.
         11    1    3    3    0    0 -0.11850116372E+02 -0.10198313448E+01 -0.34236909717E+01  0.12376872551E+02  0.51100000000E-03 0. -1.
        -11    1    3    3    0    0 -0.64426132694E+01 -0.20937724806E+02 -0.95918729737E+01  0.23914422702E+02  0.51100000000E-03 0.  1.
         12    1    3    3    0    0  0.31809292931E+02  0.17190998220E+02  0.96311867184E+00  0.36170279708E+02  0.00000000000E+00 0. -1.
</event>
<event>
 7    1  0.1358622E-013  0.7246153E+02  0.7816164E-02  0.1226708E+00
        -11   -1    0    0    0    0  0.00000000000E+00  0.00000000000E+00  0.45593999997E+02  0.45594000000E+02  0.51100000000E-03 0. -1.
         11   -1    0    0    0    0 -0.00000000000E+00 -0.00000000000E+00 -0.45593999997E+02  0.45594000000E+02  0.51100000000E-03 0.  1.
    9900012    2    1    2    0    0 -0.61540721265E+01 -0.11341225662E+02  0.13571465534E+02  0.72461529965E+02  0.69999947463E+02 0.  0.
        -12    1    1    2    0    0  0.61540721265E+01  0.11341225662E+02 -0.13571465534E+02  0.18726470035E+02  0.00000000000E+00 0.  1.
         11    1    3    3    0    0 -0.16391006864E+02  0.38613819811E+01  0.15724636544E+02  0.23039955980E+02  0.51100000000E-03 0. -1.
        -11    1    3    3    0    0 -0.30328945507E+01 -0.29557231882E+02  0.34261570215E+00  0.29714403774E+02  0.51100000000E-03 0.  1.
         12    1    3    3    0    0  0.13269829289E+02  0.14354624239E+02 -0.24957867128E+01  0.19707170211E+02  0.00000000000E+00 0. -1.
</event>
<event>
 7    1  0.1358622E-013  0.7246089E+02  0.7816164E-02  0.1226710E+00
        -11   -1    0    0    0    0  0.00000000000E+00  0.00000000000E+00  0.45593999997E+02  0.45594000000E+02  0.51100000000E-03 0.  1.
         11   -1    0    0    0    0 -0.00000000000E+00 -0.00000000000E+00 -0.45593999997E+02  0.45594000000E+02  0.51100000000E-03 0. -1.
    9900012    2    1    2    0    0 -0.17720586739E+02  0.47108777320E+01 -0.38069771664E+01  0.72460890279E+02  0.69999114148E+02 0.  0.
        -12    1    1    2    0    0  0.17720586739E+02 -0.47108777320E+01  0.38069771664E+01  0.18727109721E+02  0.00000000000E+00 0.  1.
         11    1    3    3    0    0 -0.64106681454E+00 -0.19298441371E+01 -0.66882918065E+01  0.69906017341E+01  0.51100000000E-03 0. -1.
        -11    1    3    3    0    0 -0.17682271979E+02 -0.26700514654E+02  0.33355524972E+00  0.32026418540E+02  0.51100000000E-03 0.  1.
         12    1    3    3    0    0  0.60275205516E+00  0.33341236523E+02  0.25477593904E+01  0.33443870004E+02  0.00000000000E+00 0. -1.
</event>
<event>
 7    1  0.1358622E-013  0.7246154E+02  0.7816164E-02  0.1226708E+00
        -11   -1    0    0    0    0  0.00000000000E+00  0.00000000000E+00  0.45593999997E+02  0.45594000000E+02  0.51100000000E-03 0. -1.
         11   -1    0    0    0    0 -0.00000000000E+00 -0.00000000000E+00 -0.45593999997E+02  0.45594000000E+02  0.51100000000E-03 0.  1.
    9900012    2    1    2    0    0 -0.17513070997E+01 -0.92178839995E+01  0.16206289913E+02  0.72461540251E+02  0.69999960863E+02 0.  0.
        -12    1    1    2    0    0  0.17513070997E+01  0.92178839995E+01 -0.16206289913E+02  0.18726459749E+02  0.00000000000E+00 0.  1.
         11    1    3    3    0    0  0.10773580727E+02 -0.10058832585E+02 -0.50399180713E+01  0.15577256789E+02  0.51100000000E-03 0.  1.
        -11    1    3    3    0    0  0.61292660569E+01 -0.20502818161E+02  0.18708384622E+02  0.28424234561E+02  0.51100000000E-03 0. -1.
        -12    1    3    3    0    0 -0.18654153884E+02  0.21343766746E+02  0.25378233628E+01  0.28460048901E+02  0.00000000000E+00 0.  1.
</event>
<event>
 7    1  0.1358622E-013  0.7246158E+02  0.7816164E-02  0.1226708E+00
        -11   -1    0    0    0    0  0.00000000000E+00  0.00000000000E+00  0.45593999997E+02  0.45594000000E+02  0.51100000000E-03 0.  1.
         11   -1    0    0    0    0 -0.00000000000E+00 -0.00000000000E+00 -0.45593999997E+02  0.45594000000E+02  0.51100000000E-03 0. -1.
    9900012    2    1    2    0    0 -0.39536532589E+01  0.17932717273E+02 -0.36694914571E+01  0.72461577745E+02  0.70000009706E+02 0.  0.
        -12    1    1    2    0    0  0.39536532589E+01 -0.17932717273E+02  0.36694914571E+01  0.18726422255E+02  0.00000000000E+00 0.  1.
         11    1    3    3    0    0 -0.16394658062E+02  0.12578160489E+02 -0.13828397554E+02  0.24864020460E+02  0.51100000000E-03 0. -1.
        -11    1    3    3    0    0 -0.89425425880E+01  0.54216290731E+01 -0.12596291760E+02  0.16371612508E+02  0.51100000000E-03 0.  1.
        -12    1    3    3    0    0  0.21383547391E+02 -0.67072288229E-01  0.22755197857E+02  0.31225944778E+02  0.00000000000E+00 0.  1.
</event>
<event>
 7    1  0.1358622E-013  0.7246148E+02  0.7816164E-02  0.1226708E+00
        -11   -1    0    0    0    0  0.00000000000E+00  0.00000000000E+00  0.45593999997E+02  0.45594000000E+02  0.51100000000E-03 0.  1.
         11   -1    0    0    0    0 -0.00000000000E+00 -0.00000000000E+00 -0.45593999997E+02  0.45594000000E+02  0.51100000000E-03 0. -1.
    9900012    2    1    2    0    0 -0.11600635341E+02  0.11322308670E+01 -0.14656944314E+02  0.72461475932E+02  0.69999877075E+02 0.  0.
        -12    1    1    2    0    0  0.11600635341E+02 -0.11322308670E+01  0.14656944314E+02  0.18726524068E+02  0.00000000000E+00 0.  1.
         11    1    3    3    0    0  0.44142134551E+01  0.94310971695E+00 -0.13927640300E+02  0.14640829927E+02  0.51100000000E-03 0. -1.
        -11    1    3    3    0    0 -0.35395481142E+02  0.81664931709E+00 -0.93215710088E+01  0.36611455689E+02  0.51100000000E-03 0.  1.
         12    1    3    3    0    0  0.19380632345E+02 -0.62752816700E+00  0.85922669951E+01  0.21209190315E+02  0.00000000000E+00 0. -1.
</event>
<event>
 7    1  0.1358622E-013  0.7246153E+02  0.7816164E-02  0.1226708E+00
        -11   -1    0    0    0    0  0.00000000000E+00  0.00000000000E+00  0.45593999997E+02  0.45594000000E+02  0.51100000000E-03 0.  1.
         11   -1    0    0    0    0 -0.00000000000E+00 -0.00000000000E+00 -0.45593999997E+02  0.45594000000E+02  0.51100000000E-03 0. -1.
    9900012    2    1    2    0    0  0.13513429224E+02  0.34796263365E+01 -0.12488405125E+02  0.72461525922E+02  0.69999942197E+02 0.  0.
        -12    1    1    2    0    0 -0.13513429224E+02 -0.34796263365E+01  0.12488405125E+02  0.18726474078E+02  0.00000000000E+00 0.  1.
         11    1    3    3    0    0  0.84017482695E+01 -0.21908101108E+01 -0.85898567947E+01  0.12213707993E+02  0.51100000000E-03 0. -1.
        -11    1    3    3    0    0  0.20359165096E+02 -0.11736999265E+02  0.17049686938E+02  0.29033507885E+02  0.51100000000E-03 0.  1.
         12    1    3    3    0    0 -0.15247484141E+02  0.17407435713E+02 -0.20948235268E+02  0.31214310045E+02  0.00000000000E+00 0. -1.
</event>
<event>
 7    1  0.1358622E-013  0.7246151E+02  0.7816164E-02  0.1226708E+00
        -11   -1    0    0    0    0  0.00000000000E+00  0.00000000000E+00  0.45593999997E+02  0.45594000000E+02  0.51100000000E-03 0.  1.
         11   -1    0    0    0    0 -0.00000000000E+00 -0.00000000000E+00 -0.45593999997E+02  0.45594000000E+02  0.51100000000E-03 0. -1.
    9900012    2    1    2    0    0 -0.18818696955E+01 -0.40650883433E+01 -0.18182820048E+02  0.72461512831E+02  0.69999925144E+02 0.  0.
        -12    1    1    2    0    0  0.18818696955E+01  0.40650883433E+01  0.18182820048E+02  0.18726487169E+02  0.00000000000E+00 0.  1.
         11    1    3    3    0    0 -0.65477323176E+01  0.13337718217E+02 -0.33005863658E+02  0.36196057269E+02  0.51100000000E-03 0. -1.
        -11    1    3    3    0    0 -0.32596293218E+01  0.66731389721E+01  0.55663799707E+01  0.92811935275E+01  0.51100000000E-03 0.  1.
        -12    1    3    3    0    0  0.79254919439E+01 -0.24075945532E+02  0.92566636396E+01  0.26984262035E+02  0.00000000000E+00 0.  1.
</event>
<event>
 7    1  0.1358622E-013  0.7246157E+02  0.7816164E-02  0.1226708E+00
        -11   -1    0    0    0    0  0.00000000000E+00  0.00000000000E+00  0.45593999997E+02  0.45594000000E+02  0.51100000000E-03 0.  1.
         11   -1    0    0    0    0 -0.00000000000E+00 -0.00000000000E+00 -0.45593999997E+02  0.45594000000E+02  0.51100000000E-03 0. -1.
    9900012    2    1    2    0    0  0.24474895354E+00  0.48539464189E+01 -0.18084753668E+02  0.72461574470E+02  0.70000005440E+02 0.  0.
        -12    1    1    2    0    0 -0.24474895354E+00 -0.48539464189E+01  0.18084753668E+02  0.18726425530E+02  0.00000000000E+00 0.  1.
         11    1    3    3    0    0 -0.16022727501E+00 -0.46183528033E+01  0.34705726748E+00  0.46341454879E+01  0.51100000000E-03 0. -1.
        -11    1    3    3    0    0  0.14123821154E+02 -0.24698808659E+02 -0.78562276617E+01  0.29516669638E+02  0.51100000000E-03 0.  1.
         12    1    3    3    0    0 -0.13718844926E+02  0.34171107881E+02 -0.10575583274E+02  0.38310759344E+02  0.00000000000E+00 0. -1.
</event>
<event>
 7    1  0.1358622E-013  0.7246159E+02  0.7816164E-02  0.1226708E+00
        -11   -1    0    0    0    0  0.00000000000E+00  0.00000000000E+00  0.45593999997E+02  0.45594000000E+02  0.51100000000E-03 0.  1.
         11   -1    0    0    0    0 -0.00000000000E+00 -0.00000000000E+00 -0.45593999997E+02  0.45594000000E+02  0.51100000000E-03 0. -1.
    9900012    2    1    2    0    0 -0.12965556950E+01 -0.17979474644E+02  0.50730594470E+01  0.72461588243E+02  0.70000023382E+02 0.  0.
        -12    1    1    2    0    0  0.12965556950E+01  0.17979474644E+02 -0.50730594470E+01  0.18726411757E+02  0.00000000000E+00 0.  1.
         11    1    3    3    0    0  0.18754378977E+02 -0.69493997706E+01 -0.65774076686E+01  0.21054291246E+02  0.51100000000E-03 0. -1.
        -11    1    3    3    0    0 -0.11652751295E+02  0.16062607565E+02  0.11712173027E+02  0.23042763979E+02  0.51100000000E-03 0.  1.
        -12    1    3    3    0    0 -0.83981833766E+01 -0.27092682438E+02 -0.61705911280E-01  0.28364533018E+02  0.00000000000E+00 0.  1.
</event>
<event>
 7    1  0.1358622E-013  0.7246154E+02  0.7816164E-02  0.1226708E+00
        -11   -1    0    0    0    0  0.00000000000E+00  0.00000000000E+00  0.45593999997E+02  0.45594000000E+02  0.51100000000E-03 0.  1.
         11   -1    0    0    0    0 -0.00000000000E+00 -0.00000000000E+00 -0.45593999997E+02  0.45594000000E+02  0.51100000000E-03 0. -1.
    9900012    2    1    2    0    0 -0.11354880951E+01  0.17214516010E+01 -0.18612568441E+02  0.72461536564E+02  0.69999956060E+02 0.  0.
        -12    1    1    2    0    0  0.11354880951E+01 -0.17214516010E+01  0.18612568441E+02  0.18726463436E+02  0.00000000000E+00 0.  1.
         11    1    3    3    0    0  0.13823911630E+00 -0.57817877232E+01 -0.16345670988E+01  0.60099907813E+01  0.51100000000E-03 0. -1.
        -11    1    3    3    0    0  0.23421409245E+02  0.18012553648E+02  0.71083183798E+01  0.30389845186E+02  0.51100000000E-03 0.  1.
         12    1    3    3    0    0 -0.24695136457E+02 -0.10509314324E+02 -0.24086319722E+02  0.36061700597E+02  0.00000000000E+00 0. -1.
</event>
<event>
 7    1  0.1358622E-013  0.7246133E+02  0.7816164E-02  0.1226709E+00
        -11   -1    0    0    0    0  0.00000000000E+00  0.00000000000E+00  0.45593999997E+02  0.45594000000E+02  0.51100000000E-03 0.  1.
         11   -1    0    0    0    0 -0.00000000000E+00 -0.00000000000E+00 -0.45593999997E+02  0.45594000000E+02  0.51100000000E-03 0. -1.
    9900012    2    1    2    0    0  0.32974182053E+01 -0.14106182319E+02 -0.11867210580E+02  0.72461333628E+02  0.69999691698E+02 0.  0.
        -12    1    1    2    0    0 -0.32974182053E+01  0.14106182319E+02  0.11867210580E+02  0.18726666372E+02  0.00000000000E+00 0.  1.
         11    1    3    3    0    0 -0.11748362984E+02 -0.14797167309E+02  0.22720859836E+01  0.19030043830E+02  0.51100000000E-03 0. -1.
        -11    1    3    3    0    0 -0.33881656915E+01 -0.48369680139E+01 -0.28698348903E+02  0.29299678434E+02  0.51100000000E-03 0.  1.
        -12    1    3    3    0    0  0.18433946881E+02  0.55279530045E+01  0.14559052339E+02  0.24131611364E+02  0.00000000000E+00 0.  1.
</event>
<event>
 7    1  0.1358622E-013  0.7246164E+02  0.7816164E-02  0.1226708E+00
        -11   -1    0    0    0    0  0.00000000000E+00  0.00000000000E+00  0.45593999997E+02  0.45594000000E+02  0.51100000000E-03 0. -1.
         11   -1    0    0    0    0 -0.00000000000E+00 -0.00000000000E+00 -0.45593999997E+02  0.45594000000E+02  0.51100000000E-03 0.  1.
    9900012    2    1    2    0    0  0.16014417528E+02 -0.67591171951E+01  0.69662930214E+01  0.72461642306E+02  0.70000093809E+02 0.  0.
        -12    1    1    2    0    0 -0.16014417528E+02  0.67591171951E+01 -0.69662930214E+01  0.18726357694E+02  0.00000000000E+00 0.  1.
         11    1    3    3    0    0 -0.20761103383E+02  0.11305893434E+02  0.81533277222E+01  0.25006467028E+02  0.51100000000E-03 0. -1.
        -11    1    3    3    0    0 -0.39269900876E+00  0.30080925256E+01  0.33133427573E+01  0.44923349878E+01  0.51100000000E-03 0.  1.
        -12    1    3    3    0    0  0.37168219920E+02 -0.21073103154E+02 -0.45003774581E+01  0.42962840290E+02  0.00000000000E+00 0.  1.
</event>
<event>
 7    1  0.1358622E-013  0.7246155E+02  0.7816164E-02  0.1226708E+00
        -11   -1    0    0    0    0  0.00000000000E+00  0.00000000000E+00  0.45593999997E+02  0.45594000000E+02  0.51100000000E-03 0.  1.
         11   -1    0    0    0    0 -0.00000000000E+00 -0.00000000000E+00 -0.45593999997E+02  0.45594000000E+02  0.51100000000E-03 0. -1.
    9900012    2    1    2    0    0  0.64080717301E+01  0.13965222997E+01  0.17540415284E+02  0.72461552762E+02  0.69999977161E+02 0.  0.
        -12    1    1    2    0    0 -0.64080717301E+01 -0.13965222997E+01 -0.17540415284E+02  0.18726447238E+02  0.00000000000E+00 0.  1.
         11    1    3    3    0    0 -0.79277275977E+00 -0.51658609187E+00  0.32237510045E+01  0.33597500858E+01  0.51100000000E-03 0.  1.
        -11    1    3    3    0    0 -0.23124448118E+02 -0.19619294457E+02  0.81482271475E+01  0.31401439802E+02  0.51100000000E-03 0. -1.
        -12    1    3    3    0    0  0.30325292608E+02  0.21532402848E+02  0.61684371320E+01  0.37700362874E+02  0.00000000000E+00 0.  1.
</event>
<event>
 7    1  0.1358622E-013  0.7246158E+02  0.7816164E-02  0.1226708E+00
        -11   -1    0    0    0    0  0.00000000000E+00  0.00000000000E+00  0.45593999997E+02  0.45594000000E+02  0.51100000000E-03 0.  1.
         11   -1    0    0    0    0 -0.00000000000E+00 -0.00000000000E+00 -0.45593999997E+02  0.45594000000E+02  0.51100000000E-03 0. -1.
    9900012    2    1    2    0    0 -0.15508166310E+02  0.67943684147E+01  0.80007693488E+01  0.72461575498E+02  0.70000006779E+02 0.  0.
        -12    1    1    2    0    0  0.15508166310E+02 -0.67943684147E+01 -0.80007693488E+01  0.18726424502E+02  0.00000000000E+00 0.  1.
         11    1    3    3    0    0 -0.25497783827E+01  0.25143924017E+01  0.97933672641E+01  0.10427539575E+02  0.51100000000E-03 0. -1.
        -11    1    3    3    0    0  0.22613392765E+01  0.14011199111E+02  0.25570823059E+02  0.29245415846E+02  0.51100000000E-03 0.  1.
         12    1    3    3    0    0 -0.15219727204E+02 -0.97312230984E+01 -0.27363420974E+02  0.32788620077E+02  0.00000000000E+00 0. -1.
</event>
<event>
 7    1  0.1358622E-013  0.7246162E+02  0.7816164E-02  0.1226708E+00
        -11   -1    0    0    0    0  0.00000000000E+00  0.00000000000E+00  0.45593999997E+02  0.45594000000E+02  0.51100000000E-03 0. -1.
         11   -1    0    0    0    0 -0.00000000000E+00 -0.00000000000E+00 -0.45593999997E+02  0.45594000000E+02  0.51100000000E-03 0.  1.
    9900012    2    1    2    0    0  0.82592367181E+01 -0.10013741303E+02  0.13497680281E+02  0.72461618101E+02  0.70000062277E+02 0.  0.
        -12    1    1    2    0    0 -0.82592367181E+01  0.10013741303E+02 -0.13497680281E+02  0.18726381899E+02  0.00000000000E+00 0.  1.
         11    1    3    3    0    0  0.14872911436E+02  0.10120310574E+02  0.34277644523E+01  0.18313212446E+02  0.51100000000E-03 0. -1.
        -11    1    3    3    0    0 -0.23494746760E+02  0.19452017517E+01  0.11677407448E+02  0.26308720610E+02  0.51100000000E-03 0.  1.
         12    1    3    3    0    0  0.16881072043E+02 -0.22079253629E+02 -0.16074916189E+01  0.27839685045E+02  0.00000000000E+00 0. -1.
</event>
<event>
 7    1  0.1358622E-013  0.7246156E+02  0.7816164E-02  0.1226708E+00
        -11   -1    0    0    0    0  0.00000000000E+00  0.00000000000E+00  0.45593999997E+02  0.45594000000E+02  0.51100000000E-03 0. -1.
         11   -1    0    0    0    0 -0.00000000000E+00 -0.00000000000E+00 -0.45593999997E+02  0.45594000000E+02  0.51100000000E-03 0.  1.
    9900012    2    1    2    0    0 -0.10571474743E+02 -0.78165880904E+01  0.13335078323E+02  0.72461563033E+02  0.69999990540E+02 0.  0.
        -12    1    1    2    0    0  0.10571474743E+02  0.78165880904E+01 -0.13335078323E+02  0.18726436967E+02  0.00000000000E+00 0.  1.
         11    1    3    3    0    0  0.14295236960E+02  0.59286694316E+01 -0.88116151869E+01  0.17808635081E+02  0.51100000000E-03 0.  1.
        -11    1    3    3    0    0 -0.34937125104E+01  0.14289374081E+02  0.63107057967E+01  0.16006787518E+02  0.51100000000E-03 0. -1.
         12    1    3    3    0    0 -0.21372999193E+02 -0.28034631603E+02  0.15835987713E+02  0.38646140434E+02  0.00000000000E+00 0. -1.
</event>
<event>
 7    1  0.1358622E-013  0.7246158E+02  0.7816164E-02  0.1226708E+00
        -11   -1    0    0    0    0  0.00000000000E+00  0.00000000000E+00  0.45593999997E+02  0.45594000000E+02  0.51100000000E-03 0.  1.
         11   -1    0    0    0    0 -0.00000000000E+00 -0.00000000000E+00 -0.45593999997E+02  0.45594000000E+02  0.51100000000E-03 0. -1.
    9900012    2    1    2    0    0 -0.69831528607E+01 -0.17375653281E+02 -0.30746156606E-01  0.72461582934E+02  0.70000016465E+02 0.  0.
        -12    1    1    2    0    0  0.69831528607E+01  0.17375653281E+02  0.30746156606E-01  0.18726417066E+02  0.00000000000E+00 0.  1.
         11    1    3    3    0    0 -0.56505339294E+01 -0.19204530654E+02 -0.17874564756E+02  0.26837335874E+02  0.51100000000E-03 0. -1.
        -11    1    3    3    0    0  0.36376582910E+01 -0.13704808084E+02  0.24258557685E+02  0.28098611063E+02  0.51100000000E-03 0.  1.
        -12    1    3    3    0    0 -0.49702772223E+01  0.15533685457E+02 -0.64147390855E+01  0.17525635996E+02  0.00000000000E+00 0.  1.
</event>
<event>
 7    1  0.1358622E-013  0.7246157E+02  0.7816164E-02  0.1226708E+00
        -11   -1    0    0    0    0  0.00000000000E+00  0.00000000000E+00  0.45593999997E+02  0.45594000000E+02  0.51100000000E-03 0.  1.
         11   -1    0    0    0    0 -0.00000000000E+00 -0.00000000000E+00 -0.45593999997E+02  0.45594000000E+02  0.51100000000E-03 0. -1.
    9900012    2    1    2    0    0 -0.16229166372E+02 -0.50697689725E+01 -0.78479705117E+01  0.72461573760E+02  0.70000004515E+02 0.  0.
        -12    1    1    2    0    0  0.16229166372E+02  0.50697689725E+01  0.78479705117E+01  0.18726426240E+02  0.00000000000E+00 0.  1.
         11    1    3    3    0    0  0.43428177132E+01 -0.16277141213E+02 -0.75320594604E+01  0.18453653073E+02  0.51100000000E-03 0. -1.
        -11    1    3    3    0    0  0.14664681957E+01 -0.16530848112E+02 -0.69015071308E+01  0.17973599228E+02  0.51100000000E-03 0.  1.
        -12    1    3    3    0    0 -0.22038452281E+02  0.27738220353E+02  0.65855960794E+01  0.36034321459E+02  0.00000000000E+00 0.  1.
</event>
<event>
 7    1  0.1358622E-013  0.7246159E+02  0.7816164E-02  0.1226708E+00
        -11   -1    0    0    0    0  0.00000000000E+00  0.00000000000E+00  0.45593999997E+02  0.45594000000E+02  0.51100000000E-03 0. -1.
         11   -1    0    0    0    0 -0.00000000000E+00 -0.00000000000E+00 -0.45593999997E+02  0.45594000000E+02  0.51100000000E-03 0.  1.
    9900012    2    1    2    0    0 -0.83927485095E+01 -0.99520592925E+01  0.13460926195E+02  0.72461594960E+02  0.70000032131E+02 0.  0.
        -12    1    1    2    0    0  0.83927485095E+01  0.99520592925E+01 -0.13460926195E+02  0.18726405040E+02  0.00000000000E+00 0.  1.
         11    1    3    3    0    0 -0.31188080635E+02 -0.81386306589E-02  0.17414437540E+02  0.35720569355E+02  0.51100000000E-03 0. -1.
        -11    1    3    3    0    0 -0.45217033509E+01 -0.65343263793E+01 -0.46431835664E+01  0.92033893928E+01  0.51100000000E-03 0.  1.
         12    1    3    3    0    0  0.27317035476E+02 -0.34095942826E+01  0.68967222115E+00  0.27537636212E+02  0.00000000000E+00 0. -1.
</event>
<event>
 7    1  0.1358622E-013  0.7246154E+02  0.7816164E-02  0.1226708E+00
        -11   -1    0    0    0    0  0.00000000000E+00  0.00000000000E+00  0.45593999997E+02  0.45594000000E+02  0.51100000000E-03 0. -1.
         11   -1    0    0    0    0 -0.00000000000E+00 -0.00000000000E+00 -0.45593999997E+02  0.45594000000E+02  0.51100000000E-03 0.  1.
    9900012    2    1    2    0    0  0.18364159209E+02 -0.27859029558E+01  0.23826016027E+01  0.72461537731E+02  0.69999957580E+02 0.  0.
        -12    1    1    2    0    0 -0.18364159209E+02  0.27859029558E+01 -0.23826016027E+01  0.18726462269E+02  0.00000000000E+00 0.  1.
         11    1    3    3    0    0  0.96935232481E+01 -0.59205980662E+01  0.74504618287E+01  0.13584080983E+02  0.51100000000E-03 0. -1.
        -11    1    3    3    0    0  0.23092534037E+02  0.15115548676E+02 -0.20673139418E+02  0.34483671987E+02  0.51100000000E-03 0.  1.
         12    1    3    3    0    0 -0.14421898076E+02 -0.11980853566E+02  0.15605279192E+02  0.24393784761E+02  0.00000000000E+00 0. -1.
</event>
<event>
 7    1  0.1358622E-013  0.7246158E+02  0.7816164E-02  0.1226708E+00
        -11   -1    0    0    0    0  0.00000000000E+00  0.00000000000E+00  0.45593999997E+02  0.45594000000E+02  0.51100000000E-03 0.  1.
         11   -1    0    0    0    0 -0.00000000000E+00 -0.00000000000E+00 -0.45593999997E+02  0.45594000000E+02  0.51100000000E-03 0. -1.
    9900012    2    1    2    0    0  0.10542164153E+02 -0.12773246175E+02 -0.87399000938E+01  0.72461577583E+02  0.70000009495E+02 0.  0.
        -12    1    1    2    0    0 -0.10542164153E+02  0.12773246175E+02  0.87399000938E+01  0.18726422417E+02  0.00000000000E+00 0.  1.
         11    1    3    3    0    0 -0.10189270944E+02 -0.10264752047E+01 -0.39684998418E+01  0.10982890556E+02  0.51100000000E-03 0. -1.
        -11    1    3    3    0    0  0.17101279864E+01 -0.30990017952E+02  0.72470251874E+01  0.31872011620E+02  0.51100000000E-03 0.  1.
         12    1    3    3    0    0  0.19021307111E+02  0.19243246982E+02 -0.12018425439E+02  0.29606675407E+02  0.00000000000E+00 0. -1.
</event>
<event>
 7    1  0.1358622E-013  0.7246157E+02  0.7816164E-02  0.1226708E+00
        -11   -1    0    0    0    0  0.00000000000E+00  0.00000000000E+00  0.45593999997E+02  0.45594000000E+02  0.51100000000E-03 0.  1.
         11   -1    0    0    0    0 -0.00000000000E+00 -0.00000000000E+00 -0.45593999997E+02  0.45594000000E+02  0.51100000000E-03 0. -1.
    9900012    2    1    2    0    0  0.25800324690E+01  0.14754191635E+02  0.11239956079E+02  0.72461565448E+02  0.69999993687E+02 0.  0.
        -12    1    1    2    0    0 -0.25800324690E+01 -0.14754191635E+02 -0.11239956079E+02  0.18726434552E+02  0.00000000000E+00 0.  1.
         11    1    3    3    0    0 -0.18763573132E+02  0.10051333936E+01 -0.15466755138E+01  0.18854022786E+02  0.51100000000E-03 0. -1.
        -11    1    3    3    0    0  0.12245986055E+02 -0.15489500341E+02 -0.15300052424E+01  0.19804790116E+02  0.51100000000E-03 0.  1.
         12    1    3    3    0    0  0.90976195463E+01  0.29238558582E+02  0.14316636835E+02  0.33802752546E+02  0.00000000000E+00 0. -1.
</event>
<event>
 7    1  0.1358622E-013  0.7246173E+02  0.7816164E-02  0.1226708E+00
        -11   -1    0    0    0    0  0.00000000000E+00  0.00000000000E+00  0.45593999997E+02  0.45594000000E+02  0.51100000000E-03 0.  1.
         11   -1    0    0    0    0 -0.00000000000E+00 -0.00000000000E+00 -0.45593999997E+02  0.45594000000E+02  0.51100000000E-03 0. -1.
    9900012    2    1    2    0    0  0.34134783830E+01  0.15826150878E+02 -0.94103262888E+01  0.72461731628E+02  0.70000210167E+02 0.  0.
        -12    1    1    2    0    0 -0.34134783830E+01 -0.15826150878E+02  0.94103262888E+01  0.18726268372E+02  0.00000000000E+00 0.  1.
         11    1    3    3    0    0  0.78768452835E+01  0.14454872458E+01 -0.26241197392E+02  0.27436008563E+02  0.51100000000E-03 0. -1.
        -11    1    3    3    0    0 -0.38950194344E-01 -0.97055937198E+01 -0.61107813991E+01  0.11469163707E+02  0.51100000000E-03 0.  1.
         12    1    3    3    0    0 -0.44244167062E+01  0.24086257352E+02  0.22941652503E+02  0.33556559358E+02  0.00000000000E+00 0. -1.
</event>
<event>
 7    1  0.1358622E-013  0.7246156E+02  0.7816164E-02  0.1226708E+00
        -11   -1    0    0    0    0  0.00000000000E+00  0.00000000000E+00  0.45593999997E+02  0.45594000000E+02  0.51100000000E-03 0.  1.
         11   -1    0    0    0    0 -0.00000000000E+00 -0.00000000000E+00 -0.45593999997E+02  0.45594000000E+02  0.51100000000E-03 0. -1.
    9900012    2    1    2    0    0 -0.17866797584E+02  0.48075714487E+01 -0.28886897275E+01  0.72461555396E+02  0.69999980593E+02 0.  0.
        -12    1    1    2    0    0  0.17866797584E+02 -0.48075714487E+01  0.28886897275E+01  0.18726444604E+02  0.00000000000E+00 0.  1.
         11    1    3    3    0    0  0.48772740709E+01  0.76394068680E+01 -0.61178155506E+01  0.10935081483E+02  0.51100000000E-03 0. -1.
        -11    1    3    3    0    0 -0.32948181685E+02  0.15056414790E+02  0.13315503992E+02  0.38595089707E+02  0.51100000000E-03 0.  1.
         12    1    3    3    0    0  0.10204110030E+02 -0.17888250210E+02 -0.10086378169E+02  0.22931384207E+02  0.00000000000E+00 0. -1.
</event>
<event>
 7    1  0.1358622E-013  0.7246155E+02  0.7816164E-02  0.1226708E+00
        -11   -1    0    0    0    0  0.00000000000E+00  0.00000000000E+00  0.45593999997E+02  0.45594000000E+02  0.51100000000E-03 0.  1.
         11   -1    0    0    0    0 -0.00000000000E+00 -0.00000000000E+00 -0.45593999997E+02  0.45594000000E+02  0.51100000000E-03 0. -1.
    9900012    2    1    2    0    0  0.82006415725E+01  0.13319766768E+02  0.10296278078E+02  0.72461546753E+02  0.69999969333E+02 0.  0.
        -12    1    1    2    0    0 -0.82006415725E+01 -0.13319766768E+02 -0.10296278078E+02  0.18726453247E+02  0.00000000000E+00 0.  1.
         11    1    3    3    0    0  0.15118723796E+01  0.55277707684E+01 -0.51049258325E+01  0.76747818065E+01  0.51100000000E-03 0. -1.
        -11    1    3    3    0    0  0.19343816571E+02 -0.15045775979E+02 -0.11698669887E+02  0.27155432085E+02  0.51100000000E-03 0.  1.
        -12    1    3    3    0    0 -0.12655047378E+02  0.22837771979E+02  0.27099873797E+02  0.37631332861E+02  0.00000000000E+00 0.  1.
</event>
<event>
 7    1  0.1358622E-013  0.7246175E+02  0.7816164E-02  0.1226708E+00
        -11   -1    0    0    0    0  0.00000000000E+00  0.00000000000E+00  0.45593999997E+02  0.45594000000E+02  0.51100000000E-03 0.  1.
         11   -1    0    0    0    0 -0.00000000000E+00 -0.00000000000E+00 -0.45593999997E+02  0.45594000000E+02  0.51100000000E-03 0. -1.
    9900012    2    1    2    0    0  0.43542773670E+01 -0.28920436072E+01 -0.17981898012E+02  0.72461753614E+02  0.70000238807E+02 0.  0.
        -12    1    1    2    0    0 -0.43542773670E+01  0.28920436072E+01  0.17981898012E+02  0.18726246386E+02  0.00000000000E+00 0.  1.
         11    1    3    3    0    0 -0.23978260524E+01  0.47109306518E+01 -0.45893564180E+00  0.53059456808E+01  0.51100000000E-03 0. -1.
        -11    1    3    3    0    0  0.11260805925E+02  0.21219076143E+02  0.10942189129E+02  0.26396712781E+02  0.51100000000E-03 0.  1.
         12    1    3    3    0    0 -0.45087025055E+01 -0.28822050402E+02 -0.28465151499E+02  0.40759095151E+02  0.00000000000E+00 0. -1.
</event>
<event>
 7    1  0.1358622E-013  0.7246157E+02  0.7816164E-02  0.1226708E+00
        -11   -1    0    0    0    0  0.00000000000E+00  0.00000000000E+00  0.45593999997E+02  0.45594000000E+02  0.51100000000E-03 0.  1.
         11   -1    0    0    0    0 -0.00000000000E+00 -0.00000000000E+00 -0.45593999997E+02  0.45594000000E+02  0.51100000000E-03 0. -1.
    9900012    2    1    2    0    0  0.42828359801E+01 -0.16385558773E+01 -0.18156314446E+02  0.72461566713E+02  0.69999995335E+02 0.  0.
        -12    1    1    2    0    0 -0.42828359801E+01  0.16385558773E+01  0.18156314446E+02  0.18726433287E+02  0.00000000000E+00 0.  1.
         11    1    3    3    0    0 -0.28805183976E+02 -0.11531630905E+02 -0.12642108755E+02  0.33504328814E+02  0.51100000000E-03 0. -1.
        -11    1    3    3    0    0 -0.20549877178E+01  0.81567208964E+00  0.17408511484E+00  0.22177920025E+01  0.51100000000E-03 0.  1.
        -12    1    3    3    0    0  0.35143007674E+02  0.90774029384E+01 -0.56882908057E+01  0.36739445896E+02  0.00000000000E+00 0.  1.
</event>
<event>
 7    1  0.1358622E-013  0.7246154E+02  0.7816164E-02  0.1226708E+00
        -11   -1    0    0    0    0  0.00000000000E+00  0.00000000000E+00  0.45593999997E+02  0.45594000000E+02  0.51100000000E-03 0. -1.
         11   -1    0    0    0    0 -0.00000000000E+00 -0.00000000000E+00 -0.45593999997E+02  0.45594000000E+02  0.51100000000E-03 0.  1.
    9900012    2    1    2    0    0  0.15038262934E+02 -0.23834019830E+01 -0.10901845759E+02  0.72461542833E+02  0.69999964226E+02 0.  0.
        -12    1    1    2    0    0 -0.15038262934E+02  0.23834019830E+01  0.10901845759E+02  0.18726457167E+02  0.00000000000E+00 0.  1.
         11    1    3    3    0    0 -0.10726702986E+02 -0.22487528137E+02 -0.10553883636E+02  0.27058003229E+02  0.51100000000E-03 0. -1.
        -11    1    3    3    0    0 -0.16041442293E+01  0.91805817810E+00 -0.10350951044E+02  0.10514670575E+02  0.51100000000E-03 0.  1.
        -12    1    3    3    0    0  0.27369110150E+02  0.19186067976E+02  0.10002988922E+02  0.34888869029E+02  0.00000000000E+00 0.  1.
</event>
<event>
 7    1  0.1358622E-013  0.7246160E+02  0.7816164E-02  0.1226708E+00
        -11   -1    0    0    0    0  0.00000000000E+00  0.00000000000E+00  0.45593999997E+02  0.45594000000E+02  0.51100000000E-03 0.  1.
         11   -1    0    0    0    0 -0.00000000000E+00 -0.00000000000E+00 -0.45593999997E+02  0.45594000000E+02  0.51100000000E-03 0. -1.
    9900012    2    1    2    0    0 -0.33817961605E+01 -0.16146976936E+02 -0.88609709229E+01  0.72461595777E+02  0.70000033195E+02 0.  0.
        -12    1    1    2    0    0  0.33817961605E+01  0.16146976936E+02  0.88609709229E+01  0.18726404223E+02  0.00000000000E+00 0.  1.
         11    1    3    3    0    0 -0.37397082534E+01  0.16388918263E+02 -0.16487995304E+02  0.23546465744E+02  0.51100000000E-03 0. -1.
        -11    1    3    3    0    0  0.88268806015E+01  0.11661459037E+01 -0.68867192699E+01  0.11256136992E+02  0.51100000000E-03 0.  1.
        -12    1    3    3    0    0 -0.84689685086E+01 -0.33702041102E+02  0.14513743650E+02  0.37658993040E+02  0.00000000000E+00 0.  1.
</event>
<event>
 7    1  0.1358622E-013  0.7246155E+02  0.7816164E-02  0.1226708E+00
        -11   -1    0    0    0    0  0.00000000000E+00  0.00000000000E+00  0.45593999997E+02  0.45594000000E+02  0.51100000000E-03 0.  1.
         11   -1    0    0    0    0 -0.00000000000E+00 -0.00000000000E+00 -0.45593999997E+02  0.45594000000E+02  0.51100000000E-03 0. -1.
    9900012    2    1    2    0    0 -0.11499821033E+02 -0.89737080280E+01 -0.11743360144E+02  0.72461552739E+02  0.69999977131E+02 0.  0.
        -12    1    1    2    0    0  0.11499821033E+02  0.89737080280E+01  0.11743360144E+02  0.18726447261E+02  0.00000000000E+00 0.  1.
         11    1    3    3    0    0 -0.48415375495E+01  0.99112570422E+01  0.12099980848E+02  0.16373241548E+02  0.51100000000E-03 0. -1.
        -11    1    3    3    0    0 -0.22323927097E+00 -0.17836387530E+02  0.10789527200E+02  0.20847073017E+02  0.51100000000E-03 0.  1.
         12    1    3    3    0    0 -0.64350442125E+01 -0.10485775399E+01 -0.34632868192E+02  0.35241238174E+02  0.00000000000E+00 0. -1.
</event>
<event>
 7    1  0.1358622E-013  0.7246155E+02  0.7816164E-02  0.1226708E+00
        -11   -1    0    0    0    0  0.00000000000E+00  0.00000000000E+00  0.45593999997E+02  0.45594000000E+02  0.51100000000E-03 0.  1.
         11   -1    0    0    0    0 -0.00000000000E+00 -0.00000000000E+00 -0.45593999997E+02  0.45594000000E+02  0.51100000000E-03 0. -1.
    9900012    2    1    2    0    0 -0.10312414547E+02  0.81141399724E+01 -0.13360191999E+02  0.72461551016E+02  0.69999974887E+02 0.  0.
        -12    1    1    2    0    0  0.10312414547E+02 -0.81141399724E+01  0.13360191999E+02  0.18726448984E+02  0.00000000000E+00 0.  1.
         11    1    3    3    0    0  0.88782259592E+00  0.96895367028E+01 -0.16279267890E+02  0.18965492711E+02  0.51100000000E-03 0. -1.
        -11    1    3    3    0    0 -0.46129130866E+01  0.37799477372E+01 -0.24280599155E+02  0.25002289247E+02  0.51100000000E-03 0.  1.
        -12    1    3    3    0    0 -0.65873240564E+01 -0.53553444677E+01  0.27199675045E+02  0.28493769058E+02  0.00000000000E+00 0.  1.
</event>
<event>
 7    1  0.1358622E-013  0.7246160E+02  0.7816164E-02  0.1226708E+00
        -11   -1    0    0    0    0  0.00000000000E+00  0.00000000000E+00  0.45593999997E+02  0.45594000000E+02  0.51100000000E-03 0.  1.
         11   -1    0    0    0    0 -0.00000000000E+00 -0.00000000000E+00 -0.45593999997E+02  0.45594000000E+02  0.51100000000E-03 0. -1.
    9900012    2    1    2    0    0  0.82256452817E+00  0.87293701528E+01 -0.16546886398E+02  0.72461602452E+02  0.70000041891E+02 0.  0.
        -12    1    1    2    0    0 -0.82256452817E+00 -0.87293701528E+01  0.16546886398E+02  0.18726397548E+02  0.00000000000E+00 0.  1.
         11    1    3    3    0    0 -0.21164270472E+01  0.24385216338E+02 -0.12506750184E+02  0.27487030391E+02  0.51100000000E-03 0. -1.
        -11    1    3    3    0    0 -0.13318761713E+02  0.54874803202E+01 -0.10138430838E+02  0.17615039992E+02  0.51100000000E-03 0.  1.
        -12    1    3    3    0    0  0.16257753288E+02 -0.21143326505E+02  0.60982946242E+01  0.27359532068E+02  0.00000000000E+00 0.  1.
</event>
<event>
 7    1  0.1358622E-013  0.7246155E+02  0.7816164E-02  0.1226708E+00
        -11   -1    0    0    0    0  0.00000000000E+00  0.00000000000E+00  0.45593999997E+02  0.45594000000E+02  0.51100000000E-03 0. -1.
         11   -1    0    0    0    0 -0.00000000000E+00 -0.00000000000E+00 -0.45593999997E+02  0.45594000000E+02  0.51100000000E-03 0.  1.
    9900012    2    1    2    0    0 -0.17859706261E+02 -0.55749913917E+01  0.79390368184E+00  0.72461550262E+02  0.69999973904E+02 0.  0.
        -12    1    1    2    0    0  0.17859706261E+02  0.55749913917E+01 -0.79390368184E+00  0.18726449738E+02  0.00000000000E+00 0.  1.
         11    1    3    3    0    0 -0.11197433128E+02  0.19469153271E+02  0.26349201788E+01  0.22613563239E+02  0.51100000000E-03 0. -1.
        -11    1    3    3    0    0 -0.22836760234E+01  0.72797486693E+01  0.12156527824E+02  0.14352389553E+02  0.51100000000E-03 0.  1.
        -12    1    3    3    0    0 -0.43785971095E+01 -0.32323893332E+02 -0.13997544321E+02  0.35495597471E+02  0.00000000000E+00 0.  1.
</event>
<event>
 7    1  0.1358622E-013  0.7246156E+02  0.7816164E-02  0.1226708E+00
        -11   -1    0    0    0    0  0.00000000000E+00  0.00000000000E+00  0.45593999997E+02  0.45594000000E+02  0.51100000000E-03 0.  1.
         11   -1    0    0    0    0 -0.00000000000E+00 -0.00000000000E+00 -0.45593999997E+02  0.45594000000E+02  0.51100000000E-03 0. -1.
    9900012    2    1    2    0    0 -0.85020537141E-01 -0.18493328643E+02  0.29443621705E+01  0.72461556094E+02  0.69999981501E+02 0.  0.
        -12    1    1    2    0    0  0.85020537141E-01  0.18493328643E+02 -0.29443621705E+01  0.18726443906E+02  0.00000000000E+00 0.  1.
         11    1    3    3    0    0  0.71384611059E+01  0.13513824064E+02  0.22986445579E+02  0.27603582167E+02  0.51100000000E-03 0. -1.
        -11    1    3    3    0    0  0.44423668548E+01 -0.39354995735E+01  0.30593548208E+01  0.66770077389E+01  0.51100000000E-03 0.  1.
         12    1    3    3    0    0 -0.11665848498E+02 -0.28071653133E+02 -0.23101438229E+02  0.38180966188E+02  0.00000000000E+00 0. -1.
</event>
<event>
 7    1  0.1358622E-013  0.7246153E+02  0.7816164E-02  0.1226708E+00
        -11   -1    0    0    0    0  0.00000000000E+00  0.00000000000E+00  0.45593999997E+02  0.45594000000E+02  0.51100000000E-03 0. -1.
         11   -1    0    0    0    0 -0.00000000000E+00 -0.00000000000E+00 -0.45593999997E+02  0.45594000000E+02  0.51100000000E-03 0.  1.
    9900012    2    1    2    0    0 -0.16244078249E+02 -0.73399627103E+01 -0.57389605878E+01  0.72461526777E+02  0.69999943311E+02 0.  0.
        -12    1    1    2    0    0  0.16244078249E+02  0.73399627103E+01  0.57389605878E+01  0.18726473223E+02  0.00000000000E+00 0.  1.
         11    1    3    3    0    0 -0.16960485971E+02  0.12935950113E+01  0.45816450704E+00  0.17015915708E+02  0.51100000000E-03 0. -1.
        -11    1    3    3    0    0 -0.18517992969E+02  0.15359191004E+02  0.88892800700E-01  0.24058859368E+02  0.51100000000E-03 0.  1.
        -12    1    3    3    0    0  0.19234400691E+02 -0.23992748725E+02 -0.62860178956E+01  0.31386751701E+02  0.00000000000E+00 0.  1.
</event>
<event>
 7    1  0.1358622E-013  0.7246158E+02  0.7816164E-02  0.1226708E+00
        -11   -1    0    0    0    0  0.00000000000E+00  0.00000000000E+00  0.45593999997E+02  0.45594000000E+02  0.51100000000E-03 0. -1.
         11   -1    0    0    0    0 -0.00000000000E+00 -0.00000000000E+00 -0.45593999997E+02  0.45594000000E+02  0.51100000000E-03 0.  1.
    9900012    2    1    2    0    0  0.16228109710E+02 -0.36934974527E+01  0.85840158955E+01  0.72461580238E+02  0.70000012954E+02 0.  0.
        -12    1    1    2    0    0 -0.16228109710E+02  0.36934974527E+01 -0.85840158955E+01  0.18726419762E+02  0.00000000000E+00 0.  1.
         11    1    3    3    0    0 -0.10696312100E+02  0.13251936167E+02  0.97503576335E+01  0.19623821722E+02  0.51100000000E-03 0. -1.
        -11    1    3    3    0    0 -0.52079815238E+01  0.28830089692E+01 -0.12137154466E+02  0.13518333147E+02  0.51100000000E-03 0.  1.
        -12    1    3    3    0    0  0.32132403334E+02 -0.19828442589E+02  0.10970812728E+02  0.39319425370E+02  0.00000000000E+00 0.  1.
</event>
<event>
 7    1  0.1358622E-013  0.7246155E+02  0.7816164E-02  0.1226708E+00
        -11   -1    0    0    0    0  0.00000000000E+00  0.00000000000E+00  0.45593999997E+02  0.45594000000E+02  0.51100000000E-03 0. -1.
         11   -1    0    0    0    0 -0.00000000000E+00 -0.00000000000E+00 -0.45593999997E+02  0.45594000000E+02  0.51100000000E-03 0.  1.
    9900012    2    1    2    0    0  0.56306608122E+01 -0.17328504758E+02 -0.43241587839E+01  0.72461554328E+02  0.69999979201E+02 0.  0.
        -12    1    1    2    0    0 -0.56306608122E+01  0.17328504758E+02  0.43241587839E+01  0.18726445672E+02  0.00000000000E+00 0.  1.
         11    1    3    3    0    0 -0.27695647704E+02 -0.92399059377E+01  0.10211532478E+02  0.30930569981E+02  0.51100000000E-03 0.  1.
        -11    1    3    3    0    0 -0.47443068530E+00 -0.13671094759E+00  0.27142501216E+01  0.27587911016E+01  0.51100000000E-03 0. -1.
        -12    1    3    3    0    0  0.33800739202E+02 -0.79518878725E+01 -0.17249941384E+02  0.38772193246E+02  0.00000000000E+00 0.  1.
</event>
<event>
 7    1  0.1358622E-013  0.7246165E+02  0.7816164E-02  0.1226708E+00
        -11   -1    0    0    0    0  0.00000000000E+00  0.00000000000E+00  0.45593999997E+02  0.45594000000E+02  0.51100000000E-03 0.  1.
         11   -1    0    0    0    0 -0.00000000000E+00 -0.00000000000E+00 -0.45593999997E+02  0.45594000000E+02  0.51100000000E-03 0. -1.
    9900012    2    1    2    0    0 -0.16451784210E+02 -0.92263415451E+00 -0.88973987914E+01  0.72461650577E+02  0.70000104583E+02 0.  0.
        -12    1    1    2    0    0  0.16451784210E+02  0.92263415451E+00  0.88973987914E+01  0.18726349423E+02  0.00000000000E+00 0.  1.
         11    1    3    3    0    0 -0.96890125138E+01 -0.19194701665E+01  0.78827000377E+01  0.12637178853E+02  0.51100000000E-03 0. -1.
        -11    1    3    3    0    0  0.40477419764E+01  0.33048999033E+01  0.20388191984E+02  0.21047207680E+02  0.51100000000E-03 0.  1.
         12    1    3    3    0    0 -0.10810513672E+02 -0.23080638913E+01 -0.37168290813E+02  0.38777264044E+02  0.00000000000E+00 0. -1.
</event>
<event>
 7    1  0.1358622E-013  0.7246157E+02  0.7816164E-02  0.1226708E+00
        -11   -1    0    0    0    0  0.00000000000E+00  0.00000000000E+00  0.45593999997E+02  0.45594000000E+02  0.51100000000E-03 0.  1.
         11   -1    0    0    0    0 -0.00000000000E+00 -0.00000000000E+00 -0.45593999997E+02  0.45594000000E+02  0.51100000000E-03 0. -1.
    9900012    2    1    2    0    0  0.76170530162E+01  0.62528394107E+01 -0.15923616666E+02  0.72461573083E+02  0.70000003632E+02 0.  0.
        -12    1    1    2    0    0 -0.76170530162E+01 -0.62528394107E+01  0.15923616666E+02  0.18726426917E+02  0.00000000000E+00 0.  1.
         11    1    3    3    0    0  0.33207499500E+02  0.30818717374E+01  0.71232712253E+01  0.34102447854E+02  0.51100000000E-03 0.  1.
        -11    1    3    3    0    0 -0.16982698924E+02  0.53436577920E+01 -0.53991864124E+01  0.18604245631E+02  0.51100000000E-03 0. -1.
        -12    1    3    3    0    0 -0.86077475598E+01 -0.21726901188E+01 -0.17647701479E+02  0.19754879597E+02  0.00000000000E+00 0.  1.
</event>
<event>
 7    1  0.1358622E-013  0.7246156E+02  0.7816164E-02  0.1226708E+00
        -11   -1    0    0    0    0  0.00000000000E+00  0.00000000000E+00  0.45593999997E+02  0.45594000000E+02  0.51100000000E-03 0.  1.
         11   -1    0    0    0    0 -0.00000000000E+00 -0.00000000000E+00 -0.45593999997E+02  0.45594000000E+02  0.51100000000E-03 0. -1.
    9900012    2    1    2    0    0 -0.16375710632E+02  0.34686390813E+01 -0.83954827493E+01  0.72461561834E+02  0.69999988979E+02 0.  0.
        -12    1    1    2    0    0  0.16375710632E+02 -0.34686390813E+01  0.83954827493E+01  0.18726438166E+02  0.00000000000E+00 0.  1.
         11    1    3    3    0    0  0.73267913285E+01  0.16466995612E+02  0.34275734682E+01  0.18346445863E+02  0.51100000000E-03 0. -1.
        -11    1    3    3    0    0  0.12279714746E+02 -0.91810240241E+01 -0.90979688464E+01  0.17828506212E+02  0.51100000000E-03 0.  1.
        -12    1    3    3    0    0 -0.35982216707E+02 -0.38173325062E+01 -0.27250873711E+01  0.36286609759E+02  0.00000000000E+00 0.  1.
</event>
<event>
 7    1  0.1358622E-013  0.7246157E+02  0.7816164E-02  0.1226708E+00
        -11   -1    0    0    0    0  0.00000000000E+00  0.00000000000E+00  0.45593999997E+02  0.45594000000E+02  0.51100000000E-03 0.  1.
         11   -1    0    0    0    0 -0.00000000000E+00 -0.00000000000E+00 -0.45593999997E+02  0.45594000000E+02  0.51100000000E-03 0. -1.
    9900012    2    1    2    0    0  0.27476988194E+01 -0.17569371336E+02  0.58691226668E+01  0.72461567910E+02  0.69999996894E+02 0.  0.
        -12    1    1    2    0    0 -0.27476988194E+01  0.17569371336E+02 -0.58691226668E+01  0.18726432090E+02  0.00000000000E+00 0.  1.
         11    1    3    3    0    0  0.20525603700E+02 -0.13096816859E+02 -0.85456583452E+01  0.25804172064E+02  0.51100000000E-03 0.  1.
        -11    1    3    3    0    0  0.74314893406E+01 -0.15149071258E+02  0.38120733995E+01  0.17298939207E+02  0.51100000000E-03 0. -1.
        -12    1    3    3    0    0 -0.25209394221E+02  0.10676516781E+02  0.10602707612E+02  0.29358456640E+02  0.00000000000E+00 0.  1.
</event>
<event>
 7    1  0.1358622E-013  0.7246155E+02  0.7816164E-02  0.1226708E+00
        -11   -1    0    0    0    0  0.00000000000E+00  0.00000000000E+00  0.45593999997E+02  0.45594000000E+02  0.51100000000E-03 0. -1.
         11   -1    0    0    0    0 -0.00000000000E+00 -0.00000000000E+00 -0.45593999997E+02  0.45594000000E+02  0.51100000000E-03 0.  1.
    9900012    2    1    2    0    0 -0.13254185619E+02  0.13100245631E+02  0.18411858106E+01  0.72461552467E+02  0.69999976777E+02 0.  0.
        -12    1    1    2    0    0  0.13254185619E+02 -0.13100245631E+02 -0.18411858106E+01  0.18726447533E+02  0.00000000000E+00 0.  1.
         11    1    3    3    0    0 -0.30463103479E+02  0.24011692280E+02  0.12509217060E+02  0.40755889776E+02  0.51100000000E-03 0. -1.
        -11    1    3    3    0    0 -0.16817421142E+01 -0.89809116134E+00  0.48999961718E+01  0.52578310183E+01  0.51100000000E-03 0.  1.
        -12    1    3    3    0    0  0.18890659975E+02 -0.10013355487E+02 -0.15568027421E+02  0.26447831673E+02  0.00000000000E+00 0.  1.
</event>
<event>
 7    1  0.1358622E-013  0.7246163E+02  0.7816164E-02  0.1226708E+00
        -11   -1    0    0    0    0  0.00000000000E+00  0.00000000000E+00  0.45593999997E+02  0.45594000000E+02  0.51100000000E-03 0.  1.
         11   -1    0    0    0    0 -0.00000000000E+00 -0.00000000000E+00 -0.45593999997E+02  0.45594000000E+02  0.51100000000E-03 0. -1.
    9900012    2    1    2    0    0 -0.80201680728E+01 -0.16918361447E+02  0.35064014987E+00  0.72461628262E+02  0.70000075513E+02 0.  0.
        -12    1    1    2    0    0  0.80201680728E+01  0.16918361447E+02 -0.35064014987E+00  0.18726371738E+02  0.00000000000E+00 0.  1.
         11    1    3    3    0    0  0.22265340348E+01 -0.94096258410E+01 -0.14299467839E+02  0.17261902937E+02  0.51100000000E-03 0. -1.
        -11    1    3    3    0    0  0.57651239373E+01 -0.98421640762E+01 -0.16522749864E+02  0.20077502610E+02  0.51100000000E-03 0.  1.
        -12    1    3    3    0    0 -0.16011826045E+02  0.23334284701E+01  0.31172857853E+02  0.35122222715E+02  0.00000000000E+00 0.  1.
</event>
<event>
 7    1  0.1358622E-013  0.7246156E+02  0.7816164E-02  0.1226708E+00
        -11   -1    0    0    0    0  0.00000000000E+00  0.00000000000E+00  0.45593999997E+02  0.45594000000E+02  0.51100000000E-03 0.  1.
         11   -1    0    0    0    0 -0.00000000000E+00 -0.00000000000E+00 -0.45593999997E+02  0.45594000000E+02  0.51100000000E-03 0. -1.
    9900012    2    1    2    0    0  0.18339323917E+02  0.37726173323E+01  0.34096754717E+00  0.72461556074E+02  0.69999981475E+02 0.  0.
        -12    1    1    2    0    0 -0.18339323917E+02 -0.37726173323E+01 -0.34096754717E+00  0.18726443926E+02  0.00000000000E+00 0.  1.
         11    1    3    3    0    0 -0.94329155437E+01 -0.30971697859E+01 -0.57065999754E+01  0.11451534390E+02  0.51100000000E-03 0. -1.
        -11    1    3    3    0    0 -0.12455767935E+02 -0.64229578047E+00 -0.11045619093E+02  0.16660264107E+02  0.51100000000E-03 0.  1.
         12    1    3    3    0    0  0.40228007395E+02  0.75120828987E+01  0.17093186615E+02  0.44349757577E+02  0.00000000000E+00 0. -1.
</event>
<event>
 7    1  0.1358622E-013  0.7246214E+02  0.7816164E-02  0.1226706E+00
        -11   -1    0    0    0    0  0.00000000000E+00  0.00000000000E+00  0.45593999997E+02  0.45594000000E+02  0.51100000000E-03 0. -1.
         11   -1    0    0    0    0 -0.00000000000E+00 -0.00000000000E+00 -0.45593999997E+02  0.45594000000E+02  0.51100000000E-03 0.  1.
    9900012    2    1    2    0    0 -0.18034054421E+02  0.45368507319E+01 -0.22017088138E+01  0.72462144743E+02  0.70000748322E+02 0.  0.
        -12    1    1    2    0    0  0.18034054421E+02 -0.45368507319E+01  0.22017088138E+01  0.18725855257E+02  0.00000000000E+00 0.  1.
         11    1    3    3    0    0 -0.71107781742E+01  0.53944823234E+01  0.77728346540E+01  0.11835563552E+02  0.51100000000E-03 0. -1.
        -11    1    3    3    0    0  0.43447304455E+01  0.19552745354E+02 -0.24218070786E+02  0.31427718441E+02  0.51100000000E-03 0.  1.
         12    1    3    3    0    0 -0.15268006692E+02 -0.20410376946E+02  0.14243527318E+02  0.29198862750E+02  0.00000000000E+00 0. -1.
</event>
<event>
 7    1  0.1358622E-013  0.7246156E+02  0.7816164E-02  0.1226708E+00
        -11   -1    0    0    0    0  0.00000000000E+00  0.00000000000E+00  0.45593999997E+02  0.45594000000E+02  0.51100000000E-03 0. -1.
         11   -1    0    0    0    0 -0.00000000000E+00 -0.00000000000E+00 -0.45593999997E+02  0.45594000000E+02  0.51100000000E-03 0.  1.
    9900012    2    1    2    0    0  0.16576853217E+02  0.71942370590E+01  0.49122904276E+01  0.72461555952E+02  0.69999981317E+02 0.  0.
        -12    1    1    2    0    0 -0.16576853217E+02 -0.71942370590E+01 -0.49122904276E+01  0.18726444048E+02  0.00000000000E+00 0.  1.
         11    1    3    3    0    0  0.19132170701E+02  0.11579308018E+01 -0.57083679875E+01  0.19999155602E+02  0.51100000000E-03 0. -1.
        -11    1    3    3    0    0  0.15536449660E+02  0.20289553163E+02 -0.29585798063E+01  0.25725482120E+02  0.51100000000E-03 0.  1.
         12    1    3    3    0    0 -0.18091767144E+02 -0.14253246905E+02  0.13579238221E+02  0.26736918230E+02  0.00000000000E+00 0. -1.
</event>
<event>
 7    1  0.1358622E-013  0.7246158E+02  0.7816164E-02  0.1226708E+00
        -11   -1    0    0    0    0  0.00000000000E+00  0.00000000000E+00  0.45593999997E+02  0.45594000000E+02  0.51100000000E-03 0.  1.
         11   -1    0    0    0    0 -0.00000000000E+00 -0.00000000000E+00 -0.45593999997E+02  0.45594000000E+02  0.51100000000E-03 0. -1.
    9900012    2    1    2    0    0 -0.18212544854E+02 -0.43222811487E+01  0.54771530849E+00  0.72461577586E+02  0.70000009498E+02 0.  0.
        -12    1    1    2    0    0  0.18212544854E+02  0.43222811487E+01 -0.54771530849E+00  0.18726422414E+02  0.00000000000E+00 0.  1.
         11    1    3    3    0    0  0.84470488591E+01  0.31841492637E+01 -0.13156551137E+02  0.15955760059E+02  0.51100000000E-03 0. -1.
        -11    1    3    3    0    0  0.33173961724E+01 -0.17896040514E+02 -0.59930075186E+01  0.19162189928E+02  0.51100000000E-03 0.  1.
        -12    1    3    3    0    0 -0.29976989885E+02  0.10389610102E+02  0.19697273964E+02  0.37343627599E+02  0.00000000000E+00 0.  1.
</event>
<event>
 7    1  0.1358622E-013  0.7246161E+02  0.7816164E-02  0.1226708E+00
        -11   -1    0    0    0    0  0.00000000000E+00  0.00000000000E+00  0.45593999997E+02  0.45594000000E+02  0.51100000000E-03 0.  1.
         11   -1    0    0    0    0 -0.00000000000E+00 -0.00000000000E+00 -0.45593999997E+02  0.45594000000E+02  0.51100000000E-03 0. -1.
    9900012    2    1    2    0    0  0.16515717117E+02  0.88255648650E+01  0.13423204155E+00  0.72461614195E+02  0.70000057189E+02 0.  0.
        -12    1    1    2    0    0 -0.16515717117E+02 -0.88255648650E+01 -0.13423204155E+00  0.18726385805E+02  0.00000000000E+00 0.  1.
         11    1    3    3    0    0  0.12668449372E+02  0.29378393752E+01  0.31281399040E+01  0.13375566127E+02  0.51100000000E-03 0. -1.
        -11    1    3    3    0    0  0.30317325601E+02 -0.41815836754E+01 -0.31408628430E+01  0.30765092122E+02  0.51100000000E-03 0.  1.
         12    1    3    3    0    0 -0.26470057856E+02  0.10069309165E+02  0.14695498054E+00  0.28320955947E+02  0.00000000000E+00 0. -1.
</event>
<event>
 7    1  0.1358622E-013  0.7246156E+02  0.7816164E-02  0.1226708E+00
        -11   -1    0    0    0    0  0.00000000000E+00  0.00000000000E+00  0.45593999997E+02  0.45594000000E+02  0.51100000000E-03 0.  1.
         11   -1    0    0    0    0 -0.00000000000E+00 -0.00000000000E+00 -0.45593999997E+02  0.45594000000E+02  0.51100000000E-03 0. -1.
    9900012    2    1    2    0    0  0.10618646053E+02  0.10762174431E+02 -0.11049871418E+02  0.72461556108E+02  0.69999981519E+02 0.  0.
        -12    1    1    2    0    0 -0.10618646053E+02 -0.10762174431E+02  0.11049871418E+02  0.18726443892E+02  0.00000000000E+00 0.  1.
         11    1    3    3    0    0  0.61216269149E+01  0.84812291229E+01 -0.80431470850E+01  0.13194611734E+02  0.51100000000E-03 0. -1.
        -11    1    3    3    0    0 -0.25649256241E+02  0.58969411713E+01 -0.99227844373E+01  0.28126853932E+02  0.51100000000E-03 0.  1.
        -12    1    3    3    0    0  0.30146275379E+02 -0.36159958627E+01  0.69160601044E+01  0.31140090441E+02  0.00000000000E+00 0.  1.
</event>
<event>
 7    1  0.1358622E-013  0.7246150E+02  0.7816164E-02  0.1226708E+00
        -11   -1    0    0    0    0  0.00000000000E+00  0.00000000000E+00  0.45593999997E+02  0.45594000000E+02  0.51100000000E-03 0.  1.
         11   -1    0    0    0    0 -0.00000000000E+00 -0.00000000000E+00 -0.45593999997E+02  0.45594000000E+02  0.51100000000E-03 0. -1.
    9900012    2    1    2    0    0 -0.16110016378E+02  0.95426263383E+01  0.29585907269E+00  0.72461497985E+02  0.69999905803E+02 0.  0.
        -12    1    1    2    0    0  0.16110016378E+02 -0.95426263383E+01 -0.29585907269E+00  0.18726502015E+02  0.00000000000E+00 0.  1.
         11    1    3    3    0    0 -0.20038657144E+00  0.47139779654E+01 -0.61848282421E+01  0.77790644477E+01  0.51100000000E-03 0. -1.
        -11    1    3    3    0    0  0.95503811366E-01  0.51437639583E+01 -0.27045499541E+02  0.27530464477E+02  0.51100000000E-03 0.  1.
         12    1    3    3    0    0 -0.16005133618E+02 -0.31511558539E+00  0.33526186856E+02  0.37151969060E+02  0.00000000000E+00 0. -1.
</event>
<event>
 7    1  0.1358622E-013  0.7246160E+02  0.7816164E-02  0.1226708E+00
        -11   -1    0    0    0    0  0.00000000000E+00  0.00000000000E+00  0.45593999997E+02  0.45594000000E+02  0.51100000000E-03 0.  1.
         11   -1    0    0    0    0 -0.00000000000E+00 -0.00000000000E+00 -0.45593999997E+02  0.45594000000E+02  0.51100000000E-03 0. -1.
    9900012    2    1    2    0    0  0.16892308270E+02 -0.43351732573E+01 -0.68215939932E+01  0.72461602843E+02  0.70000042401E+02 0.  0.
        -12    1    1    2    0    0 -0.16892308270E+02  0.43351732573E+01  0.68215939932E+01  0.18726397157E+02  0.00000000000E+00 0.  1.
         11    1    3    3    0    0  0.12538402208E+02 -0.86650881985E+01  0.61422324589E+01  0.16432355378E+02  0.51100000000E-03 0. -1.
        -11    1    3    3    0    0 -0.12955045720E-01 -0.18512435873E+02  0.11881983965E+02  0.21997545158E+02  0.51100000000E-03 0.  1.
        -12    1    3    3    0    0  0.43668611080E+01  0.22842350814E+02 -0.24845810417E+02  0.34031702307E+02  0.00000000000E+00 0.  1.
</event>
<event>
 7    1  0.1358622E-013  0.7246155E+02  0.7816164E-02  0.1226708E+00
        -11   -1    0    0    0    0  0.00000000000E+00  0.00000000000E+00  0.45593999997E+02  0.45594000000E+02  0.51100000000E-03 0.  1.
         11   -1    0    0    0    0 -0.00000000000E+00 -0.00000000000E+00 -0.45593999997E+02  0.45594000000E+02  0.51100000000E-03 0. -1.
    9900012    2    1    2    0    0  0.47143524908E+01 -0.65456092090E+01 -0.16899990679E+02  0.72461553346E+02  0.69999977922E+02 0.  0.
        -12    1    1    2    0    0 -0.47143524908E+01  0.65456092090E+01  0.16899990679E+02  0.18726446654E+02  0.00000000000E+00 0.  1.
         11    1    3    3    0    0 -0.88434644408E+01 -0.18492544368E+01  0.72950580474E+01  0.11612255486E+02  0.51100000000E-03 0. -1.
        -11    1    3    3    0    0 -0.15409045493E+02  0.66559331536E+00  0.78624246502E+01  0.17311828879E+02  0.51100000000E-03 0.  1.
        -12    1    3    3    0    0  0.28966862425E+02 -0.53619480875E+01 -0.32057473377E+02  0.43537468982E+02  0.00000000000E+00 0.  1.
</event>
<event>
 7    1  0.1358622E-013  0.7246160E+02  0.7816164E-02  0.1226708E+00
        -11   -1    0    0    0    0  0.00000000000E+00  0.00000000000E+00  0.45593999997E+02  0.45594000000E+02  0.51100000000E-03 0. -1.
         11   -1    0    0    0    0 -0.00000000000E+00 -0.00000000000E+00 -0.45593999997E+02  0.45594000000E+02  0.51100000000E-03 0.  1.
    9900012    2    1    2    0    0  0.15440118148E+02 -0.29354081062E+01  0.10181569195E+02  0.72461595635E+02  0.70000033011E+02 0.  0.
        -12    1    1    2    0    0 -0.15440118148E+02  0.29354081062E+01 -0.10181569195E+02  0.18726404365E+02  0.00000000000E+00 0.  1.
         11    1    3    3    0    0  0.11254225046E+02  0.52155117130E+01 -0.45289101920E+01  0.13204929822E+02  0.51100000000E-03 0. -1.
        -11    1    3    3    0    0  0.48710375078E+01  0.15905426747E+02 -0.14036768640E+02  0.21765580179E+02  0.51100000000E-03 0.  1.
         12    1    3    3    0    0 -0.68514440560E+00 -0.24056346566E+02  0.28747248026E+02  0.37491085635E+02  0.00000000000E+00 0. -1.
</event>
<event>
 7    1  0.1358622E-013  0.7246156E+02  0.7816164E-02  0.1226708E+00
        -11   -1    0    0    0    0  0.00000000000E+00  0.00000000000E+00  0.45593999997E+02  0.45594000000E+02  0.51100000000E-03 0. -1.
         11   -1    0    0    0    0 -0.00000000000E+00 -0.00000000000E+00 -0.45593999997E+02  0.45594000000E+02  0.51100000000E-03 0.  1.
    9900012    2    1    2    0    0  0.14513935739E+02 -0.79200453263E+01  0.87919322663E+01  0.72461560894E+02  0.69999987755E+02 0.  0.
        -12    1    1    2    0    0 -0.14513935739E+02  0.79200453263E+01 -0.87919322663E+01  0.18726439106E+02  0.00000000000E+00 0.  1.
         11    1    3    3    0    0  0.13739697328E+02 -0.30314958601E+02 -0.27564363492E+01  0.33397214543E+02  0.51100000000E-03 0. -1.
        -11    1    3    3    0    0  0.99067914026E+01  0.49986969913E+01 -0.60926762742E+01  0.12659075478E+02  0.51100000000E-03 0.  1.
         12    1    3    3    0    0 -0.91325529913E+01  0.17396216283E+02  0.17641044890E+02  0.26405270874E+02  0.00000000000E+00 0. -1.
</event>
<event>
 7    1  0.1358622E-013  0.7246156E+02  0.7816164E-02  0.1226708E+00
        -11   -1    0    0    0    0  0.00000000000E+00  0.00000000000E+00  0.45593999997E+02  0.45594000000E+02  0.51100000000E-03 0. -1.
         11   -1    0    0    0    0 -0.00000000000E+00 -0.00000000000E+00 -0.45593999997E+02  0.45594000000E+02  0.51100000000E-03 0.  1.
    9900012    2    1    2    0    0  0.11268074552E+02 -0.75371069288E+01  0.12919055367E+02  0.72461562097E+02  0.69999989321E+02 0.  0.
        -12    1    1    2    0    0 -0.11268074552E+02  0.75371069288E+01 -0.12919055367E+02  0.18726437903E+02  0.00000000000E+00 0.  1.
         11    1    3    3    0    0  0.55360253642E+01  0.12764066668E+02  0.36547648235E+01  0.14384932427E+02  0.51100000000E-03 0. -1.
        -11    1    3    3    0    0 -0.97757897934E+01  0.14092610364E+02  0.10884502492E+02  0.20313545424E+02  0.51100000000E-03 0.  1.
         12    1    3    3    0    0  0.15507838981E+02 -0.34393783961E+02 -0.16202119485E+01  0.37763084246E+02  0.00000000000E+00 0. -1.
</event>
<event>
 7    1  0.1358622E-013  0.7246157E+02  0.7816164E-02  0.1226708E+00
        -11   -1    0    0    0    0  0.00000000000E+00  0.00000000000E+00  0.45593999997E+02  0.45594000000E+02  0.51100000000E-03 0.  1.
         11   -1    0    0    0    0 -0.00000000000E+00 -0.00000000000E+00 -0.45593999997E+02  0.45594000000E+02  0.51100000000E-03 0. -1.
    9900012    2    1    2    0    0  0.16946546385E+02  0.46663276957E+00  0.79546274956E+01  0.72461567368E+02  0.69999996188E+02 0.  0.
        -12    1    1    2    0    0 -0.16946546385E+02 -0.46663276957E+00 -0.79546274956E+01  0.18726432632E+02  0.00000000000E+00 0.  1.
         11    1    3    3    0    0  0.35362258132E+01  0.10144138203E+02 -0.36205051500E+01  0.11336511398E+02  0.51100000000E-03 0. -1.
        -11    1    3    3    0    0 -0.17138905300E+02  0.22510308992E+01  0.20811077808E+02  0.27053838448E+02  0.51100000000E-03 0.  1.
         12    1    3    3    0    0  0.30549225871E+02 -0.11928536333E+02 -0.92359451625E+01  0.34071217522E+02  0.00000000000E+00 0. -1.
</event>
<event>
 7    1  0.1358622E-013  0.7246141E+02  0.7816164E-02  0.1226708E+00
        -11   -1    0    0    0    0  0.00000000000E+00  0.00000000000E+00  0.45593999997E+02  0.45594000000E+02  0.51100000000E-03 0.  1.
         11   -1    0    0    0    0 -0.00000000000E+00 -0.00000000000E+00 -0.45593999997E+02  0.45594000000E+02  0.51100000000E-03 0. -1.
    9900012    2    1    2    0    0 -0.54056621848E+00 -0.15712692343E+01 -0.18652719708E+02  0.72461413249E+02  0.69999795419E+02 0.  0.
        -12    1    1    2    0    0  0.54056621848E+00  0.15712692343E+01  0.18652719708E+02  0.18726586751E+02  0.00000000000E+00 0.  1.
         11    1    3    3    0    0  0.15142278129E+01  0.17867050073E+02 -0.27683005041E+01  0.18143534720E+02  0.51100000000E-03 0. -1.
        -11    1    3    3    0    0 -0.19827293743E+01 -0.30444301764E+01  0.17101213325E+02  0.17482885011E+02  0.51100000000E-03 0.  1.
        -12    1    3    3    0    0 -0.72064657027E-01 -0.16393889131E+02 -0.32985632528E+02  0.36834993518E+02  0.00000000000E+00 0.  1.
</event>
<event>
 7    1  0.1358622E-013  0.7246160E+02  0.7816164E-02  0.1226708E+00
        -11   -1    0    0    0    0  0.00000000000E+00  0.00000000000E+00  0.45593999997E+02  0.45594000000E+02  0.51100000000E-03 0.  1.
         11   -1    0    0    0    0 -0.00000000000E+00 -0.00000000000E+00 -0.45593999997E+02  0.45594000000E+02  0.51100000000E-03 0. -1.
    9900012    2    1    2    0    0 -0.20056936526E+01 -0.10250428072E+02 -0.15542975070E+02  0.72461597337E+02  0.70000035228E+02 0.  0.
        -12    1    1    2    0    0  0.20056936526E+01  0.10250428072E+02  0.15542975070E+02  0.18726402663E+02  0.00000000000E+00 0.  1.
         11    1    3    3    0    0  0.32126164252E+01  0.14821843166E+02 -0.11569643820E+02  0.19075235189E+02  0.51100000000E-03 0. -1.
        -11    1    3    3    0    0  0.87094173119E+01 -0.43010800456E+01 -0.20996066046E+02  0.23134131260E+02  0.51100000000E-03 0.  1.
        -12    1    3    3    0    0 -0.13927727390E+02 -0.20771191192E+02  0.17022734796E+02  0.30252230889E+02  0.00000000000E+00 0.  1.
</event>
<event>
 7    1  0.1358622E-013  0.7246157E+02  0.7816164E-02  0.1226708E+00
        -11   -1    0    0    0    0  0.00000000000E+00  0.00000000000E+00  0.45593999997E+02  0.45594000000E+02  0.51100000000E-03 0. -1.
         11   -1    0    0    0    0 -0.00000000000E+00 -0.00000000000E+00 -0.45593999997E+02  0.45594000000E+02  0.51100000000E-03 0.  1.
    9900012    2    1    2    0    0  0.20017916206E+01 -0.12385909481E+02  0.13901848479E+02  0.72461566423E+02  0.69999994957E+02 0.  0.
        -12    1    1    2    0    0 -0.20017916206E+01  0.12385909481E+02 -0.13901848479E+02  0.18726433577E+02  0.00000000000E+00 0.  1.
         11    1    3    3    0    0  0.61037649835E+01 -0.85235319047E+01  0.49338670321E+01  0.11586612415E+02  0.51100000000E-03 0. -1.
        -11    1    3    3    0    0  0.10249912076E+02 -0.17671956735E+02  0.27102061610E+02  0.33939364994E+02  0.51100000000E-03 0.  1.
        -12    1    3    3    0    0 -0.14351885438E+02  0.13809579158E+02 -0.18134080163E+02  0.26935589014E+02  0.00000000000E+00 0.  1.
</event>
<event>
 7    1  0.1358622E-013  0.7246157E+02  0.7816164E-02  0.1226708E+00
        -11   -1    0    0    0    0  0.00000000000E+00  0.00000000000E+00  0.45593999997E+02  0.45594000000E+02  0.51100000000E-03 0. -1.
         11   -1    0    0    0    0 -0.00000000000E+00 -0.00000000000E+00 -0.45593999997E+02  0.45594000000E+02  0.51100000000E-03 0.  1.
    9900012    2    1    2    0    0 -0.15796732247E+02 -0.95943761915E+01  0.30149970500E+01  0.72461574517E+02  0.70000005500E+02 0.  0.
        -12    1    1    2    0    0  0.15796732247E+02  0.95943761915E+01 -0.30149970500E+01  0.18726425483E+02  0.00000000000E+00 0.  1.
         11    1    3    3    0    0 -0.13844744837E+02 -0.11258114733E+02 -0.27299304397E+01  0.18051997878E+02  0.51100000000E-03 0. -1.
        -11    1    3    3    0    0 -0.12628818952E+02 -0.22045703545E+02 -0.56378706903E+01  0.26024713238E+02  0.51100000000E-03 0.  1.
         12    1    3    3    0    0  0.10676831542E+02  0.23709442087E+02  0.11382798180E+02  0.28384863400E+02  0.00000000000E+00 0. -1.
</event>
<event>
 7    1  0.1358622E-013  0.7246157E+02  0.7816164E-02  0.1226708E+00
        -11   -1    0    0    0    0  0.00000000000E+00  0.00000000000E+00  0.45593999997E+02  0.45594000000E+02  0.51100000000E-03 0.  1.
         11   -1    0    0    0    0 -0.00000000000E+00 -0.00000000000E+00 -0.45593999997E+02  0.45594000000E+02  0.51100000000E-03 0. -1.
    9900012    2    1    2    0    0 -0.17024235889E+02  0.70178174884E+01 -0.34065804883E+01  0.72461570535E+02  0.70000000313E+02 0.  0.
        -12    1    1    2    0    0  0.17024235889E+02 -0.70178174884E+01  0.34065804883E+01  0.18726429465E+02  0.00000000000E+00 0.  1.
         11    1    3    3    0    0 -0.13032617496E+02  0.35290830655E+01 -0.89539662996E+01  0.16201143751E+02  0.51100000000E-03 0. -1.
        -11    1    3    3    0    0 -0.19025611510E+02 -0.13371225950E+02 -0.13345628171E+02  0.26811739374E+02  0.51100000000E-03 0.  1.
        -12    1    3    3    0    0  0.15033993117E+02  0.16859960373E+02  0.18893013982E+02  0.29448687409E+02  0.00000000000E+00 0.  1.
</event>
<event>
 7    1  0.1358622E-013  0.7246157E+02  0.7816164E-02  0.1226708E+00
        -11   -1    0    0    0    0  0.00000000000E+00  0.00000000000E+00  0.45593999997E+02  0.45594000000E+02  0.51100000000E-03 0. -1.
         11   -1    0    0    0    0 -0.00000000000E+00 -0.00000000000E+00 -0.45593999997E+02  0.45594000000E+02  0.51100000000E-03 0.  1.
    9900012    2    1    2    0    0 -0.12073893094E+02  0.19116862630E+01  0.14186110725E+02  0.72461570113E+02  0.69999999764E+02 0.  0.
        -12    1    1    2    0    0  0.12073893094E+02 -0.19116862630E+01 -0.14186110725E+02  0.18726429887E+02  0.00000000000E+00 0.  1.
         11    1    3    3    0    0 -0.50820797408E+01  0.93158576593E+01  0.19252145953E+02  0.21983126768E+02  0.51100000000E-03 0. -1.
        -11    1    3    3    0    0 -0.23373313217E+02  0.64636906510E+01  0.77758521675E+01  0.25466741935E+02  0.51100000000E-03 0.  1.
        -12    1    3    3    0    0  0.16381499864E+02 -0.13867862047E+02 -0.12841887396E+02  0.25011701410E+02  0.00000000000E+00 0.  1.
</event>
<event>
 7    1  0.1358622E-013  0.7246158E+02  0.7816164E-02  0.1226708E+00
        -11   -1    0    0    0    0  0.00000000000E+00  0.00000000000E+00  0.45593999997E+02  0.45594000000E+02  0.51100000000E-03 0. -1.
         11   -1    0    0    0    0 -0.00000000000E+00 -0.00000000000E+00 -0.45593999997E+02  0.45594000000E+02  0.51100000000E-03 0.  1.
    9900012    2    1    2    0    0 -0.41053764038E+00  0.81860282294E+01  0.16837437854E+02  0.72461577149E+02  0.70000008929E+02 0.  0.
        -12    1    1    2    0    0  0.41053764038E+00 -0.81860282294E+01 -0.16837437854E+02  0.18726422851E+02  0.00000000000E+00 0.  1.
         11    1    3    3    0    0  0.12415215215E+02 -0.61047389045E+01  0.82630340559E+01  0.16114687028E+02  0.51100000000E-03 0. -1.
        -11    1    3    3    0    0  0.14597772358E+02  0.18523670329E+02 -0.69032176487E+01  0.24573883177E+02  0.51100000000E-03 0.  1.
         12    1    3    3    0    0 -0.27423525213E+02 -0.42329031949E+01  0.15477621447E+02  0.31773006943E+02  0.00000000000E+00 0. -1.
</event>
<event>
 7    1  0.1358622E-013  0.7246156E+02  0.7816164E-02  0.1226708E+00
        -11   -1    0    0    0    0  0.00000000000E+00  0.00000000000E+00  0.45593999997E+02  0.45594000000E+02  0.51100000000E-03 0. -1.
         11   -1    0    0    0    0 -0.00000000000E+00 -0.00000000000E+00 -0.45593999997E+02  0.45594000000E+02  0.51100000000E-03 0.  1.
    9900012    2    1    2    0    0  0.15592743639E+02  0.10256176345E+02 -0.15351379148E+01  0.72461562650E+02  0.69999990042E+02 0.  0.
        -12    1    1    2    0    0 -0.15592743639E+02 -0.10256176345E+02  0.15351379148E+01  0.18726437350E+02  0.00000000000E+00 0.  1.
         11    1    3    3    0    0  0.54001614464E+00 -0.22060571751E+02 -0.14091464866E+02  0.26182624501E+02  0.51100000000E-03 0.  1.
        -11    1    3    3    0    0  0.15441747991E+02  0.66987563509E+01  0.11964507105E+02  0.20651158520E+02  0.51100000000E-03 0. -1.
        -12    1    3    3    0    0 -0.38902049633E+00  0.25617991745E+02  0.59181984608E+00  0.25627779629E+02  0.00000000000E+00 0.  1.
</event>
<event>
 7    1  0.1358622E-013  0.7246154E+02  0.7816164E-02  0.1226708E+00
        -11   -1    0    0    0    0  0.00000000000E+00  0.00000000000E+00  0.45593999997E+02  0.45594000000E+02  0.51100000000E-03 0.  1.
         11   -1    0    0    0    0 -0.00000000000E+00 -0.00000000000E+00 -0.45593999997E+02  0.45594000000E+02  0.51100000000E-03 0. -1.
    9900012    2    1    2    0    0  0.55798196876E+01  0.16922501743E+02  0.57597654137E+01  0.72461538759E+02  0.69999958920E+02 0.  0.
        -12    1    1    2    0    0 -0.55798196876E+01 -0.16922501743E+02 -0.57597654137E+01  0.18726461241E+02  0.00000000000E+00 0.  1.
         11    1    3    3    0    0 -0.78608701710E+01 -0.39604445305E+01 -0.64490443807E+01  0.10911854765E+02  0.51100000000E-03 0. -1.
        -11    1    3    3    0    0  0.27676799979E+02 -0.45836296822E+01 -0.37358560285E+01  0.28301440575E+02  0.51100000000E-03 0.  1.
         12    1    3    3    0    0 -0.14236110120E+02  0.25466575955E+02  0.15944665823E+02  0.33248243419E+02  0.00000000000E+00 0. -1.
</event>
<event>
 7    1  0.1358622E-013  0.7246159E+02  0.7816164E-02  0.1226708E+00
        -11   -1    0    0    0    0  0.00000000000E+00  0.00000000000E+00  0.45593999997E+02  0.45594000000E+02  0.51100000000E-03 0.  1.
         11   -1    0    0    0    0 -0.00000000000E+00 -0.00000000000E+00 -0.45593999997E+02  0.45594000000E+02  0.51100000000E-03 0. -1.
    9900012    2    1    2    0    0 -0.44237666366E+01 -0.95727021215E+01 -0.15474891453E+02  0.72461585430E+02  0.70000019717E+02 0.  0.
        -12    1    1    2    0    0  0.44237666366E+01  0.95727021215E+01  0.15474891453E+02  0.18726414570E+02  0.00000000000E+00 0.  1.
         11    1    3    3    0    0  0.25076573840E+01  0.10922346328E+02 -0.27890368601E+02  0.30057588989E+02  0.51100000000E-03 0. -1.
        -11    1    3    3    0    0  0.29172714090E+01  0.22534945301E+00 -0.99457409226E+01  0.10367208767E+02  0.51100000000E-03 0.  1.
        -12    1    3    3    0    0 -0.98486954297E+01 -0.20720397903E+02  0.22361218071E+02  0.32036787675E+02  0.00000000000E+00 0.  1.
</event>
<event>
 7    1  0.1358622E-013  0.7246148E+02  0.7816164E-02  0.1226708E+00
        -11   -1    0    0    0    0  0.00000000000E+00  0.00000000000E+00  0.45593999997E+02  0.45594000000E+02  0.51100000000E-03 0. -1.
         11   -1    0    0    0    0 -0.00000000000E+00 -0.00000000000E+00 -0.45593999997E+02  0.45594000000E+02  0.51100000000E-03 0.  1.
    9900012    2    1    2    0    0  0.74710074356E+01  0.15053843955E+02  0.82612556429E+01  0.72461480977E+02  0.69999883648E+02 0.  0.
        -12    1    1    2    0    0 -0.74710074356E+01 -0.15053843955E+02 -0.82612556429E+01  0.18726519023E+02  0.00000000000E+00 0.  1.
         11    1    3    3    0    0  0.39972005766E+01  0.52224080084E+01 -0.72384915233E+01  0.97799242149E+01  0.51100000000E-03 0. -1.
        -11    1    3    3    0    0 -0.20195905917E+02  0.42694759331E+01 -0.13631165989E+02  0.24736849578E+02  0.51100000000E-03 0.  1.
         12    1    3    3    0    0  0.23669712776E+02  0.55619600131E+01  0.29130913155E+02  0.37944707185E+02  0.00000000000E+00 0. -1.
</event>
<event>
 7    1  0.1358622E-013  0.7246153E+02  0.7816164E-02  0.1226708E+00
        -11   -1    0    0    0    0  0.00000000000E+00  0.00000000000E+00  0.45593999997E+02  0.45594000000E+02  0.51100000000E-03 0.  1.
         11   -1    0    0    0    0 -0.00000000000E+00 -0.00000000000E+00 -0.45593999997E+02  0.45594000000E+02  0.51100000000E-03 0. -1.
    9900012    2    1    2    0    0 -0.11614821168E+02 -0.14492027264E+02  0.23995030513E+01  0.72461533706E+02  0.69999952336E+02 0.  0.
        -12    1    1    2    0    0  0.11614821168E+02  0.14492027264E+02 -0.23995030513E+01  0.18726466294E+02  0.00000000000E+00 0.  1.
         11    1    3    3    0    0 -0.21563776140E+01  0.24708441118E+01  0.13560422458E+02  0.13951347338E+02  0.51100000000E-03 0. -1.
        -11    1    3    3    0    0 -0.11761676396E+02 -0.32328941940E+01  0.20538918293E+02  0.23887984457E+02  0.51100000000E-03 0.  1.
         12    1    3    3    0    0  0.23032328417E+01 -0.13729977181E+02 -0.31699837700E+02  0.34622201911E+02  0.00000000000E+00 0. -1.
</event>
<event>
 7    1  0.1358622E-013  0.7246157E+02  0.7816164E-02  0.1226708E+00
        -11   -1    0    0    0    0  0.00000000000E+00  0.00000000000E+00  0.45593999997E+02  0.45594000000E+02  0.51100000000E-03 0.  1.
         11   -1    0    0    0    0 -0.00000000000E+00 -0.00000000000E+00 -0.45593999997E+02  0.45594000000E+02  0.51100000000E-03 0. -1.
    9900012    2    1    2    0    0  0.11014431923E+01 -0.14967345396E+02  0.11200199250E+02  0.72461572990E+02  0.70000003512E+02 0.  0.
        -12    1    1    2    0    0 -0.11014431923E+01  0.14967345396E+02 -0.11200199250E+02  0.18726427010E+02  0.00000000000E+00 0.  1.
         11    1    3    3    0    0 -0.84612877816E+01 -0.36056408389E+02  0.96890762655E+01  0.38282321977E+02  0.51100000000E-03 0. -1.
        -11    1    3    3    0    0  0.11821733719E+02  0.55785206732E+01  0.99034421726E+01  0.16399739271E+02  0.51100000000E-03 0.  1.
        -12    1    3    3    0    0 -0.22590027453E+01  0.15510542319E+02 -0.83923191882E+01  0.17779511742E+02  0.00000000000E+00 0.  1.
</event>
<event>
 7    1  0.1358622E-013  0.7246156E+02  0.7816164E-02  0.1226708E+00
        -11   -1    0    0    0    0  0.00000000000E+00  0.00000000000E+00  0.45593999997E+02  0.45594000000E+02  0.51100000000E-03 0.  1.
         11   -1    0    0    0    0 -0.00000000000E+00 -0.00000000000E+00 -0.45593999997E+02  0.45594000000E+02  0.51100000000E-03 0. -1.
    9900012    2    1    2    0    0 -0.86966530380E+01  0.11097812687E+02 -0.12324216289E+02  0.72461560732E+02  0.69999987544E+02 0.  0.
        -12    1    1    2    0    0  0.86966530380E+01 -0.11097812687E+02  0.12324216289E+02  0.18726439268E+02  0.00000000000E+00 0.  1.
         11    1    3    3    0    0  0.16031047651E+01  0.37942233132E+01 -0.26276685346E+02  0.26597561326E+02  0.51100000000E-03 0. -1.
        -11    1    3    3    0    0  0.15856042373E+02  0.25213242611E-01  0.12950795830E+01  0.15908863782E+02  0.51100000000E-03 0.  1.
        -12    1    3    3    0    0 -0.26155800176E+02  0.72783761316E+01  0.12657389474E+02  0.29955135624E+02  0.00000000000E+00 0.  1.
</event>
<event>
 7    1  0.1358622E-013  0.7246161E+02  0.7816164E-02  0.1226708E+00
        -11   -1    0    0    0    0  0.00000000000E+00  0.00000000000E+00  0.45593999997E+02  0.45594000000E+02  0.51100000000E-03 0. -1.
         11   -1    0    0    0    0 -0.00000000000E+00 -0.00000000000E+00 -0.45593999997E+02  0.45594000000E+02  0.51100000000E-03 0.  1.
    9900012    2    1    2    0    0 -0.17401919176E+02  0.68664057771E+01 -0.83868464141E+00  0.72461609231E+02  0.70000050722E+02 0.  0.
        -12    1    1    2    0    0  0.17401919176E+02 -0.68664057771E+01  0.83868464141E+00  0.18726390769E+02  0.00000000000E+00 0.  1.
         11    1    3    3    0    0 -0.24396063643E+02  0.91635021117E+01  0.12194421324E+01  0.26088785553E+02  0.51100000000E-03 0. -1.
        -11    1    3    3    0    0 -0.10636164588E+02 -0.15365419894E+02  0.10143814377E+02  0.21263139374E+02  0.51100000000E-03 0.  1.
        -12    1    3    3    0    0  0.17630309055E+02  0.13068323559E+02 -0.12201941151E+02  0.25109684305E+02  0.00000000000E+00 0.  1.
</event>
<event>
 7    1  0.1358622E-013  0.7246160E+02  0.7816164E-02  0.1226708E+00
        -11   -1    0    0    0    0  0.00000000000E+00  0.00000000000E+00  0.45593999997E+02  0.45594000000E+02  0.51100000000E-03 0. -1.
         11   -1    0    0    0    0 -0.00000000000E+00 -0.00000000000E+00 -0.45593999997E+02  0.45594000000E+02  0.51100000000E-03 0.  1.
    9900012    2    1    2    0    0  0.32740111423E+01 -0.16292087128E+02 -0.86328867292E+01  0.72461601916E+02  0.70000041193E+02 0.  0.
        -12    1    1    2    0    0 -0.32740111423E+01  0.16292087128E+02  0.86328867292E+01  0.18726398084E+02  0.00000000000E+00 0.  1.
         11    1    3    3    0    0 -0.69396657675E+01  0.19204370811E+01 -0.11276600987E+02  0.13379415893E+02  0.51100000000E-03 0. -1.
        -11    1    3    3    0    0 -0.20784836242E+02  0.36183579355E+01  0.14982631773E+01  0.21150572677E+02  0.51100000000E-03 0.  1.
         12    1    3    3    0    0  0.30998513152E+02 -0.21830882144E+02  0.11454510806E+01  0.37931613346E+02  0.00000000000E+00 0. -1.
</event>
<event>
 7    1  0.1358622E-013  0.7246158E+02  0.7816164E-02  0.1226708E+00
        -11   -1    0    0    0    0  0.00000000000E+00  0.00000000000E+00  0.45593999997E+02  0.45594000000E+02  0.51100000000E-03 0.  1.
         11   -1    0    0    0    0 -0.00000000000E+00 -0.00000000000E+00 -0.45593999997E+02  0.45594000000E+02  0.51100000000E-03 0. -1.
    9900012    2    1    2    0    0  0.18372615477E+01 -0.44952027839E+01 -0.18085803997E+02  0.72461583251E+02  0.70000016878E+02 0.  0.
        -12    1    1    2    0    0 -0.18372615477E+01  0.44952027839E+01  0.18085803997E+02  0.18726416749E+02  0.00000000000E+00 0.  1.
         11    1    3    3    0    0 -0.72152632456E+01 -0.15889546032E+02 -0.13721762837E+02  0.22199650277E+02  0.51100000000E-03 0. -1.
        -11    1    3    3    0    0  0.28535414096E+01 -0.18164844619E+02  0.42157683215E+01  0.18864701996E+02  0.51100000000E-03 0.  1.
         12    1    3    3    0    0  0.61989833837E+01  0.29559187867E+02 -0.85798094811E+01  0.31397230978E+02  0.00000000000E+00 0. -1.
</event>
<event>
 7    1  0.1358622E-013  0.7246154E+02  0.7816164E-02  0.1226708E+00
        -11   -1    0    0    0    0  0.00000000000E+00  0.00000000000E+00  0.45593999997E+02  0.45594000000E+02  0.51100000000E-03 0. -1.
         11   -1    0    0    0    0 -0.00000000000E+00 -0.00000000000E+00 -0.45593999997E+02  0.45594000000E+02  0.51100000000E-03 0.  1.
    9900012    2    1    2    0    0 -0.11324899447E+01  0.17077839173E+02  0.75990222228E+01  0.72461541097E+02  0.69999961965E+02 0.  0.
        -12    1    1    2    0    0  0.11324899447E+01 -0.17077839173E+02 -0.75990222228E+01  0.18726458903E+02  0.00000000000E+00 0.  1.
         11    1    3    3    0    0  0.12561715574E+02  0.11372253098E+02 -0.46292910585E+01  0.17565738660E+02  0.51100000000E-03 0. -1.
        -11    1    3    3    0    0  0.18543774170E+02  0.47085959774E+01 -0.27593758848E+01  0.19330198967E+02  0.51100000000E-03 0.  1.
        -12    1    3    3    0    0 -0.32237979689E+02  0.99699009759E+00  0.14987689166E+02  0.35565603471E+02  0.00000000000E+00 0.  1.
</event>
<event>
 7    1  0.1358622E-013  0.7246156E+02  0.7816164E-02  0.1226708E+00
        -11   -1    0    0    0    0  0.00000000000E+00  0.00000000000E+00  0.45593999997E+02  0.45594000000E+02  0.51100000000E-03 0. -1.
         11   -1    0    0    0    0 -0.00000000000E+00 -0.00000000000E+00 -0.45593999997E+02  0.45594000000E+02  0.51100000000E-03 0.  1.
    9900012    2    1    2    0    0 -0.73737740343E+01 -0.14043297806E+02  0.99545392180E+01  0.72461558592E+02  0.69999984755E+02 0.  0.
        -12    1    1    2    0    0  0.73737740343E+01  0.14043297806E+02 -0.99545392180E+01  0.18726441408E+02  0.00000000000E+00 0.  1.
         11    1    3    3    0    0  0.22336016114E+02  0.26664843921E+01  0.73271480959E+01  0.23657870875E+02  0.51100000000E-03 0. -1.
        -11    1    3    3    0    0 -0.52319091148E+01 -0.18666540541E+00  0.15668356487E+02  0.16519839958E+02  0.51100000000E-03 0.  1.
        -12    1    3    3    0    0 -0.24477881034E+02 -0.16523116793E+02 -0.13040965365E+02  0.32283847759E+02  0.00000000000E+00 0.  1.
</event>
<event>
 7    1  0.1358622E-013  0.7246153E+02  0.7816164E-02  0.1226708E+00
        -11   -1    0    0    0    0  0.00000000000E+00  0.00000000000E+00  0.45593999997E+02  0.45594000000E+02  0.51100000000E-03 0. -1.
         11   -1    0    0    0    0 -0.00000000000E+00 -0.00000000000E+00 -0.45593999997E+02  0.45594000000E+02  0.51100000000E-03 0.  1.
    9900012    2    1    2    0    0 -0.18721843616E+02 -0.36098098578E+00 -0.20765663068E+00  0.72461525240E+02  0.69999941309E+02 0.  0.
        -12    1    1    2    0    0  0.18721843616E+02  0.36098098578E+00  0.20765663068E+00  0.18726474760E+02  0.00000000000E+00 0.  1.
         11    1    3    3    0    0 -0.11109405960E+02 -0.10391634345E+02  0.26742969679E+02  0.30766725413E+02  0.51100000000E-03 0. -1.
        -11    1    3    3    0    0 -0.34135710353E+01  0.18205576137E+02 -0.71309436042E+01  0.19848068587E+02  0.51100000000E-03 0.  1.
        -12    1    3    3    0    0 -0.41988666207E+01 -0.81749227783E+01 -0.19819682705E+02  0.21846731240E+02  0.00000000000E+00 0.  1.
</event>
<event>
 7    1  0.1358622E-013  0.7246175E+02  0.7816164E-02  0.1226708E+00
        -11   -1    0    0    0    0  0.00000000000E+00  0.00000000000E+00  0.45593999997E+02  0.45594000000E+02  0.51100000000E-03 0.  1.
         11   -1    0    0    0    0 -0.00000000000E+00 -0.00000000000E+00 -0.45593999997E+02  0.45594000000E+02  0.51100000000E-03 0. -1.
    9900012    2    1    2    0    0 -0.53117592442E+01 -0.17906690634E+02 -0.13447044111E+01  0.72461746085E+02  0.70000229000E+02 0.  0.
        -12    1    1    2    0    0  0.53117592442E+01  0.17906690634E+02  0.13447044111E+01  0.18726253915E+02  0.00000000000E+00 0.  1.
         11    1    3    3    0    0  0.88632043482E+01 -0.19749754914E+01 -0.25571927897E+02  0.27136330190E+02  0.51100000000E-03 0. -1.
        -11    1    3    3    0    0 -0.55441289359E+00 -0.15526515149E+02 -0.21029899820E+01  0.15678093425E+02  0.51100000000E-03 0.  1.
        -12    1    3    3    0    0 -0.13620550699E+02 -0.40519999374E+00  0.26330213468E+02  0.29647322470E+02  0.00000000000E+00 0.  1.
</event>
<event>
 7    1  0.1422070E-013  0.7246157E+02  0.7816164E-02  0.1226708E+00
        -11   -1    0    0    0    0  0.00000000000E+00  0.00000000000E+00  0.45593999997E+02  0.45594000000E+02  0.51100000000E-03 0. -1.
         11   -1    0    0    0    0 -0.00000000000E+00 -0.00000000000E+00 -0.45593999997E+02  0.45594000000E+02  0.51100000000E-03 0.  1.
    9900012    2    1    2    0    0 -0.45866316741E+01 -0.12487277927E+02  0.13179906156E+02  0.72461568775E+02  0.69999998021E+02 0.  0.
        -12    1    1    2    0    0  0.45866316741E+01  0.12487277927E+02 -0.13179906156E+02  0.18726431225E+02  0.00000000000E+00 0.  1.
         11    1    3    3    0    0  0.86077005586E+00 -0.13864773616E+02  0.28442532411E+02  0.31653602049E+02  0.51100000000E-03 0. -1.
        -11    1    3    3    0    0 -0.26008936156E+01 -0.18036868574E+02 -0.74932394947E+01  0.19703855307E+02  0.51100000000E-03 0.  1.
        -12    1    3    3    0    0 -0.28465081143E+01  0.19414364263E+02 -0.77693867597E+01  0.21104111419E+02  0.00000000000E+00 0.  1.
</event>
<event>
 7    1  0.1358622E-013  0.7246163E+02  0.7816164E-02  0.1226708E+00
        -11   -1    0    0    0    0  0.00000000000E+00  0.00000000000E+00  0.45593999997E+02  0.45594000000E+02  0.51100000000E-03 0.  1.
         11   -1    0    0    0    0 -0.00000000000E+00 -0.00000000000E+00 -0.45593999997E+02  0.45594000000E+02  0.51100000000E-03 0. -1.
    9900012    2    1    2    0    0 -0.63195808977E+01  0.17618134030E+02 -0.58411046317E+00  0.72461629971E+02  0.70000077740E+02 0.  0.
        -12    1    1    2    0    0  0.63195808977E+01 -0.17618134030E+02  0.58411046317E+00  0.18726370029E+02  0.00000000000E+00 0.  1.
         11    1    3    3    0    0  0.65572540675E+01 -0.55945340699E+01  0.18110288577E+02  0.20056892704E+02  0.51100000000E-03 0. -1.
        -11    1    3    3    0    0 -0.31618271147E+01 -0.11998727797E+02 -0.54203452686E+01  0.13540559905E+02  0.51100000000E-03 0.  1.
         12    1    3    3    0    0 -0.97150078505E+01  0.35211395897E+02 -0.13274053771E+02  0.38864177362E+02  0.00000000000E+00 0. -1.
</event>
<event>
 7    1  0.1358622E-013  0.7246158E+02  0.7816164E-02  0.1226708E+00
        -11   -1    0    0    0    0  0.00000000000E+00  0.00000000000E+00  0.45593999997E+02  0.45594000000E+02  0.51100000000E-03 0.  1.
         11   -1    0    0    0    0 -0.00000000000E+00 -0.00000000000E+00 -0.45593999997E+02  0.45594000000E+02  0.51100000000E-03 0. -1.
    9900012    2    1    2    0    0  0.10660568017E+02  0.26128847304E+01 -0.15172477428E+02  0.72461576199E+02  0.70000007692E+02 0.  0.
        -12    1    1    2    0    0 -0.10660568017E+02 -0.26128847304E+01  0.15172477428E+02  0.18726423801E+02  0.00000000000E+00 0.  1.
         11    1    3    3    0    0 -0.10912190765E+02 -0.75563010390E+01  0.13982225751E+02  0.19278906346E+02  0.51100000000E-03 0. -1.
        -11    1    3    3    0    0 -0.47317116561E+01  0.16713180767E+02 -0.11091668306E+02  0.20609333143E+02  0.51100000000E-03 0.  1.
         12    1    3    3    0    0  0.26304470438E+02 -0.65439949975E+01 -0.18063034874E+02  0.32573336710E+02  0.00000000000E+00 0. -1.
</event>
<event>
 7    1  0.1358622E-013  0.7246154E+02  0.7816164E-02  0.1226708E+00
        -11   -1    0    0    0    0  0.00000000000E+00  0.00000000000E+00  0.45593999997E+02  0.45594000000E+02  0.51100000000E-03 0.  1.
         11   -1    0    0    0    0 -0.00000000000E+00 -0.00000000000E+00 -0.45593999997E+02  0.45594000000E+02  0.51100000000E-03 0. -1.
    9900012    2    1    2    0    0 -0.16631314789E+02 -0.54003602354E+01 -0.67019192590E+01  0.72461541605E+02  0.69999962626E+02 0.  0.
        -12    1    1    2    0    0  0.16631314789E+02  0.54003602354E+01  0.67019192590E+01  0.18726458395E+02  0.00000000000E+00 0.  1.
         11    1    3    3    0    0 -0.24164039963E+02 -0.15727272797E+02  0.59839279096E+01  0.29445803274E+02  0.51100000000E-03 0.  1.
        -11    1    3    3    0    0  0.16843843724E+01 -0.14495501261E+02 -0.92637999918E+01  0.17285100464E+02  0.51100000000E-03 0. -1.
        -12    1    3    3    0    0  0.58483408019E+01  0.24822413823E+02 -0.34220471768E+01  0.25730637866E+02  0.00000000000E+00 0.  1.
</event>
<event>
 7    1  0.1358622E-013  0.7246199E+02  0.7816164E-02  0.1226707E+00
        -11   -1    0    0    0    0  0.00000000000E+00  0.00000000000E+00  0.45593999997E+02  0.45594000000E+02  0.51100000000E-03 0.  1.
         11   -1    0    0    0    0 -0.00000000000E+00 -0.00000000000E+00 -0.45593999997E+02  0.45594000000E+02  0.51100000000E-03 0. -1.
    9900012    2    1    2    0    0  0.16119289550E+02 -0.72915363696E+01  0.61372274653E+01  0.72461987099E+02  0.70000542963E+02 0.  0.
        -12    1    1    2    0    0 -0.16119289550E+02  0.72915363696E+01 -0.61372274653E+01  0.18726012901E+02  0.00000000000E+00 0.  1.
         11    1    3    3    0    0  0.25429382811E+02 -0.23520054652E+02 -0.15974984979E+02  0.38145073421E+02  0.51100000000E-03 0. -1.
        -11    1    3    3    0    0 -0.15569138658E+01  0.62941340164E+01 -0.22707857272E+01  0.68699761195E+01  0.51100000000E-03 0.  1.
        -12    1    3    3    0    0 -0.77531793956E+01  0.99343842662E+01  0.24382998171E+02  0.27446937558E+02  0.00000000000E+00 0.  1.
</event>
<event>
 7    1  0.1358622E-013  0.7246157E+02  0.7816164E-02  0.1226708E+00
        -11   -1    0    0    0    0  0.00000000000E+00  0.00000000000E+00  0.45593999997E+02  0.45594000000E+02  0.51100000000E-03 0. -1.
         11   -1    0    0    0    0 -0.00000000000E+00 -0.00000000000E+00 -0.45593999997E+02  0.45594000000E+02  0.51100000000E-03 0.  1.
    9900012    2    1    2    0    0  0.88459781104E+01  0.96569473024E+01  0.13385485871E+02  0.72461569696E+02  0.69999999220E+02 0.  0.
        -12    1    1    2    0    0 -0.88459781104E+01 -0.96569473024E+01 -0.13385485871E+02  0.18726430304E+02  0.00000000000E+00 0.  1.
         11    1    3    3    0    0  0.23294880533E+00  0.93258808328E+01  0.25138751977E+01  0.96615675346E+01  0.51100000000E-03 0. -1.
        -11    1    3    3    0    0 -0.25541135492E+02 -0.13485029102E+01 -0.32913362211E+01  0.25787612466E+02  0.51100000000E-03 0.  1.
         12    1    3    3    0    0  0.34154164797E+02  0.16795693798E+01  0.14162946894E+02  0.37012389696E+02  0.00000000000E+00 0. -1.
</event>
<event>
 7    1  0.1358622E-013  0.7246158E+02  0.7816164E-02  0.1226708E+00
        -11   -1    0    0    0    0  0.00000000000E+00  0.00000000000E+00  0.45593999997E+02  0.45594000000E+02  0.51100000000E-03 0. -1.
         11   -1    0    0    0    0 -0.00000000000E+00 -0.00000000000E+00 -0.45593999997E+02  0.45594000000E+02  0.51100000000E-03 0.  1.
    9900012    2    1    2    0    0  0.10970240303E+02 -0.11855859371E+02 -0.94747763198E+01  0.72461575888E+02  0.70000007286E+02 0.  0.
        -12    1    1    2    0    0 -0.10970240303E+02  0.11855859371E+02  0.94747763198E+01  0.18726424112E+02  0.00000000000E+00 0.  1.
         11    1    3    3    0    0  0.89027039595E+01  0.11162771848E+02 -0.24282593373E+02  0.28169308729E+02  0.51100000000E-03 0. -1.
        -11    1    3    3    0    0  0.72010145343E+01  0.32204836936E+01 -0.64061916272E+01  0.10161959308E+02  0.51100000000E-03 0.  1.
        -12    1    3    3    0    0 -0.51334781912E+01 -0.26239114912E+02  0.21214008680E+02  0.34130307851E+02  0.00000000000E+00 0.  1.
</event>
<event>
 7    1  0.1358622E-013  0.7246160E+02  0.7816164E-02  0.1226708E+00
        -11   -1    0    0    0    0  0.00000000000E+00  0.00000000000E+00  0.45593999997E+02  0.45594000000E+02  0.51100000000E-03 0. -1.
         11   -1    0    0    0    0 -0.00000000000E+00 -0.00000000000E+00 -0.45593999997E+02  0.45594000000E+02  0.51100000000E-03 0.  1.
    9900012    2    1    2    0    0 -0.34671600304E+01 -0.99890151869E-01  0.18402358359E+02  0.72461602325E+02  0.70000041726E+02 0.  0.
        -12    1    1    2    0    0  0.34671600304E+01  0.99890151869E-01 -0.18402358359E+02  0.18726397675E+02  0.00000000000E+00 0.  1.
         11    1    3    3    0    0  0.36779340834E+01 -0.11679937140E+02  0.58013224347E+01  0.13550035903E+02  0.51100000000E-03 0. -1.
        -11    1    3    3    0    0  0.18508842553E+02  0.22865810157E+02  0.46880278945E+01  0.29789262034E+02  0.51100000000E-03 0.  1.
         12    1    3    3    0    0 -0.25653936666E+02 -0.11285763168E+02  0.79130080293E+01  0.29122304387E+02  0.00000000000E+00 0. -1.
</event>
<event>
 7    1  0.1358622E-013  0.7246164E+02  0.7816164E-02  0.1226708E+00
        -11   -1    0    0    0    0  0.00000000000E+00  0.00000000000E+00  0.45593999997E+02  0.45594000000E+02  0.51100000000E-03 0.  1.
         11   -1    0    0    0    0 -0.00000000000E+00 -0.00000000000E+00 -0.45593999997E+02  0.45594000000E+02  0.51100000000E-03 0. -1.
    9900012    2    1    2    0    0  0.17777432258E+02  0.29622169954E+01 -0.50857200954E+01  0.72461644879E+02  0.70000097161E+02 0.  0.
        -12    1    1    2    0    0 -0.17777432258E+02 -0.29622169954E+01  0.50857200954E+01  0.18726355121E+02  0.00000000000E+00 0.  1.
         11    1    3    3    0    0 -0.71360126854E+01  0.22459915737E+01  0.11308829329E+02  0.13559379641E+02  0.51100000000E-03 0.  1.
        -11    1    3    3    0    0 -0.13092750784E+01 -0.79690409056E+01 -0.27850196984E+02  0.28997470346E+02  0.51100000000E-03 0. -1.
         12    1    3    3    0    0  0.26222720022E+02  0.86852663273E+01  0.11455647559E+02  0.29904794892E+02  0.00000000000E+00 0. -1.
</event>
<event>
 7    1  0.1358622E-013  0.7246155E+02  0.7816164E-02  0.1226708E+00
        -11   -1    0    0    0    0  0.00000000000E+00  0.00000000000E+00  0.45593999997E+02  0.45594000000E+02  0.51100000000E-03 0.  1.
         11   -1    0    0    0    0 -0.00000000000E+00 -0.00000000000E+00 -0.45593999997E+02  0.45594000000E+02  0.51100000000E-03 0. -1.
    9900012    2    1    2    0    0  0.13714630881E+02  0.11845950413E+02  0.47182748115E+01  0.72461554567E+02  0.69999979512E+02 0.  0.
        -12    1    1    2    0    0 -0.13714630881E+02 -0.11845950413E+02 -0.47182748115E+01  0.18726445433E+02  0.00000000000E+00 0.  1.
         11    1    3    3    0    0 -0.34431580887E+01  0.44606700900E+01  0.17940516326E+02  0.18804654785E+02  0.51100000000E-03 0. -1.
        -11    1    3    3    0    0  0.10494866532E+02  0.25074262016E+02  0.47273561213E+01  0.27590011513E+02  0.51100000000E-03 0.  1.
         12    1    3    3    0    0  0.66629224371E+01 -0.17688981693E+02 -0.17949597635E+02  0.26066888268E+02  0.00000000000E+00 0. -1.
</event>
<event>
 7    1  0.1358622E-013  0.7246153E+02  0.7816164E-02  0.1226708E+00
        -11   -1    0    0    0    0  0.00000000000E+00  0.00000000000E+00  0.45593999997E+02  0.45594000000E+02  0.51100000000E-03 0.  1.
         11   -1    0    0    0    0 -0.00000000000E+00 -0.00000000000E+00 -0.45593999997E+02  0.45594000000E+02  0.51100000000E-03 0. -1.
    9900012    2    1    2    0    0 -0.15431360908E+02 -0.61844679774E+01 -0.86201101496E+01  0.72461525622E+02  0.69999941806E+02 0.  0.
        -12    1    1    2    0    0  0.15431360908E+02  0.61844679774E+01  0.86201101496E+01  0.18726474378E+02  0.00000000000E+00 0.  1.
         11    1    3    3    0    0 -0.23912520895E+02 -0.19317986244E+02 -0.13728247781E+02  0.33666868514E+02  0.51100000000E-03 0. -1.
        -11    1    3    3    0    0 -0.93487504413E+01  0.10842928485E+02 -0.81352526256E+01  0.16466650190E+02  0.51100000000E-03 0.  1.
        -12    1    3    3    0    0  0.17829910429E+02  0.22905897824E+01  0.13243390257E+02  0.22328006918E+02  0.00000000000E+00 0.  1.
</event>
<event>
 7    1  0.1358622E-013  0.7246161E+02  0.7816164E-02  0.1226708E+00
        -11   -1    0    0    0    0  0.00000000000E+00  0.00000000000E+00  0.45593999997E+02  0.45594000000E+02  0.51100000000E-03 0.  1.
         11   -1    0    0    0    0 -0.00000000000E+00 -0.00000000000E+00 -0.45593999997E+02  0.45594000000E+02  0.51100000000E-03 0. -1.
    9900012    2    1    2    0    0  0.15474510412E+02 -0.84685091851E+01 -0.62850208850E+01  0.72461611992E+02  0.70000054318E+02 0.  0.
        -12    1    1    2    0    0 -0.15474510412E+02  0.84685091851E+01  0.62850208850E+01  0.18726388008E+02  0.00000000000E+00 0.  1.
         11    1    3    3    0    0  0.41635515107E+01  0.11163114623E+02 -0.16422614635E+01  0.12026941101E+02  0.51100000000E-03 0. -1.
        -11    1    3    3    0    0  0.13007596738E+02  0.17894760665E+02  0.22707049356E+01  0.22239067726E+02  0.51100000000E-03 0.  1.
         12    1    3    3    0    0 -0.16966378368E+01 -0.37526384474E+02 -0.69134643571E+01  0.38195603164E+02  0.00000000000E+00 0. -1.
</event>
<event>
 7    1  0.1358622E-013  0.7246154E+02  0.7816164E-02  0.1226708E+00
        -11   -1    0    0    0    0  0.00000000000E+00  0.00000000000E+00  0.45593999997E+02  0.45594000000E+02  0.51100000000E-03 0.  1.
         11   -1    0    0    0    0 -0.00000000000E+00 -0.00000000000E+00 -0.45593999997E+02  0.45594000000E+02  0.51100000000E-03 0. -1.
    9900012    2    1    2    0    0  0.50236070289E+01  0.57855226472E+01 -0.17087174962E+02  0.72461536157E+02  0.69999955530E+02 0.  0.
        -12    1    1    2    0    0 -0.50236070289E+01 -0.57855226472E+01  0.17087174962E+02  0.18726463843E+02  0.00000000000E+00 0.  1.
         11    1    3    3    0    0  0.12008024356E+02 -0.94943030695E+01 -0.94713266476E+01  0.18001124088E+02  0.51100000000E-03 0. -1.
        -11    1    3    3    0    0 -0.12391486157E+02 -0.90238583958E+01  0.14542943874E+02  0.21129982639E+02  0.51100000000E-03 0.  1.
         12    1    3    3    0    0  0.54070688299E+01  0.24303684112E+02 -0.22158792188E+02  0.33330429430E+02  0.00000000000E+00 0. -1.
</event>
<event>
 7    1  0.1358622E-013  0.7246172E+02  0.7816164E-02  0.1226708E+00
        -11   -1    0    0    0    0  0.00000000000E+00  0.00000000000E+00  0.45593999997E+02  0.45594000000E+02  0.51100000000E-03 0.  1.
         11   -1    0    0    0    0 -0.00000000000E+00 -0.00000000000E+00 -0.45593999997E+02  0.45594000000E+02  0.51100000000E-03 0. -1.
    9900012    2    1    2    0    0 -0.16292940331E+02 -0.81602941751E+01  0.43154539453E+01  0.72461723050E+02  0.70000198992E+02 0.  0.
        -12    1    1    2    0    0  0.16292940331E+02  0.81602941751E+01 -0.43154539453E+01  0.18726276950E+02  0.00000000000E+00 0.  1.
         11    1    3    3    0    0 -0.12853330222E+02 -0.58870134946E+00  0.17204378265E+02  0.21483605349E+02  0.51100000000E-03 0.  1.
        -11    1    3    3    0    0  0.19826173559E+02 -0.12250846421E+02  0.12756594041E+01  0.23340687719E+02  0.51100000000E-03 0. -1.
        -12    1    3    3    0    0 -0.23265783668E+02  0.46792535951E+01 -0.14164583723E+02  0.27637429981E+02  0.00000000000E+00 0.  1.
</event>
<event>
 7    1  0.1358622E-013  0.7246161E+02  0.7816164E-02  0.1226708E+00
        -11   -1    0    0    0    0  0.00000000000E+00  0.00000000000E+00  0.45593999997E+02  0.45594000000E+02  0.51100000000E-03 0.  1.
         11   -1    0    0    0    0 -0.00000000000E+00 -0.00000000000E+00 -0.45593999997E+02  0.45594000000E+02  0.51100000000E-03 0. -1.
    9900012    2    1    2    0    0 -0.11409969563E+01  0.16420654901E+01 -0.18619333514E+02  0.72461605963E+02  0.70000046465E+02 0.  0.
        -12    1    1    2    0    0  0.11409969563E+01 -0.16420654901E+01  0.18619333514E+02  0.18726394037E+02  0.00000000000E+00 0.  1.
         11    1    3    3    0    0 -0.83015029410E+01  0.33606858131E+01 -0.46324978702E+00  0.89679295738E+01  0.51100000000E-03 0. -1.
        -11    1    3    3    0    0 -0.11882723318E+02  0.52585210222E+01  0.17903429826E+02  0.22122024242E+02  0.51100000000E-03 0.  1.
         12    1    3    3    0    0  0.19043229303E+02 -0.69771413452E+01 -0.36059513553E+02  0.41371652146E+02  0.00000000000E+00 0. -1.
</event>
<event>
 7    1  0.1358622E-013  0.7246160E+02  0.7816164E-02  0.1226708E+00
        -11   -1    0    0    0    0  0.00000000000E+00  0.00000000000E+00  0.45593999997E+02  0.45594000000E+02  0.51100000000E-03 0. -1.
         11   -1    0    0    0    0 -0.00000000000E+00 -0.00000000000E+00 -0.45593999997E+02  0.45594000000E+02  0.51100000000E-03 0.  1.
    9900012    2    1    2    0    0 -0.92438606210E+00  0.15940321406E+02  0.97841518963E+01  0.72461602470E+02  0.70000041915E+02 0.  0.
        -12    1    1    2    0    0  0.92438606210E+00 -0.15940321406E+02 -0.97841518963E+01  0.18726397530E+02  0.00000000000E+00 0.  1.
         11    1    3    3    0    0  0.22525154989E+02  0.12637131040E+02  0.19680879639E+02  0.32471783318E+02  0.51100000000E-03 0. -1.
        -11    1    3    3    0    0  0.60392388425E+01  0.42230745558E+00  0.40076788202E+01  0.72603194951E+01  0.51100000000E-03 0.  1.
        -12    1    3    3    0    0 -0.29488779894E+02  0.28808829106E+01 -0.13904406563E+02  0.32729499658E+02  0.00000000000E+00 0.  1.
</event>
<event>
 7    1  0.1358622E-013  0.7246150E+02  0.7816164E-02  0.1226708E+00
        -11   -1    0    0    0    0  0.00000000000E+00  0.00000000000E+00  0.45593999997E+02  0.45594000000E+02  0.51100000000E-03 0. -1.
         11   -1    0    0    0    0 -0.00000000000E+00 -0.00000000000E+00 -0.45593999997E+02  0.45594000000E+02  0.51100000000E-03 0.  1.
    9900012    2    1    2    0    0 -0.14757642642E+02 -0.11448060520E+02  0.13549205797E+01  0.72461496969E+02  0.69999904480E+02 0.  0.
        -12    1    1    2    0    0  0.14757642642E+02  0.11448060520E+02 -0.13549205797E+01  0.18726503031E+02  0.00000000000E+00 0.  1.
         11    1    3    3    0    0 -0.19007784905E+02  0.28792713172E-01  0.32999863387E+01  0.19292138972E+02  0.51100000000E-03 0. -1.
        -11    1    3    3    0    0 -0.17787147214E+02 -0.17172030834E+02 -0.12924750361E+02  0.27898215375E+02  0.51100000000E-03 0.  1.
         12    1    3    3    0    0  0.22037289477E+02  0.56951776009E+01  0.10979684602E+02  0.25271142621E+02  0.00000000000E+00 0. -1.
</event>
<event>
 7    1  0.1358622E-013  0.7246166E+02  0.7816164E-02  0.1226708E+00
        -11   -1    0    0    0    0  0.00000000000E+00  0.00000000000E+00  0.45593999997E+02  0.45594000000E+02  0.51100000000E-03 0. -1.
         11   -1    0    0    0    0 -0.00000000000E+00 -0.00000000000E+00 -0.45593999997E+02  0.45594000000E+02  0.51100000000E-03 0.  1.
    9900012    2    1    2    0    0  0.80483984533E+01 -0.16619785058E+02  0.31115622145E+01  0.72461660463E+02  0.70000117461E+02 0.  0.
        -12    1    1    2    0    0 -0.80483984533E+01  0.16619785058E+02 -0.31115622145E+01  0.18726339537E+02  0.00000000000E+00 0.  1.
         11    1    3    3    0    0 -0.59438774723E+01  0.18678294726E+01  0.20568288181E+01  0.65611745437E+01  0.51100000000E-03 0. -1.
        -11    1    3    3    0    0 -0.16433953936E+02  0.11274724007E+02  0.10167605012E+02  0.22373520853E+02  0.51100000000E-03 0.  1.
         12    1    3    3    0    0  0.30426229861E+02 -0.29762338538E+02 -0.91128716157E+01  0.43526965067E+02  0.00000000000E+00 0. -1.
</event>
<event>
 7    1  0.1358622E-013  0.7246156E+02  0.7816164E-02  0.1226708E+00
        -11   -1    0    0    0    0  0.00000000000E+00  0.00000000000E+00  0.45593999997E+02  0.45594000000E+02  0.51100000000E-03 0.  1.
         11   -1    0    0    0    0 -0.00000000000E+00 -0.00000000000E+00 -0.45593999997E+02  0.45594000000E+02  0.51100000000E-03 0. -1.
    9900012    2    1    2    0    0  0.86257450387E+00  0.24575704659E+01 -0.18544432526E+02  0.72461557063E+02  0.69999982763E+02 0.  0.
        -12    1    1    2    0    0 -0.86257450387E+00 -0.24575704659E+01  0.18544432526E+02  0.18726442937E+02  0.00000000000E+00 0.  1.
         11    1    3    3    0    0  0.12586827336E+02 -0.97803605219E+01 -0.88479142055E+01  0.18230997240E+02  0.51100000000E-03 0. -1.
        -11    1    3    3    0    0  0.13739593258E+02 -0.10646202077E+02  0.31484588513E+01  0.17664394554E+02  0.51100000000E-03 0.  1.
        -12    1    3    3    0    0 -0.25463846090E+02  0.22884133065E+02 -0.12844977172E+02  0.36566165268E+02  0.00000000000E+00 0.  1.
</event>
<event>
 7    1  0.1358622E-013  0.7246164E+02  0.7816164E-02  0.1226708E+00
        -11   -1    0    0    0    0  0.00000000000E+00  0.00000000000E+00  0.45593999997E+02  0.45594000000E+02  0.51100000000E-03 0.  1.
         11   -1    0    0    0    0 -0.00000000000E+00 -0.00000000000E+00 -0.45593999997E+02  0.45594000000E+02  0.51100000000E-03 0. -1.
    9900012    2    1    2    0    0  0.80938450383E+01 -0.93754636812E+01 -0.14045175342E+02  0.72461638978E+02  0.70000089473E+02 0.  0.
        -12    1    1    2    0    0 -0.80938450383E+01  0.93754636812E+01  0.14045175342E+02  0.18726361022E+02  0.00000000000E+00 0.  1.
         11    1    3    3    0    0  0.90270564703E+01  0.47075469366E+00 -0.21430428432E+02  0.23258818146E+02  0.51100000000E-03 0. -1.
        -11    1    3    3    0    0  0.22696028176E+02 -0.15940266707E+01  0.81357292878E+01  0.24162795933E+02  0.51100000000E-03 0.  1.
        -12    1    3    3    0    0 -0.23629239608E+02 -0.82521917041E+01 -0.75047619792E+00  0.25040024899E+02  0.00000000000E+00 0.  1.
</event>
<event>
 7    1  0.1358622E-013  0.7246155E+02  0.7816164E-02  0.1226708E+00
        -11   -1    0    0    0    0  0.00000000000E+00  0.00000000000E+00  0.45593999997E+02  0.45594000000E+02  0.51100000000E-03 0. -1.
         11   -1    0    0    0    0 -0.00000000000E+00 -0.00000000000E+00 -0.45593999997E+02  0.45594000000E+02  0.51100000000E-03 0.  1.
    9900012    2    1    2    0    0 -0.81943801558E+01 -0.35195369793E+01  0.16466478647E+02  0.72461550104E+02  0.69999973698E+02 0.  0.
        -12    1    1    2    0    0  0.81943801558E+01  0.35195369793E+01 -0.16466478647E+02  0.18726449896E+02  0.00000000000E+00 0.  1.
         11    1    3    3    0    0  0.62933258782E+01 -0.82127520547E+01  0.28810858956E+02  0.30612429518E+02  0.51100000000E-03 0. -1.
        -11    1    3    3    0    0  0.20912887403E+01 -0.95650394948E+00  0.11799287408E+02  0.12021296602E+02  0.51100000000E-03 0.  1.
        -12    1    3    3    0    0 -0.16578994774E+02  0.56497190249E+01 -0.24143667717E+02  0.29827823984E+02  0.00000000000E+00 0.  1.
</event>
<event>
 7    1  0.1358622E-013  0.7246156E+02  0.7816164E-02  0.1226708E+00
        -11   -1    0    0    0    0  0.00000000000E+00  0.00000000000E+00  0.45593999997E+02  0.45594000000E+02  0.51100000000E-03 0.  1.
         11   -1    0    0    0    0 -0.00000000000E+00 -0.00000000000E+00 -0.45593999997E+02  0.45594000000E+02  0.51100000000E-03 0. -1.
    9900012    2    1    2    0    0 -0.15628949705E+02 -0.39708019406E+01 -0.95209260824E+01  0.72461564931E+02  0.69999993013E+02 0.  0.
        -12    1    1    2    0    0  0.15628949705E+02  0.39708019406E+01  0.95209260824E+01  0.18726435069E+02  0.00000000000E+00 0.  1.
         11    1    3    3    0    0  0.46289852378E+01  0.10232239852E+02 -0.95632990667E+01  0.14750692392E+02  0.51100000000E-03 0. -1.
        -11    1    3    3    0    0 -0.10769807976E+02 -0.19468223341E+02 -0.23148496689E+02  0.32106905536E+02  0.51100000000E-03 0.  1.
        -12    1    3    3    0    0 -0.94881269673E+01  0.52651815474E+01  0.23190869673E+02  0.25603967003E+02  0.00000000000E+00 0.  1.
</event>
<event>
 7    1  0.1358622E-013  0.7246154E+02  0.7816164E-02  0.1226708E+00
        -11   -1    0    0    0    0  0.00000000000E+00  0.00000000000E+00  0.45593999997E+02  0.45594000000E+02  0.51100000000E-03 0.  1.
         11   -1    0    0    0    0 -0.00000000000E+00 -0.00000000000E+00 -0.45593999997E+02  0.45594000000E+02  0.51100000000E-03 0. -1.
    9900012    2    1    2    0    0  0.13986891673E+01  0.10863054585E+02 -0.15189409276E+02  0.72461536360E+02  0.69999955795E+02 0.  0.
        -12    1    1    2    0    0 -0.13986891673E+01 -0.10863054585E+02  0.15189409276E+02  0.18726463640E+02  0.00000000000E+00 0.  1.
         11    1    3    3    0    0 -0.99270871053E+01  0.14791631993E+02 -0.13951448026E+02  0.22627026710E+02  0.51100000000E-03 0. -1.
        -11    1    3    3    0    0  0.28269292732E+02 -0.11642958604E+02 -0.45974095535E+01  0.30916784624E+02  0.51100000000E-03 0.  1.
         12    1    3    3    0    0 -0.16943516460E+02  0.77143811959E+01  0.33594483045E+01  0.18917725026E+02  0.00000000000E+00 0. -1.
</event>
<event>
 7    1  0.1358622E-013  0.7246156E+02  0.7816164E-02  0.1226708E+00
        -11   -1    0    0    0    0  0.00000000000E+00  0.00000000000E+00  0.45593999997E+02  0.45594000000E+02  0.51100000000E-03 0.  1.
         11   -1    0    0    0    0 -0.00000000000E+00 -0.00000000000E+00 -0.45593999997E+02  0.45594000000E+02  0.51100000000E-03 0. -1.
    9900012    2    1    2    0    0 -0.64004612279E+01 -0.90633074637E+01 -0.15085423660E+02  0.72461562722E+02  0.69999990136E+02 0.  0.
        -12    1    1    2    0    0  0.64004612279E+01  0.90633074637E+01  0.15085423660E+02  0.18726437278E+02  0.00000000000E+00 0.  1.
         11    1    3    3    0    0 -0.30449681666E+01 -0.29806959014E+02 -0.15604467353E+02  0.33782037215E+02  0.51100000000E-03 0. -1.
        -11    1    3    3    0    0 -0.60912301228E+01 -0.80130103047E+00 -0.12093712018E+02  0.13564771963E+02  0.51100000000E-03 0.  1.
        -12    1    3    3    0    0  0.27357370615E+01  0.21544952581E+02  0.12612755712E+02  0.25114753545E+02  0.00000000000E+00 0.  1.
</event>
<event>
 7    1  0.1358622E-013  0.7246156E+02  0.7816164E-02  0.1226708E+00
        -11   -1    0    0    0    0  0.00000000000E+00  0.00000000000E+00  0.45593999997E+02  0.45594000000E+02  0.51100000000E-03 0. -1.
         11   -1    0    0    0    0 -0.00000000000E+00 -0.00000000000E+00 -0.45593999997E+02  0.45594000000E+02  0.51100000000E-03 0.  1.
    9900012    2    1    2    0    0 -0.16420800545E+02  0.48760655137E+01 -0.75670952889E+01  0.72461557824E+02  0.69999983756E+02 0.  0.
        -12    1    1    2    0    0  0.16420800545E+02 -0.48760655137E+01  0.75670952889E+01  0.18726442176E+02  0.00000000000E+00 0.  1.
         11    1    3    3    0    0  0.99276764988E+01 -0.17374927852E+02 -0.23370122009E+01  0.20147171137E+02  0.51100000000E-03 0. -1.
        -11    1    3    3    0    0 -0.31195902483E+01  0.29502518201E+01 -0.18742738025E+02  0.19228261961E+02  0.51100000000E-03 0.  1.
         12    1    3    3    0    0 -0.23228886796E+02  0.19300741546E+02  0.13512654937E+02  0.33086124727E+02  0.00000000000E+00 0. -1.
</event>
<event>
 7    1  0.1358622E-013  0.7246155E+02  0.7816164E-02  0.1226708E+00
        -11   -1    0    0    0    0  0.00000000000E+00  0.00000000000E+00  0.45593999997E+02  0.45594000000E+02  0.51100000000E-03 0.  1.
         11   -1    0    0    0    0 -0.00000000000E+00 -0.00000000000E+00 -0.45593999997E+02  0.45594000000E+02  0.51100000000E-03 0. -1.
    9900012    2    1    2    0    0 -0.97068893119E+01 -0.15993601939E+02  0.81296546912E+00  0.72461550365E+02  0.69999974038E+02 0.  0.
        -12    1    1    2    0    0  0.97068893119E+01  0.15993601939E+02 -0.81296546912E+00  0.18726449635E+02  0.00000000000E+00 0.  1.
         11    1    3    3    0    0 -0.21438295003E+02 -0.13651873311E+02 -0.19060640148E+02  0.31769201133E+02  0.51100000000E-03 0. -1.
        -11    1    3    3    0    0  0.12587589728E+01 -0.70956942201E+01  0.26470243353E+02  0.27433686118E+02  0.51100000000E-03 0.  1.
        -12    1    3    3    0    0  0.10472646718E+02  0.47539655920E+01 -0.65966377362E+01  0.13258663113E+02  0.00000000000E+00 0.  1.
</event>
<event>
 7    1  0.1358622E-013  0.7246165E+02  0.7816164E-02  0.1226708E+00
        -11   -1    0    0    0    0  0.00000000000E+00  0.00000000000E+00  0.45593999997E+02  0.45594000000E+02  0.51100000000E-03 0.  1.
         11   -1    0    0    0    0 -0.00000000000E+00 -0.00000000000E+00 -0.45593999997E+02  0.45594000000E+02  0.51100000000E-03 0. -1.
    9900012    2    1    2    0    0 -0.18009975006E+02  0.12982358329E+01 -0.49630106004E+01  0.72461652512E+02  0.70000107104E+02 0.  0.
        -12    1    1    2    0    0  0.18009975006E+02 -0.12982358329E+01  0.49630106004E+01  0.18726347488E+02  0.00000000000E+00 0.  1.
         11    1    3    3    0    0 -0.35575950952E+01 -0.15937959215E+01 -0.49270148838E+01  0.62826860678E+01  0.51100000000E-03 0. -1.
        -11    1    3    3    0    0 -0.62299374818E+01 -0.30204007307E+02  0.63429421843E+01  0.31485347294E+02  0.51100000000E-03 0.  1.
         12    1    3    3    0    0 -0.82224424292E+01  0.33096039061E+02 -0.63789379009E+01  0.34693619151E+02  0.00000000000E+00 0. -1.
</event>
<event>
 7    1  0.1358622E-013  0.7246168E+02  0.7816164E-02  0.1226708E+00
        -11   -1    0    0    0    0  0.00000000000E+00  0.00000000000E+00  0.45593999997E+02  0.45594000000E+02  0.51100000000E-03 0. -1.
         11   -1    0    0    0    0 -0.00000000000E+00 -0.00000000000E+00 -0.45593999997E+02  0.45594000000E+02  0.51100000000E-03 0.  1.
    9900012    2    1    2    0    0  0.10219278234E+01  0.55579279748E+01  0.17853296101E+02  0.72461679446E+02  0.70000142190E+02 0.  0.
        -12    1    1    2    0    0 -0.10219278234E+01 -0.55579279748E+01 -0.17853296101E+02  0.18726320554E+02  0.00000000000E+00 0.  1.
         11    1    3    3    0    0 -0.13982095575E+02 -0.17216430362E+02  0.11917662326E+02  0.25178068763E+02  0.51100000000E-03 0. -1.
        -11    1    3    3    0    0 -0.18516480097E+01 -0.95167779160E+01  0.48525639855E+01  0.10841819024E+02  0.51100000000E-03 0.  1.
         12    1    3    3    0    0  0.16855671408E+02  0.32291136253E+02  0.10830697894E+01  0.36441791658E+02  0.00000000000E+00 0. -1.
</event>
<event>
 7    1  0.1358622E-013  0.7246144E+02  0.7816164E-02  0.1226708E+00
        -11   -1    0    0    0    0  0.00000000000E+00  0.00000000000E+00  0.45593999997E+02  0.45594000000E+02  0.51100000000E-03 0. -1.
         11   -1    0    0    0    0 -0.00000000000E+00 -0.00000000000E+00 -0.45593999997E+02  0.45594000000E+02  0.51100000000E-03 0.  1.
    9900012    2    1    2    0    0  0.24305439718E+01  0.46438708916E+01  0.17978071449E+02  0.72461437745E+02  0.69999827330E+02 0.  0.
        -12    1    1    2    0    0 -0.24305439718E+01 -0.46438708916E+01 -0.17978071449E+02  0.18726562255E+02  0.00000000000E+00 0.  1.
         11    1    3    3    0    0 -0.66365313117E+01 -0.12990854177E+01  0.36503224237E+01  0.76847917884E+01  0.51100000000E-03 0. -1.
        -11    1    3    3    0    0  0.30818033405E+02 -0.13784143108E+02  0.89169877881E+01  0.34917996158E+02  0.51100000000E-03 0.  1.
         12    1    3    3    0    0 -0.21750958122E+02  0.19727099418E+02  0.54107612374E+01  0.29858649799E+02  0.00000000000E+00 0. -1.
</event>
<event>
 7    1  0.1358622E-013  0.7246155E+02  0.7816164E-02  0.1226708E+00
        -11   -1    0    0    0    0  0.00000000000E+00  0.00000000000E+00  0.45593999997E+02  0.45594000000E+02  0.51100000000E-03 0.  1.
         11   -1    0    0    0    0 -0.00000000000E+00 -0.00000000000E+00 -0.45593999997E+02  0.45594000000E+02  0.51100000000E-03 0. -1.
    9900012    2    1    2    0    0 -0.37384446769E+00 -0.18498184978E+02 -0.28908824642E+01  0.72461553231E+02  0.69999977772E+02 0.  0.
        -12    1    1    2    0    0  0.37384446769E+00  0.18498184978E+02  0.28908824642E+01  0.18726446769E+02  0.00000000000E+00 0.  1.
         11    1    3    3    0    0 -0.77916839736E+01 -0.30776040551E+00 -0.87521014120E+01  0.11721959520E+02  0.51100000000E-03 0. -1.
        -11    1    3    3    0    0 -0.44133755040E+01 -0.37277830116E+02  0.30386217971E-01  0.37538186225E+02  0.51100000000E-03 0.  1.
        -12    1    3    3    0    0  0.11831215010E+02  0.19087405543E+02  0.58308327299E+01  0.23201407486E+02  0.00000000000E+00 0.  1.
</event>
<event>
 7    1  0.1358622E-013  0.7246160E+02  0.7816164E-02  0.1226708E+00
        -11   -1    0    0    0    0  0.00000000000E+00  0.00000000000E+00  0.45593999997E+02  0.45594000000E+02  0.51100000000E-03 0.  1.
         11   -1    0    0    0    0 -0.00000000000E+00 -0.00000000000E+00 -0.45593999997E+02  0.45594000000E+02  0.51100000000E-03 0. -1.
    9900012    2    1    2    0    0 -0.16230862993E+02 -0.54273611937E+01 -0.76013847137E+01  0.72461595845E+02  0.70000033285E+02 0.  0.
        -12    1    1    2    0    0  0.16230862993E+02  0.54273611937E+01  0.76013847137E+01  0.18726404155E+02  0.00000000000E+00 0.  1.
         11    1    3    3    0    0  0.12519014987E+02 -0.42095330521E+01 -0.67803163758E+01  0.14846501109E+02  0.51100000000E-03 0. -1.
        -11    1    3    3    0    0  0.12712010000E+02  0.72992251392E+01  0.34905355458E+01  0.15068434708E+02  0.51100000000E-03 0.  1.
         12    1    3    3    0    0 -0.41461887980E+02 -0.85170532808E+01 -0.43116038837E+01  0.42546660028E+02  0.00000000000E+00 0. -1.
</event>
<event>
 7    1  0.1358622E-013  0.7246161E+02  0.7816164E-02  0.1226708E+00
        -11   -1    0    0    0    0  0.00000000000E+00  0.00000000000E+00  0.45593999997E+02  0.45594000000E+02  0.51100000000E-03 0.  1.
         11   -1    0    0    0    0 -0.00000000000E+00 -0.00000000000E+00 -0.45593999997E+02  0.45594000000E+02  0.51100000000E-03 0. -1.
    9900012    2    1    2    0    0  0.16310306105E+02 -0.79087823014E+01  0.47013705366E+01  0.72461606656E+02  0.70000047368E+02 0.  0.
        -12    1    1    2    0    0 -0.16310306105E+02  0.79087823014E+01 -0.47013705366E+01  0.18726393344E+02  0.00000000000E+00 0.  1.
         11    1    3    3    0    0 -0.14644790968E+02 -0.56019951396E+01  0.29822168888E+01  0.15960760317E+02  0.51100000000E-03 0. -1.
        -11    1    3    3    0    0  0.46908564810E+01  0.91976704894E+01  0.19991488452E+02  0.22500241949E+02  0.51100000000E-03 0.  1.
         12    1    3    3    0    0  0.26264240593E+02 -0.11504457651E+02 -0.18272334804E+02  0.34000604391E+02  0.00000000000E+00 0. -1.
</event>
<event>
 7    1  0.1358622E-013  0.7246159E+02  0.7816164E-02  0.1226708E+00
        -11   -1    0    0    0    0  0.00000000000E+00  0.00000000000E+00  0.45593999997E+02  0.45594000000E+02  0.51100000000E-03 0. -1.
         11   -1    0    0    0    0 -0.00000000000E+00 -0.00000000000E+00 -0.45593999997E+02  0.45594000000E+02  0.51100000000E-03 0.  1.
    9900012    2    1    2    0    0  0.56349927394E+01 -0.15927509826E+01  0.17787316163E+02  0.72461585097E+02  0.70000019283E+02 0.  0.
        -12    1    1    2    0    0 -0.56349927394E+01  0.15927509826E+01 -0.17787316163E+02  0.18726414903E+02  0.00000000000E+00 0.  1.
         11    1    3    3    0    0 -0.19409039151E+02  0.11188925247E+02  0.18249325647E+02  0.28895341073E+02  0.51100000000E-03 0. -1.
        -11    1    3    3    0    0 -0.24324270726E+01  0.59226780769E+01  0.70143241971E+01  0.94971343715E+01  0.51100000000E-03 0.  1.
        -12    1    3    3    0    0  0.27476458963E+02 -0.18704354306E+02 -0.74763336812E+01  0.34069109652E+02  0.00000000000E+00 0.  1.
</event>
<event>
 7    1  0.1358622E-013  0.7246154E+02  0.7816164E-02  0.1226708E+00
        -11   -1    0    0    0    0  0.00000000000E+00  0.00000000000E+00  0.45593999997E+02  0.45594000000E+02  0.51100000000E-03 0. -1.
         11   -1    0    0    0    0 -0.00000000000E+00 -0.00000000000E+00 -0.45593999997E+02  0.45594000000E+02  0.51100000000E-03 0.  1.
    9900012    2    1    2    0    0  0.57793091053E+01 -0.33128584588E+01  0.17501566865E+02  0.72461540440E+02  0.69999961110E+02 0.  0.
        -12    1    1    2    0    0 -0.57793091053E+01  0.33128584588E+01 -0.17501566865E+02  0.18726459560E+02  0.00000000000E+00 0.  1.
         11    1    3    3    0    0  0.31982667848E+01 -0.10734104768E+02 -0.13382809537E-01  0.11200450659E+02  0.51100000000E-03 0.  1.
        -11    1    3    3    0    0 -0.16878590953E+02  0.27510524461E+01  0.32186062181E+02  0.36447190853E+02  0.51100000000E-03 0. -1.
         12    1    3    3    0    0  0.19459633273E+02  0.46701938631E+01 -0.14671112506E+02  0.24813898928E+02  0.00000000000E+00 0. -1.
</event>
<event>
 7    1  0.1358622E-013  0.7246169E+02  0.7816164E-02  0.1226708E+00
        -11   -1    0    0    0    0  0.00000000000E+00  0.00000000000E+00  0.45593999997E+02  0.45594000000E+02  0.51100000000E-03 0. -1.
         11   -1    0    0    0    0 -0.00000000000E+00 -0.00000000000E+00 -0.45593999997E+02  0.45594000000E+02  0.51100000000E-03 0.  1.
    9900012    2    1    2    0    0  0.81232164938E+01  0.16759049819E+02  0.19550679617E+01  0.72461689959E+02  0.70000155885E+02 0.  0.
        -12    1    1    2    0    0 -0.81232164938E+01 -0.16759049819E+02 -0.19550679617E+01  0.18726310041E+02  0.00000000000E+00 0.  1.
         11    1    3    3    0    0 -0.92436089558E+01 -0.32185685973E+01  0.19317577960E+01  0.99767318690E+01  0.51100000000E-03 0. -1.
        -11    1    3    3    0    0 -0.43320278353E+01  0.16761550515E+02 -0.24232469652E+02  0.29781346956E+02  0.51100000000E-03 0.  1.
         12    1    3    3    0    0  0.21698853285E+02  0.32160679013E+01  0.24255779817E+02  0.32703611134E+02  0.00000000000E+00 0. -1.
</event>
<event>
 7    1  0.1358622E-013  0.7246153E+02  0.7816164E-02  0.1226708E+00
        -11   -1    0    0    0    0  0.00000000000E+00  0.00000000000E+00  0.45593999997E+02  0.45594000000E+02  0.51100000000E-03 0. -1.
         11   -1    0    0    0    0 -0.00000000000E+00 -0.00000000000E+00 -0.45593999997E+02  0.45594000000E+02  0.51100000000E-03 0.  1.
    9900012    2    1    2    0    0 -0.55474001935E+01  0.17059746239E+02 -0.53732863810E+01  0.72461526836E+02  0.69999943387E+02 0.  0.
        -12    1    1    2    0    0  0.55474001935E+01 -0.17059746239E+02  0.53732863810E+01  0.18726473164E+02  0.00000000000E+00 0.  1.
         11    1    3    3    0    0 -0.29599354892E+01 -0.29989787485E+01 -0.19079672147E+01  0.46255195154E+01  0.51100000000E-03 0. -1.
        -11    1    3    3    0    0 -0.24652776527E+02 -0.12526409268E+02  0.34930734922E+01  0.27872421537E+02  0.51100000000E-03 0.  1.
         12    1    3    3    0    0  0.22065311823E+02  0.32585134255E+02 -0.69583926584E+01  0.39963585783E+02  0.00000000000E+00 0. -1.
</event>
<event>
 7    1  0.1358622E-013  0.7246144E+02  0.7816164E-02  0.1226708E+00
        -11   -1    0    0    0    0  0.00000000000E+00  0.00000000000E+00  0.45593999997E+02  0.45594000000E+02  0.51100000000E-03 0. -1.
         11   -1    0    0    0    0 -0.00000000000E+00 -0.00000000000E+00 -0.45593999997E+02  0.45594000000E+02  0.51100000000E-03 0.  1.
    9900012    2    1    2    0    0 -0.62483970960E+01 -0.15773287299E+02 -0.79274852975E+01  0.72461439141E+02  0.69999829148E+02 0.  0.
        -12    1    1    2    0    0  0.62483970960E+01  0.15773287299E+02  0.79274852975E+01  0.18726560859E+02  0.00000000000E+00 0.  1.
         11    1    3    3    0    0  0.72408394410E+01  0.41024909233E+00 -0.15417717308E+02  0.17038311752E+02  0.51100000000E-03 0. -1.
        -11    1    3    3    0    0 -0.14525207618E+02  0.14507693798E+02  0.12893806243E+02  0.24242629300E+02  0.51100000000E-03 0.  1.
         12    1    3    3    0    0  0.10359710810E+01 -0.30691230189E+02 -0.54035742329E+01  0.31180498089E+02  0.00000000000E+00 0. -1.
</event>
<event>
 7    1  0.1358622E-013  0.7246161E+02  0.7816164E-02  0.1226708E+00
        -11   -1    0    0    0    0  0.00000000000E+00  0.00000000000E+00  0.45593999997E+02  0.45594000000E+02  0.51100000000E-03 0.  1.
         11   -1    0    0    0    0 -0.00000000000E+00 -0.00000000000E+00 -0.45593999997E+02  0.45594000000E+02  0.51100000000E-03 0. -1.
    9900012    2    1    2    0    0 -0.24461957203E+01 -0.17465664392E+02 -0.62963749655E+01  0.72461611030E+02  0.70000053066E+02 0.  0.
        -12    1    1    2    0    0  0.24461957203E+01  0.17465664392E+02  0.62963749655E+01  0.18726388970E+02  0.00000000000E+00 0.  1.
         11    1    3    3    0    0 -0.45322469126E+01  0.13446385170E+01 -0.12762867932E+02  0.13610294373E+02  0.51100000000E-03 0. -1.
        -11    1    3    3    0    0  0.17175789672E+02  0.60523484530E+01 -0.14266896559E+02  0.23134022788E+02  0.51100000000E-03 0.  1.
         12    1    3    3    0    0 -0.15089738479E+02 -0.24862651362E+02  0.20733389526E+02  0.35717293869E+02  0.00000000000E+00 0. -1.
</event>
<event>
 7    1  0.1358622E-013  0.7246154E+02  0.7816164E-02  0.1226708E+00
        -11   -1    0    0    0    0  0.00000000000E+00  0.00000000000E+00  0.45593999997E+02  0.45594000000E+02  0.51100000000E-03 0.  1.
         11   -1    0    0    0    0 -0.00000000000E+00 -0.00000000000E+00 -0.45593999997E+02  0.45594000000E+02  0.51100000000E-03 0. -1.
    9900012    2    1    2    0    0  0.17519338547E+02  0.59419705014E+01 -0.29062330325E+01  0.72461536719E+02  0.69999956262E+02 0.  0.
        -12    1    1    2    0    0 -0.17519338547E+02 -0.59419705014E+01  0.29062330325E+01  0.18726463281E+02  0.00000000000E+00 0.  1.
         11    1    3    3    0    0  0.10247683608E+02 -0.22271663686E+02  0.13090485443E-01  0.24516161900E+02  0.51100000000E-03 0. -1.
        -11    1    3    3    0    0  0.58158625063E+01 -0.29302619238E+01  0.11792144176E+02  0.13470907770E+02  0.51100000000E-03 0.  1.
        -12    1    3    3    0    0  0.14557924331E+01  0.31143896112E+02 -0.14711467694E+02  0.34474467049E+02  0.00000000000E+00 0.  1.
</event>
<event>
 7    1  0.1358622E-013  0.7246155E+02  0.7816164E-02  0.1226708E+00
        -11   -1    0    0    0    0  0.00000000000E+00  0.00000000000E+00  0.45593999997E+02  0.45594000000E+02  0.51100000000E-03 0. -1.
         11   -1    0    0    0    0 -0.00000000000E+00 -0.00000000000E+00 -0.45593999997E+02  0.45594000000E+02  0.51100000000E-03 0.  1.
    9900012    2    1    2    0    0 -0.11635374338E+02  0.13411761889E+02 -0.59516906085E+01  0.72461550415E+02  0.69999974103E+02 0.  0.
        -12    1    1    2    0    0  0.11635374338E+02 -0.13411761889E+02  0.59516906085E+01  0.18726449585E+02  0.00000000000E+00 0.  1.
         11    1    3    3    0    0  0.48772259826E+01  0.30135401025E+00 -0.12436490333E+02  0.13362052222E+02  0.51100000000E-03 0. -1.
        -11    1    3    3    0    0  0.54228610784E+01  0.16683362147E+02 -0.18612233714E+02  0.25576497784E+02  0.51100000000E-03 0.  1.
         12    1    3    3    0    0 -0.21935461399E+02 -0.35729542684E+01  0.25097033438E+02  0.33523000409E+02  0.00000000000E+00 0. -1.
</event>
<event>
 7    1  0.1358622E-013  0.7246162E+02  0.7816164E-02  0.1226708E+00
        -11   -1    0    0    0    0  0.00000000000E+00  0.00000000000E+00  0.45593999997E+02  0.45594000000E+02  0.51100000000E-03 0.  1.
         11   -1    0    0    0    0 -0.00000000000E+00 -0.00000000000E+00 -0.45593999997E+02  0.45594000000E+02  0.51100000000E-03 0. -1.
    9900012    2    1    2    0    0  0.14221334233E+02  0.85135775546E+01 -0.87149175097E+01  0.72461624554E+02  0.70000070683E+02 0.  0.
        -12    1    1    2    0    0 -0.14221334233E+02 -0.85135775546E+01  0.87149175097E+01  0.18726375446E+02  0.00000000000E+00 0.  1.
         11    1    3    3    0    0 -0.51602994676E+00  0.24954484190E+02 -0.26273968353E+02  0.36239674135E+02  0.51100000000E-03 0. -1.
        -11    1    3    3    0    0 -0.16170355237E+01 -0.29503505307E+01 -0.45053460685E+01  0.56229454557E+01  0.51100000000E-03 0.  1.
        -12    1    3    3    0    0  0.16354399704E+02 -0.13490556105E+02  0.22064396912E+02  0.30599004964E+02  0.00000000000E+00 0.  1.
</event>
<event>
 7    1  0.1358622E-013  0.7246145E+02  0.7816164E-02  0.1226708E+00
        -11   -1    0    0    0    0  0.00000000000E+00  0.00000000000E+00  0.45593999997E+02  0.45594000000E+02  0.51100000000E-03 0.  1.
         11   -1    0    0    0    0 -0.00000000000E+00 -0.00000000000E+00 -0.45593999997E+02  0.45594000000E+02  0.51100000000E-03 0. -1.
    9900012    2    1    2    0    0 -0.10052487624E+01 -0.13765631112E+02 -0.12656242343E+02  0.72461452127E+02  0.69999846065E+02 0.  0.
        -12    1    1    2    0    0  0.10052487624E+01  0.13765631112E+02  0.12656242343E+02  0.18726547873E+02  0.00000000000E+00 0.  1.
         11    1    3    3    0    0  0.19414232581E+02  0.92941776313E+01 -0.70836412020E+01  0.22659923599E+02  0.51100000000E-03 0. -1.
        -11    1    3    3    0    0  0.11169377726E+02 -0.22976180966E+01 -0.35634274293E+01  0.11947052482E+02  0.51100000000E-03 0.  1.
        -12    1    3    3    0    0 -0.31588859069E+02 -0.20762190647E+02 -0.20091737114E+01  0.37854476047E+02  0.00000000000E+00 0.  1.
</event>
<event>
 7    1  0.1358622E-013  0.7246156E+02  0.7816164E-02  0.1226708E+00
        -11   -1    0    0    0    0  0.00000000000E+00  0.00000000000E+00  0.45593999997E+02  0.45594000000E+02  0.51100000000E-03 0. -1.
         11   -1    0    0    0    0 -0.00000000000E+00 -0.00000000000E+00 -0.45593999997E+02  0.45594000000E+02  0.51100000000E-03 0.  1.
    9900012    2    1    2    0    0  0.25000402756E+00 -0.18110032640E+02  0.47585433535E+01  0.72461560961E+02  0.69999987842E+02 0.  0.
        -12    1    1    2    0    0 -0.25000402756E+00  0.18110032640E+02 -0.47585433535E+01  0.18726439039E+02  0.00000000000E+00 0.  1.
         11    1    3    3    0    0 -0.35843540004E+01 -0.79767569812E+01  0.26284870674E+01  0.91315491601E+01  0.51100000000E-03 0. -1.
        -11    1    3    3    0    0  0.24494728216E+02 -0.26938708858E+02 -0.15601462160E+01  0.36443378024E+02  0.51100000000E-03 0.  1.
         12    1    3    3    0    0 -0.20660370188E+02  0.16805433200E+02  0.36902025022E+01  0.26886633777E+02  0.00000000000E+00 0. -1.
</event>
<event>
 7    1  0.1358622E-013  0.7246155E+02  0.7816164E-02  0.1226708E+00
        -11   -1    0    0    0    0  0.00000000000E+00  0.00000000000E+00  0.45593999997E+02  0.45594000000E+02  0.51100000000E-03 0.  1.
         11   -1    0    0    0    0 -0.00000000000E+00 -0.00000000000E+00 -0.45593999997E+02  0.45594000000E+02  0.51100000000E-03 0. -1.
    9900012    2    1    2    0    0  0.15572179060E+02  0.44780057160E+01 -0.93880103513E+01  0.72461547206E+02  0.69999969924E+02 0.  0.
        -12    1    1    2    0    0 -0.15572179060E+02 -0.44780057160E+01  0.93880103513E+01  0.18726452794E+02  0.00000000000E+00 0.  1.
         11    1    3    3    0    0  0.18777663591E+02 -0.82095572335E+01  0.13441129887E+02  0.24508395558E+02  0.51100000000E-03 0. -1.
        -11    1    3    3    0    0  0.11999779231E+02 -0.51676241228E+01  0.26420166372E+01  0.13329639637E+02  0.51100000000E-03 0.  1.
         12    1    3    3    0    0 -0.15205263762E+02  0.17855187072E+02 -0.25471156876E+02  0.34623512012E+02  0.00000000000E+00 0. -1.
</event>
<event>
 7    1  0.1358622E-013  0.7246155E+02  0.7816164E-02  0.1226708E+00
        -11   -1    0    0    0    0  0.00000000000E+00  0.00000000000E+00  0.45593999997E+02  0.45594000000E+02  0.51100000000E-03 0.  1.
         11   -1    0    0    0    0 -0.00000000000E+00 -0.00000000000E+00 -0.45593999997E+02  0.45594000000E+02  0.51100000000E-03 0. -1.
    9900012    2    1    2    0    0  0.45077814449E+01 -0.17993092640E+02  0.25707025619E+01  0.72461548442E+02  0.69999971533E+02 0.  0.
        -12    1    1    2    0    0 -0.45077814449E+01  0.17993092640E+02 -0.25707025619E+01  0.18726451558E+02  0.00000000000E+00 0.  1.
         11    1    3    3    0    0 -0.40804603773E+01 -0.24949256317E+02 -0.71204796248E+01  0.26264363271E+02  0.51100000000E-03 0. -1.
        -11    1    3    3    0    0 -0.10530059517E+02  0.18919375620E+02  0.94970230605E+01  0.23643569412E+02  0.51100000000E-03 0.  1.
         12    1    3    3    0    0  0.19118301339E+02 -0.11963211942E+02  0.19415912622E+00  0.22553615760E+02  0.00000000000E+00 0. -1.
</event>
<event>
 7    1  0.1358622E-013  0.7246158E+02  0.7816164E-02  0.1226708E+00
        -11   -1    0    0    0    0  0.00000000000E+00  0.00000000000E+00  0.45593999997E+02  0.45594000000E+02  0.51100000000E-03 0.  1.
         11   -1    0    0    0    0 -0.00000000000E+00 -0.00000000000E+00 -0.45593999997E+02  0.45594000000E+02  0.51100000000E-03 0. -1.
    9900012    2    1    2    0    0  0.16600497144E+01 -0.90613332557E+01 -0.16303842310E+02  0.72461580174E+02  0.70000012870E+02 0.  0.
        -12    1    1    2    0    0 -0.16600497144E+01  0.90613332557E+01  0.16303842310E+02  0.18726419826E+02  0.00000000000E+00 0.  1.
         11    1    3    3    0    0  0.21345262571E+02 -0.28895807229E+00  0.53861320935E+01  0.22016224703E+02  0.51100000000E-03 0. -1.
        -11    1    3    3    0    0  0.58361432895E+01  0.74867075688E+00  0.81436538066E+01  0.10046898724E+02  0.51100000000E-03 0.  1.
         12    1    3    3    0    0 -0.25521356146E+02 -0.95210459403E+01 -0.29833628210E+02  0.40398456747E+02  0.00000000000E+00 0. -1.
</event>
<event>
 7    1  0.1358622E-013  0.7246150E+02  0.7816164E-02  0.1226708E+00
        -11   -1    0    0    0    0  0.00000000000E+00  0.00000000000E+00  0.45593999997E+02  0.45594000000E+02  0.51100000000E-03 0.  1.
         11   -1    0    0    0    0 -0.00000000000E+00 -0.00000000000E+00 -0.45593999997E+02  0.45594000000E+02  0.51100000000E-03 0. -1.
    9900012    2    1    2    0    0 -0.13741544362E+02  0.10227389831E+02 -0.75665115231E+01  0.72461504309E+02  0.69999914042E+02 0.  0.
        -12    1    1    2    0    0  0.13741544362E+02 -0.10227389831E+02  0.75665115231E+01  0.18726495691E+02  0.00000000000E+00 0.  1.
         11    1    3    3    0    0  0.16248629743E+00  0.20523059948E+02 -0.18413330169E+02  0.27573050603E+02  0.51100000000E-03 0. -1.
        -11    1    3    3    0    0 -0.12998058887E+02  0.11575467576E+02  0.14552196316E+02  0.22687163822E+02  0.51100000000E-03 0.  1.
         12    1    3    3    0    0 -0.90597177279E+00 -0.21871137693E+02 -0.37053776699E+01  0.22201289884E+02  0.00000000000E+00 0. -1.
</event>
<event>
 7    1  0.1358622E-013  0.7246146E+02  0.7816164E-02  0.1226708E+00
        -11   -1    0    0    0    0  0.00000000000E+00  0.00000000000E+00  0.45593999997E+02  0.45594000000E+02  0.51100000000E-03 0. -1.
         11   -1    0    0    0    0 -0.00000000000E+00 -0.00000000000E+00 -0.45593999997E+02  0.45594000000E+02  0.51100000000E-03 0.  1.
    9900012    2    1    2    0    0 -0.11862236350E+02 -0.64828493792E+01 -0.12959294184E+02  0.72461460195E+02  0.69999856575E+02 0.  0.
        -12    1    1    2    0    0  0.11862236350E+02  0.64828493792E+01  0.12959294184E+02  0.18726539805E+02  0.00000000000E+00 0.  1.
         11    1    3    3    0    0 -0.11255163012E+02 -0.85264422014E+01 -0.34494835411E+01  0.14535399823E+02  0.51100000000E-03 0. -1.
        -11    1    3    3    0    0 -0.19675787214E+02  0.97616959126E+01 -0.24174700596E+02  0.32662569690E+02  0.51100000000E-03 0.  1.
         12    1    3    3    0    0  0.19068713875E+02 -0.77181030904E+01  0.14664889953E+02  0.25263490683E+02  0.00000000000E+00 0. -1.
</event>
<event>
 7    1  0.1358622E-013  0.7246156E+02  0.7816164E-02  0.1226708E+00
        -11   -1    0    0    0    0  0.00000000000E+00  0.00000000000E+00  0.45593999997E+02  0.45594000000E+02  0.51100000000E-03 0. -1.
         11   -1    0    0    0    0 -0.00000000000E+00 -0.00000000000E+00 -0.45593999997E+02  0.45594000000E+02  0.51100000000E-03 0.  1.
    9900012    2    1    2    0    0 -0.13322420533E+02  0.98243071990E+01  0.87564561122E+01  0.72461563488E+02  0.69999991133E+02 0.  0.
        -12    1    1    2    0    0  0.13322420533E+02 -0.98243071990E+01 -0.87564561122E+01  0.18726436512E+02  0.00000000000E+00 0.  1.
         11    1    3    3    0    0  0.23574278809E-02 -0.84306067191E+01  0.82876548213E+01  0.11822028502E+02  0.51100000000E-03 0. -1.
        -11    1    3    3    0    0 -0.29948421675E+01  0.23832990952E+02  0.24241116415E+02  0.34126415907E+02  0.51100000000E-03 0.  1.
        -12    1    3    3    0    0 -0.10329935793E+02 -0.55780770344E+01 -0.23772315124E+02  0.26513119079E+02  0.00000000000E+00 0.  1.
</event>
<event>
 7    1  0.1358622E-013  0.7246156E+02  0.7816164E-02  0.1226708E+00
        -11   -1    0    0    0    0  0.00000000000E+00  0.00000000000E+00  0.45593999997E+02  0.45594000000E+02  0.51100000000E-03 0.  1.
         11   -1    0    0    0    0 -0.00000000000E+00 -0.00000000000E+00 -0.45593999997E+02  0.45594000000E+02  0.51100000000E-03 0. -1.
    9900012    2    1    2    0    0 -0.85684945090E+01 -0.12397422716E+02 -0.11115945972E+02  0.72461562992E+02  0.69999990488E+02 0.  0.
        -12    1    1    2    0    0  0.85684945090E+01  0.12397422716E+02  0.11115945972E+02  0.18726437008E+02  0.00000000000E+00 0.  1.
         11    1    3    3    0    0  0.16439877528E+02  0.42648431239E+01 -0.87301873044E+00  0.17006487644E+02  0.51100000000E-03 0. -1.
        -11    1    3    3    0    0  0.13327375756E+02 -0.22153903279E+01 -0.32393067106E+01  0.13893164042E+02  0.51100000000E-03 0.  1.
        -12    1    3    3    0    0 -0.38335747794E+02 -0.14446875512E+02 -0.70036205312E+01  0.41561911307E+02  0.00000000000E+00 0.  1.
</event>
<event>
 7    1  0.1358622E-013  0.7246157E+02  0.7816164E-02  0.1226708E+00
        -11   -1    0    0    0    0  0.00000000000E+00  0.00000000000E+00  0.45593999997E+02  0.45594000000E+02  0.51100000000E-03 0. -1.
         11   -1    0    0    0    0 -0.00000000000E+00 -0.00000000000E+00 -0.45593999997E+02  0.45594000000E+02  0.51100000000E-03 0.  1.
    9900012    2    1    2    0    0  0.44166412011E+01 -0.16713919769E+02  0.71984236961E+01  0.72461571156E+02  0.70000001122E+02 0.  0.
        -12    1    1    2    0    0 -0.44166412011E+01  0.16713919769E+02 -0.71984236961E+01  0.18726428844E+02  0.00000000000E+00 0.  1.
         11    1    3    3    0    0  0.49514097581E+01  0.18463043733E+02  0.13936012257E+02  0.23656138323E+02  0.51100000000E-03 0. -1.
        -11    1    3    3    0    0  0.53010110701E+01  0.30904062051E+00  0.82773367829E+01  0.98341511555E+01  0.51100000000E-03 0.  1.
        -12    1    3    3    0    0 -0.58357796271E+01 -0.35486004123E+02 -0.15014925344E+02  0.38971281677E+02  0.00000000000E+00 0.  1.
</event>
<event>
 7    1  0.1358622E-013  0.7246166E+02  0.7816164E-02  0.1226708E+00
        -11   -1    0    0    0    0  0.00000000000E+00  0.00000000000E+00  0.45593999997E+02  0.45594000000E+02  0.51100000000E-03 0. -1.
         11   -1    0    0    0    0 -0.00000000000E+00 -0.00000000000E+00 -0.45593999997E+02  0.45594000000E+02  0.51100000000E-03 0.  1.
    9900012    2    1    2    0    0 -0.17108233733E+02  0.22717871730E+01  0.72679564632E+01  0.72461658404E+02  0.70000114780E+02 0.  0.
        -12    1    1    2    0    0  0.17108233733E+02 -0.22717871730E+01 -0.72679564632E+01  0.18726341596E+02  0.00000000000E+00 0.  1.
         11    1    3    3    0    0 -0.19154166829E+02 -0.91860899464E+00  0.57579057776E+01  0.20021973644E+02  0.51100000000E-03 0. -1.
        -11    1    3    3    0    0 -0.15344860257E+02  0.80680741948E+01  0.20084078653E+02  0.26531656057E+02  0.51100000000E-03 0.  1.
        -12    1    3    3    0    0  0.17390793353E+02 -0.48776780271E+01 -0.18574027968E+02  0.25908028704E+02  0.00000000000E+00 0.  1.
</event>
<event>
 7    1  0.1358622E-013  0.7246152E+02  0.7816164E-02  0.1226708E+00
        -11   -1    0    0    0    0  0.00000000000E+00  0.00000000000E+00  0.45593999997E+02  0.45594000000E+02  0.51100000000E-03 0. -1.
         11   -1    0    0    0    0 -0.00000000000E+00 -0.00000000000E+00 -0.45593999997E+02  0.45594000000E+02  0.51100000000E-03 0.  1.
    9900012    2    1    2    0    0 -0.14798503729E+02  0.18004862570E+01  0.11333294285E+02  0.72461520813E+02  0.69999935541E+02 0.  0.
        -12    1    1    2    0    0  0.14798503729E+02 -0.18004862570E+01 -0.11333294285E+02  0.18726479187E+02  0.00000000000E+00 0.  1.
         11    1    3    3    0    0  0.11086294304E+02 -0.15451520553E+02  0.43074771114E+00  0.19022117460E+02  0.51100000000E-03 0. -1.
        -11    1    3    3    0    0  0.72498867735E+01 -0.42851198522E+01 -0.61196266481E+01  0.10410232512E+02  0.51100000000E-03 0.  1.
         12    1    3    3    0    0 -0.33134684806E+02  0.21537126663E+02  0.17022173222E+02  0.43029170841E+02  0.00000000000E+00 0. -1.
</event>
<event>
 7    1  0.1358622E-013  0.7246160E+02  0.7816164E-02  0.1226708E+00
        -11   -1    0    0    0    0  0.00000000000E+00  0.00000000000E+00  0.45593999997E+02  0.45594000000E+02  0.51100000000E-03 0.  1.
         11   -1    0    0    0    0 -0.00000000000E+00 -0.00000000000E+00 -0.45593999997E+02  0.45594000000E+02  0.51100000000E-03 0. -1.
    9900012    2    1    2    0    0  0.65101736340E+01  0.66310097797E+01 -0.16258083897E+02  0.72461603031E+02  0.70000042646E+02 0.  0.
        -12    1    1    2    0    0 -0.65101736340E+01 -0.66310097797E+01  0.16258083897E+02  0.18726396969E+02  0.00000000000E+00 0.  1.
         11    1    3    3    0    0  0.96590848540E+01 -0.62637032766E+01 -0.37612755758E+01  0.12111114448E+02  0.51100000000E-03 0. -1.
        -11    1    3    3    0    0 -0.29233427502E+01 -0.11350476591E+02  0.17944483138E+02  0.21433238837E+02  0.51100000000E-03 0.  1.
         12    1    3    3    0    0 -0.22556846975E+00  0.24245189647E+02 -0.30441291459E+02  0.38917249747E+02  0.00000000000E+00 0. -1.
</event>
<event>
 7    1  0.1358622E-013  0.7246160E+02  0.7816164E-02  0.1226708E+00
        -11   -1    0    0    0    0  0.00000000000E+00  0.00000000000E+00  0.45593999997E+02  0.45594000000E+02  0.51100000000E-03 0.  1.
         11   -1    0    0    0    0 -0.00000000000E+00 -0.00000000000E+00 -0.45593999997E+02  0.45594000000E+02  0.51100000000E-03 0. -1.
    9900012    2    1    2    0    0 -0.12999113937E+02 -0.12266940386E+02 -0.55877627542E+01  0.72461604667E+02  0.70000044776E+02 0.  0.
        -12    1    1    2    0    0  0.12999113937E+02  0.12266940386E+02  0.55877627542E+01  0.18726395333E+02  0.00000000000E+00 0.  1.
         11    1    3    3    0    0 -0.29469794521E+02 -0.38161120028E+00 -0.21627644881E+02  0.36556387124E+02  0.51100000000E-03 0. -1.
        -11    1    3    3    0    0 -0.29860051986E+01  0.22875980026E+01 -0.33179090074E+01  0.50157603721E+01  0.51100000000E-03 0.  1.
        -12    1    3    3    0    0  0.19456685782E+02 -0.14172927188E+02  0.19357791134E+02  0.30889457171E+02  0.00000000000E+00 0.  1.
</event>
<event>
 7    1  0.1358622E-013  0.7246160E+02  0.7816164E-02  0.1226708E+00
        -11   -1    0    0    0    0  0.00000000000E+00  0.00000000000E+00  0.45593999997E+02  0.45594000000E+02  0.51100000000E-03 0. -1.
         11   -1    0    0    0    0 -0.00000000000E+00 -0.00000000000E+00 -0.45593999997E+02  0.45594000000E+02  0.51100000000E-03 0.  1.
    9900012    2    1    2    0    0  0.16864130662E+02  0.80654424684E+01 -0.11079842837E+01  0.72461604341E+02  0.70000044352E+02 0.  0.
        -12    1    1    2    0    0 -0.16864130662E+02 -0.80654424684E+01  0.11079842837E+01  0.18726395659E+02  0.00000000000E+00 0.  1.
         11    1    3    3    0    0  0.83125790263E+01 -0.26613651834E+01  0.12633497981E+02  0.15355360829E+02  0.51100000000E-03 0. -1.
        -11    1    3    3    0    0  0.16553140368E+02 -0.18674728800E+02 -0.59234438943E+01  0.25648374990E+02  0.51100000000E-03 0.  1.
        -12    1    3    3    0    0 -0.80015887319E+01  0.29401536452E+02 -0.78180383699E+01  0.31457868522E+02  0.00000000000E+00 0.  1.
</event>
<event>
 7    1  0.1358622E-013  0.7246156E+02  0.7816164E-02  0.1226708E+00
        -11   -1    0    0    0    0  0.00000000000E+00  0.00000000000E+00  0.45593999997E+02  0.45594000000E+02  0.51100000000E-03 0.  1.
         11   -1    0    0    0    0 -0.00000000000E+00 -0.00000000000E+00 -0.45593999997E+02  0.45594000000E+02  0.51100000000E-03 0. -1.
    9900012    2    1    2    0    0 -0.13569381681E+02  0.11546478817E+02 -0.57645588028E+01  0.72461563327E+02  0.69999990924E+02 0.  0.
        -12    1    1    2    0    0  0.13569381681E+02 -0.11546478817E+02  0.57645588028E+01  0.18726436673E+02  0.00000000000E+00 0.  1.
         11    1    3    3    0    0  0.54199847084E+01  0.31393995347E+01 -0.55732555133E+01  0.83841064495E+01  0.51100000000E-03 0. -1.
        -11    1    3    3    0    0 -0.19032980170E+02  0.24098955818E+01  0.28726778210E+02  0.34544025785E+02  0.51100000000E-03 0.  1.
         12    1    3    3    0    0  0.43613780853E-01  0.59971837004E+01 -0.28918081499E+02  0.29533431093E+02  0.00000000000E+00 0. -1.
</event>
<event>
 7    1  0.1358622E-013  0.7246152E+02  0.7816164E-02  0.1226708E+00
        -11   -1    0    0    0    0  0.00000000000E+00  0.00000000000E+00  0.45593999997E+02  0.45594000000E+02  0.51100000000E-03 0.  1.
         11   -1    0    0    0    0 -0.00000000000E+00 -0.00000000000E+00 -0.45593999997E+02  0.45594000000E+02  0.51100000000E-03 0. -1.
    9900012    2    1    2    0    0 -0.75165312574E+01 -0.85793317081E+01 -0.14851867994E+02  0.72461517212E+02  0.69999930850E+02 0.  0.
        -12    1    1    2    0    0  0.75165312574E+01  0.85793317081E+01  0.14851867994E+02  0.18726482788E+02  0.00000000000E+00 0.  1.
         11    1    3    3    0    0 -0.52247251606E+01 -0.75612786152E+01  0.89037633336E+01  0.12796393596E+02  0.51100000000E-03 0. -1.
        -11    1    3    3    0    0  0.49526719887E+01 -0.26685235920E+02 -0.17428319622E+02  0.32254877166E+02  0.51100000000E-03 0.  1.
         12    1    3    3    0    0 -0.72444780855E+01  0.25667182827E+02 -0.63273117058E+01  0.27410246449E+02  0.00000000000E+00 0. -1.
</event>
<event>
 7    1  0.1358622E-013  0.7246154E+02  0.7816164E-02  0.1226708E+00
        -11   -1    0    0    0    0  0.00000000000E+00  0.00000000000E+00  0.45593999997E+02  0.45594000000E+02  0.51100000000E-03 0.  1.
         11   -1    0    0    0    0 -0.00000000000E+00 -0.00000000000E+00 -0.45593999997E+02  0.45594000000E+02  0.51100000000E-03 0. -1.
    9900012    2    1    2    0    0  0.15604325393E+02 -0.29171841223E+01 -0.99335453503E+01  0.72461541248E+02  0.69999962162E+02 0.  0.
        -12    1    1    2    0    0 -0.15604325393E+02  0.29171841223E+01  0.99335453503E+01  0.18726458752E+02  0.00000000000E+00 0.  1.
         11    1    3    3    0    0 -0.58160027524E+01  0.96664013075E+01  0.97538126286E+01  0.14913150684E+02  0.51100000000E-03 0. -1.
        -11    1    3    3    0    0  0.15251551003E+01 -0.27036857503E+02 -0.17993029744E+01  0.27139551455E+02  0.51100000000E-03 0.  1.
         12    1    3    3    0    0  0.19895173045E+02  0.14453272073E+02 -0.17888055005E+02  0.30408839109E+02  0.00000000000E+00 0. -1.
</event>
<event>
 7    1  0.1358622E-013  0.7246154E+02  0.7816164E-02  0.1226708E+00
        -11   -1    0    0    0    0  0.00000000000E+00  0.00000000000E+00  0.45593999997E+02  0.45594000000E+02  0.51100000000E-03 0. -1.
         11   -1    0    0    0    0 -0.00000000000E+00 -0.00000000000E+00 -0.45593999997E+02  0.45594000000E+02  0.51100000000E-03 0.  1.
    9900012    2    1    2    0    0  0.71460761726E+01 -0.50298906992E+01  0.16562428668E+02  0.72461541486E+02  0.69999962471E+02 0.  0.
        -12    1    1    2    0    0 -0.71460761726E+01  0.50298906992E+01 -0.16562428668E+02  0.18726458514E+02  0.00000000000E+00 0.  1.
         11    1    3    3    0    0  0.21383435993E+02 -0.11077771776E+02  0.99186718386E+01  0.26045122647E+02  0.51100000000E-03 0. -1.
        -11    1    3    3    0    0 -0.16674356450E+02 -0.11822750568E+02 -0.91946342358E+01  0.22413230312E+02  0.51100000000E-03 0.  1.
        -12    1    3    3    0    0  0.24369966301E+01  0.17870631645E+02  0.15838391065E+02  0.24003188527E+02  0.00000000000E+00 0.  1.
</event>
<event>
 7    1  0.1358622E-013  0.7246159E+02  0.7816164E-02  0.1226708E+00
        -11   -1    0    0    0    0  0.00000000000E+00  0.00000000000E+00  0.45593999997E+02  0.45594000000E+02  0.51100000000E-03 0.  1.
         11   -1    0    0    0    0 -0.00000000000E+00 -0.00000000000E+00 -0.45593999997E+02  0.45594000000E+02  0.51100000000E-03 0. -1.
    9900012    2    1    2    0    0  0.78654234417E+01  0.14862976723E+02 -0.82404866135E+01  0.72461585965E+02  0.70000020413E+02 0.  0.
        -12    1    1    2    0    0 -0.78654234417E+01 -0.14862976723E+02  0.82404866135E+01  0.18726414035E+02  0.00000000000E+00 0.  1.
         11    1    3    3    0    0 -0.16595959699E+02  0.78456222839E+01 -0.10710299079E+01  0.18388223750E+02  0.51100000000E-03 0. -1.
        -11    1    3    3    0    0 -0.23725234112E+01  0.21745012671E+02 -0.84183100747E+01  0.23438054274E+02  0.51100000000E-03 0.  1.
         12    1    3    3    0    0  0.26833906552E+02 -0.14727658231E+02  0.12488533691E+01  0.30635307940E+02  0.00000000000E+00 0. -1.
</event>
<event>
 7    1  0.1408797E-013  0.7246156E+02  0.7816164E-02  0.1226708E+00
        -11   -1    0    0    0    0  0.00000000000E+00  0.00000000000E+00  0.45593999997E+02  0.45594000000E+02  0.51100000000E-03 0. -1.
         11   -1    0    0    0    0 -0.00000000000E+00 -0.00000000000E+00 -0.45593999997E+02  0.45594000000E+02  0.51100000000E-03 0.  1.
    9900012    2    1    2    0    0 -0.16255230916E+02  0.27842492663E+00  0.92935136726E+01  0.72461562833E+02  0.69999990280E+02 0.  0.
        -12    1    1    2    0    0  0.16255230916E+02 -0.27842492663E+00 -0.92935136726E+01  0.18726437167E+02  0.00000000000E+00 0.  1.
         11    1    3    3    0    0 -0.26539505841E+02 -0.19815977457E+01  0.14542619090E+02  0.30327543095E+02  0.51100000000E-03 0. -1.
        -11    1    3    3    0    0 -0.99289770607E+01 -0.55696945833E+01 -0.14610520479E+02  0.18522240473E+02  0.51100000000E-03 0.  1.
        -12    1    3    3    0    0  0.20213251985E+02  0.78297172557E+01  0.93614150618E+01  0.23611779265E+02  0.00000000000E+00 0.  1.
</event>
<event>
 7    1  0.1358622E-013  0.7246158E+02  0.7816164E-02  0.1226708E+00
        -11   -1    0    0    0    0  0.00000000000E+00  0.00000000000E+00  0.45593999997E+02  0.45594000000E+02  0.51100000000E-03 0.  1.
         11   -1    0    0    0    0 -0.00000000000E+00 -0.00000000000E+00 -0.45593999997E+02  0.45594000000E+02  0.51100000000E-03 0. -1.
    9900012    2    1    2    0    0 -0.72247222680E+01  0.60535921919E+01 -0.16181354000E+02  0.72461579959E+02  0.70000012590E+02 0.  0.
        -12    1    1    2    0    0  0.72247222680E+01 -0.60535921919E+01  0.16181354000E+02  0.18726420041E+02  0.00000000000E+00 0.  1.
         11    1    3    3    0    0 -0.17140855426E+02 -0.26319798452E+01 -0.52600325942E+01  0.18121925554E+02  0.51100000000E-03 0. -1.
        -11    1    3    3    0    0 -0.19433735473E+02  0.50012496750E+01 -0.14193190392E+02  0.24579040390E+02  0.51100000000E-03 0.  1.
         12    1    3    3    0    0  0.29349868630E+02  0.36843223622E+01  0.32718689866E+01  0.29760614015E+02  0.00000000000E+00 0. -1.
</event>
<event>
 7    1  0.1358622E-013  0.7246157E+02  0.7816164E-02  0.1226708E+00
        -11   -1    0    0    0    0  0.00000000000E+00  0.00000000000E+00  0.45593999997E+02  0.45594000000E+02  0.51100000000E-03 0. -1.
         11   -1    0    0    0    0 -0.00000000000E+00 -0.00000000000E+00 -0.45593999997E+02  0.45594000000E+02  0.51100000000E-03 0.  1.
    9900012    2    1    2    0    0  0.75682269571E+01 -0.70537092403E+01  0.15609175147E+02  0.72461568891E+02  0.69999998171E+02 0.  0.
        -12    1    1    2    0    0 -0.75682269571E+01  0.70537092403E+01 -0.15609175147E+02  0.18726431109E+02  0.00000000000E+00 0.  1.
         11    1    3    3    0    0  0.18821246445E+01 -0.80299515191E+01  0.17185098450E+02  0.19061745029E+02  0.51100000000E-03 0. -1.
        -11    1    3    3    0    0  0.22283112801E+01 -0.10446800868E+02 -0.24958055402E+02  0.27147846125E+02  0.51100000000E-03 0.  1.
         12    1    3    3    0    0  0.34577910325E+01  0.11423043147E+02  0.23382132099E+02  0.26251977736E+02  0.00000000000E+00 0. -1.
</event>
<event>
 7    1  0.1358622E-013  0.7246158E+02  0.7816164E-02  0.1226708E+00
        -11   -1    0    0    0    0  0.00000000000E+00  0.00000000000E+00  0.45593999997E+02  0.45594000000E+02  0.51100000000E-03 0.  1.
         11   -1    0    0    0    0 -0.00000000000E+00 -0.00000000000E+00 -0.45593999997E+02  0.45594000000E+02  0.51100000000E-03 0. -1.
    9900012    2    1    2    0    0  0.62644534198E+01  0.12079973282E+02 -0.12865049577E+02  0.72461584653E+02  0.70000018705E+02 0.  0.
        -12    1    1    2    0    0 -0.62644534198E+01 -0.12079973282E+02  0.12865049577E+02  0.18726415347E+02  0.00000000000E+00 0.  1.
         11    1    3    3    0    0 -0.23825106707E+02  0.13666873522E+02 -0.10586627754E+02  0.29436301210E+02  0.51100000000E-03 0. -1.
        -11    1    3    3    0    0 -0.33406578961E+01  0.54408484549E+01  0.49856300412E+01  0.81005761682E+01  0.51100000000E-03 0.  1.
        -12    1    3    3    0    0  0.33430218023E+02 -0.70277486958E+01 -0.72640518644E+01  0.34924707275E+02  0.00000000000E+00 0.  1.
</event>
<event>
 7    1  0.1358622E-013  0.7246165E+02  0.7816164E-02  0.1226708E+00
        -11   -1    0    0    0    0  0.00000000000E+00  0.00000000000E+00  0.45593999997E+02  0.45594000000E+02  0.51100000000E-03 0. -1.
         11   -1    0    0    0    0 -0.00000000000E+00 -0.00000000000E+00 -0.45593999997E+02  0.45594000000E+02  0.51100000000E-03 0.  1.
    9900012    2    1    2    0    0  0.13006097811E+02  0.11644688241E+02 -0.67763339311E+01  0.72461653693E+02  0.70000108642E+02 0.  0.
        -12    1    1    2    0    0 -0.13006097811E+02 -0.11644688241E+02  0.67763339311E+01  0.18726346307E+02  0.00000000000E+00 0.  1.
         11    1    3    3    0    0  0.14750843051E+02 -0.30610895162E+01  0.28620376016E+01  0.15334565505E+02  0.51100000000E-03 0. -1.
        -11    1    3    3    0    0 -0.42635655024E+01  0.15136061987E+02 -0.31452161590E+02  0.35164141284E+02  0.51100000000E-03 0.  1.
         12    1    3    3    0    0  0.25188202620E+01 -0.43028423023E+00  0.21813790057E+02  0.21962946904E+02  0.00000000000E+00 0. -1.
</event>
<event>
 7    1  0.1358622E-013  0.7246162E+02  0.7816164E-02  0.1226708E+00
        -11   -1    0    0    0    0  0.00000000000E+00  0.00000000000E+00  0.45593999997E+02  0.45594000000E+02  0.51100000000E-03 0. -1.
         11   -1    0    0    0    0 -0.00000000000E+00 -0.00000000000E+00 -0.45593999997E+02  0.45594000000E+02  0.51100000000E-03 0.  1.
    9900012    2    1    2    0    0 -0.14052788609E+01  0.15205051632E+02  0.10840145236E+02  0.72461624148E+02  0.70000070155E+02 0.  0.
        -12    1    1    2    0    0  0.14052788609E+01 -0.15205051632E+02 -0.10840145236E+02  0.18726375852E+02  0.00000000000E+00 0.  1.
         11    1    3    3    0    0  0.46362933959E+01  0.93159648980E+01  0.27136026981E+01  0.10753885730E+02  0.51100000000E-03 0. -1.
        -11    1    3    3    0    0  0.17753442020E+02  0.88684004138E+01 -0.17608840567E+02  0.26531198538E+02  0.51100000000E-03 0.  1.
         12    1    3    3    0    0 -0.23795014276E+02 -0.29793136800E+01  0.25735383105E+02  0.35176539881E+02  0.00000000000E+00 0. -1.
</event>
<event>
 7    1  0.1358622E-013  0.7246161E+02  0.7816164E-02  0.1226708E+00
        -11   -1    0    0    0    0  0.00000000000E+00  0.00000000000E+00  0.45593999997E+02  0.45594000000E+02  0.51100000000E-03 0. -1.
         11   -1    0    0    0    0 -0.00000000000E+00 -0.00000000000E+00 -0.45593999997E+02  0.45594000000E+02  0.51100000000E-03 0.  1.
    9900012    2    1    2    0    0  0.27900096395E+01 -0.75464284790E+01  0.16909905577E+02  0.72461611048E+02  0.70000053089E+02 0.  0.
        -12    1    1    2    0    0 -0.27900096395E+01  0.75464284790E+01 -0.16909905577E+02  0.18726388952E+02  0.00000000000E+00 0.  1.
         11    1    3    3    0    0 -0.83768738305E+01  0.10940160676E+02  0.14350469994E+02  0.19894600275E+02  0.51100000000E-03 0. -1.
        -11    1    3    3    0    0 -0.16004156612E+02  0.38349465833E+01  0.53172886678E+01  0.17294895293E+02  0.51100000000E-03 0.  1.
        -12    1    3    3    0    0  0.27171040082E+02 -0.22321535738E+02 -0.27578530850E+01  0.35272115480E+02  0.00000000000E+00 0.  1.
</event>
<event>
 7    1  0.1358622E-013  0.7246154E+02  0.7816164E-02  0.1226708E+00
        -11   -1    0    0    0    0  0.00000000000E+00  0.00000000000E+00  0.45593999997E+02  0.45594000000E+02  0.51100000000E-03 0.  1.
         11   -1    0    0    0    0 -0.00000000000E+00 -0.00000000000E+00 -0.45593999997E+02  0.45594000000E+02  0.51100000000E-03 0. -1.
    9900012    2    1    2    0    0  0.30209126828E+01 -0.12913783525E+01 -0.18436021078E+02  0.72461536247E+02  0.69999955647E+02 0.  0.
        -12    1    1    2    0    0 -0.30209126828E+01  0.12913783525E+01  0.18436021078E+02  0.18726463753E+02  0.00000000000E+00 0.  1.
         11    1    3    3    0    0  0.28360399223E+01  0.32146524069E+01 -0.13598049505E+02  0.14257772026E+02  0.51100000000E-03 0. -1.
        -11    1    3    3    0    0  0.21766661952E+02  0.12816888097E+02 -0.14214034327E+02  0.28984460753E+02  0.51100000000E-03 0.  1.
        -12    1    3    3    0    0 -0.21581789191E+02 -0.17322918857E+02  0.93760627541E+01  0.29219303468E+02  0.00000000000E+00 0.  1.
</event>
<event>
 7    1  0.1358622E-013  0.7246157E+02  0.7816164E-02  0.1226708E+00
        -11   -1    0    0    0    0  0.00000000000E+00  0.00000000000E+00  0.45593999997E+02  0.45594000000E+02  0.51100000000E-03 0.  1.
         11   -1    0    0    0    0 -0.00000000000E+00 -0.00000000000E+00 -0.45593999997E+02  0.45594000000E+02  0.51100000000E-03 0. -1.
    9900012    2    1    2    0    0 -0.12913982892E+02  0.31919198200E+01 -0.13180285001E+02  0.72461568974E+02  0.69999998280E+02 0.  0.
        -12    1    1    2    0    0  0.12913982892E+02 -0.31919198200E+01  0.13180285001E+02  0.18726431026E+02  0.00000000000E+00 0.  1.
         11    1    3    3    0    0  0.19232023502E+02  0.67013536264E+01 -0.32993342505E+01  0.20631637724E+02  0.51100000000E-03 0. -1.
        -11    1    3    3    0    0 -0.23630644083E+02  0.16615784894E+02 -0.37245212718E+01  0.29126683752E+02  0.51100000000E-03 0.  1.
         12    1    3    3    0    0 -0.85153623103E+01 -0.20125218701E+02 -0.61564294784E+01  0.22703247498E+02  0.00000000000E+00 0. -1.
</event>
<event>
 7    1  0.1358622E-013  0.7246152E+02  0.7816164E-02  0.1226708E+00
        -11   -1    0    0    0    0  0.00000000000E+00  0.00000000000E+00  0.45593999997E+02  0.45594000000E+02  0.51100000000E-03 0.  1.
         11   -1    0    0    0    0 -0.00000000000E+00 -0.00000000000E+00 -0.45593999997E+02  0.45594000000E+02  0.51100000000E-03 0. -1.
    9900012    2    1    2    0    0 -0.47266105451E+01  0.66069626844E+01 -0.16872702877E+02  0.72461523943E+02  0.69999939618E+02 0.  0.
        -12    1    1    2    0    0  0.47266105451E+01 -0.66069626844E+01  0.16872702877E+02  0.18726476057E+02  0.00000000000E+00 0.  1.
         11    1    3    3    0    0  0.91899572940E+01 -0.74985312993E+01 -0.73263358412E+01  0.13941251157E+02  0.51100000000E-03 0. -1.
        -11    1    3    3    0    0 -0.20893288459E+02 -0.15322302839E+02  0.23615676010E+01  0.26016907363E+02  0.51100000000E-03 0.  1.
         12    1    3    3    0    0  0.69767206202E+01  0.29427796823E+02 -0.11907934636E+02  0.32503365422E+02  0.00000000000E+00 0. -1.
</event>
<event>
 7    1  0.1358622E-013  0.7246164E+02  0.7816164E-02  0.1226708E+00
        -11   -1    0    0    0    0  0.00000000000E+00  0.00000000000E+00  0.45593999997E+02  0.45594000000E+02  0.51100000000E-03 0.  1.
         11   -1    0    0    0    0 -0.00000000000E+00 -0.00000000000E+00 -0.45593999997E+02  0.45594000000E+02  0.51100000000E-03 0. -1.
    9900012    2    1    2    0    0 -0.15149128035E+02 -0.10027833340E+02  0.45412748627E+01  0.72461636255E+02  0.70000085926E+02 0.  0.
        -12    1    1    2    0    0  0.15149128035E+02  0.10027833340E+02 -0.45412748627E+01  0.18726363745E+02  0.00000000000E+00 0.  1.
         11    1    3    3    0    0 -0.14496466022E+02 -0.34989746090E+02  0.93774069692E+01  0.39017504024E+02  0.51100000000E-03 0. -1.
        -11    1    3    3    0    0  0.86216581447E+00 -0.50222622621E+00  0.57424530492E+01  0.58284928033E+01  0.51100000000E-03 0.  1.
         12    1    3    3    0    0 -0.15148278279E+01  0.25464138976E+02 -0.10578585156E+02  0.27615639428E+02  0.00000000000E+00 0. -1.
</event>
<event>
 7    1  0.1358622E-013  0.7246154E+02  0.7816164E-02  0.1226708E+00
        -11   -1    0    0    0    0  0.00000000000E+00  0.00000000000E+00  0.45593999997E+02  0.45594000000E+02  0.51100000000E-03 0.  1.
         11   -1    0    0    0    0 -0.00000000000E+00 -0.00000000000E+00 -0.45593999997E+02  0.45594000000E+02  0.51100000000E-03 0. -1.
    9900012    2    1    2    0    0  0.13508406621E+01 -0.18372875443E+02 -0.33604951547E+01  0.72461541440E+02  0.69999962411E+02 0.  0.
        -12    1    1    2    0    0 -0.13508406621E+01  0.18372875443E+02  0.33604951547E+01  0.18726458560E+02  0.00000000000E+00 0.  1.
         11    1    3    3    0    0  0.78695258079E+01 -0.61863316104E+01  0.83333153907E+01  0.13024756462E+02  0.51100000000E-03 0. -1.
        -11    1    3    3    0    0  0.10244879497E+02 -0.52075956365E+01  0.19909464103E+02  0.22988331156E+02  0.51100000000E-03 0.  1.
         12    1    3    3    0    0 -0.16763564642E+02 -0.69789481959E+01 -0.31603274649E+02  0.36448453821E+02  0.00000000000E+00 0. -1.
</event>
<event>
 7    1  0.1358622E-013  0.7246165E+02  0.7816164E-02  0.1226708E+00
        -11   -1    0    0    0    0  0.00000000000E+00  0.00000000000E+00  0.45593999997E+02  0.45594000000E+02  0.51100000000E-03 0. -1.
         11   -1    0    0    0    0 -0.00000000000E+00 -0.00000000000E+00 -0.45593999997E+02  0.45594000000E+02  0.51100000000E-03 0.  1.
    9900012    2    1    2    0    0  0.20788334736E+00  0.65508525324E+01  0.17541932433E+02  0.72461647502E+02  0.70000100578E+02 0.  0.
        -12    1    1    2    0    0 -0.20788334736E+00 -0.65508525324E+01 -0.17541932433E+02  0.18726352498E+02  0.00000000000E+00 0.  1.
         11    1    3    3    0    0 -0.83350797143E+01 -0.24387775340E+01 -0.10449048092E+02  0.13586897953E+02  0.51100000000E-03 0. -1.
        -11    1    3    3    0    0  0.26307161550E+02  0.17683720622E+02  0.14020717402E+02  0.34660658398E+02  0.51100000000E-03 0.  1.
         12    1    3    3    0    0 -0.17764198488E+02 -0.86940905556E+01  0.13970263123E+02  0.24214091151E+02  0.00000000000E+00 0. -1.
</event>
<event>
 7    1  0.1358622E-013  0.7246130E+02  0.7816164E-02  0.1226709E+00
        -11   -1    0    0    0    0  0.00000000000E+00  0.00000000000E+00  0.45593999997E+02  0.45594000000E+02  0.51100000000E-03 0.  1.
         11   -1    0    0    0    0 -0.00000000000E+00 -0.00000000000E+00 -0.45593999997E+02  0.45594000000E+02  0.51100000000E-03 0. -1.
    9900012    2    1    2    0    0 -0.30244840616E+01 -0.17703476919E+02  0.53036405818E+01  0.72461302419E+02  0.69999651042E+02 0.  0.
        -12    1    1    2    0    0  0.30244840616E+01  0.17703476919E+02 -0.53036405818E+01  0.18726697581E+02  0.00000000000E+00 0.  1.
         11    1    3    3    0    0 -0.13960854083E+02  0.42575869952E+01 -0.75786585154E+01  0.16445928338E+02  0.51100000000E-03 0. -1.
        -11    1    3    3    0    0 -0.12160534530E+02 -0.21038719541E+02  0.20379300538E+02  0.31714700230E+02  0.51100000000E-03 0.  1.
         12    1    3    3    0    0  0.23096904552E+02 -0.92234437300E+00 -0.74970014406E+01  0.24300673851E+02  0.00000000000E+00 0. -1.
</event>
<event>
 7    1  0.1358622E-013  0.7246151E+02  0.7816164E-02  0.1226708E+00
        -11   -1    0    0    0    0  0.00000000000E+00  0.00000000000E+00  0.45593999997E+02  0.45594000000E+02  0.51100000000E-03 0.  1.
         11   -1    0    0    0    0 -0.00000000000E+00 -0.00000000000E+00 -0.45593999997E+02  0.45594000000E+02  0.51100000000E-03 0. -1.
    9900012    2    1    2    0    0  0.16733039552E+02 -0.55154502401E+01 -0.63456032552E+01  0.72461508479E+02  0.69999919474E+02 0.  0.
        -12    1    1    2    0    0 -0.16733039552E+02  0.55154502401E+01  0.63456032552E+01  0.18726491521E+02  0.00000000000E+00 0.  1.
         11    1    3    3    0    0  0.28838331666E+02 -0.23538876951E+02 -0.95052207268E+01  0.38419751727E+02  0.51100000000E-03 0. -1.
        -11    1    3    3    0    0  0.41757782662E+01 -0.34458030716E+01 -0.32913083907E+01  0.63358814794E+01  0.51100000000E-03 0.  1.
        -12    1    3    3    0    0 -0.16281070380E+02  0.21469229782E+02  0.64509258623E+01  0.27705875273E+02  0.00000000000E+00 0.  1.
</event>
<event>
 7    1  0.1358622E-013  0.7246156E+02  0.7816164E-02  0.1226708E+00
        -11   -1    0    0    0    0  0.00000000000E+00  0.00000000000E+00  0.45593999997E+02  0.45594000000E+02  0.51100000000E-03 0.  1.
         11   -1    0    0    0    0 -0.00000000000E+00 -0.00000000000E+00 -0.45593999997E+02  0.45594000000E+02  0.51100000000E-03 0. -1.
    9900012    2    1    2    0    0 -0.44381805095E+01  0.12821763515E+02 -0.12906760889E+02  0.72461560335E+02  0.69999987026E+02 0.  0.
        -12    1    1    2    0    0  0.44381805095E+01 -0.12821763515E+02  0.12906760889E+02  0.18726439665E+02  0.00000000000E+00 0.  1.
         11    1    3    3    0    0  0.10094362149E+02 -0.32128062084E+01 -0.19571458065E+02  0.22254443197E+02  0.51100000000E-03 0. -1.
        -11    1    3    3    0    0  0.73987561304E+01 -0.11915637437E+02  0.39741147337E+01  0.14577983262E+02  0.51100000000E-03 0.  1.
        -12    1    3    3    0    0 -0.21931298789E+02  0.27950207161E+02  0.26905824425E+01  0.35629133876E+02  0.00000000000E+00 0.  1.
</event>
<event>
 7    1  0.1358622E-013  0.7246154E+02  0.7816164E-02  0.1226708E+00
        -11   -1    0    0    0    0  0.00000000000E+00  0.00000000000E+00  0.45593999997E+02  0.45594000000E+02  0.51100000000E-03 0.  1.
         11   -1    0    0    0    0 -0.00000000000E+00 -0.00000000000E+00 -0.45593999997E+02  0.45594000000E+02  0.51100000000E-03 0. -1.
    9900012    2    1    2    0    0  0.11825264022E+02  0.73479167766E+01 -0.12524039271E+02  0.72461539848E+02  0.69999960338E+02 0.  0.
        -12    1    1    2    0    0 -0.11825264022E+02 -0.73479167766E+01  0.12524039271E+02  0.18726460152E+02  0.00000000000E+00 0.  1.
         11    1    3    3    0    0 -0.58239827970E+00  0.16805353361E+02 -0.12991024122E+00  0.16815943812E+02  0.51100000000E-03 0.  1.
        -11    1    3    3    0    0 -0.91467033232E+01 -0.18560028363E+01  0.16408143230E+02  0.18876813627E+02  0.51100000000E-03 0. -1.
         12    1    3    3    0    0  0.21554365625E+02 -0.76014337485E+01 -0.28802272259E+02  0.36768782409E+02  0.00000000000E+00 0. -1.
</event>
<event>
 7    1  0.1358622E-013  0.7246158E+02  0.7816164E-02  0.1226708E+00
        -11   -1    0    0    0    0  0.00000000000E+00  0.00000000000E+00  0.45593999997E+02  0.45594000000E+02  0.51100000000E-03 0. -1.
         11   -1    0    0    0    0 -0.00000000000E+00 -0.00000000000E+00 -0.45593999997E+02  0.45594000000E+02  0.51100000000E-03 0.  1.
    9900012    2    1    2    0    0  0.65792673643E+01  0.16999889852E+02 -0.42890233801E+01  0.72461581881E+02  0.70000015093E+02 0.  0.
        -12    1    1    2    0    0 -0.65792673643E+01 -0.16999889852E+02  0.42890233801E+01  0.18726418119E+02  0.00000000000E+00 0.  1.
         11    1    3    3    0    0  0.92580804760E+01 -0.23184402389E+01 -0.44179870454E+01  0.10516930590E+02  0.51100000000E-03 0. -1.
        -11    1    3    3    0    0  0.23297773660E+02  0.17602534922E+02 -0.13935921978E+02  0.32354990571E+02  0.51100000000E-03 0.  1.
         12    1    3    3    0    0 -0.25976586772E+02  0.17157951687E+01  0.14064885643E+02  0.29589660720E+02  0.00000000000E+00 0. -1.
</event>
<event>
 7    1  0.1358622E-013  0.7246160E+02  0.7816164E-02  0.1226708E+00
        -11   -1    0    0    0    0  0.00000000000E+00  0.00000000000E+00  0.45593999997E+02  0.45594000000E+02  0.51100000000E-03 0.  1.
         11   -1    0    0    0    0 -0.00000000000E+00 -0.00000000000E+00 -0.45593999997E+02  0.45594000000E+02  0.51100000000E-03 0. -1.
    9900012    2    1    2    0    0  0.53248060406E+01 -0.22013598565E+01 -0.17817930230E+02  0.72461596654E+02  0.70000034339E+02 0.  0.
        -12    1    1    2    0    0 -0.53248060406E+01  0.22013598565E+01  0.17817930230E+02  0.18726403346E+02  0.00000000000E+00 0.  1.
         11    1    3    3    0    0  0.12911253822E+02  0.63857556003E+01 -0.90515315653E+01  0.17012012631E+02  0.51100000000E-03 0. -1.
        -11    1    3    3    0    0  0.13414185779E+02 -0.17637819173E+02  0.11435803110E+02  0.24936131183E+02  0.51100000000E-03 0.  1.
         12    1    3    3    0    0 -0.21000633560E+02  0.90507037167E+01 -0.20202201775E+02  0.30513452840E+02  0.00000000000E+00 0. -1.
</event>
<event>
 7    1  0.1358622E-013  0.7246204E+02  0.7816164E-02  0.1226707E+00
        -11   -1    0    0    0    0  0.00000000000E+00  0.00000000000E+00  0.45593999997E+02  0.45594000000E+02  0.51100000000E-03 0.  1.
         11   -1    0    0    0    0 -0.00000000000E+00 -0.00000000000E+00 -0.45593999997E+02  0.45594000000E+02  0.51100000000E-03 0. -1.
    9900012    2    1    2    0    0 -0.17208321542E+02  0.53441853399E+01 -0.50965693431E+01  0.72462037640E+02  0.70000608802E+02 0.  0.
        -12    1    1    2    0    0  0.17208321542E+02 -0.53441853399E+01  0.50965693431E+01  0.18725962360E+02  0.00000000000E+00 0.  1.
         11    1    3    3    0    0  0.69610534191E+00 -0.69109717943E+01  0.15813368228E+01  0.71236732236E+01  0.51100000000E-03 0.  1.
        -11    1    3    3    0    0  0.18786183717E+02  0.17305453288E+02  0.59175810933E+01  0.26218641810E+02  0.51100000000E-03 0. -1.
         12    1    3    3    0    0 -0.36690610600E+02 -0.50502961536E+01 -0.12595487259E+02  0.39119722606E+02  0.00000000000E+00 0. -1.
</event>
<event>
 7    1  0.1358622E-013  0.7246162E+02  0.7816164E-02  0.1226708E+00
        -11   -1    0    0    0    0  0.00000000000E+00  0.00000000000E+00  0.45593999997E+02  0.45594000000E+02  0.51100000000E-03 0. -1.
         11   -1    0    0    0    0 -0.00000000000E+00 -0.00000000000E+00 -0.45593999997E+02  0.45594000000E+02  0.51100000000E-03 0.  1.
    9900012    2    1    2    0    0 -0.13517148547E+02  0.63426759441E+01  0.11301966524E+02  0.72461620471E+02  0.70000065364E+02 0.  0.
        -12    1    1    2    0    0  0.13517148547E+02 -0.63426759441E+01 -0.11301966524E+02  0.18726379529E+02  0.00000000000E+00 0.  1.
         11    1    3    3    0    0 -0.48538606216E+01  0.57376595222E+01 -0.12696517662E+02  0.14754059127E+02  0.51100000000E-03 0. -1.
        -11    1    3    3    0    0 -0.27048266883E+02 -0.11741037867E+02  0.85338949081E+01  0.30696711129E+02  0.51100000000E-03 0.  1.
         12    1    3    3    0    0  0.18384978958E+02  0.12346054289E+02  0.15464589278E+02  0.27010850215E+02  0.00000000000E+00 0. -1.
</event>
<event>
 7    1  0.1358622E-013  0.7246151E+02  0.7816164E-02  0.1226708E+00
        -11   -1    0    0    0    0  0.00000000000E+00  0.00000000000E+00  0.45593999997E+02  0.45594000000E+02  0.51100000000E-03 0. -1.
         11   -1    0    0    0    0 -0.00000000000E+00 -0.00000000000E+00 -0.45593999997E+02  0.45594000000E+02  0.51100000000E-03 0.  1.
    9900012    2    1    2    0    0  0.99097305029E+01  0.48552128504E+01  0.15129625319E+02  0.72461510400E+02  0.69999921976E+02 0.  0.
        -12    1    1    2    0    0 -0.99097305029E+01 -0.48552128504E+01 -0.15129625319E+02  0.18726489600E+02  0.00000000000E+00 0.  1.
         11    1    3    3    0    0  0.25036640042E+02  0.16570986910E+02 -0.16734325018E+02  0.34372497521E+02  0.51100000000E-03 0.  1.
        -11    1    3    3    0    0 -0.48792284196E+01 -0.57261501889E+01  0.59694215184E+01  0.96036274127E+01  0.51100000000E-03 0. -1.
        -12    1    3    3    0    0 -0.10247681119E+02 -0.59896238702E+01  0.25894528818E+02  0.28485385466E+02  0.00000000000E+00 0.  1.
</event>
<event>
 7    1  0.1478007E-013  0.7246158E+02  0.7816164E-02  0.1226708E+00
        -11   -1    0    0    0    0  0.00000000000E+00  0.00000000000E+00  0.45593999997E+02  0.45594000000E+02  0.51100000000E-03 0.  1.
         11   -1    0    0    0    0 -0.00000000000E+00 -0.00000000000E+00 -0.45593999997E+02  0.45594000000E+02  0.51100000000E-03 0. -1.
    9900012    2    1    2    0    0 -0.68041868884E+01 -0.14010981909E+02  0.10395883901E+02  0.72461575479E+02  0.70000006754E+02 0.  0.
        -12    1    1    2    0    0  0.68041868884E+01  0.14010981909E+02 -0.10395883901E+02  0.18726424521E+02  0.00000000000E+00 0.  1.
         11    1    3    3    0    0  0.25751654690E+01 -0.22503245968E+02  0.21483079412E+02  0.31217787519E+02  0.51100000000E-03 0. -1.
        -11    1    3    3    0    0 -0.15523069218E+00  0.62837765516E+01  0.13499437320E+02  0.14891096418E+02  0.51100000000E-03 0.  1.
        -12    1    3    3    0    0 -0.92241216652E+01  0.22084875076E+01 -0.24586632831E+02  0.26352691542E+02  0.00000000000E+00 0.  1.
</event>
<event>
 7    1  0.1358622E-013  0.7246160E+02  0.7816164E-02  0.1226708E+00
        -11   -1    0    0    0    0  0.00000000000E+00  0.00000000000E+00  0.45593999997E+02  0.45594000000E+02  0.51100000000E-03 0.  1.
         11   -1    0    0    0    0 -0.00000000000E+00 -0.00000000000E+00 -0.45593999997E+02  0.45594000000E+02  0.51100000000E-03 0. -1.
    9900012    2    1    2    0    0 -0.31564694507E+01 -0.11915415849E+02 -0.14097433755E+02  0.72461599579E+02  0.70000038149E+02 0.  0.
        -12    1    1    2    0    0  0.31564694507E+01  0.11915415849E+02  0.14097433755E+02  0.18726400421E+02  0.00000000000E+00 0.  1.
         11    1    3    3    0    0  0.89695761067E+00 -0.35393725509E+02 -0.17953227856E+02  0.39696835253E+02  0.51100000000E-03 0. -1.
        -11    1    3    3    0    0  0.15743850769E+00 -0.41851856359E+01  0.22070422183E+01  0.47340892793E+01  0.51100000000E-03 0.  1.
        -12    1    3    3    0    0 -0.42108655690E+01  0.27663495296E+02  0.16487518826E+01  0.28030675047E+02  0.00000000000E+00 0.  1.
</event>
<event>
 7    1  0.1358622E-013  0.7246156E+02  0.7816164E-02  0.1226708E+00
        -11   -1    0    0    0    0  0.00000000000E+00  0.00000000000E+00  0.45593999997E+02  0.45594000000E+02  0.51100000000E-03 0.  1.
         11   -1    0    0    0    0 -0.00000000000E+00 -0.00000000000E+00 -0.45593999997E+02  0.45594000000E+02  0.51100000000E-03 0. -1.
    9900012    2    1    2    0    0  0.71346327660E+00 -0.13547752880E+02 -0.12908478325E+02  0.72461562789E+02  0.69999990223E+02 0.  0.
        -12    1    1    2    0    0 -0.71346327660E+00  0.13547752880E+02  0.12908478325E+02  0.18726437211E+02  0.00000000000E+00 0.  1.
         11    1    3    3    0    0  0.50072565564E+01 -0.33087988346E+02 -0.25535109499E+01  0.33562002465E+02  0.51100000000E-03 0. -1.
        -11    1    3    3    0    0  0.40714223562E+01 -0.76258581288E+01 -0.49622696630E+01  0.99676633507E+01  0.51100000000E-03 0.  1.
         12    1    3    3    0    0 -0.83652156360E+01  0.27166093595E+02 -0.53926977123E+01  0.28931896974E+02  0.00000000000E+00 0. -1.
</event>
<event>
 7    1  0.1358622E-013  0.7246157E+02  0.7816164E-02  0.1226708E+00
        -11   -1    0    0    0    0  0.00000000000E+00  0.00000000000E+00  0.45593999997E+02  0.45594000000E+02  0.51100000000E-03 0. -1.
         11   -1    0    0    0    0 -0.00000000000E+00 -0.00000000000E+00 -0.45593999997E+02  0.45594000000E+02  0.51100000000E-03 0.  1.
    9900012    2    1    2    0    0 -0.12437266391E+02 -0.24582204009E+01 -0.13782266886E+02  0.72461566188E+02  0.69999994650E+02 0.  0.
        -12    1    1    2    0    0  0.12437266391E+02  0.24582204009E+01  0.13782266886E+02  0.18726433812E+02  0.00000000000E+00 0.  1.
         11    1    3    3    0    0 -0.51417929484E+01  0.22765499604E+02  0.16502510835E+02  0.28583891811E+02  0.51100000000E-03 0. -1.
        -11    1    3    3    0    0  0.45362548374E+01 -0.26709081111E+01 -0.15642803650E+01  0.54916601688E+01  0.51100000000E-03 0.  1.
        -12    1    3    3    0    0 -0.11831728280E+02 -0.22552811893E+02 -0.28720497356E+02  0.38386014208E+02  0.00000000000E+00 0.  1.
</event>
<event>
 7    1  0.1358622E-013  0.7246159E+02  0.7816164E-02  0.1226708E+00
        -11   -1    0    0    0    0  0.00000000000E+00  0.00000000000E+00  0.45593999997E+02  0.45594000000E+02  0.51100000000E-03 0.  1.
         11   -1    0    0    0    0 -0.00000000000E+00 -0.00000000000E+00 -0.45593999997E+02  0.45594000000E+02  0.51100000000E-03 0. -1.
    9900012    2    1    2    0    0 -0.97587329894E+01  0.11880184745E+02 -0.10691425840E+02  0.72461594963E+02  0.70000032135E+02 0.  0.
        -12    1    1    2    0    0  0.97587329894E+01 -0.11880184745E+02  0.10691425840E+02  0.18726405037E+02  0.00000000000E+00 0.  1.
         11    1    3    3    0    0  0.33056324389E+01 -0.11550824393E+02  0.86990341739E+01  0.14833136748E+02  0.51100000000E-03 0. -1.
        -11    1    3    3    0    0  0.56536367231E+01 -0.81679540760E+01  0.72150666915E+01  0.12277470000E+02  0.51100000000E-03 0.  1.
         12    1    3    3    0    0 -0.18718002151E+02  0.31598963214E+02 -0.26605526705E+02  0.45350988214E+02  0.00000000000E+00 0. -1.
</event>
<event>
 7    1  0.1358622E-013  0.7246158E+02  0.7816164E-02  0.1226708E+00
        -11   -1    0    0    0    0  0.00000000000E+00  0.00000000000E+00  0.45593999997E+02  0.45594000000E+02  0.51100000000E-03 0.  1.
         11   -1    0    0    0    0 -0.00000000000E+00 -0.00000000000E+00 -0.45593999997E+02  0.45594000000E+02  0.51100000000E-03 0. -1.
    9900012    2    1    2    0    0 -0.13073013113E+01  0.16604538232E+02 -0.85591518639E+01  0.72461579968E+02  0.70000012601E+02 0.  0.
        -12    1    1    2    0    0  0.13073013113E+01 -0.16604538232E+02  0.85591518639E+01  0.18726420032E+02  0.00000000000E+00 0.  1.
         11    1    3    3    0    0 -0.10233882309E+02  0.20124120740E+02  0.13950847713E+02  0.26539380830E+02  0.51100000000E-03 0. -1.
        -11    1    3    3    0    0  0.56749175537E+01 -0.24301754430E+01  0.10797995786E+02  0.12438133106E+02  0.51100000000E-03 0.  1.
        -12    1    3    3    0    0  0.32516634443E+01 -0.10894070653E+01 -0.33307995363E+02  0.33484066031E+02  0.00000000000E+00 0.  1.
</event>
<event>
 7    1  0.1358622E-013  0.7246162E+02  0.7816164E-02  0.1226708E+00
        -11   -1    0    0    0    0  0.00000000000E+00  0.00000000000E+00  0.45593999997E+02  0.45594000000E+02  0.51100000000E-03 0.  1.
         11   -1    0    0    0    0 -0.00000000000E+00 -0.00000000000E+00 -0.45593999997E+02  0.45594000000E+02  0.51100000000E-03 0. -1.
    9900012    2    1    2    0    0  0.16542331757E+02  0.63155893656E+01  0.60944237492E+01  0.72461617279E+02  0.70000061206E+02 0.  0.
        -12    1    1    2    0    0 -0.16542331757E+02 -0.63155893656E+01 -0.60944237492E+01  0.18726382721E+02  0.00000000000E+00 0.  1.
         11    1    3    3    0    0  0.23471935533E+02 -0.15326920999E-01 -0.22562000994E+01  0.23580127899E+02  0.51100000000E-03 0. -1.
        -11    1    3    3    0    0  0.12811208180E+02 -0.74246133744E+01 -0.10636467449E+02  0.18231466722E+02  0.51100000000E-03 0.  1.
        -12    1    3    3    0    0 -0.19740811957E+02  0.13755529661E+02  0.18987091297E+02  0.30650022658E+02  0.00000000000E+00 0.  1.
</event>
<event>
 7    1  0.1358622E-013  0.7246151E+02  0.7816164E-02  0.1226708E+00
        -11   -1    0    0    0    0  0.00000000000E+00  0.00000000000E+00  0.45593999997E+02  0.45594000000E+02  0.51100000000E-03 0. -1.
         11   -1    0    0    0    0 -0.00000000000E+00 -0.00000000000E+00 -0.45593999997E+02  0.45594000000E+02  0.51100000000E-03 0.  1.
    9900012    2    1    2    0    0  0.25978165890E+01 -0.34687626649E+01  0.18218138757E+02  0.72461506862E+02  0.69999917368E+02 0.  0.
        -12    1    1    2    0    0 -0.25978165890E+01  0.34687626649E+01 -0.18218138757E+02  0.18726493138E+02  0.00000000000E+00 0.  1.
         11    1    3    3    0    0  0.11717834439E+02  0.19464342326E+02  0.49291805483E+01  0.23247905008E+02  0.51100000000E-03 0.  1.
        -11    1    3    3    0    0 -0.12710165963E+02  0.87939845622E+01  0.42944518447E+01  0.16041346583E+02  0.51100000000E-03 0. -1.
        -12    1    3    3    0    0  0.35901481134E+01 -0.31727089554E+02  0.89945063644E+01  0.33172255271E+02  0.00000000000E+00 0.  1.
</event>
<event>
 7    1  0.1358622E-013  0.7246152E+02  0.7816164E-02  0.1226708E+00
        -11   -1    0    0    0    0  0.00000000000E+00  0.00000000000E+00  0.45593999997E+02  0.45594000000E+02  0.51100000000E-03 0. -1.
         11   -1    0    0    0    0 -0.00000000000E+00 -0.00000000000E+00 -0.45593999997E+02  0.45594000000E+02  0.51100000000E-03 0.  1.
    9900012    2    1    2    0    0  0.13112071961E+02 -0.12004200266E+02  0.58867367892E+01  0.72461523419E+02  0.69999938936E+02 0.  0.
        -12    1    1    2    0    0 -0.13112071961E+02  0.12004200266E+02 -0.58867367892E+01  0.18726476581E+02  0.00000000000E+00 0.  1.
         11    1    3    3    0    0 -0.67818172589E+00  0.80234568943E+01 -0.67933911869E+01  0.10534987189E+02  0.51100000000E-03 0. -1.
        -11    1    3    3    0    0  0.30263341797E+02 -0.19950371824E+02 -0.63039002132E+01  0.36791661430E+02  0.51100000000E-03 0.  1.
        -12    1    3    3    0    0 -0.16473088110E+02 -0.77285335702E-01  0.18984028189E+02  0.25134874800E+02  0.00000000000E+00 0.  1.
</event>
<event>
 7    1  0.1358622E-013  0.7246158E+02  0.7816164E-02  0.1226708E+00
        -11   -1    0    0    0    0  0.00000000000E+00  0.00000000000E+00  0.45593999997E+02  0.45594000000E+02  0.51100000000E-03 0. -1.
         11   -1    0    0    0    0 -0.00000000000E+00 -0.00000000000E+00 -0.45593999997E+02  0.45594000000E+02  0.51100000000E-03 0.  1.
    9900012    2    1    2    0    0  0.15811926751E+02  0.43478617626E+01  0.90419980118E+01  0.72461583964E+02  0.70000017808E+02 0.  0.
        -12    1    1    2    0    0 -0.15811926751E+02 -0.43478617626E+01 -0.90419980118E+01  0.18726416036E+02  0.00000000000E+00 0.  1.
         11    1    3    3    0    0  0.36383770188E+02 -0.68878481626E+01  0.29728468668E+01  0.37149145403E+02  0.51100000000E-03 0. -1.
        -11    1    3    3    0    0  0.15286203999E+01 -0.61610285600E+01 -0.69104933167E+00  0.63853349704E+01  0.51100000000E-03 0.  1.
        -12    1    3    3    0    0 -0.22100463836E+02  0.17396738485E+02  0.67602004767E+01  0.28927103591E+02  0.00000000000E+00 0.  1.
</event>
<event>
 7    1  0.1358622E-013  0.7246156E+02  0.7816164E-02  0.1226708E+00
        -11   -1    0    0    0    0  0.00000000000E+00  0.00000000000E+00  0.45593999997E+02  0.45594000000E+02  0.51100000000E-03 0. -1.
         11   -1    0    0    0    0 -0.00000000000E+00 -0.00000000000E+00 -0.45593999997E+02  0.45594000000E+02  0.51100000000E-03 0.  1.
    9900012    2    1    2    0    0 -0.86191549937E+01 -0.15064267459E+02  0.70326089005E+01  0.72461559472E+02  0.69999985903E+02 0.  0.
        -12    1    1    2    0    0  0.86191549937E+01  0.15064267459E+02 -0.70326089005E+01  0.18726440528E+02  0.00000000000E+00 0.  1.
         11    1    3    3    0    0 -0.96058465043E+01 -0.28880086326E+02 -0.46406947884E+01  0.30787460461E+02  0.51100000000E-03 0. -1.
        -11    1    3    3    0    0 -0.11377981078E+02 -0.86492396551E+01  0.53697931798E+01  0.15267693967E+02  0.51100000000E-03 0.  1.
         12    1    3    3    0    0  0.12364672588E+02  0.22465058522E+02  0.63035105090E+01  0.26406405044E+02  0.00000000000E+00 0. -1.
</event>
<event>
 7    1  0.1358622E-013  0.7246163E+02  0.7816164E-02  0.1226708E+00
        -11   -1    0    0    0    0  0.00000000000E+00  0.00000000000E+00  0.45593999997E+02  0.45594000000E+02  0.51100000000E-03 0. -1.
         11   -1    0    0    0    0 -0.00000000000E+00 -0.00000000000E+00 -0.45593999997E+02  0.45594000000E+02  0.51100000000E-03 0.  1.
    9900012    2    1    2    0    0 -0.10969927157E+02  0.14782091108E+02  0.34391063784E+01  0.72461628968E+02  0.70000076433E+02 0.  0.
        -12    1    1    2    0    0  0.10969927157E+02 -0.14782091108E+02 -0.34391063784E+01  0.18726371032E+02  0.00000000000E+00 0.  1.
         11    1    3    3    0    0  0.25451102583E+01  0.15608410704E+02 -0.83028336565E+01  0.17861610172E+02  0.51100000000E-03 0. -1.
        -11    1    3    3    0    0  0.19546450110E+02 -0.39101083836E+01  0.22213283658E+01  0.20057092498E+02  0.51100000000E-03 0.  1.
         12    1    3    3    0    0 -0.33061487526E+02  0.30837887872E+01  0.95206116691E+01  0.34542926298E+02  0.00000000000E+00 0. -1.
</event>
<event>
 7    1  0.1358622E-013  0.7246144E+02  0.7816164E-02  0.1226708E+00
        -11   -1    0    0    0    0  0.00000000000E+00  0.00000000000E+00  0.45593999997E+02  0.45594000000E+02  0.51100000000E-03 0. -1.
         11   -1    0    0    0    0 -0.00000000000E+00 -0.00000000000E+00 -0.45593999997E+02  0.45594000000E+02  0.51100000000E-03 0.  1.
    9900012    2    1    2    0    0 -0.65792395949E+01  0.13052368502E+02  0.11706129951E+02  0.72461436098E+02  0.69999825184E+02 0.  0.
        -12    1    1    2    0    0  0.65792395949E+01 -0.13052368502E+02 -0.11706129951E+02  0.18726563902E+02  0.00000000000E+00 0.  1.
         11    1    3    3    0    0 -0.88707292733E+01  0.28407296420E+02 -0.94168326198E+00  0.29775007898E+02  0.51100000000E-03 0. -1.
        -11    1    3    3    0    0  0.50874039897E+01  0.11335188888E+02 -0.12103480519E+01  0.12483314029E+02  0.51100000000E-03 0.  1.
        -12    1    3    3    0    0 -0.27959143113E+01 -0.26690116806E+02  0.13858161265E+02  0.30203114170E+02  0.00000000000E+00 0.  1.
</event>
<event>
 7    1  0.1358622E-013  0.7246171E+02  0.7816164E-02  0.1226708E+00
        -11   -1    0    0    0    0  0.00000000000E+00  0.00000000000E+00  0.45593999997E+02  0.45594000000E+02  0.51100000000E-03 0.  1.
         11   -1    0    0    0    0 -0.00000000000E+00 -0.00000000000E+00 -0.45593999997E+02  0.45594000000E+02  0.51100000000E-03 0. -1.
    9900012    2    1    2    0    0  0.17049546313E+02 -0.17740303257E+01  0.75392182297E+01  0.72461707666E+02  0.70000178951E+02 0.  0.
        -12    1    1    2    0    0 -0.17049546313E+02  0.17740303257E+01 -0.75392182297E+01  0.18726292334E+02  0.00000000000E+00 0.  1.
         11    1    3    3    0    0  0.81532319184E+01  0.64377738989E+01 -0.16443183288E+02  0.19449894612E+02  0.51100000000E-03 0. -1.
        -11    1    3    3    0    0 -0.94834415614E+01  0.14888940280E+02  0.72895724847E+01  0.19098535907E+02  0.51100000000E-03 0.  1.
        -12    1    3    3    0    0  0.18379755956E+02 -0.23100744505E+02  0.16692829033E+02  0.33913277147E+02  0.00000000000E+00 0.  1.
</event>
<event>
 7    1  0.1358622E-013  0.7246149E+02  0.7816164E-02  0.1226708E+00
        -11   -1    0    0    0    0  0.00000000000E+00  0.00000000000E+00  0.45593999997E+02  0.45594000000E+02  0.51100000000E-03 0.  1.
         11   -1    0    0    0    0 -0.00000000000E+00 -0.00000000000E+00 -0.45593999997E+02  0.45594000000E+02  0.51100000000E-03 0. -1.
    9900012    2    1    2    0    0 -0.56343696003E+01  0.15265057588E+02  0.92689744556E+01  0.72461494949E+02  0.69999901848E+02 0.  0.
        -12    1    1    2    0    0  0.56343696003E+01 -0.15265057588E+02 -0.92689744556E+01  0.18726505051E+02  0.00000000000E+00 0.  1.
         11    1    3    3    0    0  0.57496930735E+01 -0.92980369933E+01 -0.10634521823E+02  0.15251410330E+02  0.51100000000E-03 0. -1.
        -11    1    3    3    0    0  0.13338577318E+02  0.23362159122E+02  0.18035148284E+02  0.32387878868E+02  0.51100000000E-03 0.  1.
         12    1    3    3    0    0 -0.24722639992E+02  0.12009354601E+01  0.18683479949E+01  0.24822205751E+02  0.00000000000E+00 0. -1.
</event>
<event>
 7    1  0.1358622E-013  0.7246158E+02  0.7816164E-02  0.1226708E+00
        -11   -1    0    0    0    0  0.00000000000E+00  0.00000000000E+00  0.45593999997E+02  0.45594000000E+02  0.51100000000E-03 0. -1.
         11   -1    0    0    0    0 -0.00000000000E+00 -0.00000000000E+00 -0.45593999997E+02  0.45594000000E+02  0.51100000000E-03 0.  1.
    9900012    2    1    2    0    0  0.11437483965E+02  0.75926506659E+01  0.12736338108E+02  0.72461583045E+02  0.70000016610E+02 0.  0.
        -12    1    1    2    0    0 -0.11437483965E+02 -0.75926506659E+01 -0.12736338108E+02  0.18726416955E+02  0.00000000000E+00 0.  1.
         11    1    3    3    0    0  0.39222869369E+01  0.58743273421E+01  0.17241830735E+02  0.18632573196E+02  0.51100000000E-03 0. -1.
        -11    1    3    3    0    0  0.18757758746E+02 -0.19830250967E+02  0.49645772075E+01  0.27744177654E+02  0.51100000000E-03 0.  1.
        -12    1    3    3    0    0 -0.11242561718E+02  0.21548574291E+02 -0.94700698351E+01  0.26084832195E+02  0.00000000000E+00 0.  1.
</event>
<event>
 7    1  0.1358622E-013  0.7246151E+02  0.7816164E-02  0.1226708E+00
        -11   -1    0    0    0    0  0.00000000000E+00  0.00000000000E+00  0.45593999997E+02  0.45594000000E+02  0.51100000000E-03 0.  1.
         11   -1    0    0    0    0 -0.00000000000E+00 -0.00000000000E+00 -0.45593999997E+02  0.45594000000E+02  0.51100000000E-03 0. -1.
    9900012    2    1    2    0    0  0.37018665514E+01  0.13413107913E+02 -0.12532596475E+02  0.72461514631E+02  0.69999927488E+02 0.  0.
        -12    1    1    2    0    0 -0.37018665514E+01 -0.13413107913E+02  0.12532596475E+02  0.18726485369E+02  0.00000000000E+00 0.  1.
         11    1    3    3    0    0 -0.39630068146E+01 -0.19235924452E+02 -0.20999561852E+02  0.28752527033E+02  0.51100000000E-03 0. -1.
        -11    1    3    3    0    0 -0.65009889034E+00  0.18597241747E+02 -0.82374151156E+01  0.20350308037E+02  0.51100000000E-03 0.  1.
        -12    1    3    3    0    0  0.83149722563E+01  0.14051790619E+02  0.16704380492E+02  0.23358679561E+02  0.00000000000E+00 0.  1.
</event>
<event>
 7    1  0.1358622E-013  0.7246156E+02  0.7816164E-02  0.1226708E+00
        -11   -1    0    0    0    0  0.00000000000E+00  0.00000000000E+00  0.45593999997E+02  0.45594000000E+02  0.51100000000E-03 0.  1.
         11   -1    0    0    0    0 -0.00000000000E+00 -0.00000000000E+00 -0.45593999997E+02  0.45594000000E+02  0.51100000000E-03 0. -1.
    9900012    2    1    2    0    0 -0.68995279342E+01 -0.88055957581E+01 -0.15017913627E+02  0.72461555274E+02  0.69999980434E+02 0.  0.
        -12    1    1    2    0    0  0.68995279342E+01  0.88055957581E+01  0.15017913627E+02  0.18726444726E+02  0.00000000000E+00 0.  1.
         11    1    3    3    0    0  0.88755327748E+00 -0.12227809166E+02  0.38267271005E+01  0.12843321548E+02  0.51100000000E-03 0. -1.
        -11    1    3    3    0    0 -0.24931410938E+02 -0.16492590990E+02 -0.65290862074E+01  0.30597545259E+02  0.51100000000E-03 0.  1.
         12    1    3    3    0    0  0.17144329726E+02  0.19914804398E+02 -0.12315554520E+02  0.29020688467E+02  0.00000000000E+00 0. -1.
</event>
<event>
 7    1  0.1358622E-013  0.7246165E+02  0.7816164E-02  0.1226708E+00
        -11   -1    0    0    0    0  0.00000000000E+00  0.00000000000E+00  0.45593999997E+02  0.45594000000E+02  0.51100000000E-03 0. -1.
         11   -1    0    0    0    0 -0.00000000000E+00 -0.00000000000E+00 -0.45593999997E+02  0.45594000000E+02  0.51100000000E-03 0.  1.
    9900012    2    1    2    0    0  0.13823347937E+02  0.12565109655E+02  0.13073223336E+01  0.72461654374E+02  0.70000109529E+02 0.  0.
        -12    1    1    2    0    0 -0.13823347937E+02 -0.12565109655E+02 -0.13073223336E+01  0.18726345626E+02  0.00000000000E+00 0.  1.
         11    1    3    3    0    0  0.28224713424E+02 -0.38265153492E+01 -0.49744911310E+00  0.28487262477E+02  0.51100000000E-03 0. -1.
        -11    1    3    3    0    0  0.11005657584E+02  0.13849017700E+02 -0.31400409110E+01  0.17966069334E+02  0.51100000000E-03 0.  1.
        -12    1    3    3    0    0 -0.25407023072E+02  0.25426073040E+01  0.49448123576E+01  0.26008322562E+02  0.00000000000E+00 0.  1.
</event>
<event>
 7    1  0.1358622E-013  0.7246157E+02  0.7816164E-02  0.1226708E+00
        -11   -1    0    0    0    0  0.00000000000E+00  0.00000000000E+00  0.45593999997E+02  0.45594000000E+02  0.51100000000E-03 0.  1.
         11   -1    0    0    0    0 -0.00000000000E+00 -0.00000000000E+00 -0.45593999997E+02  0.45594000000E+02  0.51100000000E-03 0. -1.
    9900012    2    1    2    0    0 -0.17423922156E+02 -0.56712801334E+01  0.38629702873E+01  0.72461574257E+02  0.70000005162E+02 0.  0.
        -12    1    1    2    0    0  0.17423922156E+02  0.56712801334E+01 -0.38629702873E+01  0.18726425743E+02  0.00000000000E+00 0.  1.
         11    1    3    3    0    0 -0.50787659133E+01 -0.62728621715E+01  0.93299532821E+00  0.81248472951E+01  0.51100000000E-03 0. -1.
        -11    1    3    3    0    0 -0.77531980446E+01  0.57423062833E+01  0.32537290474E+02  0.33937610892E+02  0.51100000000E-03 0.  1.
         12    1    3    3    0    0 -0.45919581986E+01 -0.51407242452E+01 -0.29607315515E+02  0.30399116070E+02  0.00000000000E+00 0. -1.
</event>
<event>
 7    1  0.1358622E-013  0.7246156E+02  0.7816164E-02  0.1226708E+00
        -11   -1    0    0    0    0  0.00000000000E+00  0.00000000000E+00  0.45593999997E+02  0.45594000000E+02  0.51100000000E-03 0.  1.
         11   -1    0    0    0    0 -0.00000000000E+00 -0.00000000000E+00 -0.45593999997E+02  0.45594000000E+02  0.51100000000E-03 0. -1.
    9900012    2    1    2    0    0 -0.39915535825E+01 -0.15361012024E+02  0.99391416445E+01  0.72461555408E+02  0.69999980608E+02 0.  0.
        -12    1    1    2    0    0  0.39915535825E+01  0.15361012024E+02 -0.99391416445E+01  0.18726444592E+02  0.00000000000E+00 0.  1.
         11    1    3    3    0    0  0.10611716961E+01 -0.99110003503E+01  0.95269038655E+01  0.13788252639E+02  0.51100000000E-03 0. -1.
        -11    1    3    3    0    0  0.11810703719E+02  0.15877293154E+01  0.25201475384E+02  0.27877015058E+02  0.51100000000E-03 0.  1.
         12    1    3    3    0    0 -0.16863428998E+02 -0.70377409893E+01 -0.24789237605E+02  0.30796287712E+02  0.00000000000E+00 0. -1.
</event>
<event>
 7    1  0.1358622E-013  0.7246156E+02  0.7816164E-02  0.1226708E+00
        -11   -1    0    0    0    0  0.00000000000E+00  0.00000000000E+00  0.45593999997E+02  0.45594000000E+02  0.51100000000E-03 0. -1.
         11   -1    0    0    0    0 -0.00000000000E+00 -0.00000000000E+00 -0.45593999997E+02  0.45594000000E+02  0.51100000000E-03 0.  1.
    9900012    2    1    2    0    0  0.17961382168E+02  0.11242358376E+01 -0.51772866929E+01  0.72461562722E+02  0.69999990136E+02 0.  0.
        -12    1    1    2    0    0 -0.17961382168E+02 -0.11242358376E+01  0.51772866929E+01  0.18726437278E+02  0.00000000000E+00 0.  1.
         11    1    3    3    0    0  0.12219215752E+02 -0.78256473227E+01  0.20906148611E+02  0.25448320959E+02  0.51100000000E-03 0. -1.
        -11    1    3    3    0    0  0.19173031520E+02 -0.48681531964E+01 -0.11881759897E+02  0.23075534050E+02  0.51100000000E-03 0.  1.
        -12    1    3    3    0    0 -0.13430865104E+02  0.13818036357E+02 -0.14201675407E+02  0.23937707713E+02  0.00000000000E+00 0.  1.
</event>
<event>
 7    1  0.1358622E-013  0.7246154E+02  0.7816164E-02  0.1226708E+00
        -11   -1    0    0    0    0  0.00000000000E+00  0.00000000000E+00  0.45593999997E+02  0.45594000000E+02  0.51100000000E-03 0. -1.
         11   -1    0    0    0    0 -0.00000000000E+00 -0.00000000000E+00 -0.45593999997E+02  0.45594000000E+02  0.51100000000E-03 0.  1.
    9900012    2    1    2    0    0  0.14420126993E+02 -0.85107454597E+01  0.83849468036E+01  0.72461543216E+02  0.69999964726E+02 0.  0.
        -12    1    1    2    0    0 -0.14420126993E+02  0.85107454597E+01 -0.83849468036E+01  0.18726456784E+02  0.00000000000E+00 0.  1.
         11    1    3    3    0    0 -0.14103132384E+01 -0.11490153386E+02  0.40826349642E+01  0.12275199256E+02  0.51100000000E-03 0. -1.
        -11    1    3    3    0    0  0.25980189897E+01 -0.20916020159E+01 -0.26274526140E+02  0.26485377585E+02  0.51100000000E-03 0.  1.
         12    1    3    3    0    0  0.13232421242E+02  0.50710099426E+01  0.30576837980E+02  0.33700966375E+02  0.00000000000E+00 0. -1.
</event>
<event>
 7    1  0.1358622E-013  0.7246164E+02  0.7816164E-02  0.1226708E+00
        -11   -1    0    0    0    0  0.00000000000E+00  0.00000000000E+00  0.45593999997E+02  0.45594000000E+02  0.51100000000E-03 0.  1.
         11   -1    0    0    0    0 -0.00000000000E+00 -0.00000000000E+00 -0.45593999997E+02  0.45594000000E+02  0.51100000000E-03 0. -1.
    9900012    2    1    2    0    0  0.17043610091E+02 -0.76677260600E+01 -0.11823383604E+01  0.72461639119E+02  0.70000089657E+02 0.  0.
        -12    1    1    2    0    0 -0.17043610091E+02  0.76677260600E+01  0.11823383604E+01  0.18726360881E+02  0.00000000000E+00 0.  1.
         11    1    3    3    0    0  0.21890361299E+01  0.10464352230E+02  0.11246543484E+00  0.10691454321E+02  0.51100000000E-03 0. -1.
        -11    1    3    3    0    0 -0.21758702695E+02 -0.24582407418E+01 -0.14159675238E+01  0.21942858857E+02  0.51100000000E-03 0.  1.
        -12    1    3    3    0    0  0.36613276656E+02 -0.15673837548E+02  0.12116372858E+00  0.39827325941E+02  0.00000000000E+00 0.  1.
</event>
<event>
 7    1  0.1358622E-013  0.7246158E+02  0.7816164E-02  0.1226708E+00
        -11   -1    0    0    0    0  0.00000000000E+00  0.00000000000E+00  0.45593999997E+02  0.45594000000E+02  0.51100000000E-03 0.  1.
         11   -1    0    0    0    0 -0.00000000000E+00 -0.00000000000E+00 -0.45593999997E+02  0.45594000000E+02  0.51100000000E-03 0. -1.
    9900012    2    1    2    0    0 -0.14205217546E+02  0.18510658145E+01  0.12060857391E+02  0.72461576658E+02  0.70000008290E+02 0.  0.
        -12    1    1    2    0    0  0.14205217546E+02 -0.18510658145E+01 -0.12060857391E+02  0.18726423342E+02  0.00000000000E+00 0.  1.
         11    1    3    3    0    0 -0.12492328793E+02  0.11761374818E+02  0.11339944679E+02  0.20566539862E+02  0.51100000000E-03 0. -1.
        -11    1    3    3    0    0 -0.26014181903E+02 -0.69189561402E+01  0.39189762241E+01  0.27202352638E+02  0.51100000000E-03 0.  1.
        -12    1    3    3    0    0  0.24301293150E+02 -0.29913528634E+01 -0.31980635118E+01  0.24692684159E+02  0.00000000000E+00 0.  1.
</event>
<event>
 7    1  0.1358622E-013  0.7246156E+02  0.7816164E-02  0.1226708E+00
        -11   -1    0    0    0    0  0.00000000000E+00  0.00000000000E+00  0.45593999997E+02  0.45594000000E+02  0.51100000000E-03 0. -1.
         11   -1    0    0    0    0 -0.00000000000E+00 -0.00000000000E+00 -0.45593999997E+02  0.45594000000E+02  0.51100000000E-03 0.  1.
    9900012    2    1    2    0    0 -0.86378780115E+01 -0.12431760309E+02  0.11023512251E+02  0.72461563519E+02  0.69999991174E+02 0.  0.
        -12    1    1    2    0    0  0.86378780115E+01  0.12431760309E+02 -0.11023512251E+02  0.18726436481E+02  0.00000000000E+00 0.  1.
         11    1    3    3    0    0 -0.15365042280E+02 -0.63995656238E+01  0.57539983758E+01  0.17611004003E+02  0.51100000000E-03 0. -1.
        -11    1    3    3    0    0  0.24314583231E+02 -0.20149329015E+02  0.65932409161E+01  0.32259343507E+02  0.51100000000E-03 0.  1.
         12    1    3    3    0    0 -0.17587418963E+02  0.14117134330E+02 -0.13237270412E+01  0.22591216009E+02  0.00000000000E+00 0. -1.
</event>
<event>
 7    1  0.1358622E-013  0.7246158E+02  0.7816164E-02  0.1226708E+00
        -11   -1    0    0    0    0  0.00000000000E+00  0.00000000000E+00  0.45593999997E+02  0.45594000000E+02  0.51100000000E-03 0. -1.
         11   -1    0    0    0    0 -0.00000000000E+00 -0.00000000000E+00 -0.45593999997E+02  0.45594000000E+02  0.51100000000E-03 0.  1.
    9900012    2    1    2    0    0  0.66213505841E+01 -0.16946206338E+02  0.44342469047E+01  0.72461581805E+02  0.70000014994E+02 0.  0.
        -12    1    1    2    0    0 -0.66213505841E+01  0.16946206338E+02 -0.44342469047E+01  0.18726418195E+02  0.00000000000E+00 0.  1.
         11    1    3    3    0    0  0.50314631979E+01 -0.33019034018E+02  0.23883210232E+02  0.41060686315E+02  0.51100000000E-03 0. -1.
        -11    1    3    3    0    0  0.46632229676E+01 -0.23364067731E+01 -0.13169982975E+01  0.53794915960E+01  0.51100000000E-03 0.  1.
        -12    1    3    3    0    0 -0.30733355814E+01  0.18409234453E+02 -0.18131965030E+02  0.26021403893E+02  0.00000000000E+00 0.  1.
</event>
<event>
 7    1  0.1358622E-013  0.7246152E+02  0.7816164E-02  0.1226708E+00
        -11   -1    0    0    0    0  0.00000000000E+00  0.00000000000E+00  0.45593999997E+02  0.45594000000E+02  0.51100000000E-03 0.  1.
         11   -1    0    0    0    0 -0.00000000000E+00 -0.00000000000E+00 -0.45593999997E+02  0.45594000000E+02  0.51100000000E-03 0. -1.
    9900012    2    1    2    0    0 -0.80138952575E+01 -0.96239369982E+01 -0.13922590950E+02  0.72461515564E+02  0.69999928704E+02 0.  0.
        -12    1    1    2    0    0  0.80138952575E+01  0.96239369982E+01  0.13922590950E+02  0.18726484436E+02  0.00000000000E+00 0.  1.
         11    1    3    3    0    0 -0.39595978161E+01  0.46997682964E+01 -0.25929849520E+01  0.66700680752E+01  0.51100000000E-03 0. -1.
        -11    1    3    3    0    0 -0.25153928583E+02 -0.12392195547E+02  0.15155286065E+02  0.31874273789E+02  0.51100000000E-03 0.  1.
        -12    1    3    3    0    0  0.21099631141E+02 -0.19315097480E+01 -0.26484892063E+02  0.33917173700E+02  0.00000000000E+00 0.  1.
</event>
<event>
 7    1  0.1358622E-013  0.7246152E+02  0.7816164E-02  0.1226708E+00
        -11   -1    0    0    0    0  0.00000000000E+00  0.00000000000E+00  0.45593999997E+02  0.45594000000E+02  0.51100000000E-03 0.  1.
         11   -1    0    0    0    0 -0.00000000000E+00 -0.00000000000E+00 -0.45593999997E+02  0.45594000000E+02  0.51100000000E-03 0. -1.
    9900012    2    1    2    0    0 -0.13032528993E+02  0.13436541265E+02 -0.54180573534E+00  0.72461521245E+02  0.69999936104E+02 0.  0.
        -12    1    1    2    0    0  0.13032528993E+02 -0.13436541265E+02  0.54180573534E+00  0.18726478755E+02  0.00000000000E+00 0.  1.
         11    1    3    3    0    0  0.49421103470E+01  0.17020766261E+01 -0.13230184721E+02  0.14225305182E+02  0.51100000000E-03 0. -1.
        -11    1    3    3    0    0 -0.36312757488E+02  0.34519322064E+01  0.10716122016E+02  0.38017988686E+02  0.51100000000E-03 0.  1.
         12    1    3    3    0    0  0.18338118148E+02  0.82825324323E+01  0.19722569692E+01  0.20218227377E+02  0.00000000000E+00 0. -1.
</event>
<event>
 7    1  0.1358622E-013  0.7246159E+02  0.7816164E-02  0.1226708E+00
        -11   -1    0    0    0    0  0.00000000000E+00  0.00000000000E+00  0.45593999997E+02  0.45594000000E+02  0.51100000000E-03 0.  1.
         11   -1    0    0    0    0 -0.00000000000E+00 -0.00000000000E+00 -0.45593999997E+02  0.45594000000E+02  0.51100000000E-03 0. -1.
    9900012    2    1    2    0    0 -0.34543904293E+01  0.10769390686E+02 -0.14925343941E+02  0.72461588685E+02  0.70000023958E+02 0.  0.
        -12    1    1    2    0    0  0.34543904293E+01 -0.10769390686E+02  0.14925343941E+02  0.18726411315E+02  0.00000000000E+00 0.  1.
         11    1    3    3    0    0 -0.26968727201E+01 -0.13078291739E-02 -0.57593758380E+01  0.63595231334E+01  0.51100000000E-03 0. -1.
        -11    1    3    3    0    0  0.25689025609E+02 -0.45055535441E+01  0.12235482494E+02  0.28808559172E+02  0.51100000000E-03 0.  1.
         12    1    3    3    0    0 -0.26446543318E+02  0.15276252059E+02 -0.21401450597E+02  0.37293506380E+02  0.00000000000E+00 0. -1.
</event>
<event>
 7    1  0.1358622E-013  0.7246182E+02  0.7816164E-02  0.1226707E+00
        -11   -1    0    0    0    0  0.00000000000E+00  0.00000000000E+00  0.45593999997E+02  0.45594000000E+02  0.51100000000E-03 0.  1.
         11   -1    0    0    0    0 -0.00000000000E+00 -0.00000000000E+00 -0.45593999997E+02  0.45594000000E+02  0.51100000000E-03 0. -1.
    9900012    2    1    2    0    0 -0.12890795924E+02  0.11832080077E+02 -0.66707535041E+01  0.72461823380E+02  0.70000329690E+02 0.  0.
        -12    1    1    2    0    0  0.12890795924E+02 -0.11832080077E+02  0.66707535041E+01  0.18726176620E+02  0.00000000000E+00 0.  1.
         11    1    3    3    0    0 -0.18310066988E+02 -0.74168556714E+01 -0.15786880270E+02  0.25288216427E+02  0.51100000000E-03 0. -1.
        -11    1    3    3    0    0 -0.97488492495E+01 -0.28802136368E+01 -0.99778989907E+01  0.14244092137E+02  0.51100000000E-03 0.  1.
        -12    1    3    3    0    0  0.15168120314E+02  0.22129149385E+02  0.19094025757E+02  0.32929514815E+02  0.00000000000E+00 0.  1.
</event>
<event>
 7    1  0.1358622E-013  0.7246163E+02  0.7816164E-02  0.1226708E+00
        -11   -1    0    0    0    0  0.00000000000E+00  0.00000000000E+00  0.45593999997E+02  0.45594000000E+02  0.51100000000E-03 0. -1.
         11   -1    0    0    0    0 -0.00000000000E+00 -0.00000000000E+00 -0.45593999997E+02  0.45594000000E+02  0.51100000000E-03 0.  1.
    9900012    2    1    2    0    0  0.12405748131E+02 -0.12956917590E+02 -0.53751696297E+01  0.72461634932E+02  0.70000084202E+02 0.  0.
        -12    1    1    2    0    0 -0.12405748131E+02  0.12956917590E+02  0.53751696297E+01  0.18726365068E+02  0.00000000000E+00 0.  1.
         11    1    3    3    0    0  0.19301494499E+02 -0.13912226735E+02  0.10173109744E+02  0.25876435318E+02  0.51100000000E-03 0. -1.
        -11    1    3    3    0    0  0.53263638793E+00 -0.20675713354E+02 -0.44157410515E+01  0.21148701934E+02  0.51100000000E-03 0.  1.
        -12    1    3    3    0    0 -0.74283827560E+01  0.21631022499E+02 -0.11132538322E+02  0.25436497680E+02  0.00000000000E+00 0.  1.
</event>
<event>
 7    1  0.1358622E-013  0.7246162E+02  0.7816164E-02  0.1226708E+00
        -11   -1    0    0    0    0  0.00000000000E+00  0.00000000000E+00  0.45593999997E+02  0.45594000000E+02  0.51100000000E-03 0.  1.
         11   -1    0    0    0    0 -0.00000000000E+00 -0.00000000000E+00 -0.45593999997E+02  0.45594000000E+02  0.51100000000E-03 0. -1.
    9900012    2    1    2    0    0 -0.15583351642E+02 -0.49895888291E+01 -0.91071617605E+01  0.72461621802E+02  0.70000067099E+02 0.  0.
        -12    1    1    2    0    0  0.15583351642E+02  0.49895888291E+01  0.91071617605E+01  0.18726378198E+02  0.00000000000E+00 0.  1.
         11    1    3    3    0    0 -0.80738692784E+01  0.56829783946E+01  0.18089952998E+02  0.20608978827E+02  0.51100000000E-03 0. -1.
        -11    1    3    3    0    0  0.16973515746E+01 -0.34966873562E+01  0.11129044210E+02  0.11788275960E+02  0.51100000000E-03 0.  1.
         12    1    3    3    0    0 -0.92068339379E+01 -0.71758798676E+01 -0.38326158968E+02  0.40064367015E+02  0.00000000000E+00 0. -1.
</event>
<event>
 7    1  0.1358622E-013  0.7246151E+02  0.7816164E-02  0.1226708E+00
        -11   -1    0    0    0    0  0.00000000000E+00  0.00000000000E+00  0.45593999997E+02  0.45594000000E+02  0.51100000000E-03 0. -1.
         11   -1    0    0    0    0 -0.00000000000E+00 -0.00000000000E+00 -0.45593999997E+02  0.45594000000E+02  0.51100000000E-03 0.  1.
    9900012    2    1    2    0    0  0.15614011891E+02  0.98877811400E+01 -0.30192701747E+01  0.72461506052E+02  0.69999916312E+02 0.  0.
        -12    1    1    2    0    0 -0.15614011891E+02 -0.98877811400E+01  0.30192701747E+01  0.18726493948E+02  0.00000000000E+00 0.  1.
         11    1    3    3    0    0 -0.34220281802E+01 -0.44012206643E+01  0.10607423617E+02  0.11983257331E+02  0.51100000000E-03 0. -1.
        -11    1    3    3    0    0  0.29383067752E+02  0.23806933125E+02 -0.22354874620E+02  0.43930344352E+02  0.51100000000E-03 0.  1.
         12    1    3    3    0    0 -0.10347027681E+02 -0.95179313203E+01  0.87281808282E+01  0.16547904369E+02  0.00000000000E+00 0. -1.
</event>
<event>
 7    1  0.1358622E-013  0.7246152E+02  0.7816164E-02  0.1226708E+00
        -11   -1    0    0    0    0  0.00000000000E+00  0.00000000000E+00  0.45593999997E+02  0.45594000000E+02  0.51100000000E-03 0. -1.
         11   -1    0    0    0    0 -0.00000000000E+00 -0.00000000000E+00 -0.45593999997E+02  0.45594000000E+02  0.51100000000E-03 0.  1.
    9900012    2    1    2    0    0 -0.76557622151E+01 -0.67134443735E+01  0.15716232808E+02  0.72461521310E+02  0.69999936188E+02 0.  0.
        -12    1    1    2    0    0  0.76557622151E+01  0.67134443735E+01 -0.15716232808E+02  0.18726478690E+02  0.00000000000E+00 0.  1.
         11    1    3    3    0    0 -0.84075374043E+01 -0.12223277201E+01  0.28440196622E+02  0.29682074631E+02  0.51100000000E-03 0. -1.
        -11    1    3    3    0    0  0.11641699241E+02 -0.19597806761E+02 -0.48945006976E+01  0.23314358846E+02  0.51100000000E-03 0.  1.
         12    1    3    3    0    0 -0.10889924052E+02  0.14106690108E+02 -0.78294631158E+01  0.19465087833E+02  0.00000000000E+00 0. -1.
</event>
<event>
 7    1  0.1358622E-013  0.7246162E+02  0.7816164E-02  0.1226708E+00
        -11   -1    0    0    0    0  0.00000000000E+00  0.00000000000E+00  0.45593999997E+02  0.45594000000E+02  0.51100000000E-03 0.  1.
         11   -1    0    0    0    0 -0.00000000000E+00 -0.00000000000E+00 -0.45593999997E+02  0.45594000000E+02  0.51100000000E-03 0. -1.
    9900012    2    1    2    0    0  0.79187748688E+01 -0.30503152817E+01 -0.16693288149E+02  0.72461620533E+02  0.70000065445E+02 0.  0.
        -12    1    1    2    0    0 -0.79187748688E+01  0.30503152817E+01  0.16693288149E+02  0.18726379467E+02  0.00000000000E+00 0.  1.
         11    1    3    3    0    0 -0.98326131036E+01 -0.92549996724E+01 -0.36279580419E+01  0.13982037734E+02  0.51100000000E-03 0. -1.
        -11    1    3    3    0    0  0.19677825164E+02 -0.17662338030E+02 -0.20444336230E+02  0.33423732168E+02  0.51100000000E-03 0.  1.
         12    1    3    3    0    0 -0.19264371914E+01  0.23867022420E+02  0.73790061237E+01  0.25055850631E+02  0.00000000000E+00 0. -1.
</event>
<event>
 7    1  0.1358622E-013  0.7246156E+02  0.7816164E-02  0.1226708E+00
        -11   -1    0    0    0    0  0.00000000000E+00  0.00000000000E+00  0.45593999997E+02  0.45594000000E+02  0.51100000000E-03 0.  1.
         11   -1    0    0    0    0 -0.00000000000E+00 -0.00000000000E+00 -0.45593999997E+02  0.45594000000E+02  0.51100000000E-03 0. -1.
    9900012    2    1    2    0    0  0.17608167341E+02  0.45645409906E+01  0.44493634087E+01  0.72461563438E+02  0.69999991069E+02 0.  0.
        -12    1    1    2    0    0 -0.17608167341E+02 -0.45645409906E+01 -0.44493634087E+01  0.18726436562E+02  0.00000000000E+00 0.  1.
         11    1    3    3    0    0  0.30539488368E+02  0.25030474161E+01  0.21673683895E+02  0.37532308349E+02  0.51100000000E-03 0. -1.
        -11    1    3    3    0    0  0.74178019985E+01  0.50413150444E+01 -0.92136615641E+01  0.12858079310E+02  0.51100000000E-03 0.  1.
        -12    1    3    3    0    0 -0.20349123026E+02 -0.29798214699E+01 -0.80106589222E+01  0.22071175779E+02  0.00000000000E+00 0.  1.
</event>
<event>
 7    1  0.1358622E-013  0.7246176E+02  0.7816164E-02  0.1226708E+00
        -11   -1    0    0    0    0  0.00000000000E+00  0.00000000000E+00  0.45593999997E+02  0.45594000000E+02  0.51100000000E-03 0.  1.
         11   -1    0    0    0    0 -0.00000000000E+00 -0.00000000000E+00 -0.45593999997E+02  0.45594000000E+02  0.51100000000E-03 0. -1.
    9900012    2    1    2    0    0 -0.13257003131E+02  0.52226421136E+01 -0.12151044029E+02  0.72461761893E+02  0.70000249592E+02 0.  0.
        -12    1    1    2    0    0  0.13257003131E+02 -0.52226421136E+01  0.12151044029E+02  0.18726238107E+02  0.00000000000E+00 0.  1.
         11    1    3    3    0    0 -0.31715963718E+02  0.11451050555E+02  0.95948338759E+01  0.35058376328E+02  0.51100000000E-03 0. -1.
        -11    1    3    3    0    0 -0.54012092130E+01 -0.33751306593E+01 -0.38587445034E+01  0.74467763048E+01  0.51100000000E-03 0.  1.
         12    1    3    3    0    0  0.23860169801E+02 -0.28532777823E+01 -0.17887133402E+02  0.29956609260E+02  0.00000000000E+00 0. -1.
</event>
<event>
 7    1  0.1358622E-013  0.7246157E+02  0.7816164E-02  0.1226708E+00
        -11   -1    0    0    0    0  0.00000000000E+00  0.00000000000E+00  0.45593999997E+02  0.45594000000E+02  0.51100000000E-03 0. -1.
         11   -1    0    0    0    0 -0.00000000000E+00 -0.00000000000E+00 -0.45593999997E+02  0.45594000000E+02  0.51100000000E-03 0.  1.
    9900012    2    1    2    0    0 -0.17636058542E+02 -0.52938781377E+01 -0.34093145024E+01  0.72461571296E+02  0.70000001305E+02 0.  0.
        -12    1    1    2    0    0  0.17636058542E+02  0.52938781377E+01  0.34093145024E+01  0.18726428704E+02  0.00000000000E+00 0.  1.
         11    1    3    3    0    0 -0.37348383964E+01 -0.15560497277E+02  0.11374148592E+02  0.19632864024E+02  0.51100000000E-03 0. -1.
        -11    1    3    3    0    0  0.33462222540E+01 -0.75234839023E+01  0.13133667940E+02  0.15501395009E+02  0.51100000000E-03 0.  1.
         12    1    3    3    0    0 -0.17247442400E+02  0.17790103041E+02 -0.27917131035E+02  0.37327312263E+02  0.00000000000E+00 0. -1.
</event>
<event>
 7    1  0.1358622E-013  0.7246161E+02  0.7816164E-02  0.1226708E+00
        -11   -1    0    0    0    0  0.00000000000E+00  0.00000000000E+00  0.45593999997E+02  0.45594000000E+02  0.51100000000E-03 0. -1.
         11   -1    0    0    0    0 -0.00000000000E+00 -0.00000000000E+00 -0.45593999997E+02  0.45594000000E+02  0.51100000000E-03 0.  1.
    9900012    2    1    2    0    0  0.16107514454E+02 -0.82782596420E+01 -0.47640522290E+01  0.72461606908E+02  0.70000047696E+02 0.  0.
        -12    1    1    2    0    0 -0.16107514454E+02  0.82782596420E+01  0.47640522290E+01  0.18726393092E+02  0.00000000000E+00 0.  1.
         11    1    3    3    0    0 -0.15445011393E+02  0.96218214731E+01  0.17396386837E+02  0.25174632085E+02  0.51100000000E-03 0. -1.
        -11    1    3    3    0    0  0.63927029517E+01 -0.15279804588E+01 -0.15073253718E+02  0.16443976199E+02  0.51100000000E-03 0.  1.
        -12    1    3    3    0    0  0.25159822895E+02 -0.16372100656E+02 -0.70871853475E+01  0.30842998625E+02  0.00000000000E+00 0.  1.
</event>
<event>
 7    1  0.1358622E-013  0.7246153E+02  0.7816164E-02  0.1226708E+00
        -11   -1    0    0    0    0  0.00000000000E+00  0.00000000000E+00  0.45593999997E+02  0.45594000000E+02  0.51100000000E-03 0. -1.
         11   -1    0    0    0    0 -0.00000000000E+00 -0.00000000000E+00 -0.45593999997E+02  0.45594000000E+02  0.51100000000E-03 0.  1.
    9900012    2    1    2    0    0  0.15564755568E+02  0.10309344872E+02  0.14616155945E+01  0.72461534030E+02  0.69999952759E+02 0.  0.
        -12    1    1    2    0    0 -0.15564755568E+02 -0.10309344872E+02 -0.14616155945E+01  0.18726465970E+02  0.00000000000E+00 0.  1.
         11    1    3    3    0    0  0.13709485177E+02 -0.12982908736E+02  0.86572727169E+00  0.18901200678E+02  0.51100000000E-03 0. -1.
        -11    1    3    3    0    0 -0.15812541793E+02  0.23272270968E+01  0.15576491466E+02  0.22317695907E+02  0.51100000000E-03 0.  1.
         12    1    3    3    0    0  0.17667812184E+02  0.20965026512E+02 -0.14980603144E+02  0.31242637445E+02  0.00000000000E+00 0. -1.
</event>
<event>
 7    1  0.1358622E-013  0.7246155E+02  0.7816164E-02  0.1226708E+00
        -11   -1    0    0    0    0  0.00000000000E+00  0.00000000000E+00  0.45593999997E+02  0.45594000000E+02  0.51100000000E-03 0. -1.
         11   -1    0    0    0    0 -0.00000000000E+00 -0.00000000000E+00 -0.45593999997E+02  0.45594000000E+02  0.51100000000E-03 0.  1.
    9900012    2    1    2    0    0  0.51248821119E+01  0.12715355436E+02  0.12756771087E+02  0.72461551082E+02  0.69999974972E+02 0.  0.
        -12    1    1    2    0    0 -0.51248821119E+01 -0.12715355436E+02 -0.12756771087E+02  0.18726448918E+02  0.00000000000E+00 0.  1.
         11    1    3    3    0    0  0.23942759108E+02  0.20464629083E+02 -0.53414586305E+01  0.31946642042E+02  0.51100000000E-03 0. -1.
        -11    1    3    3    0    0  0.38802835998E+01 -0.18794789271E+01 -0.56742306429E+01  0.71264251558E+01  0.51100000000E-03 0.  1.
        -12    1    3    3    0    0 -0.22698160596E+02 -0.58697947196E+01  0.23772460360E+02  0.33388483884E+02  0.00000000000E+00 0.  1.
</event>
<event>
 7    1  0.1358622E-013  0.7246159E+02  0.7816164E-02  0.1226708E+00
        -11   -1    0    0    0    0  0.00000000000E+00  0.00000000000E+00  0.45593999997E+02  0.45594000000E+02  0.51100000000E-03 0. -1.
         11   -1    0    0    0    0 -0.00000000000E+00 -0.00000000000E+00 -0.45593999997E+02  0.45594000000E+02  0.51100000000E-03 0.  1.
    9900012    2    1    2    0    0 -0.26541614373E+01  0.16706150072E+01  0.18461929490E+02  0.72461591697E+02  0.70000027881E+02 0.  0.
        -12    1    1    2    0    0  0.26541614373E+01 -0.16706150072E+01 -0.18461929490E+02  0.18726408303E+02  0.00000000000E+00 0.  1.
         11    1    3    3    0    0 -0.53648889195E+01 -0.80436112942E+01  0.30182925323E+02  0.31693701221E+02  0.51100000000E-03 0. -1.
        -11    1    3    3    0    0  0.60415199900E+01  0.25209341832E+01  0.13136364613E+02  0.14677164183E+02  0.51100000000E-03 0.  1.
        -12    1    3    3    0    0 -0.33307925078E+01  0.71932921181E+01 -0.24857360445E+02  0.26090726293E+02  0.00000000000E+00 0.  1.
</event>
<event>
 7    1  0.1358622E-013  0.7246158E+02  0.7816164E-02  0.1226708E+00
        -11   -1    0    0    0    0  0.00000000000E+00  0.00000000000E+00  0.45593999997E+02  0.45594000000E+02  0.51100000000E-03 0. -1.
         11   -1    0    0    0    0 -0.00000000000E+00 -0.00000000000E+00 -0.45593999997E+02  0.45594000000E+02  0.51100000000E-03 0.  1.
    9900012    2    1    2    0    0  0.17699233333E+02  0.29182311268E+01 -0.53758477487E+01  0.72461583564E+02  0.70000017287E+02 0.  0.
        -12    1    1    2    0    0 -0.17699233333E+02 -0.29182311268E+01  0.53758477487E+01  0.18726416436E+02  0.00000000000E+00 0.  1.
         11    1    3    3    0    0  0.27821799358E+02 -0.18741020521E+02  0.41501729826E+01  0.33800921670E+02  0.51100000000E-03 0. -1.
        -11    1    3    3    0    0  0.59020847576E+01  0.10703376519E+02  0.61747797698E+01  0.13693968704E+02  0.51100000000E-03 0.  1.
        -12    1    3    3    0    0 -0.16024650782E+02  0.10955875129E+02 -0.15700800501E+02  0.24966693191E+02  0.00000000000E+00 0.  1.
</event>
<event>
 7    1  0.1358622E-013  0.7246157E+02  0.7816164E-02  0.1226708E+00
        -11   -1    0    0    0    0  0.00000000000E+00  0.00000000000E+00  0.45593999997E+02  0.45594000000E+02  0.51100000000E-03 0.  1.
         11   -1    0    0    0    0 -0.00000000000E+00 -0.00000000000E+00 -0.45593999997E+02  0.45594000000E+02  0.51100000000E-03 0. -1.
    9900012    2    1    2    0    0  0.53296084308E+01  0.13959335746E+02 -0.11287673957E+02  0.72461565106E+02  0.69999993241E+02 0.  0.
        -12    1    1    2    0    0 -0.53296084308E+01 -0.13959335746E+02  0.11287673957E+02  0.18726434894E+02  0.00000000000E+00 0.  1.
         11    1    3    3    0    0 -0.54807928357E+00  0.17435925371E+02 -0.13208449505E+02  0.21880928295E+02  0.51100000000E-03 0. -1.
        -11    1    3    3    0    0 -0.21118732422E+02 -0.83735352748E+00 -0.66114074085E+01  0.22145264239E+02  0.51100000000E-03 0.  1.
         12    1    3    3    0    0  0.26996420136E+02 -0.26392360983E+01  0.85321829557E+01  0.28435372572E+02  0.00000000000E+00 0. -1.
</event>
<event>
 7    1  0.1378412E-013  0.7246154E+02  0.7816164E-02  0.1226708E+00
        -11   -1    0    0    0    0  0.00000000000E+00  0.00000000000E+00  0.45593999997E+02  0.45594000000E+02  0.51100000000E-03 0. -1.
         11   -1    0    0    0    0 -0.00000000000E+00 -0.00000000000E+00 -0.45593999997E+02  0.45594000000E+02  0.51100000000E-03 0.  1.
    9900012    2    1    2    0    0  0.11427396859E+02 -0.14516884729E+01  0.14764400250E+02  0.72461539760E+02  0.69999960223E+02 0.  0.
        -12    1    1    2    0    0 -0.11427396859E+02  0.14516884729E+01 -0.14764400250E+02  0.18726460240E+02  0.00000000000E+00 0.  1.
         11    1    3    3    0    0  0.19625501816E+02 -0.18489689363E+02  0.14611345208E+02  0.30667904124E+02  0.51100000000E-03 0. -1.
        -11    1    3    3    0    0  0.10255162364E+01 -0.18074161019E+01 -0.15486030724E+02  0.15624838699E+02  0.51100000000E-03 0.  1.
        -12    1    3    3    0    0 -0.92236211941E+01  0.18845416992E+02  0.15639085766E+02  0.26168796937E+02  0.00000000000E+00 0.  1.
</event>
<event>
 7    1  0.1358622E-013  0.7246173E+02  0.7816164E-02  0.1226708E+00
        -11   -1    0    0    0    0  0.00000000000E+00  0.00000000000E+00  0.45593999997E+02  0.45594000000E+02  0.51100000000E-03 0. -1.
         11   -1    0    0    0    0 -0.00000000000E+00 -0.00000000000E+00 -0.45593999997E+02  0.45594000000E+02  0.51100000000E-03 0.  1.
    9900012    2    1    2    0    0  0.42130168051E+01 -0.14019393614E+02  0.11678189945E+02  0.72461734267E+02  0.70000213605E+02 0.  0.
        -12    1    1    2    0    0 -0.42130168051E+01  0.14019393614E+02 -0.11678189945E+02  0.18726265733E+02  0.00000000000E+00 0.  1.
         11    1    3    3    0    0  0.16823349603E+02 -0.17694117235E+02  0.59476331285E+01  0.25129290016E+02  0.51100000000E-03 0. -1.
        -11    1    3    3    0    0 -0.26771693004E+02  0.14706894793E+01  0.14548803342E+02  0.30504985704E+02  0.51100000000E-03 0.  1.
         12    1    3    3    0    0  0.14161360206E+02  0.22040341419E+01 -0.88182465262E+01  0.16827458548E+02  0.00000000000E+00 0. -1.
</event>
<event>
 7    1  0.1358622E-013  0.7246147E+02  0.7816164E-02  0.1226708E+00
        -11   -1    0    0    0    0  0.00000000000E+00  0.00000000000E+00  0.45593999997E+02  0.45594000000E+02  0.51100000000E-03 0.  1.
         11   -1    0    0    0    0 -0.00000000000E+00 -0.00000000000E+00 -0.45593999997E+02  0.45594000000E+02  0.51100000000E-03 0. -1.
    9900012    2    1    2    0    0 -0.13994744083E+01  0.76512898426E+01 -0.17034731495E+02  0.72461472239E+02  0.69999872264E+02 0.  0.
        -12    1    1    2    0    0  0.13994744083E+01 -0.76512898426E+01  0.17034731495E+02  0.18726527761E+02  0.00000000000E+00 0.  1.
         11    1    3    3    0    0 -0.60861290034E+01 -0.16115195213E+02 -0.90984266114E+01  0.19481320542E+02  0.51100000000E-03 0.  1.
        -11    1    3    3    0    0  0.14792863294E+02  0.23939594837E+02 -0.21958517399E+02  0.35694670359E+02  0.51100000000E-03 0. -1.
         12    1    3    3    0    0 -0.10106208699E+02 -0.17310978122E+00  0.14022212515E+02  0.17285481338E+02  0.00000000000E+00 0. -1.
</event>
<event>
 7    1  0.1358622E-013  0.7246155E+02  0.7816164E-02  0.1226708E+00
        -11   -1    0    0    0    0  0.00000000000E+00  0.00000000000E+00  0.45593999997E+02  0.45594000000E+02  0.51100000000E-03 0. -1.
         11   -1    0    0    0    0 -0.00000000000E+00 -0.00000000000E+00 -0.45593999997E+02  0.45594000000E+02  0.51100000000E-03 0.  1.
    9900012    2    1    2    0    0  0.11503773379E+01  0.16601027011E+02 -0.85884989088E+01  0.72461554012E+02  0.69999978789E+02 0.  0.
        -12    1    1    2    0    0 -0.11503773379E+01 -0.16601027011E+02  0.85884989088E+01  0.18726445988E+02  0.00000000000E+00 0.  1.
         11    1    3    3    0    0 -0.14094424780E+02  0.89250752616E+01  0.79479429962E+01  0.18479166010E+02  0.51100000000E-03 0. -1.
        -11    1    3    3    0    0  0.56879550561E+01 -0.38479083769E+01  0.16412736437E+02  0.17791490922E+02  0.51100000000E-03 0.  1.
        -12    1    3    3    0    0  0.95568470620E+01  0.11523860127E+02 -0.32949178342E+02  0.36190897079E+02  0.00000000000E+00 0.  1.
</event>
<event>
 7    1  0.1358622E-013  0.7246154E+02  0.7816164E-02  0.1226708E+00
        -11   -1    0    0    0    0  0.00000000000E+00  0.00000000000E+00  0.45593999997E+02  0.45594000000E+02  0.51100000000E-03 0. -1.
         11   -1    0    0    0    0 -0.00000000000E+00 -0.00000000000E+00 -0.45593999997E+02  0.45594000000E+02  0.51100000000E-03 0.  1.
    9900012    2    1    2    0    0 -0.71469671319E+01  0.11045958750E+02  0.13326212550E+02  0.72461540515E+02  0.69999961207E+02 0.  0.
        -12    1    1    2    0    0  0.71469671319E+01 -0.11045958750E+02 -0.13326212550E+02  0.18726459485E+02  0.00000000000E+00 0.  1.
         11    1    3    3    0    0 -0.12957809877E+02 -0.35232286168E+01  0.16247039606E+02  0.21078051924E+02  0.51100000000E-03 0. -1.
        -11    1    3    3    0    0 -0.15624537017E+01  0.31931535225E+02 -0.51760815645E+01  0.32386046749E+02  0.51100000000E-03 0.  1.
         12    1    3    3    0    0  0.73732964472E+01 -0.17362347858E+02  0.22552545088E+01  0.18997441842E+02  0.00000000000E+00 0. -1.
</event>
<event>
 7    1  0.1358622E-013  0.7246182E+02  0.7816164E-02  0.1226707E+00
        -11   -1    0    0    0    0  0.00000000000E+00  0.00000000000E+00  0.45593999997E+02  0.45594000000E+02  0.51100000000E-03 0.  1.
         11   -1    0    0    0    0 -0.00000000000E+00 -0.00000000000E+00 -0.45593999997E+02  0.45594000000E+02  0.51100000000E-03 0. -1.
    9900012    2    1    2    0    0 -0.84954267247E+01  0.15706551294E+01 -0.16614168270E+02  0.72461819929E+02  0.70000325194E+02 0.  0.
        -12    1    1    2    0    0  0.84954267247E+01 -0.15706551294E+01  0.16614168270E+02  0.18726180071E+02  0.00000000000E+00 0.  1.
         11    1    3    3    0    0  0.16045456367E+02 -0.12486788081E+02 -0.21527439397E+02  0.29610930310E+02  0.51100000000E-03 0. -1.
        -11    1    3    3    0    0  0.63245712123E+01  0.71902869252E-01 -0.44039547901E+01  0.77071518148E+01  0.51100000000E-03 0.  1.
        -12    1    3    3    0    0 -0.30865454304E+02  0.13985540341E+02  0.93172259170E+01  0.35143737803E+02  0.00000000000E+00 0.  1.
</event>
<event>
 7    1  0.1358622E-013  0.7246153E+02  0.7816164E-02  0.1226708E+00
        -11   -1    0    0    0    0  0.00000000000E+00  0.00000000000E+00  0.45593999997E+02  0.45594000000E+02  0.51100000000E-03 0. -1.
         11   -1    0    0    0    0 -0.00000000000E+00 -0.00000000000E+00 -0.45593999997E+02  0.45594000000E+02  0.51100000000E-03 0.  1.
    9900012    2    1    2    0    0 -0.90039972882E+01  0.23353788764E+01  0.16252837295E+02  0.72461529916E+02  0.69999947400E+02 0.  0.
        -12    1    1    2    0    0  0.90039972882E+01 -0.23353788764E+01 -0.16252837295E+02  0.18726470084E+02  0.00000000000E+00 0.  1.
         11    1    3    3    0    0 -0.21948279041E+02 -0.48064889873E+00 -0.15594204925E+01  0.22008856598E+02  0.51100000000E-03 0. -1.
        -11    1    3    3    0    0 -0.15666366063E+02 -0.19008855101E+01 -0.11224945799E+01  0.15821137307E+02  0.51100000000E-03 0.  1.
        -12    1    3    3    0    0  0.28610647815E+02  0.47169132852E+01  0.18934752367E+02  0.34631536012E+02  0.00000000000E+00 0.  1.
</event>
<event>
 7    1  0.1358622E-013  0.7246152E+02  0.7816164E-02  0.1226708E+00
        -11   -1    0    0    0    0  0.00000000000E+00  0.00000000000E+00  0.45593999997E+02  0.45594000000E+02  0.51100000000E-03 0.  1.
         11   -1    0    0    0    0 -0.00000000000E+00 -0.00000000000E+00 -0.45593999997E+02  0.45594000000E+02  0.51100000000E-03 0. -1.
    9900012    2    1    2    0    0  0.29129998382E+01  0.18458446165E+02  0.12171005044E+01  0.72461517775E+02  0.69999931584E+02 0.  0.
        -12    1    1    2    0    0 -0.29129998382E+01 -0.18458446165E+02 -0.12171005044E+01  0.18726482225E+02  0.00000000000E+00 0.  1.
         11    1    3    3    0    0 -0.60609522480E+01  0.23390201472E+01  0.14046676804E+02  0.15476281430E+02  0.51100000000E-03 0. -1.
        -11    1    3    3    0    0  0.74583515387E+01 -0.18655595904E+02 -0.62959603880E+00  0.20101110856E+02  0.51100000000E-03 0.  1.
         12    1    3    3    0    0  0.15156005475E+01  0.34775021922E+02 -0.12199980261E+02  0.36884125489E+02  0.00000000000E+00 0. -1.
</event>
<event>
 7    1  0.1358622E-013  0.7246144E+02  0.7816164E-02  0.1226708E+00
        -11   -1    0    0    0    0  0.00000000000E+00  0.00000000000E+00  0.45593999997E+02  0.45594000000E+02  0.51100000000E-03 0.  1.
         11   -1    0    0    0    0 -0.00000000000E+00 -0.00000000000E+00 -0.45593999997E+02  0.45594000000E+02  0.51100000000E-03 0. -1.
    9900012    2    1    2    0    0  0.34216342313E+01 -0.70738790567E+01 -0.16998138155E+02  0.72461440079E+02  0.69999830371E+02 0.  0.
        -12    1    1    2    0    0 -0.34216342313E+01  0.70738790567E+01  0.16998138155E+02  0.18726559921E+02  0.00000000000E+00 0.  1.
         11    1    3    3    0    0 -0.10498590784E+02  0.31850186209E+01  0.37074180178E+01  0.11580574282E+02  0.51100000000E-03 0. -1.
        -11    1    3    3    0    0 -0.18498113493E+02 -0.99901644327E+01 -0.19128169144E+02  0.28423061820E+02  0.51100000000E-03 0.  1.
        -12    1    3    3    0    0  0.32418338508E+02 -0.26873324493E+00 -0.15773870289E+01  0.32457803977E+02  0.00000000000E+00 0.  1.
</event>
<event>
 7    1  0.1358622E-013  0.7246156E+02  0.7816164E-02  0.1226708E+00
        -11   -1    0    0    0    0  0.00000000000E+00  0.00000000000E+00  0.45593999997E+02  0.45594000000E+02  0.51100000000E-03 0. -1.
         11   -1    0    0    0    0 -0.00000000000E+00 -0.00000000000E+00 -0.45593999997E+02  0.45594000000E+02  0.51100000000E-03 0.  1.
    9900012    2    1    2    0    0 -0.15983425580E+02  0.73856618514E+01  0.63766429776E+01  0.72461562274E+02  0.69999989552E+02 0.  0.
        -12    1    1    2    0    0  0.15983425580E+02 -0.73856618514E+01 -0.63766429776E+01  0.18726437726E+02  0.00000000000E+00 0.  1.
         11    1    3    3    0    0 -0.14986578595E+02  0.19571230553E+00  0.33940993041E+01  0.15367359944E+02  0.51100000000E-03 0. -1.
        -11    1    3    3    0    0 -0.17153634439E+02 -0.60623493686E+01 -0.19315703323E+02  0.26534800724E+02  0.51100000000E-03 0.  1.
         12    1    3    3    0    0  0.16156787455E+02  0.13252298914E+02  0.22298246997E+02  0.30559401606E+02  0.00000000000E+00 0. -1.
</event>
<event>
 7    1  0.1358622E-013  0.7246176E+02  0.7816164E-02  0.1226708E+00
        -11   -1    0    0    0    0  0.00000000000E+00  0.00000000000E+00  0.45593999997E+02  0.45594000000E+02  0.51100000000E-03 0.  1.
         11   -1    0    0    0    0 -0.00000000000E+00 -0.00000000000E+00 -0.45593999997E+02  0.45594000000E+02  0.51100000000E-03 0. -1.
    9900012    2    1    2    0    0  0.17936553025E+02 -0.23733895254E+01 -0.48289794197E+01  0.72461762938E+02  0.70000250954E+02 0.  0.
        -12    1    1    2    0    0 -0.17936553025E+02  0.23733895254E+01  0.48289794197E+01  0.18726237062E+02  0.00000000000E+00 0.  1.
         11    1    3    3    0    0  0.36918267019E+02  0.65193012008E+01  0.43507437415E+01  0.37741074431E+02  0.51100000000E-03 0.  1.
        -11    1    3    3    0    0  0.35339920680E+01  0.56498851027E+01 -0.13849213635E+01  0.68064902156E+01  0.51100000000E-03 0. -1.
        -12    1    3    3    0    0 -0.22515706062E+02 -0.14542575829E+02 -0.77948017977E+01  0.27914198292E+02  0.00000000000E+00 0.  1.
</event>
<event>
 7    1  0.1358622E-013  0.7246162E+02  0.7816164E-02  0.1226708E+00
        -11   -1    0    0    0    0  0.00000000000E+00  0.00000000000E+00  0.45593999997E+02  0.45594000000E+02  0.51100000000E-03 0. -1.
         11   -1    0    0    0    0 -0.00000000000E+00 -0.00000000000E+00 -0.45593999997E+02  0.45594000000E+02  0.51100000000E-03 0.  1.
    9900012    2    1    2    0    0 -0.10841584008E+02 -0.13021678193E+02  0.79732842738E+01  0.72461619974E+02  0.70000064717E+02 0.  0.
        -12    1    1    2    0    0  0.10841584008E+02  0.13021678193E+02 -0.79732842738E+01  0.18726380026E+02  0.00000000000E+00 0.  1.
         11    1    3    3    0    0  0.44860651438E+01 -0.22669530775E+02  0.14969562515E+02  0.27533982788E+02  0.51100000000E-03 0. -1.
        -11    1    3    3    0    0  0.43897619694E+01 -0.11958464831E+02 -0.90170544154E+01  0.15607118948E+02  0.51100000000E-03 0.  1.
        -12    1    3    3    0    0 -0.19717411121E+02  0.21606317412E+02  0.20207761737E+01  0.29320518238E+02  0.00000000000E+00 0.  1.
</event>
<event>
 7    1  0.1358622E-013  0.7246162E+02  0.7816164E-02  0.1226708E+00
        -11   -1    0    0    0    0  0.00000000000E+00  0.00000000000E+00  0.45593999997E+02  0.45594000000E+02  0.51100000000E-03 0. -1.
         11   -1    0    0    0    0 -0.00000000000E+00 -0.00000000000E+00 -0.45593999997E+02  0.45594000000E+02  0.51100000000E-03 0.  1.
    9900012    2    1    2    0    0  0.12918302248E+02  0.76914188371E+01  0.11164080628E+02  0.72461624137E+02  0.70000070140E+02 0.  0.
        -12    1    1    2    0    0 -0.12918302248E+02 -0.76914188371E+01 -0.11164080628E+02  0.18726375863E+02  0.00000000000E+00 0.  1.
         11    1    3    3    0    0  0.11102701267E+02  0.22745313036E+02  0.18520810410E+02  0.31363030132E+02  0.51100000000E-03 0. -1.
        -11    1    3    3    0    0 -0.13122779408E+02  0.26514103467E+01  0.56502355734E+01  0.14531430711E+02  0.51100000000E-03 0.  1.
         12    1    3    3    0    0  0.14938380389E+02 -0.17705304546E+02 -0.13006965356E+02  0.26567163294E+02  0.00000000000E+00 0. -1.
</event>
<event>
 7    1  0.1358622E-013  0.7246160E+02  0.7816164E-02  0.1226708E+00
        -11   -1    0    0    0    0  0.00000000000E+00  0.00000000000E+00  0.45593999997E+02  0.45594000000E+02  0.51100000000E-03 0. -1.
         11   -1    0    0    0    0 -0.00000000000E+00 -0.00000000000E+00 -0.45593999997E+02  0.45594000000E+02  0.51100000000E-03 0.  1.
    9900012    2    1    2    0    0 -0.11744932899E+01 -0.17939886823E+02  0.52401374352E+01  0.72461601145E+02  0.70000040189E+02 0.  0.
        -12    1    1    2    0    0  0.11744932899E+01  0.17939886823E+02 -0.52401374352E+01  0.18726398855E+02  0.00000000000E+00 0.  1.
         11    1    3    3    0    0  0.11894580513E+02 -0.91293143964E+00 -0.87304397682E+01  0.14782931651E+02  0.51100000000E-03 0. -1.
        -11    1    3    3    0    0  0.64224320852E+01  0.16206919423E+02  0.43117560452E+01  0.17958371628E+02  0.51100000000E-03 0.  1.
         12    1    3    3    0    0 -0.19491505888E+02 -0.33233874806E+02  0.96588211582E+01  0.39720297867E+02  0.00000000000E+00 0. -1.
</event>
<event>
 7    1  0.1358622E-013  0.7246162E+02  0.7816164E-02  0.1226708E+00
        -11   -1    0    0    0    0  0.00000000000E+00  0.00000000000E+00  0.45593999997E+02  0.45594000000E+02  0.51100000000E-03 0. -1.
         11   -1    0    0    0    0 -0.00000000000E+00 -0.00000000000E+00 -0.45593999997E+02  0.45594000000E+02  0.51100000000E-03 0.  1.
    9900012    2    1    2    0    0 -0.84717476626E+01  0.15135336435E+02  0.70589343191E+01  0.72461615641E+02  0.70000059072E+02 0.  0.
        -12    1    1    2    0    0  0.84717476626E+01 -0.15135336435E+02 -0.70589343191E+01  0.18726384359E+02  0.00000000000E+00 0.  1.
         11    1    3    3    0    0 -0.25789654680E+02  0.21412927345E+02 -0.17198420539E+02  0.37674997217E+02  0.51100000000E-03 0. -1.
        -11    1    3    3    0    0  0.90840179834E-01  0.43767827023E+01  0.24226474775E+01  0.50033688474E+01  0.51100000000E-03 0.  1.
        -12    1    3    3    0    0  0.17227066838E+02 -0.10654373613E+02  0.21834707381E+02  0.29783249576E+02  0.00000000000E+00 0.  1.
</event>
<event>
 7    1  0.1358622E-013  0.7246154E+02  0.7816164E-02  0.1226708E+00
        -11   -1    0    0    0    0  0.00000000000E+00  0.00000000000E+00  0.45593999997E+02  0.45594000000E+02  0.51100000000E-03 0. -1.
         11   -1    0    0    0    0 -0.00000000000E+00 -0.00000000000E+00 -0.45593999997E+02  0.45594000000E+02  0.51100000000E-03 0.  1.
    9900012    2    1    2    0    0 -0.10329761106E+02  0.12176641044E+02 -0.97829247576E+01  0.72461543623E+02  0.69999965256E+02 0.  0.
        -12    1    1    2    0    0  0.10329761106E+02 -0.12176641044E+02  0.97829247576E+01  0.18726456377E+02  0.00000000000E+00 0.  1.
         11    1    3    3    0    0 -0.69419164830E+01 -0.86005786925E+01  0.10463996013E+02  0.15220229010E+02  0.51100000000E-03 0. -1.
        -11    1    3    3    0    0 -0.26777102617E+01 -0.15289442073E+02 -0.13437600872E+02  0.20530618320E+02  0.51100000000E-03 0.  1.
         12    1    3    3    0    0 -0.71013436105E+00  0.36066661809E+02 -0.68093198986E+01  0.36710696294E+02  0.00000000000E+00 0. -1.
</event>
<event>
 7    1  0.1358622E-013  0.7246154E+02  0.7816164E-02  0.1226708E+00
        -11   -1    0    0    0    0  0.00000000000E+00  0.00000000000E+00  0.45593999997E+02  0.45594000000E+02  0.51100000000E-03 0.  1.
         11   -1    0    0    0    0 -0.00000000000E+00 -0.00000000000E+00 -0.45593999997E+02  0.45594000000E+02  0.51100000000E-03 0. -1.
    9900012    2    1    2    0    0  0.16853989209E+02 -0.32343116817E+01 -0.74941725328E+01  0.72461538875E+02  0.69999959071E+02 0.  0.
        -12    1    1    2    0    0 -0.16853989209E+02  0.32343116817E+01  0.74941725328E+01  0.18726461125E+02  0.00000000000E+00 0.  1.
         11    1    3    3    0    0  0.27735549281E+02  0.16355602304E+02 -0.10236907109E+02  0.33786989923E+02  0.51100000000E-03 0. -1.
        -11    1    3    3    0    0  0.68650344095E+01  0.45240196714E+01 -0.17308114442E+01  0.84018545540E+01  0.51100000000E-03 0.  1.
        -12    1    3    3    0    0 -0.17746594482E+02 -0.24113933657E+02  0.44735460204E+01  0.30272694398E+02  0.00000000000E+00 0.  1.
</event>
<event>
 7    1  0.1358622E-013  0.7246160E+02  0.7816164E-02  0.1226708E+00
        -11   -1    0    0    0    0  0.00000000000E+00  0.00000000000E+00  0.45593999997E+02  0.45594000000E+02  0.51100000000E-03 0.  1.
         11   -1    0    0    0    0 -0.00000000000E+00 -0.00000000000E+00 -0.45593999997E+02  0.45594000000E+02  0.51100000000E-03 0. -1.
    9900012    2    1    2    0    0  0.40975070622E+01  0.12319633413E+02 -0.13495008032E+02  0.72461596892E+02  0.70000034649E+02 0.  0.
        -12    1    1    2    0    0 -0.40975070622E+01 -0.12319633413E+02  0.13495008032E+02  0.18726403108E+02  0.00000000000E+00 0.  1.
         11    1    3    3    0    0 -0.18179308426E+02 -0.60364632787E+01  0.10366457339E+02  0.21780486261E+02  0.51100000000E-03 0. -1.
        -11    1    3    3    0    0 -0.55481364681E+01 -0.51822284549E+01 -0.99699328926E+00  0.76571081948E+01  0.51100000000E-03 0.  1.
        -12    1    3    3    0    0  0.27824951956E+02  0.23538325147E+02 -0.22864472082E+02  0.43024002436E+02  0.00000000000E+00 0.  1.
</event>
<event>
 7    1  0.1358622E-013  0.7246157E+02  0.7816164E-02  0.1226708E+00
        -11   -1    0    0    0    0  0.00000000000E+00  0.00000000000E+00  0.45593999997E+02  0.45594000000E+02  0.51100000000E-03 0.  1.
         11   -1    0    0    0    0 -0.00000000000E+00 -0.00000000000E+00 -0.45593999997E+02  0.45594000000E+02  0.51100000000E-03 0. -1.
    9900012    2    1    2    0    0 -0.47639908987E+01  0.14438106213E+02  0.10932733449E+02  0.72461569989E+02  0.69999999602E+02 0.  0.
        -12    1    1    2    0    0  0.47639908987E+01 -0.14438106213E+02 -0.10932733449E+02  0.18726430011E+02  0.00000000000E+00 0.  1.
         11    1    3    3    0    0  0.10221016108E+02  0.18175396993E+02 -0.41346375536E+01  0.21258162058E+02  0.51100000000E-03 0. -1.
        -11    1    3    3    0    0 -0.41259252251E+01 -0.23878461817E+02  0.81554554458E+00  0.24246016425E+02  0.51100000000E-03 0.  1.
         12    1    3    3    0    0 -0.10859081781E+02  0.20141171037E+02  0.14251825458E+02  0.26957391505E+02  0.00000000000E+00 0. -1.
</event>
<event>
 7    1  0.1358622E-013  0.7246177E+02  0.7816164E-02  0.1226707E+00
        -11   -1    0    0    0    0  0.00000000000E+00  0.00000000000E+00  0.45593999997E+02  0.45594000000E+02  0.51100000000E-03 0. -1.
         11   -1    0    0    0    0 -0.00000000000E+00 -0.00000000000E+00 -0.45593999997E+02  0.45594000000E+02  0.51100000000E-03 0.  1.
    9900012    2    1    2    0    0 -0.10804877133E+02  0.12570543038E+02 -0.87125005583E+01  0.72461772721E+02  0.70000263697E+02 0.  0.
        -12    1    1    2    0    0  0.10804877133E+02 -0.12570543038E+02  0.87125005583E+01  0.18726227279E+02  0.00000000000E+00 0.  1.
         11    1    3    3    0    0 -0.71263976798E+01  0.12585563462E+02  0.21997930674E+02  0.26326619717E+02  0.51100000000E-03 0. -1.
        -11    1    3    3    0    0  0.96148608328E+01 -0.10796123735E+02 -0.50963468213E+01  0.15328880837E+02  0.51100000000E-03 0.  1.
         12    1    3    3    0    0 -0.13293340286E+02  0.10781103311E+02 -0.25614084411E+02  0.30806272166E+02  0.00000000000E+00 0. -1.
</event>
<event>
 7    1  0.1358622E-013  0.7246155E+02  0.7816164E-02  0.1226708E+00
        -11   -1    0    0    0    0  0.00000000000E+00  0.00000000000E+00  0.45593999997E+02  0.45594000000E+02  0.51100000000E-03 0. -1.
         11   -1    0    0    0    0 -0.00000000000E+00 -0.00000000000E+00 -0.45593999997E+02  0.45594000000E+02  0.51100000000E-03 0.  1.
    9900012    2    1    2    0    0 -0.10325818100E+02  0.15603611582E+02  0.76467183065E+00  0.72461549807E+02  0.69999973312E+02 0.  0.
        -12    1    1    2    0    0  0.10325818100E+02 -0.15603611582E+02 -0.76467183065E+00  0.18726450193E+02  0.00000000000E+00 0.  1.
         11    1    3    3    0    0  0.34884437459E+01  0.45732410198E+01 -0.77161327910E+01  0.96240572890E+01  0.51100000000E-03 0. -1.
        -11    1    3    3    0    0 -0.25444132296E+02  0.27076960220E+02 -0.68497859598E+01  0.37782075261E+02  0.51100000000E-03 0.  1.
         12    1    3    3    0    0  0.11629870451E+02 -0.16046589658E+02  0.15330590581E+02  0.25055417257E+02  0.00000000000E+00 0. -1.
</event>
<event>
 7    1  0.1358622E-013  0.7246153E+02  0.7816164E-02  0.1226708E+00
        -11   -1    0    0    0    0  0.00000000000E+00  0.00000000000E+00  0.45593999997E+02  0.45594000000E+02  0.51100000000E-03 0.  1.
         11   -1    0    0    0    0 -0.00000000000E+00 -0.00000000000E+00 -0.45593999997E+02  0.45594000000E+02  0.51100000000E-03 0. -1.
    9900012    2    1    2    0    0  0.11980396417E+02 -0.66299118675E+01  0.12774784608E+02  0.72461528056E+02  0.69999944977E+02 0.  0.
        -12    1    1    2    0    0 -0.11980396417E+02  0.66299118675E+01 -0.12774784608E+02  0.18726471944E+02  0.00000000000E+00 0.  1.
         11    1    3    3    0    0 -0.63710271070E+01  0.25092707507E+01 -0.13277071278E+01  0.69749001840E+01  0.51100000000E-03 0. -1.
        -11    1    3    3    0    0  0.28429154500E+02 -0.11961109382E+02  0.32195365792E+02  0.44585048413E+02  0.51100000000E-03 0.  1.
         12    1    3    3    0    0 -0.10077730976E+02  0.28219267635E+01 -0.18092874056E+02  0.20901579459E+02  0.00000000000E+00 0. -1.
</event>
<event>
 7    1  0.1358622E-013  0.7246161E+02  0.7816164E-02  0.1226708E+00
        -11   -1    0    0    0    0  0.00000000000E+00  0.00000000000E+00  0.45593999997E+02  0.45594000000E+02  0.51100000000E-03 0.  1.
         11   -1    0    0    0    0 -0.00000000000E+00 -0.00000000000E+00 -0.45593999997E+02  0.45594000000E+02  0.51100000000E-03 0. -1.
    9900012    2    1    2    0    0  0.48930585978E+01  0.24791010555E+01 -0.17905023633E+02  0.72461605905E+02  0.70000046390E+02 0.  0.
        -12    1    1    2    0    0 -0.48930585978E+01 -0.24791010555E+01  0.17905023633E+02  0.18726394095E+02  0.00000000000E+00 0.  1.
         11    1    3    3    0    0  0.49810627864E-01 -0.10820558921E+02 -0.30527141005E+02  0.32388166275E+02  0.51100000000E-03 0. -1.
        -11    1    3    3    0    0  0.35931291095E+01 -0.85854862182E+01 -0.61979717621E+01  0.11181949947E+02  0.51100000000E-03 0.  1.
        -12    1    3    3    0    0  0.12501188605E+01  0.21885146194E+02  0.18820089134E+02  0.28891489683E+02  0.00000000000E+00 0.  1.
</event>
<event>
 7    1  0.1358622E-013  0.7246156E+02  0.7816164E-02  0.1226708E+00
        -11   -1    0    0    0    0  0.00000000000E+00  0.00000000000E+00  0.45593999997E+02  0.45594000000E+02  0.51100000000E-03 0.  1.
         11   -1    0    0    0    0 -0.00000000000E+00 -0.00000000000E+00 -0.45593999997E+02  0.45594000000E+02  0.51100000000E-03 0. -1.
    9900012    2    1    2    0    0 -0.10148499727E+02  0.15357856180E+02 -0.34385894827E+01  0.72461556376E+02  0.69999981869E+02 0.  0.
        -12    1    1    2    0    0  0.10148499727E+02 -0.15357856180E+02  0.34385894827E+01  0.18726443624E+02  0.00000000000E+00 0.  1.
         11    1    3    3    0    0  0.15909031105E+02  0.15528124694E+02 -0.11264573990E+02  0.24922089693E+02  0.51100000000E-03 0.  1.
        -11    1    3    3    0    0 -0.12558380361E+02 -0.21733827225E+00 -0.15887585622E+02  0.20252790681E+02  0.51100000000E-03 0. -1.
         12    1    3    3    0    0 -0.13499150471E+02  0.47069758049E-01  0.23713570129E+02  0.27286676003E+02  0.00000000000E+00 0. -1.
</event>
<event>
 7    1  0.1358622E-013  0.7246156E+02  0.7816164E-02  0.1226708E+00
        -11   -1    0    0    0    0  0.00000000000E+00  0.00000000000E+00  0.45593999997E+02  0.45594000000E+02  0.51100000000E-03 0. -1.
         11   -1    0    0    0    0 -0.00000000000E+00 -0.00000000000E+00 -0.45593999997E+02  0.45594000000E+02  0.51100000000E-03 0.  1.
    9900012    2    1    2    0    0  0.58418214653E+00 -0.13598327896E+02  0.12861709952E+02  0.72461564855E+02  0.69999992915E+02 0.  0.
        -12    1    1    2    0    0 -0.58418214653E+00  0.13598327896E+02 -0.12861709952E+02  0.18726435145E+02  0.00000000000E+00 0.  1.
         11    1    3    3    0    0 -0.23827791533E+02 -0.76414700262E+01  0.13767739401E+02  0.28560573558E+02  0.51100000000E-03 0. -1.
        -11    1    3    3    0    0 -0.95364451121E+01 -0.12946456317E+01 -0.99165207370E-01  0.96244338373E+01  0.51100000000E-03 0.  1.
        -12    1    3    3    0    0  0.33948418792E+02 -0.46622122376E+01 -0.80686424117E+00  0.34276557460E+02  0.00000000000E+00 0.  1.
</event>
<event>
 7    1  0.1358622E-013  0.7246164E+02  0.7816164E-02  0.1226708E+00
        -11   -1    0    0    0    0  0.00000000000E+00  0.00000000000E+00  0.45593999997E+02  0.45594000000E+02  0.51100000000E-03 0. -1.
         11   -1    0    0    0    0 -0.00000000000E+00 -0.00000000000E+00 -0.45593999997E+02  0.45594000000E+02  0.51100000000E-03 0.  1.
    9900012    2    1    2    0    0 -0.18280266096E+02  0.39740215873E+01 -0.84602310856E+00  0.72461635397E+02  0.70000084809E+02 0.  0.
        -12    1    1    2    0    0  0.18280266096E+02 -0.39740215873E+01  0.84602310856E+00  0.18726364603E+02  0.00000000000E+00 0.  1.
         11    1    3    3    0    0  0.62895460815E+01  0.28075916823E+01  0.15430257143E+01  0.70584622675E+01  0.51100000000E-03 0. -1.
        -11    1    3    3    0    0  0.17325147547E+02 -0.18556479735E+01  0.11826843380E+02  0.21058926647E+02  0.51100000000E-03 0.  1.
         12    1    3    3    0    0 -0.41894959725E+02  0.30220778785E+01 -0.14215892203E+02  0.44344246483E+02  0.00000000000E+00 0. -1.
</event>
<event>
 7    1  0.1358622E-013  0.7246157E+02  0.7816164E-02  0.1226708E+00
        -11   -1    0    0    0    0  0.00000000000E+00  0.00000000000E+00  0.45593999997E+02  0.45594000000E+02  0.51100000000E-03 0.  1.
         11   -1    0    0    0    0 -0.00000000000E+00 -0.00000000000E+00 -0.45593999997E+02  0.45594000000E+02  0.51100000000E-03 0. -1.
    9900012    2    1    2    0    0  0.11849061221E+02 -0.48536678190E+01 -0.13664582815E+02  0.72461570371E+02  0.70000000100E+02 0.  0.
        -12    1    1    2    0    0 -0.11849061221E+02  0.48536678190E+01  0.13664582815E+02  0.18726429629E+02  0.00000000000E+00 0.  1.
         11    1    3    3    0    0  0.73878684665E+01  0.75412105277E+01 -0.27524399438E+01  0.10909921292E+02  0.51100000000E-03 0. -1.
        -11    1    3    3    0    0  0.24038903177E+02  0.10623966489E+02  0.59499370060E+01  0.26946971639E+02  0.51100000000E-03 0.  1.
         12    1    3    3    0    0 -0.19577710422E+02 -0.23018844835E+02 -0.16862079877E+02  0.34604677440E+02  0.00000000000E+00 0. -1.
</event>
<event>
 7    1  0.1358622E-013  0.7246176E+02  0.7816164E-02  0.1226707E+00
        -11   -1    0    0    0    0  0.00000000000E+00  0.00000000000E+00  0.45593999997E+02  0.45594000000E+02  0.51100000000E-03 0.  1.
         11   -1    0    0    0    0 -0.00000000000E+00 -0.00000000000E+00 -0.45593999997E+02  0.45594000000E+02  0.51100000000E-03 0. -1.
    9900012    2    1    2    0    0 -0.16496940996E+02  0.74963851769E+00  0.88295452224E+01  0.72461764688E+02  0.70000253233E+02 0.  0.
        -12    1    1    2    0    0  0.16496940996E+02 -0.74963851769E+00 -0.88295452224E+01  0.18726235312E+02  0.00000000000E+00 0.  1.
         11    1    3    3    0    0 -0.14642121756E+02  0.65108011857E-02  0.36857730827E+01  0.15098897158E+02  0.51100000000E-03 0. -1.
        -11    1    3    3    0    0 -0.26427700244E+01 -0.25129544940E+02  0.15320091151E+02  0.29549677755E+02  0.51100000000E-03 0.  1.
         12    1    3    3    0    0  0.78795078450E+00  0.25872672657E+02 -0.10176319011E+02  0.27813189775E+02  0.00000000000E+00 0. -1.
</event>
<event>
 7    1  0.1358622E-013  0.7246150E+02  0.7816164E-02  0.1226708E+00
        -11   -1    0    0    0    0  0.00000000000E+00  0.00000000000E+00  0.45593999997E+02  0.45594000000E+02  0.51100000000E-03 0. -1.
         11   -1    0    0    0    0 -0.00000000000E+00 -0.00000000000E+00 -0.45593999997E+02  0.45594000000E+02  0.51100000000E-03 0.  1.
    9900012    2    1    2    0    0  0.16980061011E+02  0.22570199825E+01 -0.75673886989E+01  0.72461495178E+02  0.69999902147E+02 0.  0.
        -12    1    1    2    0    0 -0.16980061011E+02 -0.22570199825E+01  0.75673886989E+01  0.18726504822E+02  0.00000000000E+00 0.  1.
         11    1    3    3    0    0 -0.29433632076E+01 -0.44086480724E+01 -0.83628676405E+00  0.53664644424E+01  0.51100000000E-03 0. -1.
        -11    1    3    3    0    0 -0.22317894347E+02 -0.48546495016E+01 -0.30460974381E+00  0.22841821670E+02  0.51100000000E-03 0.  1.
         12    1    3    3    0    0  0.42241318565E+02  0.11520317557E+02 -0.64264921910E+01  0.44253209065E+02  0.00000000000E+00 0. -1.
</event>
<event>
 7    1  0.1358622E-013  0.7246157E+02  0.7816164E-02  0.1226708E+00
        -11   -1    0    0    0    0  0.00000000000E+00  0.00000000000E+00  0.45593999997E+02  0.45594000000E+02  0.51100000000E-03 0.  1.
         11   -1    0    0    0    0 -0.00000000000E+00 -0.00000000000E+00 -0.45593999997E+02  0.45594000000E+02  0.51100000000E-03 0. -1.
    9900012    2    1    2    0    0  0.38003114703E+01  0.14520735165E+02 -0.11197548210E+02  0.72461569403E+02  0.69999998839E+02 0.  0.
        -12    1    1    2    0    0 -0.38003114703E+01 -0.14520735165E+02  0.11197548210E+02  0.18726430597E+02  0.00000000000E+00 0.  1.
         11    1    3    3    0    0  0.82009693611E+01  0.50991945122E+01  0.36785439493E+01  0.10333894183E+02  0.51100000000E-03 0. -1.
        -11    1    3    3    0    0 -0.29836986448E+02  0.16135208349E+02 -0.66683413947E+01  0.34569603498E+02  0.51100000000E-03 0.  1.
         12    1    3    3    0    0  0.25436328557E+02 -0.67136676966E+01 -0.82077507645E+01  0.27558071722E+02  0.00000000000E+00 0. -1.
</event>
<event>
 7    1  0.1358622E-013  0.7246151E+02  0.7816164E-02  0.1226708E+00
        -11   -1    0    0    0    0  0.00000000000E+00  0.00000000000E+00  0.45593999997E+02  0.45594000000E+02  0.51100000000E-03 0.  1.
         11   -1    0    0    0    0 -0.00000000000E+00 -0.00000000000E+00 -0.45593999997E+02  0.45594000000E+02  0.51100000000E-03 0. -1.
    9900012    2    1    2    0    0  0.17365213962E+02  0.88096952469E+00  0.69537416602E+01  0.72461513775E+02  0.69999926373E+02 0.  0.
        -12    1    1    2    0    0 -0.17365213962E+02 -0.88096952469E+00 -0.69537416602E+01  0.18726486225E+02  0.00000000000E+00 0.  1.
         11    1    3    3    0    0  0.66501239997E+01 -0.65602407363E+00  0.34046493102E+01  0.74997435945E+01  0.51100000000E-03 0. -1.
        -11    1    3    3    0    0  0.87765095395E+01 -0.16823124964E+02 -0.24741543124E+02  0.31179939218E+02  0.51100000000E-03 0.  1.
        -12    1    3    3    0    0  0.19385804227E+01  0.18360118562E+02  0.28290635474E+02  0.33781830963E+02  0.00000000000E+00 0.  1.
</event>
<event>
 7    1  0.1358622E-013  0.7246157E+02  0.7816164E-02  0.1226708E+00
        -11   -1    0    0    0    0  0.00000000000E+00  0.00000000000E+00  0.45593999997E+02  0.45594000000E+02  0.51100000000E-03 0.  1.
         11   -1    0    0    0    0 -0.00000000000E+00 -0.00000000000E+00 -0.45593999997E+02  0.45594000000E+02  0.51100000000E-03 0. -1.
    9900012    2    1    2    0    0 -0.39153263831E+00  0.14154474493E+02 -0.12254658386E+02  0.72461572200E+02  0.70000002482E+02 0.  0.
        -12    1    1    2    0    0  0.39153263831E+00 -0.14154474493E+02  0.12254658386E+02  0.18726427800E+02  0.00000000000E+00 0.  1.
         11    1    3    3    0    0 -0.30624173521E+02  0.25356308043E+01 -0.99184179764E+01  0.32290005308E+02  0.51100000000E-03 0.  1.
        -11    1    3    3    0    0  0.12135250242E+02 -0.67989786444E+01  0.17830754761E+01  0.14023899867E+02  0.51100000000E-03 0. -1.
        -12    1    3    3    0    0  0.18097390640E+02  0.18417822333E+02 -0.41193158859E+01  0.26147667025E+02  0.00000000000E+00 0.  1.
</event>
<event>
 7    1  0.1358622E-013  0.7246149E+02  0.7816164E-02  0.1226708E+00
        -11   -1    0    0    0    0  0.00000000000E+00  0.00000000000E+00  0.45593999997E+02  0.45594000000E+02  0.51100000000E-03 0. -1.
         11   -1    0    0    0    0 -0.00000000000E+00 -0.00000000000E+00 -0.45593999997E+02  0.45594000000E+02  0.51100000000E-03 0.  1.
    9900012    2    1    2    0    0 -0.11127803320E+02 -0.41584584064E+00  0.15055937742E+02  0.72461489493E+02  0.69999894741E+02 0.  0.
        -12    1    1    2    0    0  0.11127803320E+02  0.41584584064E+00 -0.15055937742E+02  0.18726510507E+02  0.00000000000E+00 0.  1.
         11    1    3    3    0    0 -0.13182235115E+02 -0.21772563741E+02  0.34324890765E+02  0.42731884826E+02  0.51100000000E-03 0. -1.
        -11    1    3    3    0    0 -0.90367596166E+00 -0.85322877893E-01 -0.32134328793E+00  0.96289771367E+00  0.51100000000E-03 0.  1.
        -12    1    3    3    0    0  0.29581077563E+01  0.21442040778E+02 -0.18947609736E+02  0.28766706953E+02  0.00000000000E+00 0.  1.
</event>
<event>
 7    1  0.1358622E-013  0.7246159E+02  0.7816164E-02  0.1226708E+00
        -11   -1    0    0    0    0  0.00000000000E+00  0.00000000000E+00  0.45593999997E+02  0.45594000000E+02  0.51100000000E-03 0. -1.
         11   -1    0    0    0    0 -0.00000000000E+00 -0.00000000000E+00 -0.45593999997E+02  0.45594000000E+02  0.51100000000E-03 0.  1.
    9900012    2    1    2    0    0  0.95012540920E+00 -0.24157363677E+01  0.18545619225E+02  0.72461587825E+02  0.70000022837E+02 0.  0.
        -12    1    1    2    0    0 -0.95012540920E+00  0.24157363677E+01 -0.18545619225E+02  0.18726412175E+02  0.00000000000E+00 0.  1.
         11    1    3    3    0    0 -0.50283916613E+01 -0.21569161621E+02  0.22577060631E+02  0.31626525619E+02  0.51100000000E-03 0. -1.
        -11    1    3    3    0    0  0.58989341346E+01  0.17435077388E+02  0.13747364393E+02  0.22973231716E+02  0.51100000000E-03 0.  1.
        -12    1    3    3    0    0  0.79582935929E-01  0.17183478656E+01 -0.17778805799E+02  0.17861830490E+02  0.00000000000E+00 0.  1.
</event>
<event>
 7    1  0.1358622E-013  0.7246161E+02  0.7816164E-02  0.1226708E+00
        -11   -1    0    0    0    0  0.00000000000E+00  0.00000000000E+00  0.45593999997E+02  0.45594000000E+02  0.51100000000E-03 0. -1.
         11   -1    0    0    0    0 -0.00000000000E+00 -0.00000000000E+00 -0.45593999997E+02  0.45594000000E+02  0.51100000000E-03 0.  1.
    9900012    2    1    2    0    0 -0.15064884024E+02  0.51429933198E+01  0.98628948294E+01  0.72461606718E+02  0.70000047449E+02 0.  0.
        -12    1    1    2    0    0  0.15064884024E+02 -0.51429933198E+01 -0.98628948294E+01  0.18726393282E+02  0.00000000000E+00 0.  1.
         11    1    3    3    0    0 -0.65698057919E+01  0.93471722888E+01  0.26811687879E+02  0.29144443469E+02  0.51100000000E-03 0. -1.
        -11    1    3    3    0    0 -0.32632436450E+01  0.10991078297E+02  0.77581265521E+01  0.13843449320E+02  0.51100000000E-03 0.  1.
        -12    1    3    3    0    0 -0.52318345868E+01 -0.15195257266E+02 -0.24706919602E+02  0.29473713929E+02  0.00000000000E+00 0.  1.
</event>
<event>
 7    1  0.1358622E-013  0.7246158E+02  0.7816164E-02  0.1226708E+00
        -11   -1    0    0    0    0  0.00000000000E+00  0.00000000000E+00  0.45593999997E+02  0.45594000000E+02  0.51100000000E-03 0.  1.
         11   -1    0    0    0    0 -0.00000000000E+00 -0.00000000000E+00 -0.45593999997E+02  0.45594000000E+02  0.51100000000E-03 0. -1.
    9900012    2    1    2    0    0 -0.87225462068E+01  0.16361392362E+02  0.26269215083E+01  0.72461583126E+02  0.70000016715E+02 0.  0.
        -12    1    1    2    0    0  0.87225462068E+01 -0.16361392362E+02 -0.26269215083E+01  0.18726416874E+02  0.00000000000E+00 0.  1.
         11    1    3    3    0    0 -0.37937650255E+01  0.17454060674E+01 -0.58387337153E+01  0.71784334689E+01  0.51100000000E-03 0. -1.
        -11    1    3    3    0    0 -0.41163514517E+01  0.16010618098E+02  0.34995839559E+02  0.38703914890E+02  0.51100000000E-03 0.  1.
         12    1    3    3    0    0 -0.81242972953E+00 -0.13946318038E+01 -0.26530184335E+02  0.26579234767E+02  0.00000000000E+00 0. -1.
</event>
<event>
 7    1  0.1358622E-013  0.7246155E+02  0.7816164E-02  0.1226708E+00
        -11   -1    0    0    0    0  0.00000000000E+00  0.00000000000E+00  0.45593999997E+02  0.45594000000E+02  0.51100000000E-03 0.  1.
         11   -1    0    0    0    0 -0.00000000000E+00 -0.00000000000E+00 -0.45593999997E+02  0.45594000000E+02  0.51100000000E-03 0. -1.
    9900012    2    1    2    0    0  0.17479122528E+02 -0.59894620421E+01 -0.30474008391E+01  0.72461547272E+02  0.69999970009E+02 0.  0.
        -12    1    1    2    0    0 -0.17479122528E+02  0.59894620421E+01  0.30474008391E+01  0.18726452728E+02  0.00000000000E+00 0.  1.
         11    1    3    3    0    0  0.58658390486E+01 -0.21853202560E+02  0.36984556386E+01  0.22927038715E+02  0.51100000000E-03 0. -1.
        -11    1    3    3    0    0  0.24834407705E+00 -0.15232118976E+02  0.18043999607E+01  0.15340631759E+02  0.51100000000E-03 0.  1.
        -12    1    3    3    0    0  0.11364939402E+02  0.31095859494E+02 -0.85502564384E+01  0.34193876798E+02  0.00000000000E+00 0.  1.
</event>
<event>
 7    1  0.1358622E-013  0.7246157E+02  0.7816164E-02  0.1226708E+00
        -11   -1    0    0    0    0  0.00000000000E+00  0.00000000000E+00  0.45593999997E+02  0.45594000000E+02  0.51100000000E-03 0. -1.
         11   -1    0    0    0    0 -0.00000000000E+00 -0.00000000000E+00 -0.45593999997E+02  0.45594000000E+02  0.51100000000E-03 0.  1.
    9900012    2    1    2    0    0 -0.63256323414E+01  0.16432407350E+02  0.63750724133E+01  0.72461569905E+02  0.69999999492E+02 0.  0.
        -12    1    1    2    0    0  0.63256323414E+01 -0.16432407350E+02 -0.63750724133E+01  0.18726430095E+02  0.00000000000E+00 0.  1.
         11    1    3    3    0    0  0.46908865637E+01  0.28533413703E+02 -0.12924504356E+02  0.31673378844E+02  0.51100000000E-03 0. -1.
        -11    1    3    3    0    0 -0.61243441819E+01  0.10556762101E+02  0.10128399212E+02  0.15859927130E+02  0.51100000000E-03 0.  1.
        -12    1    3    3    0    0 -0.48921747232E+01 -0.22657768453E+02  0.91711775579E+01  0.24928263931E+02  0.00000000000E+00 0.  1.
</event>
<event>
 7    1  0.1412534E-013  0.7246160E+02  0.7816164E-02  0.1226708E+00
        -11   -1    0    0    0    0  0.00000000000E+00  0.00000000000E+00  0.45593999997E+02  0.45594000000E+02  0.51100000000E-03 0. -1.
         11   -1    0    0    0    0 -0.00000000000E+00 -0.00000000000E+00 -0.45593999997E+02  0.45594000000E+02  0.51100000000E-03 0.  1.
    9900012    2    1    2    0    0  0.30931472588E+01 -0.41141679701E+01  0.18005111191E+02  0.72461602400E+02  0.70000041824E+02 0.  0.
        -12    1    1    2    0    0 -0.30931472588E+01  0.41141679701E+01 -0.18005111191E+02  0.18726397600E+02  0.00000000000E+00 0.  1.
         11    1    3    3    0    0  0.50426778467E+01 -0.27774485081E+02  0.13826853329E+02  0.31432984183E+02  0.51100000000E-03 0. -1.
        -11    1    3    3    0    0  0.11203130085E+02  0.28948523254E+01 -0.75265937689E+01  0.13803619370E+02  0.51100000000E-03 0.  1.
        -12    1    3    3    0    0 -0.13152660673E+02  0.20765464785E+02  0.11704851631E+02  0.27224998848E+02  0.00000000000E+00 0.  1.
</event>
<event>
 7    1  0.1358622E-013  0.7246154E+02  0.7816164E-02  0.1226708E+00
        -11   -1    0    0    0    0  0.00000000000E+00  0.00000000000E+00  0.45593999997E+02  0.45594000000E+02  0.51100000000E-03 0.  1.
         11   -1    0    0    0    0 -0.00000000000E+00 -0.00000000000E+00 -0.45593999997E+02  0.45594000000E+02  0.51100000000E-03 0. -1.
    9900012    2    1    2    0    0 -0.15777646268E+02  0.84647158061E+01 -0.54858563007E+01  0.72461543987E+02  0.69999965730E+02 0.  0.
        -12    1    1    2    0    0  0.15777646268E+02 -0.84647158061E+01  0.54858563007E+01  0.18726456013E+02  0.00000000000E+00 0.  1.
         11    1    3    3    0    0 -0.19931860353E+01  0.12351988297E+02 -0.19872664040E+02  0.23483338386E+02  0.51100000000E-03 0. -1.
        -11    1    3    3    0    0  0.19165222009E+01  0.18916134332E+02  0.75757637458E+01  0.20466689816E+02  0.51100000000E-03 0.  1.
        -12    1    3    3    0    0 -0.15700982434E+02 -0.22803406823E+02  0.68110439930E+01  0.28511515786E+02  0.00000000000E+00 0.  1.
</event>
<event>
 7    1  0.1358622E-013  0.7246153E+02  0.7816164E-02  0.1226708E+00
        -11   -1    0    0    0    0  0.00000000000E+00  0.00000000000E+00  0.45593999997E+02  0.45594000000E+02  0.51100000000E-03 0. -1.
         11   -1    0    0    0    0 -0.00000000000E+00 -0.00000000000E+00 -0.45593999997E+02  0.45594000000E+02  0.51100000000E-03 0.  1.
    9900012    2    1    2    0    0  0.13921688279E+02 -0.12508907515E+02 -0.62797434757E+00  0.72461534142E+02  0.69999952904E+02 0.  0.
        -12    1    1    2    0    0 -0.13921688279E+02  0.12508907515E+02  0.62797434757E+00  0.18726465858E+02  0.00000000000E+00 0.  1.
         11    1    3    3    0    0 -0.16238812289E+02 -0.55210427824E+01  0.71534181172E+01  0.18583657578E+02  0.51100000000E-03 0. -1.
        -11    1    3    3    0    0  0.42939819893E+01  0.31113786402E+01  0.16288339190E+02  0.17129768013E+02  0.51100000000E-03 0.  1.
        -12    1    3    3    0    0  0.25866518579E+02 -0.10099243373E+02 -0.24069731655E+02  0.36748108550E+02  0.00000000000E+00 0.  1.
</event>
<event>
 7    1  0.1358622E-013  0.7246174E+02  0.7816164E-02  0.1226708E+00
        -11   -1    0    0    0    0  0.00000000000E+00  0.00000000000E+00  0.45593999997E+02  0.45594000000E+02  0.51100000000E-03 0. -1.
         11   -1    0    0    0    0 -0.00000000000E+00 -0.00000000000E+00 -0.45593999997E+02  0.45594000000E+02  0.51100000000E-03 0.  1.
    9900012    2    1    2    0    0 -0.10636684885E+02  0.11679760173E+02  0.10055685085E+02  0.72461743952E+02  0.70000226221E+02 0.  0.
        -12    1    1    2    0    0  0.10636684885E+02 -0.11679760173E+02 -0.10055685085E+02  0.18726256048E+02  0.00000000000E+00 0.  1.
         11    1    3    3    0    0 -0.10963897770E+00  0.39520643188E+01  0.21798792569E+02  0.22154416959E+02  0.51100000000E-03 0. -1.
        -11    1    3    3    0    0 -0.25112142500E+02  0.39965489524E+01 -0.20700969510E+02  0.32789056763E+02  0.51100000000E-03 0.  1.
         12    1    3    3    0    0  0.14585096592E+02  0.37311469015E+01  0.89578620262E+01  0.17518270231E+02  0.00000000000E+00 0. -1.
</event>
<event>
 7    1  0.1358622E-013  0.7246151E+02  0.7816164E-02  0.1226708E+00
        -11   -1    0    0    0    0  0.00000000000E+00  0.00000000000E+00  0.45593999997E+02  0.45594000000E+02  0.51100000000E-03 0.  1.
         11   -1    0    0    0    0 -0.00000000000E+00 -0.00000000000E+00 -0.45593999997E+02  0.45594000000E+02  0.51100000000E-03 0. -1.
    9900012    2    1    2    0    0  0.79471230514E+01 -0.63468038694E+01 -0.15723949469E+02  0.72461514183E+02  0.69999926904E+02 0.  0.
        -12    1    1    2    0    0 -0.79471230514E+01  0.63468038694E+01  0.15723949469E+02  0.18726485817E+02  0.00000000000E+00 0.  1.
         11    1    3    3    0    0 -0.10637748438E+01  0.14215896341E+02  0.41120499152E+01  0.14836855478E+02  0.51100000000E-03 0. -1.
        -11    1    3    3    0    0 -0.17838232265E+02 -0.20083901124E+02 -0.13362344188E+02  0.30001964222E+02  0.51100000000E-03 0.  1.
         12    1    3    3    0    0  0.26849130161E+02 -0.47879908667E+00 -0.64736551962E+01  0.27622694484E+02  0.00000000000E+00 0. -1.
</event>
<event>
 7    1  0.1358622E-013  0.7246159E+02  0.7816164E-02  0.1226708E+00
        -11   -1    0    0    0    0  0.00000000000E+00  0.00000000000E+00  0.45593999997E+02  0.45594000000E+02  0.51100000000E-03 0.  1.
         11   -1    0    0    0    0 -0.00000000000E+00 -0.00000000000E+00 -0.45593999997E+02  0.45594000000E+02  0.51100000000E-03 0. -1.
    9900012    2    1    2    0    0 -0.13513472878E+02 -0.79025297837E+01 -0.10276891679E+02  0.72461590072E+02  0.70000025764E+02 0.  0.
        -12    1    1    2    0    0  0.13513472878E+02  0.79025297837E+01  0.10276891679E+02  0.18726409928E+02  0.00000000000E+00 0.  1.
         11    1    3    3    0    0 -0.16269887395E+01  0.43434262043E+01  0.29810797584E+01  0.55135542382E+01  0.51100000000E-03 0. -1.
        -11    1    3    3    0    0 -0.17145914290E+02  0.49778318524E+01  0.21412520802E+02  0.27879333459E+02  0.51100000000E-03 0.  1.
         12    1    3    3    0    0  0.52594301509E+01 -0.17223787840E+02 -0.34670492239E+02  0.39068702374E+02  0.00000000000E+00 0. -1.
</event>
<event>
 7    1  0.1358622E-013  0.7246158E+02  0.7816164E-02  0.1226708E+00
        -11   -1    0    0    0    0  0.00000000000E+00  0.00000000000E+00  0.45593999997E+02  0.45594000000E+02  0.51100000000E-03 0.  1.
         11   -1    0    0    0    0 -0.00000000000E+00 -0.00000000000E+00 -0.45593999997E+02  0.45594000000E+02  0.51100000000E-03 0. -1.
    9900012    2    1    2    0    0 -0.76489639665E+01  0.15638776132E+02 -0.68993321867E+01  0.72461581408E+02  0.70000014477E+02 0.  0.
        -12    1    1    2    0    0  0.76489639665E+01 -0.15638776132E+02  0.68993321867E+01  0.18726418592E+02  0.00000000000E+00 0.  1.
         11    1    3    3    0    0 -0.20131798426E+02 -0.18596394919E+02 -0.46902752019E+01  0.27804925707E+02  0.51100000000E-03 0. -1.
        -11    1    3    3    0    0 -0.56679278909E+01  0.35680466758E+01  0.49253057980E+01  0.83135432351E+01  0.51100000000E-03 0.  1.
         12    1    3    3    0    0  0.18150762351E+02  0.30667124375E+02 -0.71343627828E+01  0.36343112465E+02  0.00000000000E+00 0. -1.
</event>
<event>
 7    1  0.1358622E-013  0.7246152E+02  0.7816164E-02  0.1226708E+00
        -11   -1    0    0    0    0  0.00000000000E+00  0.00000000000E+00  0.45593999997E+02  0.45594000000E+02  0.51100000000E-03 0. -1.
         11   -1    0    0    0    0 -0.00000000000E+00 -0.00000000000E+00 -0.45593999997E+02  0.45594000000E+02  0.51100000000E-03 0.  1.
    9900012    2    1    2    0    0 -0.10011708928E+02  0.41407155202E+01  0.15274200938E+02  0.72461519952E+02  0.69999934420E+02 0.  0.
        -12    1    1    2    0    0  0.10011708928E+02 -0.41407155202E+01 -0.15274200938E+02  0.18726480048E+02  0.00000000000E+00 0.  1.
         11    1    3    3    0    0  0.20485680656E+02 -0.98247888495E+01  0.94196287097E+01  0.24595100999E+02  0.51100000000E-03 0. -1.
        -11    1    3    3    0    0  0.22086699973E+01 -0.27784719861E+01  0.10263452593E+02  0.10859861377E+02  0.51100000000E-03 0.  1.
        -12    1    3    3    0    0 -0.32706059582E+02  0.16743976356E+02 -0.44088803642E+01  0.37006557576E+02  0.00000000000E+00 0.  1.
</event>
<event>
 7    1  0.1358622E-013  0.7246159E+02  0.7816164E-02  0.1226708E+00
        -11   -1    0    0    0    0  0.00000000000E+00  0.00000000000E+00  0.45593999997E+02  0.45594000000E+02  0.51100000000E-03 0.  1.
         11   -1    0    0    0    0 -0.00000000000E+00 -0.00000000000E+00 -0.45593999997E+02  0.45594000000E+02  0.51100000000E-03 0. -1.
    9900012    2    1    2    0    0  0.17453665924E+02  0.36021785082E+01 -0.57508381601E+01  0.72461593945E+02  0.70000030810E+02 0.  0.
        -12    1    1    2    0    0 -0.17453665924E+02 -0.36021785082E+01  0.57508381601E+01  0.18726406055E+02  0.00000000000E+00 0.  1.
         11    1    3    3    0    0  0.73889798597E+01  0.49515088652E+01 -0.18443777534E+02  0.20476508330E+02  0.51100000000E-03 0. -1.
        -11    1    3    3    0    0  0.25625590472E+02  0.88012821170E+01 -0.35252247797E+01  0.27323262323E+02  0.51100000000E-03 0.  1.
         12    1    3    3    0    0 -0.15560904408E+02 -0.10150612474E+02  0.16218164153E+02  0.24661823292E+02  0.00000000000E+00 0. -1.
</event>
<event>
 7    1  0.1358622E-013  0.7246180E+02  0.7816164E-02  0.1226707E+00
        -11   -1    0    0    0    0  0.00000000000E+00  0.00000000000E+00  0.45593999997E+02  0.45594000000E+02  0.51100000000E-03 0.  1.
         11   -1    0    0    0    0 -0.00000000000E+00 -0.00000000000E+00 -0.45593999997E+02  0.45594000000E+02  0.51100000000E-03 0. -1.
    9900012    2    1    2    0    0 -0.13681083270E+02  0.10202319550E+02 -0.77078571140E+01  0.72461803778E+02  0.70000304156E+02 0.  0.
        -12    1    1    2    0    0  0.13681083270E+02 -0.10202319550E+02  0.77078571140E+01  0.18726196222E+02  0.00000000000E+00 0.  1.
         11    1    3    3    0    0  0.79968482752E+01 -0.11071665365E+01 -0.45099423724E+01  0.92474310237E+01  0.51100000000E-03 0. -1.
        -11    1    3    3    0    0 -0.20875503531E+02  0.37300061784E+00  0.25227678541E+02  0.32746931795E+02  0.51100000000E-03 0.  1.
         12    1    3    3    0    0 -0.80242801364E+00  0.10936485469E+02 -0.28425593283E+02  0.30467440959E+02  0.00000000000E+00 0. -1.
</event>
<event>
 7    1  0.1358622E-013  0.7246157E+02  0.7816164E-02  0.1226708E+00
        -11   -1    0    0    0    0  0.00000000000E+00  0.00000000000E+00  0.45593999997E+02  0.45594000000E+02  0.51100000000E-03 0.  1.
         11   -1    0    0    0    0 -0.00000000000E+00 -0.00000000000E+00 -0.45593999997E+02  0.45594000000E+02  0.51100000000E-03 0. -1.
    9900012    2    1    2    0    0  0.10946280370E+01  0.17823422726E+02 -0.56397377990E+01  0.72461568128E+02  0.69999997179E+02 0.  0.
        -12    1    1    2    0    0 -0.10946280370E+01 -0.17823422726E+02  0.56397377990E+01  0.18726431872E+02  0.00000000000E+00 0.  1.
         11    1    3    3    0    0  0.51475522943E+01 -0.17856868960E+02 -0.96488818046E+01  0.20939579366E+02  0.51100000000E-03 0. -1.
        -11    1    3    3    0    0  0.32165929526E+01 -0.20333973639E+01  0.11742094937E+02  0.12343337022E+02  0.51100000000E-03 0.  1.
        -12    1    3    3    0    0 -0.72695172099E+01  0.37713689049E+02 -0.77329509311E+01  0.39178651741E+02  0.00000000000E+00 0.  1.
</event>
<event>
 7    1  0.1358622E-013  0.7246155E+02  0.7816164E-02  0.1226708E+00
        -11   -1    0    0    0    0  0.00000000000E+00  0.00000000000E+00  0.45593999997E+02  0.45594000000E+02  0.51100000000E-03 0.  1.
         11   -1    0    0    0    0 -0.00000000000E+00 -0.00000000000E+00 -0.45593999997E+02  0.45594000000E+02  0.51100000000E-03 0. -1.
    9900012    2    1    2    0    0  0.56473310734E+01 -0.91211281911E+01 -0.15349024888E+02  0.72461550985E+02  0.69999974845E+02 0.  0.
        -12    1    1    2    0    0 -0.56473310734E+01  0.91211281911E+01  0.15349024888E+02  0.18726449015E+02  0.00000000000E+00 0.  1.
         11    1    3    3    0    0  0.29963219373E+01 -0.71638302600E+01  0.76328364425E+01  0.10888461855E+02  0.51100000000E-03 0. -1.
        -11    1    3    3    0    0  0.47295328089E+01 -0.10470292177E+02  0.17068657940E+02  0.20575096185E+02  0.51100000000E-03 0.  1.
         12    1    3    3    0    0 -0.20785236729E+01  0.85129942455E+01 -0.40050519271E+02  0.40997992945E+02  0.00000000000E+00 0. -1.
</event>
<event>
 7    1  0.1444900E-013  0.7246156E+02  0.7816164E-02  0.1226708E+00
        -11   -1    0    0    0    0  0.00000000000E+00  0.00000000000E+00  0.45593999997E+02  0.45594000000E+02  0.51100000000E-03 0.  1.
         11   -1    0    0    0    0 -0.00000000000E+00 -0.00000000000E+00 -0.45593999997E+02  0.45594000000E+02  0.51100000000E-03 0. -1.
    9900012    2    1    2    0    0 -0.55583773334E+01 -0.17877892107E+02  0.40623966272E+00  0.72461558389E+02  0.69999984491E+02 0.  0.
        -12    1    1    2    0    0  0.55583773334E+01  0.17877892107E+02 -0.40623966272E+00  0.18726441611E+02  0.00000000000E+00 0.  1.
         11    1    3    3    0    0  0.72844383841E+01 -0.33259138239E+02  0.93743892254E+01  0.35314479928E+02  0.51100000000E-03 0. -1.
        -11    1    3    3    0    0 -0.57969655410E+00 -0.58736649855E+01 -0.11042304070E+02  0.12520721540E+02  0.51100000000E-03 0.  1.
        -12    1    3    3    0    0 -0.12263119163E+02  0.21254911118E+02  0.20741545069E+01  0.24626356920E+02  0.00000000000E+00 0.  1.
</event>
<event>
 7    1  0.1358622E-013  0.7246152E+02  0.7816164E-02  0.1226708E+00
        -11   -1    0    0    0    0  0.00000000000E+00  0.00000000000E+00  0.45593999997E+02  0.45594000000E+02  0.51100000000E-03 0.  1.
         11   -1    0    0    0    0 -0.00000000000E+00 -0.00000000000E+00 -0.45593999997E+02  0.45594000000E+02  0.51100000000E-03 0. -1.
    9900012    2    1    2    0    0 -0.23828435232E+01  0.23740631967E+01 -0.18421914008E+02  0.72461520485E+02  0.69999935114E+02 0.  0.
        -12    1    1    2    0    0  0.23828435232E+01 -0.23740631967E+01  0.18421914008E+02  0.18726479515E+02  0.00000000000E+00 0.  1.
         11    1    3    3    0    0  0.13499450674E+01  0.16399393317E+02 -0.58799157324E+01  0.17473862256E+02  0.51100000000E-03 0. -1.
        -11    1    3    3    0    0  0.46788584106E+01 -0.14320161069E+02  0.17904398068E+02  0.23399277756E+02  0.51100000000E-03 0.  1.
         12    1    3    3    0    0 -0.84116470012E+01  0.29483094862E+00 -0.30446396344E+02  0.31588380473E+02  0.00000000000E+00 0. -1.
</event>
<event>
 7    1  0.1358622E-013  0.7246153E+02  0.7816164E-02  0.1226708E+00
        -11   -1    0    0    0    0  0.00000000000E+00  0.00000000000E+00  0.45593999997E+02  0.45594000000E+02  0.51100000000E-03 0.  1.
         11   -1    0    0    0    0 -0.00000000000E+00 -0.00000000000E+00 -0.45593999997E+02  0.45594000000E+02  0.51100000000E-03 0. -1.
    9900012    2    1    2    0    0 -0.41793774766E+01 -0.91357248065E+01 -0.15803548188E+02  0.72461526782E+02  0.69999943317E+02 0.  0.
        -12    1    1    2    0    0  0.41793774766E+01  0.91357248065E+01  0.15803548188E+02  0.18726473218E+02  0.00000000000E+00 0.  1.
         11    1    3    3    0    0  0.20621399478E+02 -0.79458317978E+01 -0.19059462131E+02  0.29182896641E+02  0.51100000000E-03 0. -1.
        -11    1    3    3    0    0  0.26478963955E+01  0.51668501964E+01  0.12371102440E+02  0.13665718866E+02  0.51100000000E-03 0.  1.
        -12    1    3    3    0    0 -0.27448673350E+02 -0.63567432051E+01 -0.91151884980E+01  0.29612911276E+02  0.00000000000E+00 0.  1.
</event>
<event>
 7    1  0.1358622E-013  0.7246161E+02  0.7816164E-02  0.1226708E+00
        -11   -1    0    0    0    0  0.00000000000E+00  0.00000000000E+00  0.45593999997E+02  0.45594000000E+02  0.51100000000E-03 0.  1.
         11   -1    0    0    0    0 -0.00000000000E+00 -0.00000000000E+00 -0.45593999997E+02  0.45594000000E+02  0.51100000000E-03 0. -1.
    9900012    2    1    2    0    0  0.12415590641E+02 -0.11592506969E+02  0.78831828802E+01  0.72461610036E+02  0.70000051770E+02 0.  0.
        -12    1    1    2    0    0 -0.12415590641E+02  0.11592506969E+02 -0.78831828802E+01  0.18726389964E+02  0.00000000000E+00 0.  1.
         11    1    3    3    0    0  0.14952031830E+02  0.95475906649E+01 -0.14994749520E+02  0.23228479433E+02  0.51100000000E-03 0. -1.
        -11    1    3    3    0    0  0.38077361959E+01 -0.10722580878E+02 -0.93798666440E+01  0.14746338330E+02  0.51100000000E-03 0.  1.
        -12    1    3    3    0    0 -0.63441773848E+01 -0.10417516756E+02  0.32257799044E+02  0.34486792272E+02  0.00000000000E+00 0.  1.
</event>
<event>
 7    1  0.1358622E-013  0.7246158E+02  0.7816164E-02  0.1226708E+00
        -11   -1    0    0    0    0  0.00000000000E+00  0.00000000000E+00  0.45593999997E+02  0.45594000000E+02  0.51100000000E-03 0.  1.
         11   -1    0    0    0    0 -0.00000000000E+00 -0.00000000000E+00 -0.45593999997E+02  0.45594000000E+02  0.51100000000E-03 0. -1.
    9900012    2    1    2    0    0 -0.13484158029E+02 -0.53635883636E+01 -0.11835888681E+02  0.72461578592E+02  0.70000010809E+02 0.  0.
        -12    1    1    2    0    0  0.13484158029E+02  0.53635883636E+01  0.11835888681E+02  0.18726421408E+02  0.00000000000E+00 0.  1.
         11    1    3    3    0    0  0.13702750076E+02 -0.92484103307E-01  0.17605610056E+02  0.22309895083E+02  0.51100000000E-03 0. -1.
        -11    1    3    3    0    0  0.42629952632E+01 -0.79165209153E+01 -0.75609498284E+01  0.11747867661E+02  0.51100000000E-03 0.  1.
         12    1    3    3    0    0 -0.31449903368E+02  0.26454166551E+01 -0.21880548908E+02  0.38403815847E+02  0.00000000000E+00 0. -1.
</event>
<event>
 7    1  0.1358622E-013  0.7246158E+02  0.7816164E-02  0.1226708E+00
        -11   -1    0    0    0    0  0.00000000000E+00  0.00000000000E+00  0.45593999997E+02  0.45594000000E+02  0.51100000000E-03 0.  1.
         11   -1    0    0    0    0 -0.00000000000E+00 -0.00000000000E+00 -0.45593999997E+02  0.45594000000E+02  0.51100000000E-03 0. -1.
    9900012    2    1    2    0    0 -0.15021393400E+02  0.31144966584E+01 -0.10739486450E+02  0.72461577001E+02  0.70000008737E+02 0.  0.
        -12    1    1    2    0    0  0.15021393400E+02 -0.31144966584E+01  0.10739486450E+02  0.18726422999E+02  0.00000000000E+00 0.  1.
         11    1    3    3    0    0  0.19870939205E+01  0.14999869147E+02 -0.26677508065E+02  0.30669757963E+02  0.51100000000E-03 0. -1.
        -11    1    3    3    0    0 -0.19374701123E+02  0.63978663266E+00 -0.23209533372E+01  0.19523708541E+02  0.51100000000E-03 0.  1.
        -12    1    3    3    0    0  0.23662138023E+01 -0.12525159121E+02  0.18258974953E+02  0.22268110497E+02  0.00000000000E+00 0.  1.
</event>
<event>
 7    1  0.1358622E-013  0.7246162E+02  0.7816164E-02  0.1226708E+00
        -11   -1    0    0    0    0  0.00000000000E+00  0.00000000000E+00  0.45593999997E+02  0.45594000000E+02  0.51100000000E-03 0. -1.
         11   -1    0    0    0    0 -0.00000000000E+00 -0.00000000000E+00 -0.45593999997E+02  0.45594000000E+02  0.51100000000E-03 0.  1.
    9900012    2    1    2    0    0 -0.14335112100E+02 -0.30589082094E+01  0.11654390850E+02  0.72461623296E+02  0.70000069045E+02 0.  0.
        -12    1    1    2    0    0  0.14335112100E+02  0.30589082094E+01 -0.11654390850E+02  0.18726376704E+02  0.00000000000E+00 0.  1.
         11    1    3    3    0    0  0.23833540966E+01  0.18573982969E+02  0.19881872790E+01  0.18831519031E+02  0.51100000000E-03 0. -1.
        -11    1    3    3    0    0  0.66584774004E+01  0.10244548012E+02  0.68309861795E+01  0.13998159083E+02  0.51100000000E-03 0.  1.
        -12    1    3    3    0    0 -0.23376943597E+02 -0.31877439191E+02  0.28352173919E+01  0.39631945183E+02  0.00000000000E+00 0.  1.
</event>
<event>
 7    1  0.1358622E-013  0.7246155E+02  0.7816164E-02  0.1226708E+00
        -11   -1    0    0    0    0  0.00000000000E+00  0.00000000000E+00  0.45593999997E+02  0.45594000000E+02  0.51100000000E-03 0. -1.
         11   -1    0    0    0    0 -0.00000000000E+00 -0.00000000000E+00 -0.45593999997E+02  0.45594000000E+02  0.51100000000E-03 0.  1.
    9900012    2    1    2    0    0 -0.23042746382E+00 -0.16958161728E+02 -0.79402497969E+01  0.72461550448E+02  0.69999974146E+02 0.  0.
        -12    1    1    2    0    0  0.23042746382E+00  0.16958161728E+02  0.79402497969E+01  0.18726449552E+02  0.00000000000E+00 0.  1.
         11    1    3    3    0    0 -0.29147101275E+00 -0.47882379224E+01  0.57865156616E+01  0.75163782180E+01  0.51100000000E-03 0. -1.
        -11    1    3    3    0    0 -0.17256774141E+02  0.10193496943E+02  0.14691128280E+02  0.24850208934E+02  0.51100000000E-03 0.  1.
         12    1    3    3    0    0  0.17317817690E+02 -0.22363420748E+02 -0.28417893739E+02  0.40094963295E+02  0.00000000000E+00 0. -1.
</event>
<event>
 7    1  0.1358622E-013  0.7246155E+02  0.7816164E-02  0.1226708E+00
        -11   -1    0    0    0    0  0.00000000000E+00  0.00000000000E+00  0.45593999997E+02  0.45594000000E+02  0.51100000000E-03 0.  1.
         11   -1    0    0    0    0 -0.00000000000E+00 -0.00000000000E+00 -0.45593999997E+02  0.45594000000E+02  0.51100000000E-03 0. -1.
    9900012    2    1    2    0    0  0.11896870811E+02  0.11354326130E+02 -0.89567583091E+01  0.72461554092E+02  0.69999978893E+02 0.  0.
        -12    1    1    2    0    0 -0.11896870811E+02 -0.11354326130E+02  0.89567583091E+01  0.18726445908E+02  0.00000000000E+00 0.  1.
         11    1    3    3    0    0  0.18344202051E+02  0.47589579607E+00  0.69613976354E+01  0.19626443463E+02  0.51100000000E-03 0. -1.
        -11    1    3    3    0    0 -0.16599538326E+02  0.17660139060E+02  0.83778946443E+01  0.25643991561E+02  0.51100000000E-03 0.  1.
         12    1    3    3    0    0  0.10152207085E+02 -0.67817087268E+01 -0.24296050589E+02  0.27191119068E+02  0.00000000000E+00 0. -1.
</event>
<event>
 7    1  0.1358622E-013  0.7246148E+02  0.7816164E-02  0.1226708E+00
        -11   -1    0    0    0    0  0.00000000000E+00  0.00000000000E+00  0.45593999997E+02  0.45594000000E+02  0.51100000000E-03 0.  1.
         11   -1    0    0    0    0 -0.00000000000E+00 -0.00000000000E+00 -0.45593999997E+02  0.45594000000E+02  0.51100000000E-03 0. -1.
    9900012    2    1    2    0    0  0.77475890042E+01  0.14989333067E+02 -0.81226404566E+01  0.72461480592E+02  0.69999883146E+02 0.  0.
        -12    1    1    2    0    0 -0.77475890042E+01 -0.14989333067E+02  0.81226404566E+01  0.18726519408E+02  0.00000000000E+00 0.  1.
         11    1    3    3    0    0  0.14750598939E+02  0.26725817403E+02 -0.13450716752E+02  0.33358226367E+02  0.51100000000E-03 0. -1.
        -11    1    3    3    0    0  0.53551483660E+01  0.11281274088E+02  0.25861582042E+00  0.12490462020E+02  0.51100000000E-03 0.  1.
        -12    1    3    3    0    0 -0.12358158300E+02 -0.23017758424E+02  0.50694604753E+01  0.26612792205E+02  0.00000000000E+00 0.  1.
</event>
<event>
 7    1  0.1358622E-013  0.7246159E+02  0.7816164E-02  0.1226708E+00
        -11   -1    0    0    0    0  0.00000000000E+00  0.00000000000E+00  0.45593999997E+02  0.45594000000E+02  0.51100000000E-03 0. -1.
         11   -1    0    0    0    0 -0.00000000000E+00 -0.00000000000E+00 -0.45593999997E+02  0.45594000000E+02  0.51100000000E-03 0.  1.
    9900012    2    1    2    0    0  0.12657260883E+02 -0.27187337487E+01  0.13530724231E+02  0.72461594459E+02  0.70000031480E+02 0.  0.
        -12    1    1    2    0    0 -0.12657260883E+02  0.27187337487E+01 -0.13530724231E+02  0.18726405541E+02  0.00000000000E+00 0.  1.
         11    1    3    3    0    0 -0.20948875208E+02 -0.27086897868E+01  0.51362775747E+01  0.21738760784E+02  0.51100000000E-03 0. -1.
        -11    1    3    3    0    0 -0.78769759800E+01 -0.13982030676E+01 -0.12853874791E+01  0.81027121163E+01  0.51100000000E-03 0.  1.
        -12    1    3    3    0    0  0.41483112071E+02  0.13881591058E+01  0.96798341352E+01  0.42620121559E+02  0.00000000000E+00 0.  1.
</event>
<event>
 7    1  0.1358622E-013  0.7246154E+02  0.7816164E-02  0.1226708E+00
        -11   -1    0    0    0    0  0.00000000000E+00  0.00000000000E+00  0.45593999997E+02  0.45594000000E+02  0.51100000000E-03 0.  1.
         11   -1    0    0    0    0 -0.00000000000E+00 -0.00000000000E+00 -0.45593999997E+02  0.45594000000E+02  0.51100000000E-03 0. -1.
    9900012    2    1    2    0    0  0.12879600122E+02 -0.60557711010E+01 -0.12170621117E+02  0.72461535270E+02  0.69999954374E+02 0.  0.
        -12    1    1    2    0    0 -0.12879600122E+02  0.60557711010E+01  0.12170621117E+02  0.18726464730E+02  0.00000000000E+00 0.  1.
         11    1    3    3    0    0 -0.40633315739E+01  0.43448436381E+00 -0.49185369264E+01  0.63946419680E+01  0.51100000000E-03 0. -1.
        -11    1    3    3    0    0 -0.19831120510E+02  0.11364449307E+02 -0.10308017823E+02  0.25073477629E+02  0.51100000000E-03 0.  1.
         12    1    3    3    0    0  0.36774052206E+02 -0.17854704772E+02  0.30559336325E+01  0.40993415672E+02  0.00000000000E+00 0. -1.
</event>
<event>
 7    1  0.1373320E-013  0.7246154E+02  0.7816164E-02  0.1226708E+00
        -11   -1    0    0    0    0  0.00000000000E+00  0.00000000000E+00  0.45593999997E+02  0.45594000000E+02  0.51100000000E-03 0. -1.
         11   -1    0    0    0    0 -0.00000000000E+00 -0.00000000000E+00 -0.45593999997E+02  0.45594000000E+02  0.51100000000E-03 0.  1.
    9900012    2    1    2    0    0 -0.73399275838E+01  0.75976637190E+01  0.15462255069E+02  0.72461538435E+02  0.69999958497E+02 0.  0.
        -12    1    1    2    0    0  0.73399275838E+01 -0.75976637190E+01 -0.15462255069E+02  0.18726461565E+02  0.00000000000E+00 0.  1.
         11    1    3    3    0    0  0.59614048822E+01  0.89881247856E+01  0.23434236222E+02  0.25797057252E+02  0.51100000000E-03 0. -1.
        -11    1    3    3    0    0 -0.99420277741E+01  0.15959833433E+02  0.10136696992E+02  0.21361479950E+02  0.51100000000E-03 0.  1.
        -12    1    3    3    0    0 -0.33593046918E+01 -0.17350294500E+02 -0.18108678144E+02  0.25303001233E+02  0.00000000000E+00 0.  1.
</event>
<event>
 7    1  0.1358622E-013  0.7246156E+02  0.7816164E-02  0.1226708E+00
        -11   -1    0    0    0    0  0.00000000000E+00  0.00000000000E+00  0.45593999997E+02  0.45594000000E+02  0.51100000000E-03 0. -1.
         11   -1    0    0    0    0 -0.00000000000E+00 -0.00000000000E+00 -0.45593999997E+02  0.45594000000E+02  0.51100000000E-03 0.  1.
    9900012    2    1    2    0    0 -0.11574067179E+02 -0.12182453515E+02 -0.82648812025E+01  0.72461562378E+02  0.69999989688E+02 0.  0.
        -12    1    1    2    0    0  0.11574067179E+02  0.12182453515E+02  0.82648812025E+01  0.18726437622E+02  0.00000000000E+00 0.  1.
         11    1    3    3    0    0 -0.20041251716E+02 -0.12988668799E+02  0.62833041870E+01  0.24694882047E+02  0.51100000000E-03 0. -1.
        -11    1    3    3    0    0 -0.14336320748E+02  0.25194173556E+01 -0.19534759376E+02  0.24361534856E+02  0.51100000000E-03 0.  1.
         12    1    3    3    0    0  0.22803505285E+02 -0.17132020717E+01  0.49865739868E+01  0.23405145476E+02  0.00000000000E+00 0. -1.
</event>
<event>
 7    1  0.1358622E-013  0.7246157E+02  0.7816164E-02  0.1226708E+00
        -11   -1    0    0    0    0  0.00000000000E+00  0.00000000000E+00  0.45593999997E+02  0.45594000000E+02  0.51100000000E-03 0.  1.
         11   -1    0    0    0    0 -0.00000000000E+00 -0.00000000000E+00 -0.45593999997E+02  0.45594000000E+02  0.51100000000E-03 0. -1.
    9900012    2    1    2    0    0  0.11768661179E+02  0.33783801515E+01 -0.14169130343E+02  0.72461572336E+02  0.70000002659E+02 0.  0.
        -12    1    1    2    0    0 -0.11768661179E+02 -0.33783801515E+01  0.14169130343E+02  0.18726427664E+02  0.00000000000E+00 0.  1.
         11    1    3    3    0    0  0.26063841335E+02  0.16977771690E+02 -0.51252424578E+01  0.31525175134E+02  0.51100000000E-03 0. -1.
        -11    1    3    3    0    0  0.10434342984E+02  0.19862127794E+01 -0.35053138567E+01  0.11185158926E+02  0.51100000000E-03 0.  1.
        -12    1    3    3    0    0 -0.24729523140E+02 -0.15585604318E+02 -0.55385740287E+01  0.29751238276E+02  0.00000000000E+00 0.  1.
</event>
<event>
 7    1  0.1358622E-013  0.7246160E+02  0.7816164E-02  0.1226708E+00
        -11   -1    0    0    0    0  0.00000000000E+00  0.00000000000E+00  0.45593999997E+02  0.45594000000E+02  0.51100000000E-03 0.  1.
         11   -1    0    0    0    0 -0.00000000000E+00 -0.00000000000E+00 -0.45593999997E+02  0.45594000000E+02  0.51100000000E-03 0. -1.
    9900012    2    1    2    0    0 -0.14329284906E+02 -0.12167387350E+01 -0.11994551395E+02  0.72461598257E+02  0.70000036427E+02 0.  0.
        -12    1    1    2    0    0  0.14329284906E+02  0.12167387350E+01  0.11994551395E+02  0.18726401743E+02  0.00000000000E+00 0.  1.
         11    1    3    3    0    0  0.87567683144E+01 -0.94582787595E+01  0.17639755910E+02  0.21847219897E+02  0.51100000000E-03 0. -1.
        -11    1    3    3    0    0 -0.91566671278E+01 -0.12834593634E+02 -0.11664635897E+02  0.19612115580E+02  0.51100000000E-03 0.  1.
         12    1    3    3    0    0 -0.13929386093E+02  0.21076133659E+02 -0.17969671409E+02  0.31002262780E+02  0.00000000000E+00 0. -1.
</event>
<event>
 7    1  0.1358622E-013  0.7246189E+02  0.7816164E-02  0.1226707E+00
        -11   -1    0    0    0    0  0.00000000000E+00  0.00000000000E+00  0.45593999997E+02  0.45594000000E+02  0.51100000000E-03 0.  1.
         11   -1    0    0    0    0 -0.00000000000E+00 -0.00000000000E+00 -0.45593999997E+02  0.45594000000E+02  0.51100000000E-03 0. -1.
    9900012    2    1    2    0    0  0.15476010484E+01  0.11085071508E+02 -0.15013099523E+02  0.72461894248E+02  0.70000422009E+02 0.  0.
        -12    1    1    2    0    0 -0.15476010484E+01 -0.11085071508E+02  0.15013099523E+02  0.18726105752E+02  0.00000000000E+00 0.  1.
         11    1    3    3    0    0 -0.21592460999E+02  0.83400829643E+01  0.40940322377E+01  0.23506434355E+02  0.51100000000E-03 0. -1.
        -11    1    3    3    0    0 -0.82472811144E+01  0.89956254473E+01 -0.11499776330E+01  0.12258114528E+02  0.51100000000E-03 0.  1.
        -12    1    3    3    0    0  0.31387343162E+02 -0.62506369037E+01 -0.17957154128E+02  0.36697345365E+02  0.00000000000E+00 0.  1.
</event>
<event>
 7    1  0.1358622E-013  0.7246160E+02  0.7816164E-02  0.1226708E+00
        -11   -1    0    0    0    0  0.00000000000E+00  0.00000000000E+00  0.45593999997E+02  0.45594000000E+02  0.51100000000E-03 0.  1.
         11   -1    0    0    0    0 -0.00000000000E+00 -0.00000000000E+00 -0.45593999997E+02  0.45594000000E+02  0.51100000000E-03 0. -1.
    9900012    2    1    2    0    0 -0.15782289890E+02  0.66914929186E+01  0.75379950826E+01  0.72461598277E+02  0.70000036452E+02 0.  0.
        -12    1    1    2    0    0  0.15782289890E+02 -0.66914929186E+01 -0.75379950826E+01  0.18726401723E+02  0.00000000000E+00 0.  1.
         11    1    3    3    0    0  0.54131180322E+01  0.29587746833E+02 -0.33480950830E+01  0.30264605572E+02  0.51100000000E-03 0. -1.
        -11    1    3    3    0    0 -0.11343095234E+02  0.31127872933E+01 -0.12957420730E+01  0.11833604776E+02  0.51100000000E-03 0.  1.
        -12    1    3    3    0    0 -0.98523126876E+01 -0.26009041207E+02  0.12181832239E+02  0.30363387929E+02  0.00000000000E+00 0.  1.
</event>
<event>
 7    1  0.1358622E-013  0.7246156E+02  0.7816164E-02  0.1226708E+00
        -11   -1    0    0    0    0  0.00000000000E+00  0.00000000000E+00  0.45593999997E+02  0.45594000000E+02  0.51100000000E-03 0.  1.
         11   -1    0    0    0    0 -0.00000000000E+00 -0.00000000000E+00 -0.45593999997E+02  0.45594000000E+02  0.51100000000E-03 0. -1.
    9900012    2    1    2    0    0  0.75568718870E+01  0.14871758853E+02 -0.85090539656E+01  0.72461560843E+02  0.69999987688E+02 0.  0.
        -12    1    1    2    0    0 -0.75568718870E+01 -0.14871758853E+02  0.85090539656E+01  0.18726439157E+02  0.00000000000E+00 0.  1.
         11    1    3    3    0    0 -0.18077610529E+02  0.30208804044E+01 -0.10445410669E+02  0.21095789276E+02  0.51100000000E-03 0. -1.
        -11    1    3    3    0    0  0.61579270429E+01 -0.15615883191E+02  0.51060012084E+01  0.17545572715E+02  0.51100000000E-03 0.  1.
        -12    1    3    3    0    0  0.19476555373E+02  0.27466761639E+02 -0.31696445049E+01  0.33820198853E+02  0.00000000000E+00 0.  1.
</event>
<event>
 7    1  0.1358622E-013  0.7246158E+02  0.7816164E-02  0.1226708E+00
        -11   -1    0    0    0    0  0.00000000000E+00  0.00000000000E+00  0.45593999997E+02  0.45594000000E+02  0.51100000000E-03 0.  1.
         11   -1    0    0    0    0 -0.00000000000E+00 -0.00000000000E+00 -0.45593999997E+02  0.45594000000E+02  0.51100000000E-03 0. -1.
    9900012    2    1    2    0    0 -0.14217780186E+02  0.30686923558E+01 -0.11794777270E+02  0.72461577035E+02  0.70000008781E+02 0.  0.
        -12    1    1    2    0    0  0.14217780186E+02 -0.30686923558E+01  0.11794777270E+02  0.18726422965E+02  0.00000000000E+00 0.  1.
         11    1    3    3    0    0 -0.14102260736E+02  0.76900941841E+01 -0.11651494477E+02  0.19843604265E+02  0.51100000000E-03 0. -1.
        -11    1    3    3    0    0 -0.11917910457E+02  0.20398450051E+02  0.57921732528E+01  0.24324527239E+02  0.51100000000E-03 0.  1.
        -12    1    3    3    0    0  0.11802391007E+02 -0.25019851880E+02 -0.59354560456E+01  0.28293445531E+02  0.00000000000E+00 0.  1.
</event>
<event>
 7    1  0.1358622E-013  0.7246157E+02  0.7816164E-02  0.1226708E+00
        -11   -1    0    0    0    0  0.00000000000E+00  0.00000000000E+00  0.45593999997E+02  0.45594000000E+02  0.51100000000E-03 0.  1.
         11   -1    0    0    0    0 -0.00000000000E+00 -0.00000000000E+00 -0.45593999997E+02  0.45594000000E+02  0.51100000000E-03 0. -1.
    9900012    2    1    2    0    0 -0.17756944438E+02  0.49058381749E+01  0.33619661904E+01  0.72461571066E+02  0.70000001005E+02 0.  0.
        -12    1    1    2    0    0  0.17756944438E+02 -0.49058381749E+01 -0.33619661904E+01  0.18726428934E+02  0.00000000000E+00 0.  1.
         11    1    3    3    0    0  0.10248194200E+02  0.32363536812E+01 -0.11877308386E+02  0.16017800232E+02  0.51100000000E-03 0.  1.
        -11    1    3    3    0    0 -0.24984597812E+02 -0.17435426015E+02  0.20100463892E+02  0.36500039138E+02  0.51100000000E-03 0. -1.
         12    1    3    3    0    0 -0.30205408259E+01  0.19104910508E+02 -0.48611893153E+01  0.19943731696E+02  0.00000000000E+00 0. -1.
</event>
<event>
 7    1  0.1358622E-013  0.7246157E+02  0.7816164E-02  0.1226708E+00
        -11   -1    0    0    0    0  0.00000000000E+00  0.00000000000E+00  0.45593999997E+02  0.45594000000E+02  0.51100000000E-03 0. -1.
         11   -1    0    0    0    0 -0.00000000000E+00 -0.00000000000E+00 -0.45593999997E+02  0.45594000000E+02  0.51100000000E-03 0.  1.
    9900012    2    1    2    0    0 -0.60174826876E+01  0.82761965056E+01  0.15683543804E+02  0.72461572879E+02  0.70000003366E+02 0.  0.
        -12    1    1    2    0    0  0.60174826876E+01 -0.82761965056E+01 -0.15683543804E+02  0.18726427121E+02  0.00000000000E+00 0.  1.
         11    1    3    3    0    0  0.28333271216E+02  0.22900949809E+01 -0.29493872526E+01  0.28578272835E+02  0.51100000000E-03 0. -1.
        -11    1    3    3    0    0  0.14942101982E+01 -0.21923162502E+01 -0.26409029537E-01  0.26532267818E+01  0.51100000000E-03 0.  1.
        -12    1    3    3    0    0 -0.35844964102E+02  0.81784177749E+01  0.18659340086E+02  0.41230073262E+02  0.00000000000E+00 0.  1.
</event>
<event>
 7    1  0.1358622E-013  0.7246149E+02  0.7816164E-02  0.1226708E+00
        -11   -1    0    0    0    0  0.00000000000E+00  0.00000000000E+00  0.45593999997E+02  0.45594000000E+02  0.51100000000E-03 0. -1.
         11   -1    0    0    0    0 -0.00000000000E+00 -0.00000000000E+00 -0.45593999997E+02  0.45594000000E+02  0.51100000000E-03 0.  1.
    9900012    2    1    2    0    0 -0.12296074880E+02  0.30736531873E+01  0.13785553468E+02  0.72461487089E+02  0.69999891610E+02 0.  0.
        -12    1    1    2    0    0  0.12296074880E+02 -0.30736531873E+01 -0.13785553468E+02  0.18726512911E+02  0.00000000000E+00 0.  1.
         11    1    3    3    0    0 -0.26071239232E+02  0.59067853801E+01  0.97103506865E+01  0.28441001025E+02  0.51100000000E-03 0. -1.
        -11    1    3    3    0    0 -0.93385713956E+01 -0.10761140711E+02 -0.84462517047E+01  0.16563521160E+02  0.51100000000E-03 0.  1.
         12    1    3    3    0    0  0.23113735747E+02  0.79280085179E+01  0.12521454486E+02  0.27456964903E+02  0.00000000000E+00 0. -1.
</event>
<event>
 7    1  0.1358622E-013  0.7246159E+02  0.7816164E-02  0.1226708E+00
        -11   -1    0    0    0    0  0.00000000000E+00  0.00000000000E+00  0.45593999997E+02  0.45594000000E+02  0.51100000000E-03 0. -1.
         11   -1    0    0    0    0 -0.00000000000E+00 -0.00000000000E+00 -0.45593999997E+02  0.45594000000E+02  0.51100000000E-03 0.  1.
    9900012    2    1    2    0    0 -0.11276729067E+02  0.12371532082E+02 -0.83939854861E+01  0.72461590391E+02  0.70000026179E+02 0.  0.
        -12    1    1    2    0    0  0.11276729067E+02 -0.12371532082E+02  0.83939854861E+01  0.18726409609E+02  0.00000000000E+00 0.  1.
         11    1    3    3    0    0 -0.53007743519E+01  0.34056096704E+01 -0.14141134291E+02  0.15481216530E+02  0.51100000000E-03 0. -1.
        -11    1    3    3    0    0  0.12873757498E+02 -0.33174456939E+01 -0.19221135521E+02  0.23370732317E+02  0.51100000000E-03 0.  1.
         12    1    3    3    0    0 -0.18849712213E+02  0.12283368106E+02  0.24968284326E+02  0.33609641544E+02  0.00000000000E+00 0. -1.
</event>
<event>
 7    1  0.1358622E-013  0.7246151E+02  0.7816164E-02  0.1226708E+00
        -11   -1    0    0    0    0  0.00000000000E+00  0.00000000000E+00  0.45593999997E+02  0.45594000000E+02  0.51100000000E-03 0.  1.
         11   -1    0    0    0    0 -0.00000000000E+00 -0.00000000000E+00 -0.45593999997E+02  0.45594000000E+02  0.51100000000E-03 0. -1.
    9900012    2    1    2    0    0 -0.47271785999E+01  0.22159502087E+01 -0.17984011632E+02  0.72461512683E+02  0.69999924951E+02 0.  0.
        -12    1    1    2    0    0  0.47271785999E+01 -0.22159502087E+01  0.17984011632E+02  0.18726487317E+02  0.00000000000E+00 0.  1.
         11    1    3    3    0    0 -0.17940598711E+02  0.29605230678E+02 -0.10008494941E+02  0.36034771220E+02  0.51100000000E-03 0. -1.
        -11    1    3    3    0    0 -0.30351546023E+01 -0.55575865254E+01  0.30929105170E+01  0.70473418517E+01  0.51100000000E-03 0.  1.
        -12    1    3    3    0    0  0.16248574713E+02 -0.21831693944E+02 -0.11068427208E+02  0.29379399612E+02  0.00000000000E+00 0.  1.
</event>
<event>
 7    1  0.1358622E-013  0.7246152E+02  0.7816164E-02  0.1226708E+00
        -11   -1    0    0    0    0  0.00000000000E+00  0.00000000000E+00  0.45593999997E+02  0.45594000000E+02  0.51100000000E-03 0.  1.
         11   -1    0    0    0    0 -0.00000000000E+00 -0.00000000000E+00 -0.45593999997E+02  0.45594000000E+02  0.51100000000E-03 0. -1.
    9900012    2    1    2    0    0  0.29129036423E+01 -0.14122147805E+02 -0.11948258981E+02  0.72461522517E+02  0.69999937761E+02 0.  0.
        -12    1    1    2    0    0 -0.29129036423E+01  0.14122147805E+02  0.11948258981E+02  0.18726477483E+02  0.00000000000E+00 0.  1.
         11    1    3    3    0    0 -0.20100363037E+02  0.30050481791E+00 -0.28214820261E+02  0.34643772600E+02  0.51100000000E-03 0. -1.
        -11    1    3    3    0    0 -0.33310466745E+01  0.14044821962E+00 -0.48472465958E+00  0.33690586084E+01  0.51100000000E-03 0.  1.
        -12    1    3    3    0    0  0.26344313353E+02 -0.14563100843E+02  0.16751285940E+02  0.34448691308E+02  0.00000000000E+00 0.  1.
</event>
<event>
 7    1  0.1358622E-013  0.7246157E+02  0.7816164E-02  0.1226708E+00
        -11   -1    0    0    0    0  0.00000000000E+00  0.00000000000E+00  0.45593999997E+02  0.45594000000E+02  0.51100000000E-03 0. -1.
         11   -1    0    0    0    0 -0.00000000000E+00 -0.00000000000E+00 -0.45593999997E+02  0.45594000000E+02  0.51100000000E-03 0.  1.
    9900012    2    1    2    0    0  0.18649371957E+01 -0.21371265146E+01  0.18510370817E+02  0.72461571396E+02  0.70000001435E+02 0.  0.
        -12    1    1    2    0    0 -0.18649371957E+01  0.21371265146E+01 -0.18510370817E+02  0.18726428604E+02  0.00000000000E+00 0.  1.
         11    1    3    3    0    0 -0.11479341472E+02 -0.15150915158E+02  0.13499624679E+02  0.23314488574E+02  0.51100000000E-03 0. -1.
        -11    1    3    3    0    0 -0.79824244070E+01  0.11344511172E+02 -0.14591092117E+02  0.20132486249E+02  0.51100000000E-03 0.  1.
         12    1    3    3    0    0  0.21326703075E+02  0.16692774708E+01  0.19601838255E+02  0.29014596572E+02  0.00000000000E+00 0. -1.
</event>
<event>
 7    1  0.1358622E-013  0.7246159E+02  0.7816164E-02  0.1226708E+00
        -11   -1    0    0    0    0  0.00000000000E+00  0.00000000000E+00  0.45593999997E+02  0.45594000000E+02  0.51100000000E-03 0.  1.
         11   -1    0    0    0    0 -0.00000000000E+00 -0.00000000000E+00 -0.45593999997E+02  0.45594000000E+02  0.51100000000E-03 0. -1.
    9900012    2    1    2    0    0  0.22389570831E+01  0.11616967379E+02 -0.14515910799E+02  0.72461587470E+02  0.70000022375E+02 0.  0.
        -12    1    1    2    0    0 -0.22389570831E+01 -0.11616967379E+02  0.14515910799E+02  0.18726412530E+02  0.00000000000E+00 0.  1.
         11    1    3    3    0    0  0.10928196617E+01  0.58415268693E+01 -0.68306820425E+01  0.90540548046E+01  0.51100000000E-03 0. -1.
        -11    1    3    3    0    0  0.28837970815E+02  0.16486788311E+02 -0.30691773117E+01  0.33359595309E+02  0.51100000000E-03 0.  1.
        -12    1    3    3    0    0 -0.27691833394E+02 -0.10711347801E+02 -0.46160514450E+01  0.30047937356E+02  0.00000000000E+00 0.  1.
</event>
<event>
 7    1  0.1358622E-013  0.7246155E+02  0.7816164E-02  0.1226708E+00
        -11   -1    0    0    0    0  0.00000000000E+00  0.00000000000E+00  0.45593999997E+02  0.45594000000E+02  0.51100000000E-03 0. -1.
         11   -1    0    0    0    0 -0.00000000000E+00 -0.00000000000E+00 -0.45593999997E+02  0.45594000000E+02  0.51100000000E-03 0.  1.
    9900012    2    1    2    0    0  0.15513552628E+02 -0.66449831316E+01  0.81150397770E+01  0.72461548480E+02  0.69999971582E+02 0.  0.
        -12    1    1    2    0    0 -0.15513552628E+02  0.66449831316E+01 -0.81150397770E+01  0.18726451520E+02  0.00000000000E+00 0.  1.
         11    1    3    3    0    0 -0.10660730625E+02  0.61930463073E+01 -0.44788416438E+01  0.13117355784E+02  0.51100000000E-03 0. -1.
        -11    1    3    3    0    0 -0.85866945434E+01  0.69261858158E+01 -0.86920349405E+01  0.14044744384E+02  0.51100000000E-03 0.  1.
         12    1    3    3    0    0  0.34760977797E+02 -0.19764215255E+02  0.21285916361E+02  0.45299448312E+02  0.00000000000E+00 0. -1.
</event>
<event>
 7    1  0.1358622E-013  0.7246153E+02  0.7816164E-02  0.1226708E+00
        -11   -1    0    0    0    0  0.00000000000E+00  0.00000000000E+00  0.45593999997E+02  0.45594000000E+02  0.51100000000E-03 0. -1.
         11   -1    0    0    0    0 -0.00000000000E+00 -0.00000000000E+00 -0.45593999997E+02  0.45594000000E+02  0.51100000000E-03 0.  1.
    9900012    2    1    2    0    0  0.66294939476E+01 -0.29309234621E+00  0.17511265728E+02  0.72461534222E+02  0.69999953009E+02 0.  0.
        -12    1    1    2    0    0 -0.66294939476E+01  0.29309234621E+00 -0.17511265728E+02  0.18726465778E+02  0.00000000000E+00 0.  1.
         11    1    3    3    0    0  0.19330340363E+02  0.27519067159E+02  0.22104929895E+02  0.40244118102E+02  0.51100000000E-03 0. -1.
        -11    1    3    3    0    0 -0.19023327784E+00 -0.17411540614E+00 -0.17252301508E+01  0.17443979503E+01  0.51100000000E-03 0.  1.
        -12    1    3    3    0    0 -0.12510613137E+02 -0.27638044099E+02 -0.28684340159E+01  0.30473018170E+02  0.00000000000E+00 0.  1.
</event>
<event>
 7    1  0.1358622E-013  0.7246154E+02  0.7816164E-02  0.1226708E+00
        -11   -1    0    0    0    0  0.00000000000E+00  0.00000000000E+00  0.45593999997E+02  0.45594000000E+02  0.51100000000E-03 0.  1.
         11   -1    0    0    0    0 -0.00000000000E+00 -0.00000000000E+00 -0.45593999997E+02  0.45594000000E+02  0.51100000000E-03 0. -1.
    9900012    2    1    2    0    0  0.10225400762E+02 -0.15688140322E+02  0.62097866069E-01  0.72461536809E+02  0.69999956379E+02 0.  0.
        -12    1    1    2    0    0 -0.10225400762E+02  0.15688140322E+02 -0.62097866069E-01  0.18726463191E+02  0.00000000000E+00 0.  1.
         11    1    3    3    0    0 -0.10510563931E+02  0.52082933347E+01  0.51652424852E+01  0.12817098103E+02  0.51100000000E-03 0. -1.
        -11    1    3    3    0    0 -0.74301238052E+01  0.11430554007E+02  0.66755660930E+01  0.15179838194E+02  0.51100000000E-03 0.  1.
         12    1    3    3    0    0  0.28166088497E+02 -0.32326987664E+02 -0.11778710712E+02  0.44464600512E+02  0.00000000000E+00 0. -1.
</event>
<event>
 7    1  0.1358622E-013  0.7246159E+02  0.7816164E-02  0.1226708E+00
        -11   -1    0    0    0    0  0.00000000000E+00  0.00000000000E+00  0.45593999997E+02  0.45594000000E+02  0.51100000000E-03 0. -1.
         11   -1    0    0    0    0 -0.00000000000E+00 -0.00000000000E+00 -0.45593999997E+02  0.45594000000E+02  0.51100000000E-03 0.  1.
    9900012    2    1    2    0    0 -0.14124944137E+02 -0.10603008443E+02  0.62241959432E+01  0.72461589504E+02  0.70000025024E+02 0.  0.
        -12    1    1    2    0    0  0.14124944137E+02  0.10603008443E+02 -0.62241959432E+01  0.18726410496E+02  0.00000000000E+00 0.  1.
         11    1    3    3    0    0 -0.52489669417E+01  0.32760674468E+00  0.67669807867E+01  0.85703564315E+01  0.51100000000E-03 0. -1.
        -11    1    3    3    0    0 -0.12552472194E+02 -0.35976542617E+02  0.34686292790E+01  0.38261045022E+02  0.51100000000E-03 0.  1.
         12    1    3    3    0    0  0.36764949984E+01  0.25045927429E+02 -0.40114141224E+01  0.25630188051E+02  0.00000000000E+00 0. -1.
</event>
<event>
 7    1  0.1358622E-013  0.7246157E+02  0.7816164E-02  0.1226708E+00
        -11   -1    0    0    0    0  0.00000000000E+00  0.00000000000E+00  0.45593999997E+02  0.45594000000E+02  0.51100000000E-03 0. -1.
         11   -1    0    0    0    0 -0.00000000000E+00 -0.00000000000E+00 -0.45593999997E+02  0.45594000000E+02  0.51100000000E-03 0.  1.
    9900012    2    1    2    0    0  0.11915443964E+02  0.13266819292E+02  0.57177569364E+01  0.72461573662E+02  0.70000004387E+02 0.  0.
        -12    1    1    2    0    0 -0.11915443964E+02 -0.13266819292E+02 -0.57177569364E+01  0.18726426338E+02  0.00000000000E+00 0.  1.
         11    1    3    3    0    0  0.17538656889E+02  0.82690740920E+01  0.19113046249E+02  0.27226652548E+02  0.51100000000E-03 0. -1.
        -11    1    3    3    0    0 -0.13883361394E+02  0.19143834513E+02  0.64972396573E+00  0.23657055289E+02  0.51100000000E-03 0.  1.
         12    1    3    3    0    0  0.82601484685E+01 -0.14146089313E+02 -0.14045013278E+02  0.21577865825E+02  0.00000000000E+00 0. -1.
</event>
<event>
 7    1  0.1358622E-013  0.7246156E+02  0.7816164E-02  0.1226708E+00
        -11   -1    0    0    0    0  0.00000000000E+00  0.00000000000E+00  0.45593999997E+02  0.45594000000E+02  0.51100000000E-03 0.  1.
         11   -1    0    0    0    0 -0.00000000000E+00 -0.00000000000E+00 -0.45593999997E+02  0.45594000000E+02  0.51100000000E-03 0. -1.
    9900012    2    1    2    0    0  0.51506600454E+01 -0.16737879215E+01 -0.17926202553E+02  0.72461558724E+02  0.69999984927E+02 0.  0.
        -12    1    1    2    0    0 -0.51506600454E+01  0.16737879215E+01  0.17926202553E+02  0.18726441276E+02  0.00000000000E+00 0.  1.
         11    1    3    3    0    0  0.43946223948E-02  0.76266115839E-01 -0.56624697091E+01  0.56629850168E+01  0.51100000000E-03 0. -1.
        -11    1    3    3    0    0  0.86614936589E+01  0.20663846191E+02 -0.30391558131E+02  0.37757950390E+02  0.51100000000E-03 0.  1.
         12    1    3    3    0    0 -0.35152282358E+01 -0.22413900228E+02  0.18127825287E+02  0.29040623317E+02  0.00000000000E+00 0. -1.
</event>
<event>
 7    1  0.1358622E-013  0.7246155E+02  0.7816164E-02  0.1226708E+00
        -11   -1    0    0    0    0  0.00000000000E+00  0.00000000000E+00  0.45593999997E+02  0.45594000000E+02  0.51100000000E-03 0. -1.
         11   -1    0    0    0    0 -0.00000000000E+00 -0.00000000000E+00 -0.45593999997E+02  0.45594000000E+02  0.51100000000E-03 0.  1.
    9900012    2    1    2    0    0  0.28282408038E+01  0.13131034641E+02  0.13048251973E+02  0.72461550889E+02  0.69999974721E+02 0.  0.
        -12    1    1    2    0    0 -0.28282408038E+01 -0.13131034641E+02 -0.13048251973E+02  0.18726449111E+02  0.00000000000E+00 0.  1.
         11    1    3    3    0    0  0.32927050414E+02  0.15237200358E+02  0.13008532341E+02  0.38543285248E+02  0.51100000000E-03 0. -1.
        -11    1    3    3    0    0  0.58101887493E+00 -0.19240376349E+01  0.24199110125E+01  0.31457071261E+01  0.51100000000E-03 0.  1.
        -12    1    3    3    0    0 -0.30679828486E+02 -0.18212808259E+00 -0.23801913811E+01  0.30772558515E+02  0.00000000000E+00 0.  1.
</event>
<event>
 7    1  0.1358622E-013  0.7246156E+02  0.7816164E-02  0.1226708E+00
        -11   -1    0    0    0    0  0.00000000000E+00  0.00000000000E+00  0.45593999997E+02  0.45594000000E+02  0.51100000000E-03 0.  1.
         11   -1    0    0    0    0 -0.00000000000E+00 -0.00000000000E+00 -0.45593999997E+02  0.45594000000E+02  0.51100000000E-03 0. -1.
    9900012    2    1    2    0    0 -0.17483061855E+02  0.54005605683E+01 -0.39819423338E+01  0.72461564914E+02  0.69999992992E+02 0.  0.
        -12    1    1    2    0    0  0.17483061855E+02 -0.54005605683E+01  0.39819423338E+01  0.18726435086E+02  0.00000000000E+00 0.  1.
         11    1    3    3    0    0 -0.19333391902E+02 -0.94790447990E+00 -0.15521831885E+01  0.19418749657E+02  0.51100000000E-03 0. -1.
        -11    1    3    3    0    0 -0.22469435137E+02 -0.72748655322E+01 -0.73528440913E+01  0.24735874765E+02  0.51100000000E-03 0.  1.
         12    1    3    3    0    0  0.24319765184E+02  0.13623330580E+02  0.49230849461E+01  0.28306940493E+02  0.00000000000E+00 0. -1.
</event>
<event>
 7    1  0.1358622E-013  0.7246200E+02  0.7816164E-02  0.1226707E+00
        -11   -1    0    0    0    0  0.00000000000E+00  0.00000000000E+00  0.45593999997E+02  0.45594000000E+02  0.51100000000E-03 0. -1.
         11   -1    0    0    0    0 -0.00000000000E+00 -0.00000000000E+00 -0.45593999997E+02  0.45594000000E+02  0.51100000000E-03 0.  1.
    9900012    2    1    2    0    0 -0.54711724365E+01  0.25918571930E+01  0.17720371194E+02  0.72462001848E+02  0.70000562176E+02 0.  0.
        -12    1    1    2    0    0  0.54711724365E+01 -0.25918571930E+01 -0.17720371194E+02  0.18725998152E+02  0.00000000000E+00 0.  1.
         11    1    3    3    0    0  0.12592994161E+01  0.23629637219E+01  0.30761648019E+02  0.30877960128E+02  0.51100000000E-03 0. -1.
        -11    1    3    3    0    0 -0.54602463150E+01 -0.89874143305E+01  0.11353489549E+02  0.15475452542E+02  0.51100000000E-03 0.  1.
        -12    1    3    3    0    0 -0.12702255376E+01  0.92163078017E+01 -0.24394766374E+02  0.26108589178E+02  0.00000000000E+00 0.  1.
</event>
<event>
 7    1  0.1358622E-013  0.7246156E+02  0.7816164E-02  0.1226708E+00
        -11   -1    0    0    0    0  0.00000000000E+00  0.00000000000E+00  0.45593999997E+02  0.45594000000E+02  0.51100000000E-03 0.  1.
         11   -1    0    0    0    0 -0.00000000000E+00 -0.00000000000E+00 -0.45593999997E+02  0.45594000000E+02  0.51100000000E-03 0. -1.
    9900012    2    1    2    0    0  0.63611146977E+01  0.66644661773E+00 -0.17600326094E+02  0.72461563876E+02  0.69999991639E+02 0.  0.
        -12    1    1    2    0    0 -0.63611146977E+01 -0.66644661773E+00  0.17600326094E+02  0.18726436124E+02  0.00000000000E+00 0.  1.
         11    1    3    3    0    0 -0.27596728721E+02  0.33009360516E+01 -0.16760313516E+02  0.32455873495E+02  0.51100000000E-03 0. -1.
        -11    1    3    3    0    0 -0.37028516987E+00  0.46122750975E+01 -0.16476033722E+01  0.49116992798E+01  0.51100000000E-03 0.  1.
        -12    1    3    3    0    0  0.34328128588E+02 -0.72467645314E+01  0.80759079459E+00  0.35093991102E+02  0.00000000000E+00 0.  1.
</event>
<event>
 7    1  0.1358622E-013  0.7246157E+02  0.7816164E-02  0.1226708E+00
        -11   -1    0    0    0    0  0.00000000000E+00  0.00000000000E+00  0.45593999997E+02  0.45594000000E+02  0.51100000000E-03 0.  1.
         11   -1    0    0    0    0 -0.00000000000E+00 -0.00000000000E+00 -0.45593999997E+02  0.45594000000E+02  0.51100000000E-03 0. -1.
    9900012    2    1    2    0    0 -0.16198206574E+02 -0.66906257848E+01 -0.65979326932E+01  0.72461572540E+02  0.70000002925E+02 0.  0.
        -12    1    1    2    0    0  0.16198206574E+02  0.66906257848E+01  0.65979326932E+01  0.18726427460E+02  0.00000000000E+00 0.  1.
         11    1    3    3    0    0 -0.20460218252E+01 -0.22611410240E+02  0.13158537748E+02  0.26241364185E+02  0.51100000000E-03 0. -1.
        -11    1    3    3    0    0  0.11729103380E+02  0.17025447596E+01 -0.28368779062E+01  0.12186812597E+02  0.51100000000E-03 0.  1.
        -12    1    3    3    0    0 -0.25881288129E+02  0.14218239696E+02 -0.16919592535E+02  0.34033395758E+02  0.00000000000E+00 0.  1.
</event>
<event>
 7    1  0.1358622E-013  0.7246159E+02  0.7816164E-02  0.1226708E+00
        -11   -1    0    0    0    0  0.00000000000E+00  0.00000000000E+00  0.45593999997E+02  0.45594000000E+02  0.51100000000E-03 0. -1.
         11   -1    0    0    0    0 -0.00000000000E+00 -0.00000000000E+00 -0.45593999997E+02  0.45594000000E+02  0.51100000000E-03 0.  1.
    9900012    2    1    2    0    0  0.73874328827E+01 -0.25593289450E+01  0.17016285623E+02  0.72461593360E+02  0.70000030047E+02 0.  0.
        -12    1    1    2    0    0 -0.73874328827E+01  0.25593289450E+01 -0.17016285623E+02  0.18726406640E+02  0.00000000000E+00 0.  1.
         11    1    3    3    0    0  0.14703930873E+02 -0.18072598942E+02 -0.58329507981E+01  0.24017654567E+02  0.51100000000E-03 0. -1.
        -11    1    3    3    0    0  0.20605774612E+01  0.19687852397E+02 -0.35574535495E+01  0.20112508235E+02  0.51100000000E-03 0.  1.
         12    1    3    3    0    0 -0.93770754519E+01 -0.41745823996E+01  0.26406689971E+02  0.28331430558E+02  0.00000000000E+00 0. -1.
</event>
<event>
 7    1  0.1358622E-013  0.7246160E+02  0.7816164E-02  0.1226708E+00
        -11   -1    0    0    0    0  0.00000000000E+00  0.00000000000E+00  0.45593999997E+02  0.45594000000E+02  0.51100000000E-03 0.  1.
         11   -1    0    0    0    0 -0.00000000000E+00 -0.00000000000E+00 -0.45593999997E+02  0.45594000000E+02  0.51100000000E-03 0. -1.
    9900012    2    1    2    0    0  0.37749408606E+01  0.17887549431E+02 -0.40575348015E+01  0.72461596400E+02  0.70000034007E+02 0.  0.
        -12    1    1    2    0    0 -0.37749408606E+01 -0.17887549431E+02  0.40575348015E+01  0.18726403600E+02  0.00000000000E+00 0.  1.
         11    1    3    3    0    0 -0.16712588478E+01  0.23263591534E+02 -0.52065861864E+01  0.23897621998E+02  0.51100000000E-03 0. -1.
        -11    1    3    3    0    0 -0.10553962175E+02  0.83902314378E+01 -0.16317461167E+02  0.21166994127E+02  0.51100000000E-03 0.  1.
        -12    1    3    3    0    0  0.16000161883E+02 -0.13766273541E+02  0.17466512552E+02  0.27396980275E+02  0.00000000000E+00 0.  1.
</event>
<event>
 7    1  0.1358622E-013  0.7246155E+02  0.7816164E-02  0.1226708E+00
        -11   -1    0    0    0    0  0.00000000000E+00  0.00000000000E+00  0.45593999997E+02  0.45594000000E+02  0.51100000000E-03 0.  1.
         11   -1    0    0    0    0 -0.00000000000E+00 -0.00000000000E+00 -0.45593999997E+02  0.45594000000E+02  0.51100000000E-03 0. -1.
    9900012    2    1    2    0    0  0.66319556776E+01 -0.26608516472E+00 -0.17510745253E+02  0.72461552479E+02  0.69999976793E+02 0.  0.
        -12    1    1    2    0    0 -0.66319556776E+01  0.26608516472E+00  0.17510745253E+02  0.18726447521E+02  0.00000000000E+00 0.  1.
         11    1    3    3    0    0 -0.26188439590E+01  0.16590734851E+01  0.50567093455E+00  0.31411099735E+01  0.51100000000E-03 0. -1.
        -11    1    3    3    0    0  0.92718868452E+01 -0.12901084178E+02  0.22387689408E+02  0.27452039923E+02  0.51100000000E-03 0.  1.
         12    1    3    3    0    0 -0.21087208663E-01  0.10975925528E+02 -0.40404105596E+02  0.41868402583E+02  0.00000000000E+00 0. -1.
</event>
<event>
 7    1  0.1358622E-013  0.7246149E+02  0.7816164E-02  0.1226708E+00
        -11   -1    0    0    0    0  0.00000000000E+00  0.00000000000E+00  0.45593999997E+02  0.45594000000E+02  0.51100000000E-03 0. -1.
         11   -1    0    0    0    0 -0.00000000000E+00 -0.00000000000E+00 -0.45593999997E+02  0.45594000000E+02  0.51100000000E-03 0.  1.
    9900012    2    1    2    0    0  0.85772430030E+00  0.66627961995E-01  0.18706734674E+02  0.72461493320E+02  0.69999899727E+02 0.  0.
        -12    1    1    2    0    0 -0.85772430030E+00 -0.66627961995E-01 -0.18706734674E+02  0.18726506680E+02  0.00000000000E+00 0.  1.
         11    1    3    3    0    0 -0.12591752171E+01  0.19384426077E+01  0.24567766381E+02  0.24676268502E+02  0.51100000000E-03 0. -1.
        -11    1    3    3    0    0 -0.15786907271E+02 -0.13139954852E+02  0.84866659498E+01  0.22224048998E+02  0.51100000000E-03 0.  1.
        -12    1    3    3    0    0  0.17903806788E+02  0.11268140206E+02 -0.14347697657E+02  0.25561175819E+02  0.00000000000E+00 0.  1.
</event>
<event>
 7    1  0.1358622E-013  0.7246158E+02  0.7816164E-02  0.1226708E+00
        -11   -1    0    0    0    0  0.00000000000E+00  0.00000000000E+00  0.45593999997E+02  0.45594000000E+02  0.51100000000E-03 0.  1.
         11   -1    0    0    0    0 -0.00000000000E+00 -0.00000000000E+00 -0.45593999997E+02  0.45594000000E+02  0.51100000000E-03 0. -1.
    9900012    2    1    2    0    0  0.18459760456E+02 -0.20395267162E+00 -0.31423926173E+01  0.72461575244E+02  0.70000006447E+02 0.  0.
        -12    1    1    2    0    0 -0.18459760456E+02  0.20395267162E+00  0.31423926173E+01  0.18726424756E+02  0.00000000000E+00 0.  1.
         11    1    3    3    0    0  0.25634577150E+02  0.12526727599E+02 -0.50879132727E+01  0.28981671997E+02  0.51100000000E-03 0. -1.
        -11    1    3    3    0    0  0.11488234556E+02 -0.22090336268E+00 -0.12335100595E+02  0.16857729339E+02  0.51100000000E-03 0.  1.
        -12    1    3    3    0    0 -0.18663051250E+02 -0.12509776908E+02  0.14280621251E+02  0.26622173907E+02  0.00000000000E+00 0.  1.
</event>
<event>
 7    1  0.1358622E-013  0.7246164E+02  0.7816164E-02  0.1226708E+00
        -11   -1    0    0    0    0  0.00000000000E+00  0.00000000000E+00  0.45593999997E+02  0.45594000000E+02  0.51100000000E-03 0. -1.
         11   -1    0    0    0    0 -0.00000000000E+00 -0.00000000000E+00 -0.45593999997E+02  0.45594000000E+02  0.51100000000E-03 0.  1.
    9900012    2    1    2    0    0  0.10981300405E+02 -0.15149398299E+02 -0.76385175298E+00  0.72461636314E+02  0.70000086003E+02 0.  0.
        -12    1    1    2    0    0 -0.10981300405E+02  0.15149398299E+02  0.76385175298E+00  0.18726363686E+02  0.00000000000E+00 0.  1.
         11    1    3    3    0    0 -0.12565419479E+02 -0.13999081614E+02  0.39852524491E+01  0.19228788055E+02  0.51100000000E-03 0. -1.
        -11    1    3    3    0    0 -0.11254382260E+02  0.70947057642E+01 -0.10577656913E+02  0.16996552473E+02  0.51100000000E-03 0.  1.
         12    1    3    3    0    0  0.34801102143E+02 -0.82450224495E+01  0.58285527112E+01  0.36236295786E+02  0.00000000000E+00 0. -1.
</event>
<event>
 7    1  0.1358622E-013  0.7246147E+02  0.7816164E-02  0.1226708E+00
        -11   -1    0    0    0    0  0.00000000000E+00  0.00000000000E+00  0.45593999997E+02  0.45594000000E+02  0.51100000000E-03 0.  1.
         11   -1    0    0    0    0 -0.00000000000E+00 -0.00000000000E+00 -0.45593999997E+02  0.45594000000E+02  0.51100000000E-03 0. -1.
    9900012    2    1    2    0    0 -0.13516976209E+02  0.67054446980E+01 -0.11091050980E+02  0.72461466785E+02  0.69999865159E+02 0.  0.
        -12    1    1    2    0    0  0.13516976209E+02 -0.67054446980E+01  0.11091050980E+02  0.18726533215E+02  0.00000000000E+00 0.  1.
         11    1    3    3    0    0  0.94592001357E+01 -0.68651718765E+01  0.54952112987E+01  0.12915277758E+02  0.51100000000E-03 0.  1.
        -11    1    3    3    0    0  0.12637618064E+02  0.10944333845E+02 -0.16986621892E+02  0.23833446189E+02  0.51100000000E-03 0. -1.
        -12    1    3    3    0    0 -0.35613794409E+02  0.26262827290E+01  0.40035961411E+00  0.35712742837E+02  0.00000000000E+00 0.  1.
</event>
<event>
 7    1  0.1358622E-013  0.7246160E+02  0.7816164E-02  0.1226708E+00
        -11   -1    0    0    0    0  0.00000000000E+00  0.00000000000E+00  0.45593999997E+02  0.45594000000E+02  0.51100000000E-03 0. -1.
         11   -1    0    0    0    0 -0.00000000000E+00 -0.00000000000E+00 -0.45593999997E+02  0.45594000000E+02  0.51100000000E-03 0.  1.
    9900012    2    1    2    0    0  0.17971043923E+02 -0.41034394594E+01 -0.32987169362E+01  0.72461597022E+02  0.70000034817E+02 0.  0.
        -12    1    1    2    0    0 -0.17971043923E+02  0.41034394594E+01  0.32987169362E+01  0.18726402978E+02  0.00000000000E+00 0.  1.
         11    1    3    3    0    0 -0.55185376579E+01 -0.13508474474E+02  0.12775204516E+02  0.19394303060E+02  0.51100000000E-03 0. -1.
        -11    1    3    3    0    0 -0.22228290087E+01 -0.10522337185E+02 -0.17461079424E+02  0.20507311953E+02  0.51100000000E-03 0.  1.
         12    1    3    3    0    0  0.25712410590E+02  0.19927372200E+02  0.13871579716E+01  0.32559982008E+02  0.00000000000E+00 0. -1.
</event>
<event>
 7    1  0.1358622E-013  0.7246165E+02  0.7816164E-02  0.1226708E+00
        -11   -1    0    0    0    0  0.00000000000E+00  0.00000000000E+00  0.45593999997E+02  0.45594000000E+02  0.51100000000E-03 0.  1.
         11   -1    0    0    0    0 -0.00000000000E+00 -0.00000000000E+00 -0.45593999997E+02  0.45594000000E+02  0.51100000000E-03 0. -1.
    9900012    2    1    2    0    0 -0.82364508930E+00  0.14569524635E+02 -0.11735706155E+02  0.72461648559E+02  0.70000101954E+02 0.  0.
        -12    1    1    2    0    0  0.82364508930E+00 -0.14569524635E+02  0.11735706155E+02  0.18726351441E+02  0.00000000000E+00 0.  1.
         11    1    3    3    0    0  0.11050556313E+02  0.28251288269E+02  0.27070056276E+01  0.30456164621E+02  0.51100000000E-03 0. -1.
        -11    1    3    3    0    0 -0.80334675705E+01  0.88799691750E+01  0.39873179527E+01  0.12620980884E+02  0.51100000000E-03 0.  1.
         12    1    3    3    0    0 -0.38407338317E+01 -0.22561732809E+02 -0.18430029735E+02  0.29384503054E+02  0.00000000000E+00 0. -1.
</event>
<event>
 7    1  0.1358622E-013  0.7246158E+02  0.7816164E-02  0.1226708E+00
        -11   -1    0    0    0    0  0.00000000000E+00  0.00000000000E+00  0.45593999997E+02  0.45594000000E+02  0.51100000000E-03 0. -1.
         11   -1    0    0    0    0 -0.00000000000E+00 -0.00000000000E+00 -0.45593999997E+02  0.45594000000E+02  0.51100000000E-03 0.  1.
    9900012    2    1    2    0    0  0.18620357418E+02  0.10260759771E+01  0.17053690936E+01  0.72461579466E+02  0.70000011948E+02 0.  0.
        -12    1    1    2    0    0 -0.18620357418E+02 -0.10260759771E+01 -0.17053690936E+01  0.18726420534E+02  0.00000000000E+00 0.  1.
         11    1    3    3    0    0 -0.18290457726E+02 -0.17147623520E+02 -0.25931277397E+01  0.25205280160E+02  0.51100000000E-03 0. -1.
        -11    1    3    3    0    0  0.93882894687E+01  0.56479433441E+00 -0.79973266379E+01  0.12345695825E+02  0.51100000000E-03 0.  1.
        -12    1    3    3    0    0  0.27522525675E+02  0.17608905163E+02  0.12295823471E+02  0.34910603481E+02  0.00000000000E+00 0.  1.
</event>
<event>
 7    1  0.1358622E-013  0.7246160E+02  0.7816164E-02  0.1226708E+00
        -11   -1    0    0    0    0  0.00000000000E+00  0.00000000000E+00  0.45593999997E+02  0.45594000000E+02  0.51100000000E-03 0.  1.
         11   -1    0    0    0    0 -0.00000000000E+00 -0.00000000000E+00 -0.45593999997E+02  0.45594000000E+02  0.51100000000E-03 0. -1.
    9900012    2    1    2    0    0  0.13987670683E+02 -0.11574047721E+02  0.45896211354E+01  0.72461597944E+02  0.70000036019E+02 0.  0.
        -12    1    1    2    0    0 -0.13987670683E+02  0.11574047721E+02 -0.45896211354E+01  0.18726402056E+02  0.00000000000E+00 0.  1.
         11    1    3    3    0    0  0.54527333261E+01  0.30141623057E+01 -0.30815905667E+01  0.69508039687E+01  0.51100000000E-03 0. -1.
        -11    1    3    3    0    0  0.33131925766E+02 -0.19174637268E+02  0.12002017175E+02  0.40117821923E+02  0.51100000000E-03 0.  1.
         12    1    3    3    0    0 -0.24596988408E+02  0.45864272420E+01 -0.43308054727E+01  0.25392972052E+02  0.00000000000E+00 0. -1.
</event>
<event>
 7    1  0.1358622E-013  0.7246154E+02  0.7816164E-02  0.1226708E+00
        -11   -1    0    0    0    0  0.00000000000E+00  0.00000000000E+00  0.45593999997E+02  0.45594000000E+02  0.51100000000E-03 0. -1.
         11   -1    0    0    0    0 -0.00000000000E+00 -0.00000000000E+00 -0.45593999997E+02  0.45594000000E+02  0.51100000000E-03 0.  1.
    9900012    2    1    2    0    0 -0.47269218671E+01 -0.11439824590E+02  0.14052294821E+02  0.72461538329E+02  0.69999958359E+02 0.  0.
        -12    1    1    2    0    0  0.47269218671E+01  0.11439824590E+02 -0.14052294821E+02  0.18726461671E+02  0.00000000000E+00 0.  1.
         11    1    3    3    0    0 -0.19001071952E+02 -0.74275165079E+01  0.18373685670E+02  0.27455437752E+02  0.51100000000E-03 0. -1.
        -11    1    3    3    0    0 -0.18773437786E+01 -0.21135421552E+02 -0.30076891264E+01  0.21430740957E+02  0.51100000000E-03 0.  1.
         12    1    3    3    0    0  0.16151493864E+02  0.17123113470E+02 -0.13137017222E+01  0.23575359619E+02  0.00000000000E+00 0. -1.
</event>
<event>
 7    1  0.1358622E-013  0.7246160E+02  0.7816164E-02  0.1226708E+00
        -11   -1    0    0    0    0  0.00000000000E+00  0.00000000000E+00  0.45593999997E+02  0.45594000000E+02  0.51100000000E-03 0. -1.
         11   -1    0    0    0    0 -0.00000000000E+00 -0.00000000000E+00 -0.45593999997E+02  0.45594000000E+02  0.51100000000E-03 0.  1.
    9900012    2    1    2    0    0 -0.16714448911E+02 -0.71394825380E+01 -0.45092156931E+01  0.72461600467E+02  0.70000039305E+02 0.  0.
        -12    1    1    2    0    0  0.16714448911E+02  0.71394825380E+01  0.45092156931E+01  0.18726399533E+02  0.00000000000E+00 0.  1.
         11    1    3    3    0    0 -0.23026399910E+02 -0.18009027591E+02 -0.47625061737E+01  0.29617927560E+02  0.51100000000E-03 0. -1.
        -11    1    3    3    0    0 -0.90672579952E+01  0.96346844658E+01  0.16024652607E+02  0.20780563124E+02  0.51100000000E-03 0.  1.
         12    1    3    3    0    0  0.15379208994E+02  0.12348605875E+01 -0.15771362127E+02  0.22063109783E+02  0.00000000000E+00 0. -1.
</event>
<event>
 7    1  0.1358622E-013  0.7246154E+02  0.7816164E-02  0.1226708E+00
        -11   -1    0    0    0    0  0.00000000000E+00  0.00000000000E+00  0.45593999997E+02  0.45594000000E+02  0.51100000000E-03 0. -1.
         11   -1    0    0    0    0 -0.00000000000E+00 -0.00000000000E+00 -0.45593999997E+02  0.45594000000E+02  0.51100000000E-03 0.  1.
    9900012    2    1    2    0    0  0.10957855168E+02  0.14759920139E+02  0.35708000237E+01  0.72461536233E+02  0.69999955629E+02 0.  0.
        -12    1    1    2    0    0 -0.10957855168E+02 -0.14759920139E+02 -0.35708000237E+01  0.18726463767E+02  0.00000000000E+00 0.  1.
         11    1    3    3    0    0  0.17425583052E+02  0.25831626573E+01  0.22556394838E+02  0.28620178587E+02  0.51100000000E-03 0. -1.
        -11    1    3    3    0    0  0.35754111330E+01 -0.82909507206E+01  0.53495621127E+01  0.10494819850E+02  0.51100000000E-03 0.  1.
         12    1    3    3    0    0 -0.10043139016E+02  0.20467708202E+02 -0.24335156927E+02  0.33346537796E+02  0.00000000000E+00 0. -1.
</event>
<event>
 7    1  0.1358622E-013  0.7246159E+02  0.7816164E-02  0.1226708E+00
        -11   -1    0    0    0    0  0.00000000000E+00  0.00000000000E+00  0.45593999997E+02  0.45594000000E+02  0.51100000000E-03 0.  1.
         11   -1    0    0    0    0 -0.00000000000E+00 -0.00000000000E+00 -0.45593999997E+02  0.45594000000E+02  0.51100000000E-03 0. -1.
    9900012    2    1    2    0    0 -0.13028260996E+01 -0.77356274565E+01 -0.17004145937E+02  0.72461594391E+02  0.70000031390E+02 0.  0.
        -12    1    1    2    0    0  0.13028260996E+01  0.77356274565E+01  0.17004145937E+02  0.18726405609E+02  0.00000000000E+00 0.  1.
         11    1    3    3    0    0 -0.30904523446E+01 -0.17749101691E+02  0.39028335272E+01  0.18434034185E+02  0.51100000000E-03 0. -1.
        -11    1    3    3    0    0 -0.16855337041E+02  0.62709476138E+01  0.77930586566E+01  0.19599972812E+02  0.51100000000E-03 0.  1.
         12    1    3    3    0    0  0.18642963286E+02  0.37425266204E+01 -0.28700038121E+02  0.34427587394E+02  0.00000000000E+00 0. -1.
</event>
<event>
 7    1  0.1358622E-013  0.7246167E+02  0.7816164E-02  0.1226708E+00
        -11   -1    0    0    0    0  0.00000000000E+00  0.00000000000E+00  0.45593999997E+02  0.45594000000E+02  0.51100000000E-03 0.  1.
         11   -1    0    0    0    0 -0.00000000000E+00 -0.00000000000E+00 -0.45593999997E+02  0.45594000000E+02  0.51100000000E-03 0. -1.
    9900012    2    1    2    0    0  0.56365090749E+01 -0.86697872345E+01 -0.15612176204E+02  0.72461668510E+02  0.70000127944E+02 0.  0.
        -12    1    1    2    0    0 -0.56365090749E+01  0.86697872345E+01  0.15612176204E+02  0.18726331490E+02  0.00000000000E+00 0.  1.
         11    1    3    3    0    0  0.54581974713E+01 -0.15709774669E+00 -0.49630778592E+01  0.73789390454E+01  0.51100000000E-03 0. -1.
        -11    1    3    3    0    0  0.86151245630E+01  0.15818107147E+01  0.25315188796E+02  0.26787707637E+02  0.51100000000E-03 0.  1.
         12    1    3    3    0    0 -0.84368129594E+01 -0.10094500202E+02 -0.35964287141E+02  0.38295021828E+02  0.00000000000E+00 0. -1.
</event>
<event>
 7    1  0.1358622E-013  0.7246187E+02  0.7816164E-02  0.1226707E+00
        -11   -1    0    0    0    0  0.00000000000E+00  0.00000000000E+00  0.45593999997E+02  0.45594000000E+02  0.51100000000E-03 0. -1.
         11   -1    0    0    0    0 -0.00000000000E+00 -0.00000000000E+00 -0.45593999997E+02  0.45594000000E+02  0.51100000000E-03 0.  1.
    9900012    2    1    2    0    0  0.78947228264E+01 -0.53879572555E+01  0.16103144209E+02  0.72461868918E+02  0.70000389011E+02 0.  0.
        -12    1    1    2    0    0 -0.78947228264E+01  0.53879572555E+01 -0.16103144209E+02  0.18726131082E+02  0.00000000000E+00 0.  1.
         11    1    3    3    0    0  0.96460440606E+00 -0.92756170696E+01 -0.13068516193E+02  0.16054708014E+02  0.51100000000E-03 0. -1.
        -11    1    3    3    0    0 -0.32222548529E+01  0.20963181594E+02  0.11624702360E+00  0.21209701141E+02  0.51100000000E-03 0.  1.
         12    1    3    3    0    0  0.10152373273E+02 -0.17075521780E+02  0.29055413378E+02  0.35197459762E+02  0.00000000000E+00 0. -1.
</event>
<event>
 7    1  0.1358622E-013  0.7246159E+02  0.7816164E-02  0.1226708E+00
        -11   -1    0    0    0    0  0.00000000000E+00  0.00000000000E+00  0.45593999997E+02  0.45594000000E+02  0.51100000000E-03 0. -1.
         11   -1    0    0    0    0 -0.00000000000E+00 -0.00000000000E+00 -0.45593999997E+02  0.45594000000E+02  0.51100000000E-03 0.  1.
    9900012    2    1    2    0    0 -0.15030381934E+01 -0.13795027732E+02 -0.12574439382E+02  0.72461589781E+02  0.70000025385E+02 0.  0.
        -12    1    1    2    0    0  0.15030381934E+01  0.13795027732E+02  0.12574439382E+02  0.18726410219E+02  0.00000000000E+00 0.  1.
         11    1    3    3    0    0  0.97787978686E+00  0.10255512392E+02 -0.16455875888E+02  0.19414624250E+02  0.51100000000E-03 0. -1.
        -11    1    3    3    0    0 -0.10806828799E+02 -0.65777748288E+01 -0.19156896252E+02  0.22957381049E+02  0.51100000000E-03 0.  1.
         12    1    3    3    0    0  0.83259108185E+01 -0.17472765295E+02  0.23038332757E+02  0.30089584481E+02  0.00000000000E+00 0. -1.
</event>
<event>
 7    1  0.1358622E-013  0.7246159E+02  0.7816164E-02  0.1226708E+00
        -11   -1    0    0    0    0  0.00000000000E+00  0.00000000000E+00  0.45593999997E+02  0.45594000000E+02  0.51100000000E-03 0. -1.
         11   -1    0    0    0    0 -0.00000000000E+00 -0.00000000000E+00 -0.45593999997E+02  0.45594000000E+02  0.51100000000E-03 0.  1.
    9900012    2    1    2    0    0  0.72342315843E+01  0.14743370446E+02  0.89987331223E+01  0.72461594138E+02  0.70000031060E+02 0.  0.
        -12    1    1    2    0    0 -0.72342315843E+01 -0.14743370446E+02 -0.89987331223E+01  0.18726405862E+02  0.00000000000E+00 0.  1.
         11    1    3    3    0    0  0.96475015188E+01  0.26250672070E+01 -0.75219640082E+01  0.12511802676E+02  0.51100000000E-03 0. -1.
        -11    1    3    3    0    0  0.11338038000E+02 -0.10573701270E+02 -0.13017852209E+02  0.20243980355E+02  0.51100000000E-03 0.  1.
         12    1    3    3    0    0 -0.13751307934E+02  0.22692004509E+02  0.29538549340E+02  0.39705811106E+02  0.00000000000E+00 0. -1.
</event>
