<event>
 7    1  0.4432754E-010  0.4778729E+02  0.7816164E-02  0.1312668E+00
        -11   -1    0    0    0    0  0.00000000000E+00  0.00000000000E+00  0.45593999997E+02  0.45594000000E+02  0.51100000000E-03 0.  1.
         11   -1    0    0    0    0 -0.00000000000E+00 -0.00000000000E+00 -0.45593999997E+02  0.45594000000E+02  0.51100000000E-03 0. -1.
    9900012    2    1    2    0    0 -0.17385585786E+01 -0.20424942838E+02 -0.38254686573E+02  0.47787286634E+02  0.20000071080E+02 0.  0.
        -12    1    1    2    0    0  0.17385585786E+01  0.20424942838E+02  0.38254686573E+02  0.43400713366E+02  0.00000000000E+00 0.  1.
         11    1    3    3    0    0  0.28982004929E+01 -0.55880083349E+01 -0.10871566536E+02  0.12562498257E+02  0.51100000000E-03 0. -1.
        -11    1    3    3    0    0 -0.48982978853E+00  0.29434233793E+01 -0.82744229258E+01  0.87960075845E+01  0.51100000000E-03 0.  1.
         12    1    3    3    0    0 -0.41469292830E+01 -0.17780357882E+02 -0.19108697111E+02  0.26428780792E+02  0.00000000000E+00 0. -1.
</event>
<event>
 7    1  0.4432754E-010  0.4778728E+02  0.7816164E-02  0.1312668E+00
        -11   -1    0    0    0    0  0.00000000000E+00  0.00000000000E+00  0.45593999997E+02  0.45594000000E+02  0.51100000000E-03 0.  1.
         11   -1    0    0    0    0 -0.00000000000E+00 -0.00000000000E+00 -0.45593999997E+02  0.45594000000E+02  0.51100000000E-03 0. -1.
    9900012    2    1    2    0    0  0.20648777440E+02 -0.22796819489E+02 -0.30619524591E+02  0.47787282554E+02  0.20000052479E+02 0.  0.
        -12    1    1    2    0    0 -0.20648777440E+02  0.22796819489E+02  0.30619524591E+02  0.43400717446E+02  0.00000000000E+00 0.  1.
         11    1    3    3    0    0  0.15401139872E+01 -0.20572912397E+01 -0.10697683990E+02  0.11002038054E+02  0.51100000000E-03 0. -1.
        -11    1    3    3    0    0  0.35187410133E+01  0.11531513714E+01 -0.76677946236E+00  0.37814345703E+01  0.51100000000E-03 0.  1.
        -12    1    3    3    0    0  0.15589922440E+02 -0.21892679621E+02 -0.19155061139E+02  0.33003809930E+02  0.00000000000E+00 0.  1.
</event>
<event>
 7    1  0.4432754E-010  0.4778727E+02  0.7816164E-02  0.1312668E+00
        -11   -1    0    0    0    0  0.00000000000E+00  0.00000000000E+00  0.45593999997E+02  0.45594000000E+02  0.51100000000E-03 0.  1.
         11   -1    0    0    0    0 -0.00000000000E+00 -0.00000000000E+00 -0.45593999997E+02  0.45594000000E+02  0.51100000000E-03 0. -1.
    9900012    2    1    2    0    0 -0.32236138711E+02  0.26649318495E+02 -0.11587417540E+02  0.47787273502E+02  0.20000011207E+02 0.  0.
        -12    1    1    2    0    0  0.32236138711E+02 -0.26649318495E+02  0.11587417540E+02  0.43400726498E+02  0.00000000000E+00 0.  1.
         11    1    3    3    0    0 -0.71672285055E+01  0.11722732732E+02 -0.97719651988E+01  0.16860691898E+02  0.51100000000E-03 0. -1.
        -11    1    3    3    0    0 -0.11722074558E+02  0.43526044163E+01 -0.52402590586E+01  0.13557747320E+02  0.51100000000E-03 0.  1.
        -12    1    3    3    0    0 -0.13346835648E+02  0.10573981347E+02  0.34248067176E+01  0.17368834284E+02  0.00000000000E+00 0.  1.
</event>
<event>
 7    1  0.4432754E-010  0.4778727E+02  0.7816164E-02  0.1312668E+00
        -11   -1    0    0    0    0  0.00000000000E+00  0.00000000000E+00  0.45593999997E+02  0.45594000000E+02  0.51100000000E-03 0.  1.
         11   -1    0    0    0    0 -0.00000000000E+00 -0.00000000000E+00 -0.45593999997E+02  0.45594000000E+02  0.51100000000E-03 0. -1.
    9900012    2    1    2    0    0  0.16908867600E+02 -0.24498442956E+02 -0.31583856898E+02  0.47787268124E+02  0.19999986685E+02 0.  0.
        -12    1    1    2    0    0 -0.16908867600E+02  0.24498442956E+02  0.31583856898E+02  0.43400731876E+02  0.00000000000E+00 0.  1.
         11    1    3    3    0    0 -0.14145117180E+01 -0.10088553648E+01 -0.20410084200E+01  0.26803634416E+01  0.51100000000E-03 0.  1.
        -11    1    3    3    0    0  0.61690116273E+01 -0.46435174560E+00 -0.12618255187E+02  0.14053209285E+02  0.51100000000E-03 0. -1.
         12    1    3    3    0    0  0.12154367691E+02 -0.23025235846E+02 -0.16924593291E+02  0.31053695397E+02  0.00000000000E+00 0. -1.
</event>
<event>
 7    1  0.4432754E-010  0.4778727E+02  0.7816164E-02  0.1312668E+00
        -11   -1    0    0    0    0  0.00000000000E+00  0.00000000000E+00  0.45593999997E+02  0.45594000000E+02  0.51100000000E-03 0.  1.
         11   -1    0    0    0    0 -0.00000000000E+00 -0.00000000000E+00 -0.45593999997E+02  0.45594000000E+02  0.51100000000E-03 0. -1.
    9900012    2    1    2    0    0 -0.26516396992E+02 -0.34127428481E+02 -0.39777554877E+01  0.47787271632E+02  0.20000002679E+02 0.  0.
        -12    1    1    2    0    0  0.26516396992E+02  0.34127428481E+02  0.39777554877E+01  0.43400728368E+02  0.00000000000E+00 0.  1.
         11    1    3    3    0    0 -0.93639673688E+01 -0.12132155625E+02  0.46252297175E+00  0.15332547497E+02  0.51100000000E-03 0.  1.
        -11    1    3    3    0    0 -0.20173350602E+02 -0.19078019176E+02 -0.26581177453E+01  0.27892659973E+02  0.51100000000E-03 0. -1.
        -12    1    3    3    0    0  0.30209209794E+01 -0.29172536810E+01 -0.17821607142E+01  0.45620641616E+01  0.00000000000E+00 0.  1.
</event>
<event>
 7    1  0.4432754E-010  0.4778727E+02  0.7816164E-02  0.1312668E+00
        -11   -1    0    0    0    0  0.00000000000E+00  0.00000000000E+00  0.45593999997E+02  0.45594000000E+02  0.51100000000E-03 0. -1.
         11   -1    0    0    0    0 -0.00000000000E+00 -0.00000000000E+00 -0.45593999997E+02  0.45594000000E+02  0.51100000000E-03 0.  1.
    9900012    2    1    2    0    0 -0.17327847669E+01  0.15345926511E+02  0.40560115570E+02  0.47787274447E+02  0.20000015512E+02 0.  0.
        -12    1    1    2    0    0  0.17327847669E+01 -0.15345926511E+02 -0.40560115570E+02  0.43400725553E+02  0.00000000000E+00 0.  1.
         11    1    3    3    0    0 -0.27584761400E+01  0.16716242899E+01  0.43765436191E+01  0.54366950156E+01  0.51100000000E-03 0. -1.
        -11    1    3    3    0    0  0.55761123432E+01 -0.54962097881E+00  0.17825068857E+02  0.18684972360E+02  0.51100000000E-03 0.  1.
         12    1    3    3    0    0 -0.45504209701E+01  0.14223923200E+02  0.18358503094E+02  0.23665607071E+02  0.00000000000E+00 0. -1.
</event>
<event>
 7    1  0.4432754E-010  0.4778727E+02  0.7816164E-02  0.1312668E+00
        -11   -1    0    0    0    0  0.00000000000E+00  0.00000000000E+00  0.45593999997E+02  0.45594000000E+02  0.51100000000E-03 0. -1.
         11   -1    0    0    0    0 -0.00000000000E+00 -0.00000000000E+00 -0.45593999997E+02  0.45594000000E+02  0.51100000000E-03 0.  1.
    9900012    2    1    2    0    0  0.33692287717E+02 -0.16173764422E+02  0.22064961041E+02  0.47787269443E+02  0.19999992697E+02 0.  0.
        -12    1    1    2    0    0 -0.33692287717E+02  0.16173764422E+02 -0.22064961041E+02  0.43400730557E+02  0.00000000000E+00 0.  1.
         11    1    3    3    0    0  0.27375599809E+02 -0.11210504223E+02  0.19060442972E+02  0.35190898772E+02  0.51100000000E-03 0. -1.
        -11    1    3    3    0    0  0.66096089903E+01 -0.72948465377E+01  0.28169091170E+01  0.10238979160E+02  0.51100000000E-03 0.  1.
        -12    1    3    3    0    0 -0.29292108262E+00  0.23315863381E+01  0.18760895174E+00  0.23573915100E+01  0.00000000000E+00 0.  1.
</event>
<event>
 7    1  0.4432754E-010  0.4778727E+02  0.7816164E-02  0.1312668E+00
        -11   -1    0    0    0    0  0.00000000000E+00  0.00000000000E+00  0.45593999997E+02  0.45594000000E+02  0.51100000000E-03 0.  1.
         11   -1    0    0    0    0 -0.00000000000E+00 -0.00000000000E+00 -0.45593999997E+02  0.45594000000E+02  0.51100000000E-03 0. -1.
    9900012    2    1    2    0    0  0.26649520469E+02 -0.94480856293E+00 -0.34242275998E+02  0.47787273394E+02  0.20000010713E+02 0.  0.
        -12    1    1    2    0    0 -0.26649520469E+02  0.94480856293E+00  0.34242275998E+02  0.43400726606E+02  0.00000000000E+00 0.  1.
         11    1    3    3    0    0  0.16431890982E+02  0.15596620373E+01 -0.18977604173E+02  0.25151322974E+02  0.51100000000E-03 0. -1.
        -11    1    3    3    0    0  0.11467386983E+02 -0.22057842088E+01 -0.57165347486E+01  0.13001739037E+02  0.51100000000E-03 0.  1.
         12    1    3    3    0    0 -0.12497574963E+01 -0.29868639146E+00 -0.95481370758E+01  0.96342113833E+01  0.00000000000E+00 0. -1.
</event>
<event>
 7    1  0.4432754E-010  0.4778727E+02  0.7816164E-02  0.1312668E+00
        -11   -1    0    0    0    0  0.00000000000E+00  0.00000000000E+00  0.45593999997E+02  0.45594000000E+02  0.51100000000E-03 0.  1.
         11   -1    0    0    0    0 -0.00000000000E+00 -0.00000000000E+00 -0.45593999997E+02  0.45594000000E+02  0.51100000000E-03 0. -1.
    9900012    2    1    2    0    0  0.24520497456E+02  0.16716005110E+02 -0.31669284698E+02  0.47787271716E+02  0.20000003060E+02 0.  0.
        -12    1    1    2    0    0 -0.24520497456E+02 -0.16716005110E+02  0.31669284698E+02  0.43400728284E+02  0.00000000000E+00 0.  1.
         11    1    3    3    0    0  0.95293335752E+00  0.17608105910E+01 -0.10715542650E+02  0.10900981170E+02  0.51100000000E-03 0. -1.
        -11    1    3    3    0    0 -0.14247977231E+01  0.81816060238E+00 -0.11655382204E+01  0.20144266994E+01  0.51100000000E-03 0.  1.
        -12    1    3    3    0    0  0.24992361822E+02  0.14137033917E+02 -0.19788203827E+02  0.34871863846E+02  0.00000000000E+00 0.  1.
</event>
<event>
 7    1  0.4432754E-010  0.4778727E+02  0.7816164E-02  0.1312668E+00
        -11   -1    0    0    0    0  0.00000000000E+00  0.00000000000E+00  0.45593999997E+02  0.45594000000E+02  0.51100000000E-03 0. -1.
         11   -1    0    0    0    0 -0.00000000000E+00 -0.00000000000E+00 -0.45593999997E+02  0.45594000000E+02  0.51100000000E-03 0.  1.
    9900012    2    1    2    0    0 -0.72526269302E+01 -0.41477329681E+02  0.10519204791E+02  0.47787272537E+02  0.20000006806E+02 0.  0.
        -12    1    1    2    0    0  0.72526269302E+01  0.41477329681E+02 -0.10519204791E+02  0.43400727463E+02  0.00000000000E+00 0.  1.
         11    1    3    3    0    0 -0.62017602394E+00  0.15564463038E+01  0.80678799804E+00  0.18595834297E+01  0.51100000000E-03 0. -1.
        -11    1    3    3    0    0 -0.16223961176E+00 -0.10815090434E+02 -0.20790023870E+01  0.11014297707E+02  0.51100000000E-03 0.  1.
         12    1    3    3    0    0 -0.64702112945E+01 -0.32218685551E+02  0.11791419180E+02  0.34913391401E+02  0.00000000000E+00 0. -1.
</event>
<event>
 7    1  0.4432754E-010  0.4778727E+02  0.7816164E-02  0.1312668E+00
        -11   -1    0    0    0    0  0.00000000000E+00  0.00000000000E+00  0.45593999997E+02  0.45594000000E+02  0.51100000000E-03 0.  1.
         11   -1    0    0    0    0 -0.00000000000E+00 -0.00000000000E+00 -0.45593999997E+02  0.45594000000E+02  0.51100000000E-03 0. -1.
    9900012    2    1    2    0    0 -0.21036238303E+02 -0.20540560209E+02 -0.31924677060E+02  0.47787274879E+02  0.20000017485E+02 0.  0.
        -12    1    1    2    0    0  0.21036238303E+02  0.20540560209E+02  0.31924677060E+02  0.43400725121E+02  0.00000000000E+00 0.  1.
         11    1    3    3    0    0 -0.42718834133E+01 -0.39554252612E+00 -0.11624269891E+02  0.12390685718E+02  0.51100000000E-03 0. -1.
        -11    1    3    3    0    0 -0.39992257918E+01 -0.20397502432E+01  0.10709752038E+01  0.46153413890E+01  0.51100000000E-03 0.  1.
        -12    1    3    3    0    0 -0.12765129098E+02 -0.18105267440E+02 -0.21371382372E+02  0.30781247773E+02  0.00000000000E+00 0.  1.
</event>
<event>
 7    1  0.4432754E-010  0.4778728E+02  0.7816164E-02  0.1312668E+00
        -11   -1    0    0    0    0  0.00000000000E+00  0.00000000000E+00  0.45593999997E+02  0.45594000000E+02  0.51100000000E-03 0.  1.
         11   -1    0    0    0    0 -0.00000000000E+00 -0.00000000000E+00 -0.45593999997E+02  0.45594000000E+02  0.51100000000E-03 0. -1.
    9900012    2    1    2    0    0  0.37186685478E+02  0.19623670406E+02  0.10755690144E+02  0.47787275496E+02  0.20000020295E+02 0.  0.
        -12    1    1    2    0    0 -0.37186685478E+02 -0.19623670406E+02 -0.10755690144E+02  0.43400724504E+02  0.00000000000E+00 0.  1.
         11    1    3    3    0    0  0.30646407538E+02  0.12905337080E+02  0.27208018059E+01  0.33363944354E+02  0.51100000000E-03 0. -1.
        -11    1    3    3    0    0  0.55878279724E+00  0.28811025904E+01 -0.84110051569E+00  0.30529396800E+01  0.51100000000E-03 0.  1.
         12    1    3    3    0    0  0.59814951421E+01  0.38372307357E+01  0.88759888537E+01  0.11370391461E+02  0.00000000000E+00 0. -1.
</event>
<event>
 7    1  0.4432754E-010  0.4778727E+02  0.7816164E-02  0.1312668E+00
        -11   -1    0    0    0    0  0.00000000000E+00  0.00000000000E+00  0.45593999997E+02  0.45594000000E+02  0.51100000000E-03 0. -1.
         11   -1    0    0    0    0 -0.00000000000E+00 -0.00000000000E+00 -0.45593999997E+02  0.45594000000E+02  0.51100000000E-03 0.  1.
    9900012    2    1    2    0    0  0.49625195191E+01  0.33837756728E+02  0.26720830992E+02  0.47787272019E+02  0.20000004442E+02 0.  0.
        -12    1    1    2    0    0 -0.49625195191E+01 -0.33837756728E+02 -0.26720830992E+02  0.43400727981E+02  0.00000000000E+00 0.  1.
         11    1    3    3    0    0  0.29261998408E+01 -0.60098685527E+00  0.12938824808E+01  0.32554512504E+01  0.51100000000E-03 0. -1.
        -11    1    3    3    0    0  0.49130475246E+01  0.17263879836E+02  0.72468357547E+01  0.19357071361E+02  0.51100000000E-03 0.  1.
        -12    1    3    3    0    0 -0.28767278462E+01  0.17174863748E+02  0.18180112757E+02  0.25174749407E+02  0.00000000000E+00 0.  1.
</event>
<event>
 7    1  0.4432754E-010  0.4778727E+02  0.7816164E-02  0.1312668E+00
        -11   -1    0    0    0    0  0.00000000000E+00  0.00000000000E+00  0.45593999997E+02  0.45594000000E+02  0.51100000000E-03 0. -1.
         11   -1    0    0    0    0 -0.00000000000E+00 -0.00000000000E+00 -0.45593999997E+02  0.45594000000E+02  0.51100000000E-03 0.  1.
    9900012    2    1    2    0    0 -0.24200471033E+02 -0.32290207111E+02  0.15978200721E+02  0.47787272221E+02  0.20000005364E+02 0.  0.
        -12    1    1    2    0    0  0.24200471033E+02  0.32290207111E+02 -0.15978200721E+02  0.43400727779E+02  0.00000000000E+00 0.  1.
         11    1    3    3    0    0 -0.53237373249E+01 -0.32464613695E+01  0.97335999673E+01  0.11559613277E+02  0.51100000000E-03 0. -1.
        -11    1    3    3    0    0 -0.60977383039E+01 -0.71406277621E+01  0.54496614207E+01  0.10856785303E+02  0.51100000000E-03 0.  1.
        -12    1    3    3    0    0 -0.12778995404E+02 -0.21903117979E+02  0.79493933270E+00  0.25370873641E+02  0.00000000000E+00 0.  1.
</event>
<event>
 7    1  0.4432754E-010  0.4778727E+02  0.7816164E-02  0.1312668E+00
        -11   -1    0    0    0    0  0.00000000000E+00  0.00000000000E+00  0.45593999997E+02  0.45594000000E+02  0.51100000000E-03 0.  1.
         11   -1    0    0    0    0 -0.00000000000E+00 -0.00000000000E+00 -0.45593999997E+02  0.45594000000E+02  0.51100000000E-03 0. -1.
    9900012    2    1    2    0    0 -0.26343064791E+02 -0.28405710450E+02 -0.19564819833E+02  0.47787267012E+02  0.19999981615E+02 0.  0.
        -12    1    1    2    0    0  0.26343064791E+02  0.28405710450E+02  0.19564819833E+02  0.43400732988E+02  0.00000000000E+00 0.  1.
         11    1    3    3    0    0 -0.18563609390E+02 -0.18972083950E+02 -0.18977765498E+02  0.32629789250E+02  0.51100000000E-03 0. -1.
        -11    1    3    3    0    0 -0.40022270054E+01 -0.12632030845E+00 -0.27821221089E+01  0.48758570029E+01  0.51100000000E-03 0.  1.
        -12    1    3    3    0    0 -0.37772283961E+01 -0.93073061919E+01  0.21950677731E+01  0.10281620759E+02  0.00000000000E+00 0.  1.
</event>
<event>
 7    1  0.4432754E-010  0.4778727E+02  0.7816164E-02  0.1312668E+00
        -11   -1    0    0    0    0  0.00000000000E+00  0.00000000000E+00  0.45593999997E+02  0.45594000000E+02  0.51100000000E-03 0.  1.
         11   -1    0    0    0    0 -0.00000000000E+00 -0.00000000000E+00 -0.45593999997E+02  0.45594000000E+02  0.51100000000E-03 0. -1.
    9900012    2    1    2    0    0  0.28763853824E+01 -0.11483900439E+02 -0.41754879404E+02  0.47787268253E+02  0.19999987271E+02 0.  0.
        -12    1    1    2    0    0 -0.28763853824E+01  0.11483900439E+02  0.41754879404E+02  0.43400731747E+02  0.00000000000E+00 0.  1.
         11    1    3    3    0    0 -0.91218762938E+00 -0.17257003208E+01 -0.52534949696E+01  0.56044034049E+01  0.51100000000E-03 0. -1.
        -11    1    3    3    0    0 -0.34030106176E+01  0.33477711970E+00 -0.25135698490E+02  0.25367220893E+02  0.51100000000E-03 0.  1.
         12    1    3    3    0    0  0.71915836294E+01 -0.10092977238E+02 -0.11365685944E+02  0.16815643954E+02  0.00000000000E+00 0. -1.
</event>
<event>
 7    1  0.4432754E-010  0.4778727E+02  0.7816164E-02  0.1312668E+00
        -11   -1    0    0    0    0  0.00000000000E+00  0.00000000000E+00  0.45593999997E+02  0.45594000000E+02  0.51100000000E-03 0.  1.
         11   -1    0    0    0    0 -0.00000000000E+00 -0.00000000000E+00 -0.45593999997E+02  0.45594000000E+02  0.51100000000E-03 0. -1.
    9900012    2    1    2    0    0  0.35929545340E+02 -0.87062736390E+01 -0.22735250524E+02  0.47787273676E+02  0.20000011999E+02 0.  0.
        -12    1    1    2    0    0 -0.35929545340E+02  0.87062736390E+01  0.22735250524E+02  0.43400726324E+02  0.00000000000E+00 0.  1.
         11    1    3    3    0    0  0.11268339640E+02  0.26002607221E+01 -0.86666645855E+01  0.14451571173E+02  0.51100000000E-03 0. -1.
        -11    1    3    3    0    0  0.46504070481E+01  0.30670348036E+01 -0.29751176567E+01  0.63154028796E+01  0.51100000000E-03 0.  1.
         12    1    3    3    0    0  0.20010798652E+02 -0.14373569165E+02 -0.11093468282E+02  0.27020299624E+02  0.00000000000E+00 0. -1.
</event>
<event>
 7    1  0.4432754E-010  0.4778727E+02  0.7816164E-02  0.1312668E+00
        -11   -1    0    0    0    0  0.00000000000E+00  0.00000000000E+00  0.45593999997E+02  0.45594000000E+02  0.51100000000E-03 0. -1.
         11   -1    0    0    0    0 -0.00000000000E+00 -0.00000000000E+00 -0.45593999997E+02  0.45594000000E+02  0.51100000000E-03 0.  1.
    9900012    2    1    2    0    0 -0.39906320568E+02 -0.16854196550E+02  0.26541899366E+01  0.47787273199E+02  0.20000009823E+02 0.  0.
        -12    1    1    2    0    0  0.39906320568E+02  0.16854196550E+02 -0.26541899366E+01  0.43400726801E+02  0.00000000000E+00 0.  1.
         11    1    3    3    0    0 -0.95340322650E+01 -0.11651544555E+01  0.24374127203E+01  0.99094064991E+01  0.51100000000E-03 0. -1.
        -11    1    3    3    0    0 -0.19247268936E+01  0.19840676132E+01 -0.31825964983E+01  0.42154499927E+01  0.51100000000E-03 0.  1.
        -12    1    3    3    0    0 -0.28447561410E+02 -0.17673109708E+02  0.33993737146E+01  0.33662416707E+02  0.00000000000E+00 0.  1.
</event>
<event>
 7    1  0.4432754E-010  0.4778727E+02  0.7816164E-02  0.1312668E+00
        -11   -1    0    0    0    0  0.00000000000E+00  0.00000000000E+00  0.45593999997E+02  0.45594000000E+02  0.51100000000E-03 0.  1.
         11   -1    0    0    0    0 -0.00000000000E+00 -0.00000000000E+00 -0.45593999997E+02  0.45594000000E+02  0.51100000000E-03 0. -1.
    9900012    2    1    2    0    0  0.33569921259E+02 -0.19149471549E+02 -0.19747943979E+02  0.47787272295E+02  0.20000005701E+02 0.  0.
        -12    1    1    2    0    0 -0.33569921259E+02  0.19149471549E+02  0.19747943979E+02  0.43400727705E+02  0.00000000000E+00 0.  1.
         11    1    3    3    0    0  0.13325908558E+02 -0.41003110828E+01 -0.76381827841E+01  0.15897617003E+02  0.51100000000E-03 0. -1.
        -11    1    3    3    0    0  0.69446413728E+01  0.13683355792E+01 -0.74051366049E+01  0.10243848615E+02  0.51100000000E-03 0.  1.
        -12    1    3    3    0    0  0.13299371328E+02 -0.16417496046E+02 -0.47046245898E+01  0.21645806676E+02  0.00000000000E+00 0.  1.
</event>
<event>
 7    1  0.4432754E-010  0.4778727E+02  0.7816164E-02  0.1312668E+00
        -11   -1    0    0    0    0  0.00000000000E+00  0.00000000000E+00  0.45593999997E+02  0.45594000000E+02  0.51100000000E-03 0.  1.
         11   -1    0    0    0    0 -0.00000000000E+00 -0.00000000000E+00 -0.45593999997E+02  0.45594000000E+02  0.51100000000E-03 0. -1.
    9900012    2    1    2    0    0  0.16993178812E+02  0.39898519217E+02 -0.17213965766E+01  0.47787272264E+02  0.20000005561E+02 0.  0.
        -12    1    1    2    0    0 -0.16993178812E+02 -0.39898519217E+02  0.17213965766E+01  0.43400727736E+02  0.00000000000E+00 0.  1.
         11    1    3    3    0    0 -0.97430094653E+00  0.77304407147E+00 -0.13130841347E+01  0.18086043450E+01  0.51100000000E-03 0. -1.
        -11    1    3    3    0    0  0.16925496940E+02  0.38309550148E+02 -0.40757448722E+01  0.42079754939E+02  0.51100000000E-03 0.  1.
        -12    1    3    3    0    0  0.10419828180E+01  0.81592499787E+00  0.36674324304E+01  0.38989129801E+01  0.00000000000E+00 0.  1.
</event>
<event>
 7    1  0.4432754E-010  0.4778727E+02  0.7816164E-02  0.1312668E+00
        -11   -1    0    0    0    0  0.00000000000E+00  0.00000000000E+00  0.45593999997E+02  0.45594000000E+02  0.51100000000E-03 0.  1.
         11   -1    0    0    0    0 -0.00000000000E+00 -0.00000000000E+00 -0.45593999997E+02  0.45594000000E+02  0.51100000000E-03 0. -1.
    9900012    2    1    2    0    0  0.10716638190E+02  0.33918313972E+02 -0.24866133290E+02  0.47787274872E+02  0.20000017453E+02 0.  0.
        -12    1    1    2    0    0 -0.10716638190E+02 -0.33918313972E+02  0.24866133290E+02  0.43400725128E+02  0.00000000000E+00 0.  1.
         11    1    3    3    0    0 -0.10995215320E+01  0.31170412303E+01 -0.88412985039E+01  0.94389328384E+01  0.51100000000E-03 0. -1.
        -11    1    3    3    0    0 -0.46440745264E+00  0.41965204502E+00 -0.30334703949E+01  0.30973738907E+01  0.51100000000E-03 0.  1.
         12    1    3    3    0    0  0.12280567175E+02  0.30381620697E+02 -0.12991364391E+02  0.35250968143E+02  0.00000000000E+00 0. -1.
</event>
<event>
 7    1  0.4432754E-010  0.4778727E+02  0.7816164E-02  0.1312668E+00
        -11   -1    0    0    0    0  0.00000000000E+00  0.00000000000E+00  0.45593999997E+02  0.45594000000E+02  0.51100000000E-03 0. -1.
         11   -1    0    0    0    0 -0.00000000000E+00 -0.00000000000E+00 -0.45593999997E+02  0.45594000000E+02  0.51100000000E-03 0.  1.
    9900012    2    1    2    0    0  0.33085633151E+02 -0.24789476841E+02  0.13207814138E+02  0.47787266857E+02  0.19999980907E+02 0.  0.
        -12    1    1    2    0    0 -0.33085633151E+02  0.24789476841E+02 -0.13207814138E+02  0.43400733143E+02  0.00000000000E+00 0.  1.
         11    1    3    3    0    0  0.97484818505E+01 -0.63046526127E+01  0.91002915423E+01  0.14751164340E+02  0.51100000000E-03 0. -1.
        -11    1    3    3    0    0  0.14625192842E+01  0.21719063628E+01 -0.27186694997E+00  0.26324991558E+01  0.51100000000E-03 0.  1.
         12    1    3    3    0    0  0.21874632016E+02 -0.20656730592E+02  0.43793895456E+01  0.30403603361E+02  0.00000000000E+00 0. -1.
</event>
<event>
 7    1  0.4432754E-010  0.4778727E+02  0.7816164E-02  0.1312668E+00
        -11   -1    0    0    0    0  0.00000000000E+00  0.00000000000E+00  0.45593999997E+02  0.45594000000E+02  0.51100000000E-03 0.  1.
         11   -1    0    0    0    0 -0.00000000000E+00 -0.00000000000E+00 -0.45593999997E+02  0.45594000000E+02  0.51100000000E-03 0. -1.
    9900012    2    1    2    0    0 -0.58944081872E+01  0.15513784780E+02 -0.40102389617E+02  0.47787271675E+02  0.20000002877E+02 0.  0.
        -12    1    1    2    0    0  0.58944081872E+01 -0.15513784780E+02  0.40102389617E+02  0.43400728325E+02  0.00000000000E+00 0.  1.
         11    1    3    3    0    0  0.19509185300E+00  0.67073680241E+00 -0.10371874887E+02  0.10395370970E+02  0.51100000000E-03 0. -1.
        -11    1    3    3    0    0 -0.92259943606E-01 -0.19404991884E+00 -0.16453340339E+02  0.16454743263E+02  0.51100000000E-03 0.  1.
        -12    1    3    3    0    0 -0.59972400966E+01  0.15037097897E+02 -0.13277174392E+02  0.20937157442E+02  0.00000000000E+00 0.  1.
</event>
<event>
 7    1  0.4432754E-010  0.4778727E+02  0.7816164E-02  0.1312668E+00
        -11   -1    0    0    0    0  0.00000000000E+00  0.00000000000E+00  0.45593999997E+02  0.45594000000E+02  0.51100000000E-03 0.  1.
         11   -1    0    0    0    0 -0.00000000000E+00 -0.00000000000E+00 -0.45593999997E+02  0.45594000000E+02  0.51100000000E-03 0. -1.
    9900012    2    1    2    0    0 -0.53739502829E+01  0.13884548787E+02 -0.40767179242E+02  0.47787274890E+02  0.20000017535E+02 0.  0.
        -12    1    1    2    0    0  0.53739502829E+01 -0.13884548787E+02  0.40767179242E+02  0.43400725110E+02  0.00000000000E+00 0.  1.
         11    1    3    3    0    0 -0.36933596769E+01  0.12623194211E+02 -0.11302810899E+02  0.17341841663E+02  0.51100000000E-03 0. -1.
        -11    1    3    3    0    0  0.12887925869E+01  0.36347024514E+01 -0.14110294160E+02  0.14627797161E+02  0.51100000000E-03 0.  1.
         12    1    3    3    0    0 -0.29693831929E+01 -0.23733478759E+01 -0.15354074183E+02  0.15817636066E+02  0.00000000000E+00 0. -1.
</event>
<event>
 7    1  0.4432754E-010  0.4778727E+02  0.7816164E-02  0.1312668E+00
        -11   -1    0    0    0    0  0.00000000000E+00  0.00000000000E+00  0.45593999997E+02  0.45594000000E+02  0.51100000000E-03 0.  1.
         11   -1    0    0    0    0 -0.00000000000E+00 -0.00000000000E+00 -0.45593999997E+02  0.45594000000E+02  0.51100000000E-03 0. -1.
    9900012    2    1    2    0    0 -0.18698596976E+02 -0.21977615873E+02 -0.32418666641E+02  0.47787273335E+02  0.20000010442E+02 0.  0.
        -12    1    1    2    0    0  0.18698596976E+02  0.21977615873E+02  0.32418666641E+02  0.43400726665E+02  0.00000000000E+00 0.  1.
         11    1    3    3    0    0 -0.13624213629E+02 -0.13805693754E+02 -0.93195010904E+01  0.21519049187E+02  0.51100000000E-03 0. -1.
        -11    1    3    3    0    0 -0.23713834894E+01 -0.21035500705E+01 -0.12096819304E+01  0.33928915672E+01  0.51100000000E-03 0.  1.
        -12    1    3    3    0    0 -0.27029998572E+01 -0.60683720483E+01 -0.21889483620E+02  0.22875332581E+02  0.00000000000E+00 0.  1.
</event>
<event>
 7    1  0.4432754E-010  0.4778727E+02  0.7816164E-02  0.1312668E+00
        -11   -1    0    0    0    0  0.00000000000E+00  0.00000000000E+00  0.45593999997E+02  0.45594000000E+02  0.51100000000E-03 0. -1.
         11   -1    0    0    0    0 -0.00000000000E+00 -0.00000000000E+00 -0.45593999997E+02  0.45594000000E+02  0.51100000000E-03 0.  1.
    9900012    2    1    2    0    0  0.35640861113E+02 -0.16680647548E+01  0.24709715484E+02  0.47787268898E+02  0.19999990211E+02 0.  0.
        -12    1    1    2    0    0 -0.35640861113E+02  0.16680647548E+01 -0.24709715484E+02  0.43400731102E+02  0.00000000000E+00 0.  1.
         11    1    3    3    0    0  0.52750633814E+00  0.15710028803E+01 -0.10009350253E+01  0.19360227718E+01  0.51100000000E-03 0.  1.
        -11    1    3    3    0    0  0.41487898212E+01 -0.47295703577E+01  0.78986543163E+01  0.10098021243E+02  0.51100000000E-03 0. -1.
         12    1    3    3    0    0  0.30964564954E+02  0.14905027226E+01  0.17811996193E+02  0.35753224883E+02  0.00000000000E+00 0. -1.
</event>
<event>
 7    1  0.4432754E-010  0.4778727E+02  0.7816164E-02  0.1312668E+00
        -11   -1    0    0    0    0  0.00000000000E+00  0.00000000000E+00  0.45593999997E+02  0.45594000000E+02  0.51100000000E-03 0.  1.
         11   -1    0    0    0    0 -0.00000000000E+00 -0.00000000000E+00 -0.45593999997E+02  0.45594000000E+02  0.51100000000E-03 0. -1.
    9900012    2    1    2    0    0  0.11660757565E+02  0.41474505190E+02 -0.52455010920E+01  0.47787272708E+02  0.20000007585E+02 0.  0.
        -12    1    1    2    0    0 -0.11660757565E+02 -0.41474505190E+02  0.52455010920E+01  0.43400727292E+02  0.00000000000E+00 0.  1.
         11    1    3    3    0    0  0.68768757651E+01  0.65486989632E+01 -0.17326797130E+01  0.96529300032E+01  0.51100000000E-03 0. -1.
        -11    1    3    3    0    0  0.17040612954E+01  0.25384577354E+00  0.22689706281E+01  0.28489455150E+01  0.51100000000E-03 0.  1.
        -12    1    3    3    0    0  0.30798205050E+01  0.34671960453E+02 -0.57817920071E+01  0.35285397190E+02  0.00000000000E+00 0.  1.
</event>
<event>
 7    1  0.4432754E-010  0.4778727E+02  0.7816164E-02  0.1312668E+00
        -11   -1    0    0    0    0  0.00000000000E+00  0.00000000000E+00  0.45593999997E+02  0.45594000000E+02  0.51100000000E-03 0.  1.
         11   -1    0    0    0    0 -0.00000000000E+00 -0.00000000000E+00 -0.45593999997E+02  0.45594000000E+02  0.51100000000E-03 0. -1.
    9900012    2    1    2    0    0  0.20045008154E+02  0.37377479552E+02 -0.92057019192E+01  0.47787271004E+02  0.19999999814E+02 0.  0.
        -12    1    1    2    0    0 -0.20045008154E+02 -0.37377479552E+02  0.92057019192E+01  0.43400728996E+02  0.00000000000E+00 0.  1.
         11    1    3    3    0    0  0.45968123254E+00 -0.16376974795E+01 -0.97368952737E+00  0.19599569961E+01  0.51100000000E-03 0. -1.
        -11    1    3    3    0    0 -0.60870164870E+00  0.19676460709E+00 -0.14013437615E+01  0.15404540262E+01  0.51100000000E-03 0.  1.
         12    1    3    3    0    0  0.20194028571E+02  0.38818412425E+02 -0.68306686303E+01  0.44286859981E+02  0.00000000000E+00 0. -1.
</event>
<event>
 7    1  0.4432754E-010  0.4778727E+02  0.7816164E-02  0.1312668E+00
        -11   -1    0    0    0    0  0.00000000000E+00  0.00000000000E+00  0.45593999997E+02  0.45594000000E+02  0.51100000000E-03 0.  1.
         11   -1    0    0    0    0 -0.00000000000E+00 -0.00000000000E+00 -0.45593999997E+02  0.45594000000E+02  0.51100000000E-03 0. -1.
    9900012    2    1    2    0    0 -0.21574425809E+02  0.17385019584E+02 -0.33405515073E+02  0.47787271985E+02  0.20000004290E+02 0.  0.
        -12    1    1    2    0    0  0.21574425809E+02 -0.17385019584E+02  0.33405515073E+02  0.43400728015E+02  0.00000000000E+00 0.  1.
         11    1    3    3    0    0 -0.18369897496E+01  0.69003284884E+01 -0.25337269629E+01  0.75768619607E+01  0.51100000000E-03 0. -1.
        -11    1    3    3    0    0 -0.47225520828E+01  0.10047923956E+01 -0.27737769969E+00  0.48362221395E+01  0.51100000000E-03 0.  1.
         12    1    3    3    0    0 -0.15014883976E+02  0.94798986997E+01 -0.30594410410E+02  0.35374187885E+02  0.00000000000E+00 0. -1.
</event>
<event>
 7    1  0.4432754E-010  0.4778729E+02  0.7816164E-02  0.1312668E+00
        -11   -1    0    0    0    0  0.00000000000E+00  0.00000000000E+00  0.45593999997E+02  0.45594000000E+02  0.51100000000E-03 0.  1.
         11   -1    0    0    0    0 -0.00000000000E+00 -0.00000000000E+00 -0.45593999997E+02  0.45594000000E+02  0.51100000000E-03 0. -1.
    9900012    2    1    2    0    0 -0.29897017629E+02  0.28994374864E+02  0.12211309261E+02  0.47787291357E+02  0.20000092612E+02 0.  0.
        -12    1    1    2    0    0  0.29897017629E+02 -0.28994374864E+02 -0.12211309261E+02  0.43400708643E+02  0.00000000000E+00 0.  1.
         11    1    3    3    0    0  0.10997708044E-01  0.53694607821E+01  0.19975498477E+01  0.57289995371E+01  0.51100000000E-03 0. -1.
        -11    1    3    3    0    0 -0.56260137666E+01  0.48995261243E+01  0.85533699395E+01  0.11349780823E+02  0.51100000000E-03 0.  1.
         12    1    3    3    0    0 -0.24282001571E+02  0.18725387958E+02  0.16603894735E+01  0.30708510997E+02  0.00000000000E+00 0. -1.
</event>
<event>
 7    1  0.4432754E-010  0.4778726E+02  0.7816164E-02  0.1312668E+00
        -11   -1    0    0    0    0  0.00000000000E+00  0.00000000000E+00  0.45593999997E+02  0.45594000000E+02  0.51100000000E-03 0. -1.
         11   -1    0    0    0    0 -0.00000000000E+00 -0.00000000000E+00 -0.45593999997E+02  0.45594000000E+02  0.51100000000E-03 0.  1.
    9900012    2    1    2    0    0 -0.22696531205E+02  0.17287728220E+02  0.32705136561E+02  0.47787262296E+02  0.19999960113E+02 0.  0.
        -12    1    1    2    0    0  0.22696531205E+02 -0.17287728220E+02 -0.32705136561E+02  0.43400737704E+02  0.00000000000E+00 0.  1.
         11    1    3    3    0    0 -0.12965100969E+02  0.81376005709E+01  0.15541878757E+02  0.21814315982E+02  0.51100000000E-03 0. -1.
        -11    1    3    3    0    0 -0.52780490382E+01  0.11992309499E+02  0.15782487365E+02  0.20512440041E+02  0.51100000000E-03 0.  1.
        -12    1    3    3    0    0 -0.44533811977E+01 -0.28421818494E+01  0.13807704395E+01  0.54605062736E+01  0.00000000000E+00 0.  1.
</event>
<event>
 7    1  0.4432754E-010  0.4778727E+02  0.7816164E-02  0.1312668E+00
        -11   -1    0    0    0    0  0.00000000000E+00  0.00000000000E+00  0.45593999997E+02  0.45594000000E+02  0.51100000000E-03 0.  1.
         11   -1    0    0    0    0 -0.00000000000E+00 -0.00000000000E+00 -0.45593999997E+02  0.45594000000E+02  0.51100000000E-03 0. -1.
    9900012    2    1    2    0    0  0.16910953284E+02  0.32594662641E+02 -0.23135060859E+02  0.47787269423E+02  0.19999992607E+02 0.  0.
        -12    1    1    2    0    0 -0.16910953284E+02 -0.32594662641E+02  0.23135060859E+02  0.43400730577E+02  0.00000000000E+00 0.  1.
         11    1    3    3    0    0  0.14596053265E+01 -0.58841556456E+00 -0.12600262505E+01  0.20160225690E+01  0.51100000000E-03 0.  1.
        -11    1    3    3    0    0  0.17098971760E+02  0.30265956521E+02 -0.14488770237E+02  0.37660688027E+02  0.51100000000E-03 0. -1.
         12    1    3    3    0    0 -0.16476238032E+01  0.29171216844E+01 -0.73862643715E+01  0.81105588269E+01  0.00000000000E+00 0. -1.
</event>
<event>
 7    1  0.4432754E-010  0.4778727E+02  0.7816164E-02  0.1312668E+00
        -11   -1    0    0    0    0  0.00000000000E+00  0.00000000000E+00  0.45593999997E+02  0.45594000000E+02  0.51100000000E-03 0.  1.
         11   -1    0    0    0    0 -0.00000000000E+00 -0.00000000000E+00 -0.45593999997E+02  0.45594000000E+02  0.51100000000E-03 0. -1.
    9900012    2    1    2    0    0 -0.11647910564E+02  0.32840674464E+02 -0.25873530299E+02  0.47787270860E+02  0.19999999157E+02 0.  0.
        -12    1    1    2    0    0  0.11647910564E+02 -0.32840674464E+02  0.25873530299E+02  0.43400729140E+02  0.00000000000E+00 0.  1.
         11    1    3    3    0    0 -0.13136164619E+02  0.18186258085E+02 -0.13988972172E+02  0.26438421789E+02  0.51100000000E-03 0. -1.
        -11    1    3    3    0    0 -0.13660597365E+01  0.12528095164E+02 -0.49222659241E+01  0.13529522894E+02  0.51100000000E-03 0.  1.
         12    1    3    3    0    0  0.28543137916E+01  0.21263212153E+01 -0.69622922032E+01  0.78193261765E+01  0.00000000000E+00 0. -1.
</event>
<event>
 7    1  0.4432754E-010  0.4778727E+02  0.7816164E-02  0.1312668E+00
        -11   -1    0    0    0    0  0.00000000000E+00  0.00000000000E+00  0.45593999997E+02  0.45594000000E+02  0.51100000000E-03 0.  1.
         11   -1    0    0    0    0 -0.00000000000E+00 -0.00000000000E+00 -0.45593999997E+02  0.45594000000E+02  0.51100000000E-03 0. -1.
    9900012    2    1    2    0    0  0.22979663637E+02  0.22266940131E+01 -0.36750510194E+02  0.47787272971E+02  0.20000008785E+02 0.  0.
        -12    1    1    2    0    0 -0.22979663637E+02 -0.22266940131E+01  0.36750510194E+02  0.43400727029E+02  0.00000000000E+00 0.  1.
         11    1    3    3    0    0  0.32557333346E+01 -0.14348887137E+01 -0.90649063091E+01  0.97381328714E+01  0.51100000000E-03 0. -1.
        -11    1    3    3    0    0  0.91635697690E+01 -0.43319928738E+01 -0.39698145911E+01  0.10885614421E+02  0.51100000000E-03 0.  1.
        -12    1    3    3    0    0  0.10560360533E+02  0.79935756006E+01 -0.23715789294E+02  0.27163525679E+02  0.00000000000E+00 0.  1.
</event>
<event>
 7    1  0.4432754E-010  0.4778727E+02  0.7816164E-02  0.1312668E+00
        -11   -1    0    0    0    0  0.00000000000E+00  0.00000000000E+00  0.45593999997E+02  0.45594000000E+02  0.51100000000E-03 0.  1.
         11   -1    0    0    0    0 -0.00000000000E+00 -0.00000000000E+00 -0.45593999997E+02  0.45594000000E+02  0.51100000000E-03 0. -1.
    9900012    2    1    2    0    0 -0.22285561872E+02 -0.49855103355E+01 -0.36906932037E+02  0.47787271739E+02  0.20000003165E+02 0.  0.
        -12    1    1    2    0    0  0.22285561872E+02  0.49855103355E+01  0.36906932037E+02  0.43400728261E+02  0.00000000000E+00 0.  1.
         11    1    3    3    0    0 -0.85287689113E+01 -0.75004377176E+01 -0.86916980942E+01  0.14301820902E+02  0.51100000000E-03 0. -1.
        -11    1    3    3    0    0 -0.88229298566E+01 -0.19336642971E+01 -0.75293819841E+01  0.11759028114E+02  0.51100000000E-03 0.  1.
         12    1    3    3    0    0 -0.49338631044E+01  0.44485916793E+01 -0.20685851958E+02  0.21726422722E+02  0.00000000000E+00 0. -1.
</event>
<event>
 7    1  0.4432754E-010  0.4778728E+02  0.7816164E-02  0.1312668E+00
        -11   -1    0    0    0    0  0.00000000000E+00  0.00000000000E+00  0.45593999997E+02  0.45594000000E+02  0.51100000000E-03 0.  1.
         11   -1    0    0    0    0 -0.00000000000E+00 -0.00000000000E+00 -0.45593999997E+02  0.45594000000E+02  0.51100000000E-03 0. -1.
    9900012    2    1    2    0    0  0.25354186888E+02 -0.63339825038E+01 -0.34650664966E+02  0.47787277544E+02  0.20000029633E+02 0.  0.
        -12    1    1    2    0    0 -0.25354186888E+02  0.63339825038E+01  0.34650664966E+02  0.43400722456E+02  0.00000000000E+00 0.  1.
         11    1    3    3    0    0  0.23347414513E+02 -0.77714037086E+01 -0.36167113348E+02  0.43744217541E+02  0.51100000000E-03 0. -1.
        -11    1    3    3    0    0  0.13293885462E+01 -0.66559438326E+00  0.94260071599E+00  0.17603369452E+01  0.51100000000E-03 0.  1.
         12    1    3    3    0    0  0.67738382862E+00  0.21030155881E+01  0.57384766562E+00  0.22827230578E+01  0.00000000000E+00 0. -1.
</event>
<event>
 7    1  0.4432754E-010  0.4778727E+02  0.7816164E-02  0.1312668E+00
        -11   -1    0    0    0    0  0.00000000000E+00  0.00000000000E+00  0.45593999997E+02  0.45594000000E+02  0.51100000000E-03 0.  1.
         11   -1    0    0    0    0 -0.00000000000E+00 -0.00000000000E+00 -0.45593999997E+02  0.45594000000E+02  0.51100000000E-03 0. -1.
    9900012    2    1    2    0    0  0.29699970260E+02  0.40843462626E+01 -0.31382367623E+02  0.47787272869E+02  0.20000008320E+02 0.  0.
        -12    1    1    2    0    0 -0.29699970260E+02 -0.40843462626E+01  0.31382367623E+02  0.43400727131E+02  0.00000000000E+00 0.  1.
         11    1    3    3    0    0  0.10174600466E+02  0.24285049232E+01 -0.16971601816E+02  0.19936283487E+02  0.51100000000E-03 0. -1.
        -11    1    3    3    0    0  0.44832702613E+01 -0.23385193082E+01 -0.10724798261E+02  0.11857052028E+02  0.51100000000E-03 0.  1.
        -12    1    3    3    0    0  0.15042099533E+02  0.39943606475E+01 -0.36859675459E+01  0.15993937354E+02  0.00000000000E+00 0.  1.
</event>
<event>
 7    1  0.4432754E-010  0.4778727E+02  0.7816164E-02  0.1312668E+00
        -11   -1    0    0    0    0  0.00000000000E+00  0.00000000000E+00  0.45593999997E+02  0.45594000000E+02  0.51100000000E-03 0.  1.
         11   -1    0    0    0    0 -0.00000000000E+00 -0.00000000000E+00 -0.45593999997E+02  0.45594000000E+02  0.51100000000E-03 0. -1.
    9900012    2    1    2    0    0 -0.40441078464E+02  0.15351574597E+02 -0.35314693768E+01  0.47787274823E+02  0.20000017227E+02 0.  0.
        -12    1    1    2    0    0  0.40441078464E+02 -0.15351574597E+02  0.35314693768E+01  0.43400725177E+02  0.00000000000E+00 0.  1.
         11    1    3    3    0    0 -0.70112378328E+01  0.61663563485E+00 -0.19868847006E+01  0.73133717620E+01  0.51100000000E-03 0. -1.
        -11    1    3    3    0    0 -0.27908588728E+02  0.85683407744E+01  0.53755433693E+01  0.29685051039E+02  0.51100000000E-03 0.  1.
        -12    1    3    3    0    0 -0.55212519036E+01  0.61665981874E+01 -0.69201280454E+01  0.10788852022E+02  0.00000000000E+00 0.  1.
</event>
<event>
 7    1  0.4432754E-010  0.4778725E+02  0.7816164E-02  0.1312668E+00
        -11   -1    0    0    0    0  0.00000000000E+00  0.00000000000E+00  0.45593999997E+02  0.45594000000E+02  0.51100000000E-03 0.  1.
         11   -1    0    0    0    0 -0.00000000000E+00 -0.00000000000E+00 -0.45593999997E+02  0.45594000000E+02  0.51100000000E-03 0. -1.
    9900012    2    1    2    0    0  0.10942057359E+02  0.40598549881E+02 -0.10754277955E+02  0.47787246942E+02  0.19999890108E+02 0.  0.
        -12    1    1    2    0    0 -0.10942057359E+02 -0.40598549881E+02  0.10754277955E+02  0.43400753058E+02  0.00000000000E+00 0.  1.
         11    1    3    3    0    0  0.39843534117E+01  0.60476946392E+01 -0.28500597310E+01  0.77828351704E+01  0.51100000000E-03 0. -1.
        -11    1    3    3    0    0  0.80283917834E+01  0.50721061565E+01 -0.12295294847E+00  0.94971813281E+01  0.51100000000E-03 0.  1.
         12    1    3    3    0    0 -0.10706878360E+01  0.29478749085E+02 -0.77812652755E+01  0.30507230444E+02  0.00000000000E+00 0. -1.
</event>
<event>
 7    1  0.4432754E-010  0.4778727E+02  0.7816164E-02  0.1312668E+00
        -11   -1    0    0    0    0  0.00000000000E+00  0.00000000000E+00  0.45593999997E+02  0.45594000000E+02  0.51100000000E-03 0. -1.
         11   -1    0    0    0    0 -0.00000000000E+00 -0.00000000000E+00 -0.45593999997E+02  0.45594000000E+02  0.51100000000E-03 0.  1.
    9900012    2    1    2    0    0 -0.30635565988E+02  0.16915680209E+02  0.25669927629E+02  0.47787270457E+02  0.19999997322E+02 0.  0.
        -12    1    1    2    0    0  0.30635565988E+02 -0.16915680209E+02 -0.25669927629E+02  0.43400729543E+02  0.00000000000E+00 0.  1.
         11    1    3    3    0    0 -0.20460414545E+02  0.15778091388E+02  0.16809664154E+02  0.30824366018E+02  0.51100000000E-03 0. -1.
        -11    1    3    3    0    0 -0.98160793514E+01  0.46954598869E+01  0.69057522899E+01  0.12887675211E+02  0.51100000000E-03 0.  1.
        -12    1    3    3    0    0 -0.35907209227E+00 -0.35578710658E+01  0.19545111856E+01  0.40752292283E+01  0.00000000000E+00 0.  1.
</event>
<event>
 7    1  0.4432754E-010  0.4778725E+02  0.7816164E-02  0.1312668E+00
        -11   -1    0    0    0    0  0.00000000000E+00  0.00000000000E+00  0.45593999997E+02  0.45594000000E+02  0.51100000000E-03 0.  1.
         11   -1    0    0    0    0 -0.00000000000E+00 -0.00000000000E+00 -0.45593999997E+02  0.45594000000E+02  0.51100000000E-03 0. -1.
    9900012    2    1    2    0    0 -0.40536215564E+02 -0.19110166521E+01 -0.15387935577E+02  0.47787247493E+02  0.19999892618E+02 0.  0.
        -12    1    1    2    0    0  0.40536215564E+02  0.19110166521E+01  0.15387935577E+02  0.43400752507E+02  0.00000000000E+00 0.  1.
         11    1    3    3    0    0 -0.10016554284E+02 -0.58075538934E+01 -0.67785683785E+01  0.13416707177E+02  0.51100000000E-03 0. -1.
        -11    1    3    3    0    0 -0.20551079875E+02 -0.84484564271E-01  0.93828615050E-01  0.20551467727E+02  0.51100000000E-03 0.  1.
         12    1    3    3    0    0 -0.99685814047E+01  0.39810218056E+01 -0.87031958136E+01  0.13819072589E+02  0.00000000000E+00 0. -1.
</event>
<event>
 7    1  0.4432754E-010  0.4778727E+02  0.7816164E-02  0.1312668E+00
        -11   -1    0    0    0    0  0.00000000000E+00  0.00000000000E+00  0.45593999997E+02  0.45594000000E+02  0.51100000000E-03 0.  1.
         11   -1    0    0    0    0 -0.00000000000E+00 -0.00000000000E+00 -0.45593999997E+02  0.45594000000E+02  0.51100000000E-03 0. -1.
    9900012    2    1    2    0    0  0.59935971999E+01  0.10165720828E+02 -0.41765513464E+02  0.47787271869E+02  0.20000003761E+02 0.  0.
        -12    1    1    2    0    0 -0.59935971999E+01 -0.10165720828E+02  0.41765513464E+02  0.43400728131E+02  0.00000000000E+00 0.  1.
         11    1    3    3    0    0  0.18873663129E+01  0.23897327353E+01 -0.30096897671E+01  0.42814958718E+01  0.51100000000E-03 0. -1.
        -11    1    3    3    0    0 -0.46299483359E+01 -0.32681611784E+01 -0.10292098293E+02  0.11749237704E+02  0.51100000000E-03 0.  1.
         12    1    3    3    0    0  0.87361792229E+01  0.11044149272E+02 -0.28463725404E+02  0.31756538294E+02  0.00000000000E+00 0. -1.
</event>
<event>
 7    1  0.4432754E-010  0.4778727E+02  0.7816164E-02  0.1312668E+00
        -11   -1    0    0    0    0  0.00000000000E+00  0.00000000000E+00  0.45593999997E+02  0.45594000000E+02  0.51100000000E-03 0.  1.
         11   -1    0    0    0    0 -0.00000000000E+00 -0.00000000000E+00 -0.45593999997E+02  0.45594000000E+02  0.51100000000E-03 0. -1.
    9900012    2    1    2    0    0 -0.41620151120E+02  0.60256456210E+01 -0.10727437983E+02  0.47787270627E+02  0.19999998096E+02 0.  0.
        -12    1    1    2    0    0  0.41620151120E+02 -0.60256456210E+01  0.10727437983E+02  0.43400729373E+02  0.00000000000E+00 0.  1.
         11    1    3    3    0    0 -0.59620829138E+01  0.47099181621E+01 -0.11229767667E+01  0.76805493843E+01  0.51100000000E-03 0. -1.
        -11    1    3    3    0    0 -0.78559312458E+01  0.61598811815E+01  0.83245342574E+00  0.10017623015E+02  0.51100000000E-03 0.  1.
        -12    1    3    3    0    0 -0.27802136961E+02 -0.48441537226E+01 -0.10436914642E+02  0.30089098227E+02  0.00000000000E+00 0.  1.
</event>
<event>
 7    1  0.4432754E-010  0.4778727E+02  0.7816164E-02  0.1312668E+00
        -11   -1    0    0    0    0  0.00000000000E+00  0.00000000000E+00  0.45593999997E+02  0.45594000000E+02  0.51100000000E-03 0. -1.
         11   -1    0    0    0    0 -0.00000000000E+00 -0.00000000000E+00 -0.45593999997E+02  0.45594000000E+02  0.51100000000E-03 0.  1.
    9900012    2    1    2    0    0  0.68236114342E+01  0.26604231213E+02  0.33604710538E+02  0.47787270031E+02  0.19999995380E+02 0.  0.
        -12    1    1    2    0    0 -0.68236114342E+01 -0.26604231213E+02 -0.33604710538E+02  0.43400729969E+02  0.00000000000E+00 0.  1.
         11    1    3    3    0    0  0.11543796002E+01  0.93172978640E+01  0.89281559227E+01  0.12955948448E+02  0.51100000000E-03 0. -1.
        -11    1    3    3    0    0  0.78218244290E+01  0.11317183679E+02  0.24936929992E+02  0.28479994057E+02  0.51100000000E-03 0.  1.
        -12    1    3    3    0    0 -0.21525925951E+01  0.59697496705E+01 -0.26037537584E+00  0.63513275262E+01  0.00000000000E+00 0.  1.
</event>
<event>
 7    1  0.4432754E-010  0.4778727E+02  0.7816164E-02  0.1312668E+00
        -11   -1    0    0    0    0  0.00000000000E+00  0.00000000000E+00  0.45593999997E+02  0.45594000000E+02  0.51100000000E-03 0. -1.
         11   -1    0    0    0    0 -0.00000000000E+00 -0.00000000000E+00 -0.45593999997E+02  0.45594000000E+02  0.51100000000E-03 0.  1.
    9900012    2    1    2    0    0 -0.22003956439E+02 -0.16087608427E+02  0.33773334431E+02  0.47787270024E+02  0.19999995347E+02 0.  0.
        -12    1    1    2    0    0  0.22003956439E+02  0.16087608427E+02 -0.33773334431E+02  0.43400729976E+02  0.00000000000E+00 0.  1.
         11    1    3    3    0    0 -0.78888247699E+01 -0.74399195267E+01  0.14633739210E+02  0.18213519219E+02  0.51100000000E-03 0. -1.
        -11    1    3    3    0    0 -0.12159984982E+02 -0.12819312651E+02  0.16903997407E+02  0.24452916803E+02  0.51100000000E-03 0.  1.
        -12    1    3    3    0    0 -0.19551466870E+01  0.41716237507E+01  0.22355978143E+01  0.51208340016E+01  0.00000000000E+00 0.  1.
</event>
<event>
 7    1  0.4432754E-010  0.4778727E+02  0.7816164E-02  0.1312668E+00
        -11   -1    0    0    0    0  0.00000000000E+00  0.00000000000E+00  0.45593999997E+02  0.45594000000E+02  0.51100000000E-03 0.  1.
         11   -1    0    0    0    0 -0.00000000000E+00 -0.00000000000E+00 -0.45593999997E+02  0.45594000000E+02  0.51100000000E-03 0. -1.
    9900012    2    1    2    0    0  0.29696517975E+02  0.19752866328E+02 -0.24729834477E+02  0.47787267042E+02  0.19999981753E+02 0.  0.
        -12    1    1    2    0    0 -0.29696517975E+02 -0.19752866328E+02  0.24729834477E+02  0.43400732958E+02  0.00000000000E+00 0.  1.
         11    1    3    3    0    0  0.19457254235E+02  0.12768773135E+02 -0.98071061614E+01  0.25254814220E+02  0.51100000000E-03 0. -1.
        -11    1    3    3    0    0 -0.15886636458E+01 -0.12427222896E+01 -0.36345716627E+00  0.20494663309E+01  0.51100000000E-03 0.  1.
         12    1    3    3    0    0  0.11827927386E+02  0.82268154820E+01 -0.14559271149E+02  0.20482986492E+02  0.00000000000E+00 0. -1.
</event>
<event>
 7    1  0.4432754E-010  0.4778727E+02  0.7816164E-02  0.1312668E+00
        -11   -1    0    0    0    0  0.00000000000E+00  0.00000000000E+00  0.45593999997E+02  0.45594000000E+02  0.51100000000E-03 0. -1.
         11   -1    0    0    0    0 -0.00000000000E+00 -0.00000000000E+00 -0.45593999997E+02  0.45594000000E+02  0.51100000000E-03 0.  1.
    9900012    2    1    2    0    0  0.19339278127E+02  0.37685850504E+02  0.94547464766E+01  0.47787271462E+02  0.20000001904E+02 0.  0.
        -12    1    1    2    0    0 -0.19339278127E+02 -0.37685850504E+02 -0.94547464766E+01  0.43400728538E+02  0.00000000000E+00 0.  1.
         11    1    3    3    0    0  0.42788555497E+01  0.11511098185E+02  0.10532419180E+02  0.16178561132E+02  0.51100000000E-03 0.  1.
        -11    1    3    3    0    0  0.13469630744E+02  0.21266721403E+02  0.25489782799E+01  0.25302207060E+02  0.51100000000E-03 0. -1.
        -12    1    3    3    0    0  0.15907918331E+01  0.49080309168E+01 -0.36266509837E+01  0.63065032700E+01  0.00000000000E+00 0.  1.
</event>
<event>
 7    1  0.4432754E-010  0.4778727E+02  0.7816164E-02  0.1312668E+00
        -11   -1    0    0    0    0  0.00000000000E+00  0.00000000000E+00  0.45593999997E+02  0.45594000000E+02  0.51100000000E-03 0. -1.
         11   -1    0    0    0    0 -0.00000000000E+00 -0.00000000000E+00 -0.45593999997E+02  0.45594000000E+02  0.51100000000E-03 0.  1.
    9900012    2    1    2    0    0  0.13184006053E+02 -0.17913982944E+02  0.37267878767E+02  0.47787267422E+02  0.19999983483E+02 0.  0.
        -12    1    1    2    0    0 -0.13184006053E+02  0.17913982944E+02 -0.37267878767E+02  0.43400732578E+02  0.00000000000E+00 0.  1.
         11    1    3    3    0    0  0.53784607630E+01 -0.36885921221E+01  0.27455851681E+02  0.28219804106E+02  0.51100000000E-03 0. -1.
        -11    1    3    3    0    0  0.35139915501E+01 -0.21661633380E+01  0.25033685107E+01  0.48277587329E+01  0.51100000000E-03 0.  1.
        -12    1    3    3    0    0  0.42915537397E+01 -0.12059227484E+02  0.73086585758E+01  0.14739704583E+02  0.00000000000E+00 0.  1.
</event>
<event>
 7    1  0.4432754E-010  0.4778728E+02  0.7816164E-02  0.1312668E+00
        -11   -1    0    0    0    0  0.00000000000E+00  0.00000000000E+00  0.45593999997E+02  0.45594000000E+02  0.51100000000E-03 0. -1.
         11   -1    0    0    0    0 -0.00000000000E+00 -0.00000000000E+00 -0.45593999997E+02  0.45594000000E+02  0.51100000000E-03 0.  1.
    9900012    2    1    2    0    0 -0.40480812750E+02 -0.14786566645E+01  0.15580104556E+02  0.47787282444E+02  0.20000051974E+02 0.  0.
        -12    1    1    2    0    0  0.40480812750E+02  0.14786566645E+01 -0.15580104556E+02  0.43400717556E+02  0.00000000000E+00 0.  1.
         11    1    3    3    0    0 -0.19455704800E+02  0.14382965124E+01  0.48440372747E+01  0.20101190102E+02  0.51100000000E-03 0. -1.
        -11    1    3    3    0    0 -0.10204586953E+02  0.51539929296E+01  0.19975351099E+01  0.11605489424E+02  0.51100000000E-03 0.  1.
         12    1    3    3    0    0 -0.10820520997E+02 -0.80709461064E+01  0.87385321713E+01  0.16080602918E+02  0.00000000000E+00 0. -1.
</event>
<event>
 7    1  0.4432754E-010  0.4778728E+02  0.7816164E-02  0.1312668E+00
        -11   -1    0    0    0    0  0.00000000000E+00  0.00000000000E+00  0.45593999997E+02  0.45594000000E+02  0.51100000000E-03 0.  1.
         11   -1    0    0    0    0 -0.00000000000E+00 -0.00000000000E+00 -0.45593999997E+02  0.45594000000E+02  0.51100000000E-03 0. -1.
    9900012    2    1    2    0    0 -0.54567259883E+01 -0.51344181682E+01 -0.42749082846E+02  0.47787283501E+02  0.20000056793E+02 0.  0.
        -12    1    1    2    0    0  0.54567259883E+01  0.51344181682E+01  0.42749082846E+02  0.43400716499E+02  0.00000000000E+00 0.  1.
         11    1    3    3    0    0  0.30488720703E+01 -0.10022958418E+00 -0.12103250397E+02  0.12481760185E+02  0.51100000000E-03 0. -1.
        -11    1    3    3    0    0  0.27255010607E+01  0.16868701442E+01 -0.12672142735E+02  0.13071231338E+02  0.51100000000E-03 0.  1.
         12    1    3    3    0    0 -0.11231099119E+02 -0.67210587282E+01 -0.17973689714E+02  0.22234291978E+02  0.00000000000E+00 0. -1.
</event>
<event>
 7    1  0.4432754E-010  0.4778727E+02  0.7816164E-02  0.1312668E+00
        -11   -1    0    0    0    0  0.00000000000E+00  0.00000000000E+00  0.45593999997E+02  0.45594000000E+02  0.51100000000E-03 0.  1.
         11   -1    0    0    0    0 -0.00000000000E+00 -0.00000000000E+00 -0.45593999997E+02  0.45594000000E+02  0.51100000000E-03 0. -1.
    9900012    2    1    2    0    0  0.65286500946E+01 -0.31813238808E+02 -0.28790933049E+02  0.47787271188E+02  0.20000000656E+02 0.  0.
        -12    1    1    2    0    0 -0.65286500946E+01  0.31813238808E+02  0.28790933049E+02  0.43400728812E+02  0.00000000000E+00 0.  1.
         11    1    3    3    0    0  0.22158276663E+01 -0.76968699261E+01  0.44595123598E+00  0.80218808064E+01  0.51100000000E-03 0. -1.
        -11    1    3    3    0    0  0.55857483568E+01 -0.16066801225E+02 -0.12368352281E+02  0.21031377147E+02  0.51100000000E-03 0.  1.
        -12    1    3    3    0    0 -0.12729259286E+01 -0.80495676577E+01 -0.16868532004E+02  0.18734013235E+02  0.00000000000E+00 0.  1.
</event>
<event>
 7    1  0.4432754E-010  0.4778727E+02  0.7816164E-02  0.1312668E+00
        -11   -1    0    0    0    0  0.00000000000E+00  0.00000000000E+00  0.45593999997E+02  0.45594000000E+02  0.51100000000E-03 0.  1.
         11   -1    0    0    0    0 -0.00000000000E+00 -0.00000000000E+00 -0.45593999997E+02  0.45594000000E+02  0.51100000000E-03 0. -1.
    9900012    2    1    2    0    0 -0.30926335976E+02 -0.26811246258E+02  0.14434066234E+02  0.47787269005E+02  0.19999990702E+02 0.  0.
        -12    1    1    2    0    0  0.30926335976E+02  0.26811246258E+02 -0.14434066234E+02  0.43400730995E+02  0.00000000000E+00 0.  1.
         11    1    3    3    0    0 -0.36912704398E+00  0.13309285271E+01  0.12414019903E+01  0.18570688414E+01  0.51100000000E-03 0. -1.
        -11    1    3    3    0    0 -0.11371770631E+02 -0.72177871260E+01  0.11119767227E+02  0.17466048257E+02  0.51100000000E-03 0.  1.
         12    1    3    3    0    0 -0.19185438300E+02 -0.20924387660E+02  0.20728970171E+01  0.28464151906E+02  0.00000000000E+00 0. -1.
</event>
<event>
 7    1  0.4432754E-010  0.4778727E+02  0.7816164E-02  0.1312668E+00
        -11   -1    0    0    0    0  0.00000000000E+00  0.00000000000E+00  0.45593999997E+02  0.45594000000E+02  0.51100000000E-03 0.  1.
         11   -1    0    0    0    0 -0.00000000000E+00 -0.00000000000E+00 -0.45593999997E+02  0.45594000000E+02  0.51100000000E-03 0. -1.
    9900012    2    1    2    0    0  0.39175977107E+02 -0.16022107872E+02  0.95999026409E+01  0.47787271277E+02  0.20000001062E+02 0.  0.
        -12    1    1    2    0    0 -0.39175977107E+02  0.16022107872E+02 -0.95999026409E+01  0.43400728723E+02  0.00000000000E+00 0.  1.
         11    1    3    3    0    0  0.13528558645E+02 -0.59624083434E+01  0.26601138587E+01  0.15021598392E+02  0.51100000000E-03 0. -1.
        -11    1    3    3    0    0  0.17905463926E+02 -0.13183425493E+02  0.92820832274E+01  0.24094925097E+02  0.51100000000E-03 0.  1.
        -12    1    3    3    0    0  0.77419545364E+01  0.31237259637E+01 -0.23422944452E+01  0.86707477883E+01  0.00000000000E+00 0.  1.
</event>
<event>
 7    1  0.4432754E-010  0.4778727E+02  0.7816164E-02  0.1312668E+00
        -11   -1    0    0    0    0  0.00000000000E+00  0.00000000000E+00  0.45593999997E+02  0.45594000000E+02  0.51100000000E-03 0.  1.
         11   -1    0    0    0    0 -0.00000000000E+00 -0.00000000000E+00 -0.45593999997E+02  0.45594000000E+02  0.51100000000E-03 0. -1.
    9900012    2    1    2    0    0 -0.34944513254E+02 -0.13142447304E+02 -0.22130984221E+02  0.47787269703E+02  0.19999993885E+02 0.  0.
        -12    1    1    2    0    0  0.34944513254E+02  0.13142447304E+02  0.22130984221E+02  0.43400730297E+02  0.00000000000E+00 0.  1.
         11    1    3    3    0    0 -0.70710309045E+01 -0.69870052380E+01 -0.48332749973E+01  0.11053427871E+02  0.51100000000E-03 0. -1.
        -11    1    3    3    0    0 -0.91531700551E+01  0.39512089870E+01 -0.10308831284E+02  0.14341010328E+02  0.51100000000E-03 0.  1.
         12    1    3    3    0    0 -0.18720312294E+02 -0.10106651053E+02 -0.69888779392E+01  0.22392831504E+02  0.00000000000E+00 0. -1.
</event>
<event>
 7    1  0.4432754E-010  0.4778730E+02  0.7816164E-02  0.1312668E+00
        -11   -1    0    0    0    0  0.00000000000E+00  0.00000000000E+00  0.45593999997E+02  0.45594000000E+02  0.51100000000E-03 0. -1.
         11   -1    0    0    0    0 -0.00000000000E+00 -0.00000000000E+00 -0.45593999997E+02  0.45594000000E+02  0.51100000000E-03 0.  1.
    9900012    2    1    2    0    0  0.36842201197E+02 -0.21549456166E+02  0.78672758349E+01  0.47787298633E+02  0.20000125789E+02 0.  0.
        -12    1    1    2    0    0 -0.36842201197E+02  0.21549456166E+02 -0.78672758349E+01  0.43400701367E+02  0.00000000000E+00 0.  1.
         11    1    3    3    0    0  0.19068592797E+02 -0.11529885036E+02  0.29845449702E+01  0.22482370630E+02  0.51100000000E-03 0. -1.
        -11    1    3    3    0    0  0.15985320450E+02 -0.71143266158E+01 -0.20120749598E+01  0.17612284321E+02  0.51100000000E-03 0.  1.
         12    1    3    3    0    0  0.17882879498E+01 -0.29052445137E+01  0.68948058244E+01  0.76926436829E+01  0.00000000000E+00 0. -1.
</event>
<event>
 7    1  0.4432754E-010  0.4778727E+02  0.7816164E-02  0.1312668E+00
        -11   -1    0    0    0    0  0.00000000000E+00  0.00000000000E+00  0.45593999997E+02  0.45594000000E+02  0.51100000000E-03 0. -1.
         11   -1    0    0    0    0 -0.00000000000E+00 -0.00000000000E+00 -0.45593999997E+02  0.45594000000E+02  0.51100000000E-03 0.  1.
    9900012    2    1    2    0    0 -0.33795706601E+02 -0.47099084646E+01  0.26819589243E+02  0.47787269711E+02  0.19999993923E+02 0.  0.
        -12    1    1    2    0    0  0.33795706601E+02  0.47099084646E+01 -0.26819589243E+02  0.43400730289E+02  0.00000000000E+00 0.  1.
         11    1    3    3    0    0 -0.78261207117E+01  0.11372650084E+01  0.55597948235E+01  0.96671017287E+01  0.51100000000E-03 0. -1.
        -11    1    3    3    0    0 -0.53776029223E+00 -0.10009545207E+01  0.97014455220E+01  0.97677603145E+01  0.51100000000E-03 0.  1.
        -12    1    3    3    0    0 -0.25431825598E+02 -0.48462189523E+01  0.11558348897E+02  0.28352407668E+02  0.00000000000E+00 0.  1.
</event>
<event>
 7    1  0.4432754E-010  0.4778727E+02  0.7816164E-02  0.1312668E+00
        -11   -1    0    0    0    0  0.00000000000E+00  0.00000000000E+00  0.45593999997E+02  0.45594000000E+02  0.51100000000E-03 0.  1.
         11   -1    0    0    0    0 -0.00000000000E+00 -0.00000000000E+00 -0.45593999997E+02  0.45594000000E+02  0.51100000000E-03 0. -1.
    9900012    2    1    2    0    0 -0.28602424892E+02  0.17745295534E+02 -0.27397611142E+02  0.47787270518E+02  0.19999997599E+02 0.  0.
        -12    1    1    2    0    0  0.28602424892E+02 -0.17745295534E+02  0.27397611142E+02  0.43400729482E+02  0.00000000000E+00 0.  1.
         11    1    3    3    0    0 -0.14476347055E+02  0.13851099604E+02 -0.24015127288E+02  0.31275292536E+02  0.51100000000E-03 0. -1.
        -11    1    3    3    0    0 -0.67970922925E+01  0.49981001067E+01 -0.34107802840E+01  0.91002687167E+01  0.51100000000E-03 0.  1.
         12    1    3    3    0    0 -0.73289855441E+01 -0.11039041763E+01  0.28296430161E-01  0.74117092646E+01  0.00000000000E+00 0. -1.
</event>
<event>
 7    1  0.4432754E-010  0.4778727E+02  0.7816164E-02  0.1312668E+00
        -11   -1    0    0    0    0  0.00000000000E+00  0.00000000000E+00  0.45593999997E+02  0.45594000000E+02  0.51100000000E-03 0.  1.
         11   -1    0    0    0    0 -0.00000000000E+00 -0.00000000000E+00 -0.45593999997E+02  0.45594000000E+02  0.51100000000E-03 0. -1.
    9900012    2    1    2    0    0  0.11003620796E+02 -0.12091933391E+02 -0.40203592205E+02  0.47787270168E+02  0.19999996006E+02 0.  0.
        -12    1    1    2    0    0 -0.11003620796E+02  0.12091933391E+02  0.40203592205E+02  0.43400729832E+02  0.00000000000E+00 0.  1.
         11    1    3    3    0    0  0.17476532718E+01 -0.54362757911E+01 -0.25145968581E+01  0.62394377996E+01  0.51100000000E-03 0. -1.
        -11    1    3    3    0    0 -0.10328057557E+01  0.30944738683E+01 -0.59027491731E+01  0.67442497220E+01  0.51100000000E-03 0.  1.
         12    1    3    3    0    0  0.10288773280E+02 -0.97501314683E+01 -0.31786246173E+02  0.34803582647E+02  0.00000000000E+00 0. -1.
</event>
<event>
 7    1  0.4432754E-010  0.4778727E+02  0.7816164E-02  0.1312668E+00
        -11   -1    0    0    0    0  0.00000000000E+00  0.00000000000E+00  0.45593999997E+02  0.45594000000E+02  0.51100000000E-03 0.  1.
         11   -1    0    0    0    0 -0.00000000000E+00 -0.00000000000E+00 -0.45593999997E+02  0.45594000000E+02  0.51100000000E-03 0. -1.
    9900012    2    1    2    0    0 -0.37485989356E+02  0.21849751546E+02 -0.10060700525E+01  0.47787271694E+02  0.20000002959E+02 0.  0.
        -12    1    1    2    0    0  0.37485989356E+02 -0.21849751546E+02  0.10060700525E+01  0.43400728306E+02  0.00000000000E+00 0.  1.
         11    1    3    3    0    0 -0.14876387685E+02  0.12005839285E+02 -0.86762095757E+01  0.20993420406E+02  0.51100000000E-03 0. -1.
        -11    1    3    3    0    0 -0.28415019165E+01 -0.53328649016E+00 -0.65763565342E+00  0.29649641711E+01  0.51100000000E-03 0.  1.
        -12    1    3    3    0    0 -0.19768099754E+02  0.10377198751E+02  0.83277751766E+01  0.23828887116E+02  0.00000000000E+00 0.  1.
</event>
<event>
 7    1  0.4432754E-010  0.4778725E+02  0.7816164E-02  0.1312668E+00
        -11   -1    0    0    0    0  0.00000000000E+00  0.00000000000E+00  0.45593999997E+02  0.45594000000E+02  0.51100000000E-03 0.  1.
         11   -1    0    0    0    0 -0.00000000000E+00 -0.00000000000E+00 -0.45593999997E+02  0.45594000000E+02  0.51100000000E-03 0. -1.
    9900012    2    1    2    0    0 -0.18336517458E+02 -0.26199853142E+02 -0.29342210723E+02  0.47787245315E+02  0.19999882688E+02 0.  0.
        -12    1    1    2    0    0  0.18336517458E+02  0.26199853142E+02  0.29342210723E+02  0.43400754685E+02  0.00000000000E+00 0.  1.
         11    1    3    3    0    0 -0.72462960661E+01 -0.83694641677E+01 -0.22879967477E+01  0.11304497623E+02  0.51100000000E-03 0. -1.
        -11    1    3    3    0    0  0.21566693238E+01 -0.65763078821E+01 -0.58302754004E+01  0.90493734279E+01  0.51100000000E-03 0.  1.
         12    1    3    3    0    0 -0.13246890716E+02 -0.11254081092E+02 -0.21223938575E+02  0.27433374264E+02  0.00000000000E+00 0. -1.
</event>
<event>
 7    1  0.4432754E-010  0.4778725E+02  0.7816164E-02  0.1312668E+00
        -11   -1    0    0    0    0  0.00000000000E+00  0.00000000000E+00  0.45593999997E+02  0.45594000000E+02  0.51100000000E-03 0.  1.
         11   -1    0    0    0    0 -0.00000000000E+00 -0.00000000000E+00 -0.45593999997E+02  0.45594000000E+02  0.51100000000E-03 0. -1.
    9900012    2    1    2    0    0 -0.86146510415E+01  0.13585465508E+02 -0.40309402714E+02  0.47787250781E+02  0.19999907610E+02 0.  0.
        -12    1    1    2    0    0  0.86146510415E+01 -0.13585465508E+02  0.40309402714E+02  0.43400749219E+02  0.00000000000E+00 0.  1.
         11    1    3    3    0    0 -0.10186822895E+02  0.37256608126E+01 -0.24556297294E+02  0.26845179200E+02  0.51100000000E-03 0. -1.
        -11    1    3    3    0    0  0.31336874713E+01 -0.58243934989E+00 -0.29087391197E+01  0.43150893724E+01  0.51100000000E-03 0.  1.
        -12    1    3    3    0    0 -0.15615156178E+01  0.10442244046E+02 -0.12844366300E+02  0.16626982209E+02  0.00000000000E+00 0.  1.
</event>
<event>
 7    1  0.4432754E-010  0.4778727E+02  0.7816164E-02  0.1312668E+00
        -11   -1    0    0    0    0  0.00000000000E+00  0.00000000000E+00  0.45593999997E+02  0.45594000000E+02  0.51100000000E-03 0.  1.
         11   -1    0    0    0    0 -0.00000000000E+00 -0.00000000000E+00 -0.45593999997E+02  0.45594000000E+02  0.51100000000E-03 0. -1.
    9900012    2    1    2    0    0 -0.27345300249E+02 -0.27887332044E+01 -0.33586913287E+02  0.47787271633E+02  0.20000002684E+02 0.  0.
        -12    1    1    2    0    0  0.27345300249E+02  0.27887332044E+01  0.33586913287E+02  0.43400728367E+02  0.00000000000E+00 0.  1.
         11    1    3    3    0    0 -0.15598677951E+02 -0.91632548270E-01 -0.86270636050E+01  0.17825638195E+02  0.51100000000E-03 0. -1.
        -11    1    3    3    0    0 -0.67910189654E+01  0.42719044337E+01 -0.12097960862E+02  0.14516465250E+02  0.51100000000E-03 0.  1.
         12    1    3    3    0    0 -0.49556033330E+01 -0.69690050898E+01 -0.12861888820E+02  0.15445168188E+02  0.00000000000E+00 0. -1.
</event>
<event>
 7    1  0.4432754E-010  0.4778727E+02  0.7816164E-02  0.1312668E+00
        -11   -1    0    0    0    0  0.00000000000E+00  0.00000000000E+00  0.45593999997E+02  0.45594000000E+02  0.51100000000E-03 0.  1.
         11   -1    0    0    0    0 -0.00000000000E+00 -0.00000000000E+00 -0.45593999997E+02  0.45594000000E+02  0.51100000000E-03 0. -1.
    9900012    2    1    2    0    0 -0.10607366819E+02  0.34834536210E+02 -0.23614867652E+02  0.47787272840E+02  0.20000008184E+02 0.  0.
        -12    1    1    2    0    0  0.10607366819E+02 -0.34834536210E+02  0.23614867652E+02  0.43400727160E+02  0.00000000000E+00 0.  1.
         11    1    3    3    0    0  0.28599577479E+01  0.26515471671E+01 -0.35108657262E+01  0.52474983666E+01  0.51100000000E-03 0. -1.
        -11    1    3    3    0    0 -0.37804058593E+01  0.12733812983E+02 -0.52770003240E+00  0.13293604821E+02  0.51100000000E-03 0.  1.
         12    1    3    3    0    0 -0.96869187078E+01  0.19449176060E+02 -0.19576301894E+02  0.29246169652E+02  0.00000000000E+00 0. -1.
</event>
<event>
 7    1  0.4432754E-010  0.4778727E+02  0.7816164E-02  0.1312668E+00
        -11   -1    0    0    0    0  0.00000000000E+00  0.00000000000E+00  0.45593999997E+02  0.45594000000E+02  0.51100000000E-03 0. -1.
         11   -1    0    0    0    0 -0.00000000000E+00 -0.00000000000E+00 -0.45593999997E+02  0.45594000000E+02  0.51100000000E-03 0.  1.
    9900012    2    1    2    0    0 -0.43322004577E+01  0.11003352304E+02  0.41758609129E+02  0.47787272367E+02  0.20000006028E+02 0.  0.
        -12    1    1    2    0    0  0.43322004577E+01 -0.11003352304E+02 -0.41758609129E+02  0.43400727633E+02  0.00000000000E+00 0.  1.
         11    1    3    3    0    0  0.11714043697E+01  0.69060570925E+01  0.12223158571E+02  0.14087988447E+02  0.51100000000E-03 0.  1.
        -11    1    3    3    0    0 -0.58942280123E+01  0.74518613141E+01  0.96986128117E+01  0.13577011882E+02  0.51100000000E-03 0. -1.
        -12    1    3    3    0    0  0.39062318480E+00 -0.33545661022E+01  0.19836837746E+02  0.20122272038E+02  0.00000000000E+00 0.  1.
</event>
<event>
 7    1  0.4432754E-010  0.4778727E+02  0.7816164E-02  0.1312668E+00
        -11   -1    0    0    0    0  0.00000000000E+00  0.00000000000E+00  0.45593999997E+02  0.45594000000E+02  0.51100000000E-03 0.  1.
         11   -1    0    0    0    0 -0.00000000000E+00 -0.00000000000E+00 -0.45593999997E+02  0.45594000000E+02  0.51100000000E-03 0. -1.
    9900012    2    1    2    0    0 -0.23905356204E+01 -0.42543857062E+00 -0.43332752003E+02  0.47787273570E+02  0.20000011513E+02 0.  0.
        -12    1    1    2    0    0  0.23905356204E+01  0.42543857062E+00  0.43332752003E+02  0.43400726430E+02  0.00000000000E+00 0.  1.
         11    1    3    3    0    0  0.11153609637E+01 -0.56704403744E+01 -0.16543963370E+02  0.17524287385E+02  0.51100000000E-03 0. -1.
        -11    1    3    3    0    0  0.46893635067E+01  0.30247395009E+01 -0.11117632241E+02  0.12439490586E+02  0.51100000000E-03 0.  1.
        -12    1    3    3    0    0 -0.81952600908E+01  0.22202623029E+01 -0.15671156393E+02  0.17823495598E+02  0.00000000000E+00 0.  1.
</event>
<event>
 7    1  0.4432754E-010  0.4778727E+02  0.7816164E-02  0.1312668E+00
        -11   -1    0    0    0    0  0.00000000000E+00  0.00000000000E+00  0.45593999997E+02  0.45594000000E+02  0.51100000000E-03 0. -1.
         11   -1    0    0    0    0 -0.00000000000E+00 -0.00000000000E+00 -0.45593999997E+02  0.45594000000E+02  0.51100000000E-03 0.  1.
    9900012    2    1    2    0    0 -0.29197396580E+02 -0.19854709637E+02  0.25237394748E+02  0.47787267800E+02  0.19999985208E+02 0.  0.
        -12    1    1    2    0    0  0.29197396580E+02  0.19854709637E+02 -0.25237394748E+02  0.43400732200E+02  0.00000000000E+00 0.  1.
         11    1    3    3    0    0  0.13896711808E+01  0.11380579022E+01  0.22659509468E+01  0.28915213528E+01  0.51100000000E-03 0. -1.
        -11    1    3    3    0    0 -0.64712540229E+00 -0.34447861221E+01  0.47154107003E+00  0.35366190005E+01  0.51100000000E-03 0.  1.
         12    1    3    3    0    0 -0.29939942358E+02 -0.17547981418E+02  0.22499902731E+02  0.41359127447E+02  0.00000000000E+00 0. -1.
</event>
<event>
 7    1  0.4432754E-010  0.4778727E+02  0.7816164E-02  0.1312668E+00
        -11   -1    0    0    0    0  0.00000000000E+00  0.00000000000E+00  0.45593999997E+02  0.45594000000E+02  0.51100000000E-03 0. -1.
         11   -1    0    0    0    0 -0.00000000000E+00 -0.00000000000E+00 -0.45593999997E+02  0.45594000000E+02  0.51100000000E-03 0.  1.
    9900012    2    1    2    0    0 -0.37928586683E+01  0.33441462338E+02  0.27402663848E+02  0.47787272285E+02  0.20000005658E+02 0.  0.
        -12    1    1    2    0    0  0.37928586683E+01 -0.33441462338E+02 -0.27402663848E+02  0.43400727715E+02  0.00000000000E+00 0.  1.
         11    1    3    3    0    0  0.33853511797E+01  0.25052335234E+02  0.22015958656E+02  0.33522865914E+02  0.51100000000E-03 0. -1.
        -11    1    3    3    0    0  0.11474787638E+01 -0.12222791718E+00  0.11435348800E+01  0.16245982458E+01  0.51100000000E-03 0.  1.
        -12    1    3    3    0    0 -0.83256886118E+01  0.85113550217E+01  0.42431703120E+01  0.12639808126E+02  0.00000000000E+00 0.  1.
</event>
<event>
 7    1  0.4432754E-010  0.4778728E+02  0.7816164E-02  0.1312668E+00
        -11   -1    0    0    0    0  0.00000000000E+00  0.00000000000E+00  0.45593999997E+02  0.45594000000E+02  0.51100000000E-03 0.  1.
         11   -1    0    0    0    0 -0.00000000000E+00 -0.00000000000E+00 -0.45593999997E+02  0.45594000000E+02  0.51100000000E-03 0. -1.
    9900012    2    1    2    0    0  0.16389541658E+02 -0.34927908981E+02 -0.19875779324E+02  0.47787279899E+02  0.20000040370E+02 0.  0.
        -12    1    1    2    0    0 -0.16389541658E+02  0.34927908981E+02  0.19875779324E+02  0.43400720101E+02  0.00000000000E+00 0.  1.
         11    1    3    3    0    0  0.63031304847E+01 -0.49641072495E+01 -0.26145015710E+01  0.84384497046E+01  0.51100000000E-03 0. -1.
        -11    1    3    3    0    0  0.40281805304E+01 -0.69701269427E+01  0.25013254347E+01  0.84300377920E+01  0.51100000000E-03 0.  1.
         12    1    3    3    0    0  0.60582306425E+01 -0.22993674789E+02 -0.19762603188E+02  0.30918792402E+02  0.00000000000E+00 0. -1.
</event>
<event>
 7    1  0.4432754E-010  0.4778727E+02  0.7816164E-02  0.1312668E+00
        -11   -1    0    0    0    0  0.00000000000E+00  0.00000000000E+00  0.45593999997E+02  0.45594000000E+02  0.51100000000E-03 0.  1.
         11   -1    0    0    0    0 -0.00000000000E+00 -0.00000000000E+00 -0.45593999997E+02  0.45594000000E+02  0.51100000000E-03 0. -1.
    9900012    2    1    2    0    0 -0.26129263872E+02 -0.33106758491E+02 -0.10238527654E+02  0.47787270320E+02  0.19999996696E+02 0.  0.
        -12    1    1    2    0    0  0.26129263872E+02  0.33106758491E+02  0.10238527654E+02  0.43400729680E+02  0.00000000000E+00 0.  1.
         11    1    3    3    0    0 -0.42185070139E+01 -0.99736555926E+01  0.13753385778E+01  0.10916096545E+02  0.51100000000E-03 0.  1.
        -11    1    3    3    0    0 -0.66906035314E+01 -0.16683831255E+02 -0.29755761769E+01  0.18220001504E+02  0.51100000000E-03 0. -1.
        -12    1    3    3    0    0 -0.15220153326E+02 -0.64492716434E+01 -0.86382900549E+01  0.18651172271E+02  0.00000000000E+00 0.  1.
</event>
<event>
 7    1  0.4432754E-010  0.4778727E+02  0.7816164E-02  0.1312668E+00
        -11   -1    0    0    0    0  0.00000000000E+00  0.00000000000E+00  0.45593999997E+02  0.45594000000E+02  0.51100000000E-03 0.  1.
         11   -1    0    0    0    0 -0.00000000000E+00 -0.00000000000E+00 -0.45593999997E+02  0.45594000000E+02  0.51100000000E-03 0. -1.
    9900012    2    1    2    0    0 -0.28605456064E+02  0.92140581887E+01 -0.31312172741E+02  0.47787272510E+02  0.20000006682E+02 0.  0.
        -12    1    1    2    0    0  0.28605456064E+02 -0.92140581887E+01  0.31312172741E+02  0.43400727490E+02  0.00000000000E+00 0.  1.
         11    1    3    3    0    0 -0.19886176210E+02  0.17231364760E+01 -0.12544790531E+02  0.23575431561E+02  0.51100000000E-03 0. -1.
        -11    1    3    3    0    0 -0.10810915610E+02  0.47632034230E+01 -0.13722129439E+02  0.18106927950E+02  0.51100000000E-03 0.  1.
        -12    1    3    3    0    0  0.20916357564E+01  0.27277182897E+01 -0.50452527700E+01  0.61049129985E+01  0.00000000000E+00 0.  1.
</event>
<event>
 7    1  0.4432754E-010  0.4778728E+02  0.7816164E-02  0.1312668E+00
        -11   -1    0    0    0    0  0.00000000000E+00  0.00000000000E+00  0.45593999997E+02  0.45594000000E+02  0.51100000000E-03 0. -1.
         11   -1    0    0    0    0 -0.00000000000E+00 -0.00000000000E+00 -0.45593999997E+02  0.45594000000E+02  0.51100000000E-03 0.  1.
    9900012    2    1    2    0    0 -0.99653247143E+01  0.15681135256E+02  0.39222660716E+02  0.47787276351E+02  0.20000024195E+02 0.  0.
        -12    1    1    2    0    0  0.99653247143E+01 -0.15681135256E+02 -0.39222660716E+02  0.43400723649E+02  0.00000000000E+00 0.  1.
         11    1    3    3    0    0  0.61025656002E+00  0.30965735174E+01  0.14119340392E+02  0.14467790225E+02  0.51100000000E-03 0. -1.
        -11    1    3    3    0    0 -0.18606549925E+01 -0.29787123758E+01  0.17231293556E+01  0.39120249815E+01  0.51100000000E-03 0.  1.
        -12    1    3    3    0    0 -0.87149262819E+01  0.15563274115E+02  0.23380190969E+02  0.29407461145E+02  0.00000000000E+00 0.  1.
</event>
<event>
 7    1  0.4432754E-010  0.4778727E+02  0.7816164E-02  0.1312668E+00
        -11   -1    0    0    0    0  0.00000000000E+00  0.00000000000E+00  0.45593999997E+02  0.45594000000E+02  0.51100000000E-03 0. -1.
         11   -1    0    0    0    0 -0.00000000000E+00 -0.00000000000E+00 -0.45593999997E+02  0.45594000000E+02  0.51100000000E-03 0.  1.
    9900012    2    1    2    0    0  0.89588370063E+00  0.12684431001E+02  0.41496093169E+02  0.47787272521E+02  0.20000006732E+02 0.  0.
        -12    1    1    2    0    0 -0.89588370063E+00 -0.12684431001E+02 -0.41496093169E+02  0.43400727479E+02  0.00000000000E+00 0.  1.
         11    1    3    3    0    0 -0.97565053742E+00 -0.17621847020E+01  0.14303806783E+01  0.24704610989E+01  0.51100000000E-03 0. -1.
        -11    1    3    3    0    0  0.49092889667E+01 -0.12677113672E+01  0.78639341118E+01  0.93567980766E+01  0.51100000000E-03 0.  1.
         12    1    3    3    0    0 -0.30377547287E+01  0.15714327070E+02  0.32201778379E+02  0.35960013346E+02  0.00000000000E+00 0. -1.
</event>
<event>
 7    1  0.4432754E-010  0.4778727E+02  0.7816164E-02  0.1312668E+00
        -11   -1    0    0    0    0  0.00000000000E+00  0.00000000000E+00  0.45593999997E+02  0.45594000000E+02  0.51100000000E-03 0.  1.
         11   -1    0    0    0    0 -0.00000000000E+00 -0.00000000000E+00 -0.45593999997E+02  0.45594000000E+02  0.51100000000E-03 0. -1.
    9900012    2    1    2    0    0 -0.35261385935E+02 -0.17155938462E+02 -0.18599241768E+02  0.47787270088E+02  0.19999995638E+02 0.  0.
        -12    1    1    2    0    0  0.35261385935E+02  0.17155938462E+02  0.18599241768E+02  0.43400729912E+02  0.00000000000E+00 0.  1.
         11    1    3    3    0    0 -0.12938115030E+02 -0.64286880924E+01 -0.32572721301E+01  0.14809884304E+02  0.51100000000E-03 0. -1.
        -11    1    3    3    0    0 -0.21342665121E+02 -0.14165292923E+02 -0.13404118678E+02  0.28910815898E+02  0.51100000000E-03 0.  1.
        -12    1    3    3    0    0 -0.98060578421E+00  0.34380425527E+01 -0.19378509596E+01  0.40665698862E+01  0.00000000000E+00 0.  1.
</event>
<event>
 7    1  0.4432754E-010  0.4778727E+02  0.7816164E-02  0.1312668E+00
        -11   -1    0    0    0    0  0.00000000000E+00  0.00000000000E+00  0.45593999997E+02  0.45594000000E+02  0.51100000000E-03 0.  1.
         11   -1    0    0    0    0 -0.00000000000E+00 -0.00000000000E+00 -0.45593999997E+02  0.45594000000E+02  0.51100000000E-03 0. -1.
    9900012    2    1    2    0    0  0.33419043966E+02  0.21878863666E+02 -0.16973682035E+02  0.47787273547E+02  0.20000011408E+02 0.  0.
        -12    1    1    2    0    0 -0.33419043966E+02 -0.21878863666E+02  0.16973682035E+02  0.43400726453E+02  0.00000000000E+00 0.  1.
         11    1    3    3    0    0  0.26537752042E+02  0.18935685893E+02 -0.11409449240E+02  0.34539658596E+02  0.51100000000E-03 0. -1.
        -11    1    3    3    0    0  0.72969731057E+01  0.84135380742E+00 -0.64843850025E-01  0.73456039725E+01  0.51100000000E-03 0.  1.
         12    1    3    3    0    0 -0.41568118231E+00  0.21018239648E+01 -0.54993889441E+01  0.59020109779E+01  0.00000000000E+00 0. -1.
</event>
<event>
 7    1  0.4432754E-010  0.4778727E+02  0.7816164E-02  0.1312668E+00
        -11   -1    0    0    0    0  0.00000000000E+00  0.00000000000E+00  0.45593999997E+02  0.45594000000E+02  0.51100000000E-03 0.  1.
         11   -1    0    0    0    0 -0.00000000000E+00 -0.00000000000E+00 -0.45593999997E+02  0.45594000000E+02  0.51100000000E-03 0. -1.
    9900012    2    1    2    0    0  0.24797436966E+02  0.33697722974E+02 -0.11540102967E+02  0.47787269704E+02  0.19999993889E+02 0.  0.
        -12    1    1    2    0    0 -0.24797436966E+02 -0.33697722974E+02  0.11540102967E+02  0.43400730296E+02  0.00000000000E+00 0.  1.
         11    1    3    3    0    0  0.12186313141E+02  0.24451580024E+02 -0.10665850183E+02  0.29328251807E+02  0.51100000000E-03 0.  1.
        -11    1    3    3    0    0  0.11992850912E+02  0.93746303230E+01 -0.36158325903E+01  0.15645651545E+02  0.51100000000E-03 0. -1.
        -12    1    3    3    0    0  0.61827291280E+00 -0.12848737296E+00  0.27415798060E+01  0.28133663524E+01  0.00000000000E+00 0.  1.
</event>
<event>
 7    1  0.9673010E-010  0.4778727E+02  0.7816164E-02  0.1312668E+00
        -11   -1    0    0    0    0  0.00000000000E+00  0.00000000000E+00  0.45593999997E+02  0.45594000000E+02  0.51100000000E-03 0. -1.
         11   -1    0    0    0    0 -0.00000000000E+00 -0.00000000000E+00 -0.45593999997E+02  0.45594000000E+02  0.51100000000E-03 0.  1.
    9900012    2    1    2    0    0 -0.38240982001E+01 -0.97487265617E+01  0.42118426082E+02  0.47787271754E+02  0.20000003236E+02 0.  0.
        -12    1    1    2    0    0  0.38240982001E+01  0.97487265617E+01 -0.42118426082E+02  0.43400728246E+02  0.00000000000E+00 0.  1.
         11    1    3    3    0    0 -0.43763416382E+01 -0.51321268050E+01  0.24329149039E+02  0.25246753948E+02  0.51100000000E-03 0. -1.
        -11    1    3    3    0    0  0.40753144199E+01 -0.59710260379E+01  0.17280774682E+02  0.18731965018E+02  0.51100000000E-03 0.  1.
        -12    1    3    3    0    0 -0.35230709818E+01  0.13544262812E+01  0.50850236182E+00  0.38085527889E+01  0.00000000000E+00 0.  1.
</event>
<event>
 7    1  0.4432754E-010  0.4778727E+02  0.7816164E-02  0.1312668E+00
        -11   -1    0    0    0    0  0.00000000000E+00  0.00000000000E+00  0.45593999997E+02  0.45594000000E+02  0.51100000000E-03 0. -1.
         11   -1    0    0    0    0 -0.00000000000E+00 -0.00000000000E+00 -0.45593999997E+02  0.45594000000E+02  0.51100000000E-03 0.  1.
    9900012    2    1    2    0    0 -0.23509444992E+02 -0.24039910503E+02  0.27441057726E+02  0.47787274776E+02  0.20000017014E+02 0.  0.
        -12    1    1    2    0    0  0.23509444992E+02  0.24039910503E+02 -0.27441057726E+02  0.43400725224E+02  0.00000000000E+00 0.  1.
         11    1    3    3    0    0 -0.14265091073E+02 -0.14372319598E+02  0.14906807150E+02  0.25144965572E+02  0.51100000000E-03 0. -1.
        -11    1    3    3    0    0 -0.88091660072E+01  0.27140739324E+00  0.70223340167E+01  0.11268906026E+02  0.51100000000E-03 0.  1.
        -12    1    3    3    0    0 -0.43518791173E+00 -0.99389982986E+01  0.55119165593E+01  0.11373403178E+02  0.00000000000E+00 0.  1.
</event>
<event>
 7    1  0.4432754E-010  0.4778727E+02  0.7816164E-02  0.1312668E+00
        -11   -1    0    0    0    0  0.00000000000E+00  0.00000000000E+00  0.45593999997E+02  0.45594000000E+02  0.51100000000E-03 0.  1.
         11   -1    0    0    0    0 -0.00000000000E+00 -0.00000000000E+00 -0.45593999997E+02  0.45594000000E+02  0.51100000000E-03 0. -1.
    9900012    2    1    2    0    0 -0.35564419954E+02 -0.56470773035E+01 -0.24226138744E+02  0.47787271352E+02  0.20000001401E+02 0.  0.
        -12    1    1    2    0    0  0.35564419954E+02  0.56470773035E+01  0.24226138744E+02  0.43400728648E+02  0.00000000000E+00 0.  1.
         11    1    3    3    0    0 -0.13767800061E+01  0.16948550555E+01 -0.49946728781E+00  0.22399831868E+01  0.51100000000E-03 0. -1.
        -11    1    3    3    0    0 -0.86286869662E+01 -0.93006228369E+01 -0.43425825748E+01  0.13409468580E+02  0.51100000000E-03 0.  1.
         12    1    3    3    0    0 -0.25558952982E+02  0.19586904779E+01 -0.19384088881E+02  0.32137819585E+02  0.00000000000E+00 0. -1.
</event>
<event>
 7    1  0.4432754E-010  0.4778727E+02  0.7816164E-02  0.1312668E+00
        -11   -1    0    0    0    0  0.00000000000E+00  0.00000000000E+00  0.45593999997E+02  0.45594000000E+02  0.51100000000E-03 0.  1.
         11   -1    0    0    0    0 -0.00000000000E+00 -0.00000000000E+00 -0.45593999997E+02  0.45594000000E+02  0.51100000000E-03 0. -1.
    9900012    2    1    2    0    0  0.12174599542E+02  0.31510235208E+02 -0.27248996943E+02  0.47787266927E+02  0.19999981229E+02 0.  0.
        -12    1    1    2    0    0 -0.12174599542E+02 -0.31510235208E+02  0.27248996943E+02  0.43400733073E+02  0.00000000000E+00 0.  1.
         11    1    3    3    0    0  0.97933890546E+01  0.29452866585E+02 -0.25708431591E+02  0.40302670809E+02  0.51100000000E-03 0. -1.
        -11    1    3    3    0    0 -0.17880178157E+01  0.14488022428E+01 -0.22423703529E+01  0.32131387628E+01  0.51100000000E-03 0.  1.
        -12    1    3    3    0    0  0.41692283032E+01  0.60856638037E+00  0.70180500099E+00  0.42714573559E+01  0.00000000000E+00 0.  1.
</event>
<event>
 7    1  0.5092543E-010  0.4778727E+02  0.7816164E-02  0.1312668E+00
        -11   -1    0    0    0    0  0.00000000000E+00  0.00000000000E+00  0.45593999997E+02  0.45594000000E+02  0.51100000000E-03 0. -1.
         11   -1    0    0    0    0 -0.00000000000E+00 -0.00000000000E+00 -0.45593999997E+02  0.45594000000E+02  0.51100000000E-03 0.  1.
    9900012    2    1    2    0    0  0.10986627361E+02  0.12432950390E+02  0.40104099201E+02  0.47787274097E+02  0.20000013920E+02 0.  0.
        -12    1    1    2    0    0 -0.10986627361E+02 -0.12432950390E+02 -0.40104099201E+02  0.43400725903E+02  0.00000000000E+00 0.  1.
         11    1    3    3    0    0 -0.31655916877E+01  0.15253829652E+01  0.14893143271E+02  0.15302074391E+02  0.51100000000E-03 0. -1.
        -11    1    3    3    0    0  0.14002695318E+01  0.12625021450E+01 -0.72251330728E+00  0.20190820113E+01  0.51100000000E-03 0.  1.
         12    1    3    3    0    0  0.12751949517E+02  0.96450652802E+01  0.25933469237E+02  0.30466117695E+02  0.00000000000E+00 0. -1.
</event>
<event>
 7    1  0.4432754E-010  0.4778727E+02  0.7816164E-02  0.1312668E+00
        -11   -1    0    0    0    0  0.00000000000E+00  0.00000000000E+00  0.45593999997E+02  0.45594000000E+02  0.51100000000E-03 0. -1.
         11   -1    0    0    0    0 -0.00000000000E+00 -0.00000000000E+00 -0.45593999997E+02  0.45594000000E+02  0.51100000000E-03 0.  1.
    9900012    2    1    2    0    0 -0.13502785349E+01  0.38699544428E+02 -0.19599620687E+02  0.47787272792E+02  0.20000007969E+02 0.  0.
        -12    1    1    2    0    0  0.13502785349E+01 -0.38699544428E+02  0.19599620687E+02  0.43400727208E+02  0.00000000000E+00 0.  1.
         11    1    3    3    0    0 -0.48670823213E-01  0.50112253901E+01 -0.80281620900E+01  0.94639386919E+01  0.51100000000E-03 0.  1.
        -11    1    3    3    0    0 -0.11244300940E+01  0.26164835563E+02 -0.14859382773E+02  0.30110865476E+02  0.51100000000E-03 0. -1.
        -12    1    3    3    0    0 -0.17717761772E+00  0.75234834753E+01  0.32879241762E+01  0.82124686240E+01  0.00000000000E+00 0.  1.
</event>
<event>
 7    1  0.4432754E-010  0.4778727E+02  0.7816164E-02  0.1312668E+00
        -11   -1    0    0    0    0  0.00000000000E+00  0.00000000000E+00  0.45593999997E+02  0.45594000000E+02  0.51100000000E-03 0.  1.
         11   -1    0    0    0    0 -0.00000000000E+00 -0.00000000000E+00 -0.45593999997E+02  0.45594000000E+02  0.51100000000E-03 0. -1.
    9900012    2    1    2    0    0  0.36325381808E+02  0.22859872159E+01 -0.23640305372E+02  0.47787272597E+02  0.20000007080E+02 0.  0.
        -12    1    1    2    0    0 -0.36325381808E+02 -0.22859872159E+01  0.23640305372E+02  0.43400727403E+02  0.00000000000E+00 0.  1.
         11    1    3    3    0    0  0.12283069403E+01  0.99049965324E+00  0.98756849271E+00  0.18614830893E+01  0.51100000000E-03 0. -1.
        -11    1    3    3    0    0  0.23318012502E+01 -0.44689272466E+01 -0.10484462390E+01  0.51485772388E+01  0.51100000000E-03 0.  1.
         12    1    3    3    0    0  0.32765273617E+02  0.57644148093E+01 -0.23579427625E+02  0.40777212269E+02  0.00000000000E+00 0. -1.
</event>
<event>
 7    1  0.4432754E-010  0.4778727E+02  0.7816164E-02  0.1312668E+00
        -11   -1    0    0    0    0  0.00000000000E+00  0.00000000000E+00  0.45593999997E+02  0.45594000000E+02  0.51100000000E-03 0.  1.
         11   -1    0    0    0    0 -0.00000000000E+00 -0.00000000000E+00 -0.45593999997E+02  0.45594000000E+02  0.51100000000E-03 0. -1.
    9900012    2    1    2    0    0 -0.27840213257E+02 -0.28762783466E+02 -0.16770453056E+02  0.47787270944E+02  0.19999999541E+02 0.  0.
        -12    1    1    2    0    0  0.27840213257E+02  0.28762783466E+02  0.16770453056E+02  0.43400729056E+02  0.00000000000E+00 0.  1.
         11    1    3    3    0    0 -0.38475132868E+01 -0.86493484758E+01 -0.72973344814E+01  0.11952643153E+02  0.51100000000E-03 0. -1.
        -11    1    3    3    0    0  0.28956997170E+00  0.17489580555E+01  0.13302311925E+00  0.17777515181E+01  0.51100000000E-03 0.  1.
        -12    1    3    3    0    0 -0.24282269942E+02 -0.21862393046E+02 -0.96061416935E+01  0.34056876273E+02  0.00000000000E+00 0.  1.
</event>
<event>
 7    1  0.4432754E-010  0.4778728E+02  0.7816164E-02  0.1312668E+00
        -11   -1    0    0    0    0  0.00000000000E+00  0.00000000000E+00  0.45593999997E+02  0.45594000000E+02  0.51100000000E-03 0.  1.
         11   -1    0    0    0    0 -0.00000000000E+00 -0.00000000000E+00 -0.45593999997E+02  0.45594000000E+02  0.51100000000E-03 0. -1.
    9900012    2    1    2    0    0 -0.27478867438E+02  0.32157814091E+02 -0.97164580679E+01  0.47787277423E+02  0.20000029083E+02 0.  0.
        -12    1    1    2    0    0  0.27478867438E+02 -0.32157814091E+02  0.97164580679E+01  0.43400722577E+02  0.00000000000E+00 0.  1.
         11    1    3    3    0    0 -0.11714104167E+02  0.21320724536E+02 -0.18904541815E+00  0.24327541381E+02  0.51100000000E-03 0. -1.
        -11    1    3    3    0    0 -0.40627715172E+01  0.64830991719E+01 -0.76754344676E+01  0.10837388145E+02  0.51100000000E-03 0.  1.
        -12    1    3    3    0    0 -0.11701991754E+02  0.43539903831E+01 -0.18519781822E+01  0.12622347898E+02  0.00000000000E+00 0.  1.
</event>
<event>
 7    1  0.4432754E-010  0.4778727E+02  0.7816164E-02  0.1312668E+00
        -11   -1    0    0    0    0  0.00000000000E+00  0.00000000000E+00  0.45593999997E+02  0.45594000000E+02  0.51100000000E-03 0.  1.
         11   -1    0    0    0    0 -0.00000000000E+00 -0.00000000000E+00 -0.45593999997E+02  0.45594000000E+02  0.51100000000E-03 0. -1.
    9900012    2    1    2    0    0  0.73124164997E+01  0.30578038169E+02 -0.29918810784E+02  0.47787273139E+02  0.20000009549E+02 0.  0.
        -12    1    1    2    0    0 -0.73124164997E+01 -0.30578038169E+02  0.29918810784E+02  0.43400726861E+02  0.00000000000E+00 0.  1.
         11    1    3    3    0    0 -0.35742389996E+01  0.36374364427E+01 -0.47456586992E+01  0.69661614288E+01  0.51100000000E-03 0. -1.
        -11    1    3    3    0    0  0.48732027107E+01  0.28146109780E+01 -0.10599186278E+02  0.12000537056E+02  0.51100000000E-03 0.  1.
        -12    1    3    3    0    0  0.60134527886E+01  0.24125990749E+02 -0.14573965807E+02  0.28820574654E+02  0.00000000000E+00 0.  1.
</event>
<event>
 7    1  0.4432754E-010  0.4778727E+02  0.7816164E-02  0.1312668E+00
        -11   -1    0    0    0    0  0.00000000000E+00  0.00000000000E+00  0.45593999997E+02  0.45594000000E+02  0.51100000000E-03 0.  1.
         11   -1    0    0    0    0 -0.00000000000E+00 -0.00000000000E+00 -0.45593999997E+02  0.45594000000E+02  0.51100000000E-03 0. -1.
    9900012    2    1    2    0    0  0.21378797630E+02  0.28957424176E+02 -0.24249487424E+02  0.47787273701E+02  0.20000012111E+02 0.  0.
        -12    1    1    2    0    0 -0.21378797630E+02 -0.28957424176E+02  0.24249487424E+02  0.43400726299E+02  0.00000000000E+00 0.  1.
         11    1    3    3    0    0  0.52196954036E+01  0.57532723973E+01 -0.21953944940E+01  0.80724915998E+01  0.51100000000E-03 0. -1.
        -11    1    3    3    0    0  0.24880136421E+01 -0.28691158489E+00 -0.94109288745E+01  0.97384861596E+01  0.51100000000E-03 0.  1.
         12    1    3    3    0    0  0.13671088584E+02  0.23491063364E+02 -0.12643164055E+02  0.29976295941E+02  0.00000000000E+00 0. -1.
</event>
<event>
 7    1  0.4432754E-010  0.4778727E+02  0.7816164E-02  0.1312668E+00
        -11   -1    0    0    0    0  0.00000000000E+00  0.00000000000E+00  0.45593999997E+02  0.45594000000E+02  0.51100000000E-03 0.  1.
         11   -1    0    0    0    0 -0.00000000000E+00 -0.00000000000E+00 -0.45593999997E+02  0.45594000000E+02  0.51100000000E-03 0. -1.
    9900012    2    1    2    0    0 -0.74524659636E+01 -0.49579911661E+01 -0.42467664270E+02  0.47787269201E+02  0.19999991597E+02 0.  0.
        -12    1    1    2    0    0  0.74524659636E+01  0.49579911661E+01  0.42467664270E+02  0.43400730799E+02  0.00000000000E+00 0.  1.
         11    1    3    3    0    0 -0.23367127271E+01  0.33690146872E+01 -0.16558124886E+02  0.17058194111E+02  0.51100000000E-03 0.  1.
        -11    1    3    3    0    0  0.14460622012E+01  0.30353079209E+01 -0.44724602992E+01  0.55952740285E+01  0.51100000000E-03 0. -1.
        -12    1    3    3    0    0 -0.65618154378E+01 -0.11362313774E+02 -0.21437079084E+02  0.25133801062E+02  0.00000000000E+00 0.  1.
</event>
<event>
 7    1  0.4432754E-010  0.4778727E+02  0.7816164E-02  0.1312668E+00
        -11   -1    0    0    0    0  0.00000000000E+00  0.00000000000E+00  0.45593999997E+02  0.45594000000E+02  0.51100000000E-03 0.  1.
         11   -1    0    0    0    0 -0.00000000000E+00 -0.00000000000E+00 -0.45593999997E+02  0.45594000000E+02  0.51100000000E-03 0. -1.
    9900012    2    1    2    0    0 -0.37947459884E+02 -0.71173533523E+01  0.19823145334E+02  0.47787268194E+02  0.19999987005E+02 0.  0.
        -12    1    1    2    0    0  0.37947459884E+02  0.71173533523E+01 -0.19823145334E+02  0.43400731806E+02  0.00000000000E+00 0.  1.
         11    1    3    3    0    0 -0.63838158438E+01 -0.66258579884E+01  0.64079775569E+01  0.11212371535E+02  0.51100000000E-03 0. -1.
        -11    1    3    3    0    0 -0.85277737902E+01 -0.87988484016E+00 -0.20648693354E+01  0.88182089328E+01  0.51100000000E-03 0.  1.
        -12    1    3    3    0    0 -0.23035870250E+02  0.38838947634E+00  0.15480037112E+02  0.27756687726E+02  0.00000000000E+00 0.  1.
</event>
<event>
 7    1  0.4432754E-010  0.4778727E+02  0.7816164E-02  0.1312668E+00
        -11   -1    0    0    0    0  0.00000000000E+00  0.00000000000E+00  0.45593999997E+02  0.45594000000E+02  0.51100000000E-03 0.  1.
         11   -1    0    0    0    0 -0.00000000000E+00 -0.00000000000E+00 -0.45593999997E+02  0.45594000000E+02  0.51100000000E-03 0. -1.
    9900012    2    1    2    0    0  0.83275327858E+01 -0.42366130210E+02 -0.44029983488E+01  0.47787272060E+02  0.20000004631E+02 0.  0.
        -12    1    1    2    0    0 -0.83275327858E+01  0.42366130210E+02  0.44029983488E+01  0.43400727940E+02  0.00000000000E+00 0.  1.
         11    1    3    3    0    0  0.10704912422E+02 -0.10402914941E+02 -0.70452958453E+00  0.14943632471E+02  0.51100000000E-03 0. -1.
        -11    1    3    3    0    0 -0.26320900875E+01 -0.95407805270E+01 -0.32435861487E+01  0.10415144870E+02  0.51100000000E-03 0.  1.
        -12    1    3    3    0    0  0.25471045079E+00 -0.22422434742E+02 -0.45488261557E+00  0.22428494719E+02  0.00000000000E+00 0.  1.
</event>
<event>
 7    1  0.4432754E-010  0.4778727E+02  0.7816164E-02  0.1312668E+00
        -11   -1    0    0    0    0  0.00000000000E+00  0.00000000000E+00  0.45593999997E+02  0.45594000000E+02  0.51100000000E-03 0.  1.
         11   -1    0    0    0    0 -0.00000000000E+00 -0.00000000000E+00 -0.45593999997E+02  0.45594000000E+02  0.51100000000E-03 0. -1.
    9900012    2    1    2    0    0  0.41437655679E+02 -0.39245181814E+01 -0.12293982961E+02  0.47787272262E+02  0.20000005550E+02 0.  0.
        -12    1    1    2    0    0 -0.41437655679E+02  0.39245181814E+01  0.12293982961E+02  0.43400727738E+02  0.00000000000E+00 0.  1.
         11    1    3    3    0    0  0.13082483216E+02  0.70760408911E+00 -0.10056027983E+02  0.16515924731E+02  0.51100000000E-03 0. -1.
        -11    1    3    3    0    0  0.77419799398E+01 -0.51606447034E+01 -0.48399134818E+01  0.10487862981E+02  0.51100000000E-03 0.  1.
        -12    1    3    3    0    0  0.20613192523E+02  0.52852243296E+00  0.26019585040E+01  0.20783484550E+02  0.00000000000E+00 0.  1.
</event>
<event>
 7    1  0.4432754E-010  0.4778728E+02  0.7816164E-02  0.1312668E+00
        -11   -1    0    0    0    0  0.00000000000E+00  0.00000000000E+00  0.45593999997E+02  0.45594000000E+02  0.51100000000E-03 0.  1.
         11   -1    0    0    0    0 -0.00000000000E+00 -0.00000000000E+00 -0.45593999997E+02  0.45594000000E+02  0.51100000000E-03 0. -1.
    9900012    2    1    2    0    0  0.33581805259E+02  0.12362801077E+02 -0.24557000171E+02  0.47787277053E+02  0.20000027394E+02 0.  0.
        -12    1    1    2    0    0 -0.33581805259E+02 -0.12362801077E+02  0.24557000171E+02  0.43400722947E+02  0.00000000000E+00 0.  1.
         11    1    3    3    0    0  0.18925362224E+02  0.85987371689E+01 -0.20180326915E+02  0.28971593171E+02  0.51100000000E-03 0. -1.
        -11    1    3    3    0    0  0.11646610778E+02  0.39450254913E+01 -0.75570484853E+01  0.14433147641E+02  0.51100000000E-03 0.  1.
        -12    1    3    3    0    0  0.30098322574E+01 -0.18096158290E+00  0.31803752288E+01  0.43825362415E+01  0.00000000000E+00 0.  1.
</event>
<event>
 7    1  0.4432754E-010  0.4778729E+02  0.7816164E-02  0.1312668E+00
        -11   -1    0    0    0    0  0.00000000000E+00  0.00000000000E+00  0.45593999997E+02  0.45594000000E+02  0.51100000000E-03 0.  1.
         11   -1    0    0    0    0 -0.00000000000E+00 -0.00000000000E+00 -0.45593999997E+02  0.45594000000E+02  0.51100000000E-03 0. -1.
    9900012    2    1    2    0    0 -0.41500960707E+02 -0.12102752665E+02 -0.38490839171E+01  0.47787287925E+02  0.20000076964E+02 0.  0.
        -12    1    1    2    0    0  0.41500960707E+02  0.12102752665E+02  0.38490839171E+01  0.43400712075E+02  0.00000000000E+00 0.  1.
         11    1    3    3    0    0 -0.83108701752E+01 -0.56817035591E+01 -0.38919236201E-01  0.10067464098E+02  0.51100000000E-03 0. -1.
        -11    1    3    3    0    0 -0.13444820694E+02 -0.10497547057E+02  0.65280859107E+00  0.17070086615E+02  0.51100000000E-03 0.  1.
         12    1    3    3    0    0 -0.19745269837E+02  0.40764979514E+01 -0.44629732720E+01  0.20649737212E+02  0.00000000000E+00 0. -1.
</event>
<event>
 7    1  0.4432754E-010  0.4778727E+02  0.7816164E-02  0.1312668E+00
        -11   -1    0    0    0    0  0.00000000000E+00  0.00000000000E+00  0.45593999997E+02  0.45594000000E+02  0.51100000000E-03 0. -1.
         11   -1    0    0    0    0 -0.00000000000E+00 -0.00000000000E+00 -0.45593999997E+02  0.45594000000E+02  0.51100000000E-03 0.  1.
    9900012    2    1    2    0    0  0.13111159396E+02 -0.24912518383E+02  0.33031609795E+02  0.47787270530E+02  0.19999997654E+02 0.  0.
        -12    1    1    2    0    0 -0.13111159396E+02  0.24912518383E+02 -0.33031609795E+02  0.43400729470E+02  0.00000000000E+00 0.  1.
         11    1    3    3    0    0  0.37859297245E+01 -0.31473722410E+01  0.16982001553E+02  0.17681278034E+02  0.51100000000E-03 0. -1.
        -11    1    3    3    0    0  0.75250963775E+01 -0.68834052595E+01  0.87277048196E+01  0.13423158165E+02  0.51100000000E-03 0.  1.
        -12    1    3    3    0    0  0.18001332943E+01 -0.14881740883E+02  0.73219034219E+01  0.16682834330E+02  0.00000000000E+00 0.  1.
</event>
<event>
 7    1  0.4432754E-010  0.4778727E+02  0.7816164E-02  0.1312668E+00
        -11   -1    0    0    0    0  0.00000000000E+00  0.00000000000E+00  0.45593999997E+02  0.45594000000E+02  0.51100000000E-03 0.  1.
         11   -1    0    0    0    0 -0.00000000000E+00 -0.00000000000E+00 -0.45593999997E+02  0.45594000000E+02  0.51100000000E-03 0. -1.
    9900012    2    1    2    0    0  0.37442456086E+02 -0.20822327719E+02 -0.69366352945E+01  0.47787265460E+02  0.19999974539E+02 0.  0.
        -12    1    1    2    0    0 -0.37442456086E+02  0.20822327719E+02  0.69366352945E+01  0.43400734540E+02  0.00000000000E+00 0.  1.
         11    1    3    3    0    0  0.79264040316E+01 -0.96381626679E+01 -0.43559949280E+01  0.13217289910E+02  0.51100000000E-03 0. -1.
        -11    1    3    3    0    0  0.29316230311E+01  0.16433005226E+01 -0.37421324661E+01  0.50297520674E+01  0.51100000000E-03 0.  1.
         12    1    3    3    0    0  0.26584429023E+02 -0.12827465573E+02  0.11614920996E+01  0.29540223483E+02  0.00000000000E+00 0. -1.
</event>
<event>
 7    1  0.4432754E-010  0.4778727E+02  0.7816164E-02  0.1312668E+00
        -11   -1    0    0    0    0  0.00000000000E+00  0.00000000000E+00  0.45593999997E+02  0.45594000000E+02  0.51100000000E-03 0.  1.
         11   -1    0    0    0    0 -0.00000000000E+00 -0.00000000000E+00 -0.45593999997E+02  0.45594000000E+02  0.51100000000E-03 0. -1.
    9900012    2    1    2    0    0  0.18817887333E+01  0.31514670376E+02 -0.29780993673E+02  0.47787272334E+02  0.20000005880E+02 0.  0.
        -12    1    1    2    0    0 -0.18817887333E+01 -0.31514670376E+02  0.29780993673E+02  0.43400727666E+02  0.00000000000E+00 0.  1.
         11    1    3    3    0    0 -0.42907011103E+01  0.19600457762E+02 -0.81750754539E+01  0.21666100698E+02  0.51100000000E-03 0. -1.
        -11    1    3    3    0    0 -0.99533787403E+00  0.16626935044E+01 -0.47562817259E+01  0.51358994627E+01  0.51100000000E-03 0.  1.
         12    1    3    3    0    0  0.71678277176E+01  0.10251519110E+02 -0.16849636493E+02  0.20985272174E+02  0.00000000000E+00 0. -1.
</event>
<event>
 7    1  0.4432754E-010  0.4778727E+02  0.7816164E-02  0.1312668E+00
        -11   -1    0    0    0    0  0.00000000000E+00  0.00000000000E+00  0.45593999997E+02  0.45594000000E+02  0.51100000000E-03 0. -1.
         11   -1    0    0    0    0 -0.00000000000E+00 -0.00000000000E+00 -0.45593999997E+02  0.45594000000E+02  0.51100000000E-03 0.  1.
    9900012    2    1    2    0    0 -0.11256000632E+02  0.30397843646E+02  0.28859955862E+02  0.47787268429E+02  0.19999988075E+02 0.  0.
        -12    1    1    2    0    0  0.11256000632E+02 -0.30397843646E+02 -0.28859955862E+02  0.43400731571E+02  0.00000000000E+00 0.  1.
         11    1    3    3    0    0 -0.32194960998E+01  0.54782510521E+01  0.11058131597E+02  0.12753770596E+02  0.51100000000E-03 0. -1.
        -11    1    3    3    0    0  0.27246942083E+01 -0.26449182964E+00  0.22176834514E+01  0.35230717575E+01  0.51100000000E-03 0.  1.
         12    1    3    3    0    0 -0.10761198740E+02  0.25184084423E+02  0.15584140814E+02  0.31510426076E+02  0.00000000000E+00 0. -1.
</event>
<event>
 7    1  0.5908041E-010  0.4778727E+02  0.7816164E-02  0.1312668E+00
        -11   -1    0    0    0    0  0.00000000000E+00  0.00000000000E+00  0.45593999997E+02  0.45594000000E+02  0.51100000000E-03 0.  1.
         11   -1    0    0    0    0 -0.00000000000E+00 -0.00000000000E+00 -0.45593999997E+02  0.45594000000E+02  0.51100000000E-03 0. -1.
    9900012    2    1    2    0    0 -0.30226580896E+02  0.30946903092E+02  0.35022929946E+01  0.47787273510E+02  0.20000011240E+02 0.  0.
        -12    1    1    2    0    0  0.30226580896E+02 -0.30946903092E+02 -0.35022929946E+01  0.43400726490E+02  0.00000000000E+00 0.  1.
         11    1    3    3    0    0 -0.15217114460E+02  0.21030258333E+02  0.49753348429E+01  0.26430783097E+02  0.51100000000E-03 0.  1.
        -11    1    3    3    0    0  0.14444864471E+01  0.23587658364E+01  0.12692912228E+01  0.30432577669E+01  0.51100000000E-03 0. -1.
         12    1    3    3    0    0 -0.16453952883E+02  0.75578789231E+01 -0.27423330711E+01  0.18313232646E+02  0.00000000000E+00 0. -1.
</event>
<event>
 7    1  0.4432754E-010  0.4778727E+02  0.7816164E-02  0.1312668E+00
        -11   -1    0    0    0    0  0.00000000000E+00  0.00000000000E+00  0.45593999997E+02  0.45594000000E+02  0.51100000000E-03 0.  1.
         11   -1    0    0    0    0 -0.00000000000E+00 -0.00000000000E+00 -0.45593999997E+02  0.45594000000E+02  0.51100000000E-03 0. -1.
    9900012    2    1    2    0    0 -0.77557442069E+01  0.29156786621E+02 -0.31198615218E+02  0.47787269986E+02  0.19999995172E+02 0.  0.
        -12    1    1    2    0    0  0.77557442069E+01 -0.29156786621E+02  0.31198615218E+02  0.43400730014E+02  0.00000000000E+00 0.  1.
         11    1    3    3    0    0 -0.28148687910E+01  0.96953571353E+01 -0.35706923766E+01  0.10708561089E+02  0.51100000000E-03 0. -1.
        -11    1    3    3    0    0 -0.11679869368E+01  0.15915278403E+02 -0.10299293592E+02  0.18993044224E+02  0.51100000000E-03 0.  1.
        -12    1    3    3    0    0 -0.37728884791E+01  0.35461510822E+01 -0.17328629249E+02  0.18085664672E+02  0.00000000000E+00 0.  1.
</event>
<event>
 7    1  0.4432754E-010  0.4778727E+02  0.7816164E-02  0.1312668E+00
        -11   -1    0    0    0    0  0.00000000000E+00  0.00000000000E+00  0.45593999997E+02  0.45594000000E+02  0.51100000000E-03 0.  1.
         11   -1    0    0    0    0 -0.00000000000E+00 -0.00000000000E+00 -0.45593999997E+02  0.45594000000E+02  0.51100000000E-03 0. -1.
    9900012    2    1    2    0    0 -0.22059352519E+02  0.20572530430E+02 -0.31205437534E+02  0.47787269896E+02  0.19999994766E+02 0.  0.
        -12    1    1    2    0    0  0.22059352519E+02 -0.20572530430E+02  0.31205437534E+02  0.43400730104E+02  0.00000000000E+00 0.  1.
         11    1    3    3    0    0 -0.26520118842E+01  0.89697076215E+01 -0.11319320311E+02  0.14683863062E+02  0.51100000000E-03 0. -1.
        -11    1    3    3    0    0 -0.23814495377E+01  0.74877186428E+01 -0.20843661893E+01  0.81290722131E+01  0.51100000000E-03 0.  1.
        -12    1    3    3    0    0 -0.17025891097E+02  0.41151041657E+01 -0.17801751033E+02  0.24974334622E+02  0.00000000000E+00 0.  1.
</event>
<event>
 7    1  0.4432754E-010  0.4778727E+02  0.7816164E-02  0.1312668E+00
        -11   -1    0    0    0    0  0.00000000000E+00  0.00000000000E+00  0.45593999997E+02  0.45594000000E+02  0.51100000000E-03 0.  1.
         11   -1    0    0    0    0 -0.00000000000E+00 -0.00000000000E+00 -0.45593999997E+02  0.45594000000E+02  0.51100000000E-03 0. -1.
    9900012    2    1    2    0    0  0.25417196785E+02  0.28045346397E+02 -0.21237886577E+02  0.47787272205E+02  0.20000005291E+02 0.  0.
        -12    1    1    2    0    0 -0.25417196785E+02 -0.28045346397E+02  0.21237886577E+02  0.43400727795E+02  0.00000000000E+00 0.  1.
         11    1    3    3    0    0  0.17579553837E+02  0.21453610828E+02 -0.16368776349E+02  0.32206132492E+02  0.51100000000E-03 0. -1.
        -11    1    3    3    0    0  0.38313264533E+01  0.68202892068E+01 -0.74559428671E+01  0.10806779888E+02  0.51100000000E-03 0.  1.
        -12    1    3    3    0    0  0.40063164951E+01 -0.22855363858E+00  0.25868326399E+01  0.47743598243E+01  0.00000000000E+00 0.  1.
</event>
<event>
 7    1  0.4432754E-010  0.4778727E+02  0.7816164E-02  0.1312668E+00
        -11   -1    0    0    0    0  0.00000000000E+00  0.00000000000E+00  0.45593999997E+02  0.45594000000E+02  0.51100000000E-03 0. -1.
         11   -1    0    0    0    0 -0.00000000000E+00 -0.00000000000E+00 -0.45593999997E+02  0.45594000000E+02  0.51100000000E-03 0.  1.
    9900012    2    1    2    0    0  0.94958661521E+01  0.26832759352E+02  0.32763621556E+02  0.47787270215E+02  0.19999996219E+02 0.  0.
        -12    1    1    2    0    0 -0.94958661521E+01 -0.26832759352E+02 -0.32763621556E+02  0.43400729785E+02  0.00000000000E+00 0.  1.
         11    1    3    3    0    0  0.41919864626E+01  0.18729727567E+02  0.26724833665E+02  0.32902768575E+02  0.51100000000E-03 0. -1.
        -11    1    3    3    0    0  0.11341474536E+01  0.70720337593E+01  0.74777743880E+01  0.10354567205E+02  0.51100000000E-03 0.  1.
        -12    1    3    3    0    0  0.41697322359E+01  0.10309980256E+01 -0.14389864972E+01  0.45299344352E+01  0.00000000000E+00 0.  1.
</event>
<event>
 7    1  0.4432754E-010  0.4778727E+02  0.7816164E-02  0.1312668E+00
        -11   -1    0    0    0    0  0.00000000000E+00  0.00000000000E+00  0.45593999997E+02  0.45594000000E+02  0.51100000000E-03 0. -1.
         11   -1    0    0    0    0 -0.00000000000E+00 -0.00000000000E+00 -0.45593999997E+02  0.45594000000E+02  0.51100000000E-03 0.  1.
    9900012    2    1    2    0    0  0.21897659068E+02 -0.41563855491E+01  0.37240308624E+02  0.47787267288E+02  0.19999982874E+02 0.  0.
        -12    1    1    2    0    0 -0.21897659068E+02  0.41563855491E+01 -0.37240308624E+02  0.43400732712E+02  0.00000000000E+00 0.  1.
         11    1    3    3    0    0  0.10023232492E+02 -0.98301198166E+01  0.14464965518E+02  0.20157670324E+02  0.51100000000E-03 0. -1.
        -11    1    3    3    0    0  0.63412151193E+01 -0.65387148290E+00  0.55069910255E+01  0.84241027725E+01  0.51100000000E-03 0.  1.
        -12    1    3    3    0    0  0.55332114563E+01  0.63276057504E+01  0.17268352081E+02  0.19205494192E+02  0.00000000000E+00 0.  1.
</event>
<event>
 7    1  0.4432754E-010  0.4778727E+02  0.7816164E-02  0.1312668E+00
        -11   -1    0    0    0    0  0.00000000000E+00  0.00000000000E+00  0.45593999997E+02  0.45594000000E+02  0.51100000000E-03 0.  1.
         11   -1    0    0    0    0 -0.00000000000E+00 -0.00000000000E+00 -0.45593999997E+02  0.45594000000E+02  0.51100000000E-03 0. -1.
    9900012    2    1    2    0    0  0.75494370768E+01  0.39800143331E+02 -0.15574902662E+02  0.47787274174E+02  0.20000014267E+02 0.  0.
        -12    1    1    2    0    0 -0.75494370768E+01 -0.39800143331E+02  0.15574902662E+02  0.43400725826E+02  0.00000000000E+00 0.  1.
         11    1    3    3    0    0 -0.23165231469E+00  0.21162184411E+02 -0.43711976103E+01  0.21610161513E+02  0.51100000000E-03 0. -1.
        -11    1    3    3    0    0 -0.27324460176E+01  0.37613655176E+01  0.25520238877E+00  0.46560992597E+01  0.51100000000E-03 0.  1.
         12    1    3    3    0    0  0.10513535409E+02  0.14876593402E+02 -0.11458907440E+02  0.21521013401E+02  0.00000000000E+00 0. -1.
</event>
<event>
 7    1  0.4432754E-010  0.4778727E+02  0.7816164E-02  0.1312668E+00
        -11   -1    0    0    0    0  0.00000000000E+00  0.00000000000E+00  0.45593999997E+02  0.45594000000E+02  0.51100000000E-03 0.  1.
         11   -1    0    0    0    0 -0.00000000000E+00 -0.00000000000E+00 -0.45593999997E+02  0.45594000000E+02  0.51100000000E-03 0. -1.
    9900012    2    1    2    0    0 -0.98752631605E+01 -0.12228501779E+02 -0.40454494142E+02  0.47787272189E+02  0.20000005217E+02 0.  0.
        -12    1    1    2    0    0  0.98752631605E+01  0.12228501779E+02  0.40454494142E+02  0.43400727811E+02  0.00000000000E+00 0.  1.
         11    1    3    3    0    0  0.18129703046E+01 -0.49474593808E+00 -0.67171660903E+01  0.69750953696E+01  0.51100000000E-03 0. -1.
        -11    1    3    3    0    0  0.21314738512E+01  0.23746866822E+01 -0.40530724805E+01  0.51584604689E+01  0.51100000000E-03 0.  1.
         12    1    3    3    0    0 -0.13819707316E+02 -0.14108442523E+02 -0.29684255572E+02  0.35653716350E+02  0.00000000000E+00 0. -1.
</event>
<event>
 7    1  0.4432754E-010  0.4778727E+02  0.7816164E-02  0.1312668E+00
        -11   -1    0    0    0    0  0.00000000000E+00  0.00000000000E+00  0.45593999997E+02  0.45594000000E+02  0.51100000000E-03 0. -1.
         11   -1    0    0    0    0 -0.00000000000E+00 -0.00000000000E+00 -0.45593999997E+02  0.45594000000E+02  0.51100000000E-03 0.  1.
    9900012    2    1    2    0    0 -0.23360984152E+02 -0.90879225160E+01  0.35430173433E+02  0.47787272982E+02  0.20000008835E+02 0.  0.
        -12    1    1    2    0    0  0.23360984152E+02  0.90879225160E+01 -0.35430173433E+02  0.43400727018E+02  0.00000000000E+00 0.  1.
         11    1    3    3    0    0 -0.16334668782E+01 -0.13798848611E+01  0.66234192783E+01  0.69600272606E+01  0.51100000000E-03 0. -1.
        -11    1    3    3    0    0  0.29090979296E+01 -0.11058619887E+01  0.52730151085E+01  0.61229461942E+01  0.51100000000E-03 0.  1.
         12    1    3    3    0    0 -0.24636615203E+02 -0.66021756661E+01  0.23533739046E+02  0.34704299527E+02  0.00000000000E+00 0. -1.
</event>
<event>
 7    1  0.4432754E-010  0.4778728E+02  0.7816164E-02  0.1312668E+00
        -11   -1    0    0    0    0  0.00000000000E+00  0.00000000000E+00  0.45593999997E+02  0.45594000000E+02  0.51100000000E-03 0.  1.
         11   -1    0    0    0    0 -0.00000000000E+00 -0.00000000000E+00 -0.45593999997E+02  0.45594000000E+02  0.51100000000E-03 0. -1.
    9900012    2    1    2    0    0  0.10608850421E+02  0.56345698941E+01 -0.41705229719E+02  0.47787282598E+02  0.20000052675E+02 0.  0.
        -12    1    1    2    0    0 -0.10608850421E+02 -0.56345698941E+01  0.41705229719E+02  0.43400717402E+02  0.00000000000E+00 0.  1.
         11    1    3    3    0    0  0.73240909784E+01  0.86598197015E+01 -0.24114436434E+02  0.26648467699E+02  0.51100000000E-03 0. -1.
        -11    1    3    3    0    0  0.47159903008E+00  0.34632584255E+01 -0.10732812085E+02  0.11287595850E+02  0.51100000000E-03 0.  1.
         12    1    3    3    0    0  0.28131604121E+01 -0.64885082329E+01 -0.68579811997E+01  0.98512190478E+01  0.00000000000E+00 0. -1.
</event>
<event>
 7    1  0.4432754E-010  0.4778727E+02  0.7816164E-02  0.1312668E+00
        -11   -1    0    0    0    0  0.00000000000E+00  0.00000000000E+00  0.45593999997E+02  0.45594000000E+02  0.51100000000E-03 0.  1.
         11   -1    0    0    0    0 -0.00000000000E+00 -0.00000000000E+00 -0.45593999997E+02  0.45594000000E+02  0.51100000000E-03 0. -1.
    9900012    2    1    2    0    0 -0.40276314252E+02  0.65083862545E+01  0.14801439627E+02  0.47787271937E+02  0.20000004070E+02 0.  0.
        -12    1    1    2    0    0  0.40276314252E+02 -0.65083862545E+01 -0.14801439627E+02  0.43400728063E+02  0.00000000000E+00 0.  1.
         11    1    3    3    0    0 -0.32854998177E+02  0.87868825529E+01  0.10046009055E+02  0.35462409794E+02  0.51100000000E-03 0. -1.
        -11    1    3    3    0    0  0.94268045086E+00  0.13556664031E+01 -0.59098833551E+00  0.17537802892E+01  0.51100000000E-03 0.  1.
        -12    1    3    3    0    0 -0.83639965258E+01 -0.36341627014E+01  0.53464189077E+01  0.10571081854E+02  0.00000000000E+00 0.  1.
</event>
<event>
 7    1  0.4432754E-010  0.4778727E+02  0.7816164E-02  0.1312668E+00
        -11   -1    0    0    0    0  0.00000000000E+00  0.00000000000E+00  0.45593999997E+02  0.45594000000E+02  0.51100000000E-03 0. -1.
         11   -1    0    0    0    0 -0.00000000000E+00 -0.00000000000E+00 -0.45593999997E+02  0.45594000000E+02  0.51100000000E-03 0.  1.
    9900012    2    1    2    0    0 -0.36937762069E+02  0.22466700090E+02  0.38042557876E+01  0.47787271415E+02  0.20000001689E+02 0.  0.
        -12    1    1    2    0    0  0.36937762069E+02 -0.22466700090E+02 -0.38042557876E+01  0.43400728585E+02  0.00000000000E+00 0.  1.
         11    1    3    3    0    0 -0.10103699446E+02  0.31563882328E+01  0.98620623842E-01  0.10585709964E+02  0.51100000000E-03 0. -1.
        -11    1    3    3    0    0 -0.96834011625E+01  0.97858228324E+01 -0.63451663082E+01  0.15158882621E+02  0.51100000000E-03 0.  1.
         12    1    3    3    0    0 -0.17150661461E+02  0.95244890250E+01  0.10050801472E+02  0.22042678829E+02  0.00000000000E+00 0. -1.
</event>
<event>
 7    1  0.4432754E-010  0.4778728E+02  0.7816164E-02  0.1312668E+00
        -11   -1    0    0    0    0  0.00000000000E+00  0.00000000000E+00  0.45593999997E+02  0.45594000000E+02  0.51100000000E-03 0.  1.
         11   -1    0    0    0    0 -0.00000000000E+00 -0.00000000000E+00 -0.45593999997E+02  0.45594000000E+02  0.51100000000E-03 0. -1.
    9900012    2    1    2    0    0  0.11274812228E+02 -0.22365708324E+02 -0.35443984076E+02  0.47787282186E+02  0.20000050798E+02 0.  0.
        -12    1    1    2    0    0 -0.11274812228E+02  0.22365708324E+02  0.35443984076E+02  0.43400717814E+02  0.00000000000E+00 0.  1.
         11    1    3    3    0    0  0.88134003997E+00 -0.42790658338E+01 -0.15251326416E+02  0.15864744637E+02  0.51100000000E-03 0. -1.
        -11    1    3    3    0    0  0.74615735437E+01 -0.13267336437E+01 -0.77835683972E+01  0.10863666009E+02  0.51100000000E-03 0.  1.
        -12    1    3    3    0    0  0.29318986445E+01 -0.16759908846E+02 -0.12409089262E+02  0.21058871540E+02  0.00000000000E+00 0.  1.
</event>
<event>
 7    1  0.4432754E-010  0.4778728E+02  0.7816164E-02  0.1312668E+00
        -11   -1    0    0    0    0  0.00000000000E+00  0.00000000000E+00  0.45593999997E+02  0.45594000000E+02  0.51100000000E-03 0.  1.
         11   -1    0    0    0    0 -0.00000000000E+00 -0.00000000000E+00 -0.45593999997E+02  0.45594000000E+02  0.51100000000E-03 0. -1.
    9900012    2    1    2    0    0 -0.94575690432E+01  0.75636946688E+01 -0.41676943659E+02  0.47787277402E+02  0.20000028987E+02 0.  0.
        -12    1    1    2    0    0  0.94575690432E+01 -0.75636946688E+01  0.41676943659E+02  0.43400722598E+02  0.00000000000E+00 0.  1.
         11    1    3    3    0    0 -0.68862288192E+01 -0.15748136989E+01 -0.24882758093E+02  0.25866036343E+02  0.51100000000E-03 0.  1.
        -11    1    3    3    0    0 -0.63275560592E+01  0.34039076499E+01 -0.95020049112E+01  0.11912709623E+02  0.51100000000E-03 0. -1.
        -12    1    3    3    0    0  0.37562158352E+01  0.57346007178E+01 -0.72921806555E+01  0.10008531436E+02  0.00000000000E+00 0.  1.
</event>
<event>
 7    1  0.4432754E-010  0.4778725E+02  0.7816164E-02  0.1312668E+00
        -11   -1    0    0    0    0  0.00000000000E+00  0.00000000000E+00  0.45593999997E+02  0.45594000000E+02  0.51100000000E-03 0.  1.
         11   -1    0    0    0    0 -0.00000000000E+00 -0.00000000000E+00 -0.45593999997E+02  0.45594000000E+02  0.51100000000E-03 0. -1.
    9900012    2    1    2    0    0 -0.29232850368E+02 -0.26819064916E+02 -0.17601221573E+02  0.47787253642E+02  0.19999920655E+02 0.  0.
        -12    1    1    2    0    0  0.29232850368E+02  0.26819064916E+02  0.17601221573E+02  0.43400746358E+02  0.00000000000E+00 0.  1.
         11    1    3    3    0    0 -0.18102684393E+02 -0.21664917031E+02 -0.54734735456E+01  0.28758211438E+02  0.51100000000E-03 0. -1.
        -11    1    3    3    0    0 -0.11002946019E+01 -0.44775557013E+01 -0.38600344363E+01  0.60132370134E+01  0.51100000000E-03 0.  1.
        -12    1    3    3    0    0 -0.10029871373E+02 -0.67659218340E+00 -0.82677135912E+01  0.13015805191E+02  0.00000000000E+00 0.  1.
</event>
<event>
 7    1  0.4432754E-010  0.4778722E+02  0.7816164E-02  0.1312668E+00
        -11   -1    0    0    0    0  0.00000000000E+00  0.00000000000E+00  0.45593999997E+02  0.45594000000E+02  0.51100000000E-03 0.  1.
         11   -1    0    0    0    0 -0.00000000000E+00 -0.00000000000E+00 -0.45593999997E+02  0.45594000000E+02  0.51100000000E-03 0. -1.
    9900012    2    1    2    0    0 -0.52129197312E+01 -0.12245078660E+02 -0.41309939817E+02  0.47787221076E+02  0.19999772174E+02 0.  0.
        -12    1    1    2    0    0  0.52129197312E+01  0.12245078660E+02  0.41309939817E+02  0.43400778924E+02  0.00000000000E+00 0.  1.
         11    1    3    3    0    0  0.36201103410E+01  0.26768258034E+00 -0.30961312916E+01  0.47710462249E+01  0.51100000000E-03 0. -1.
        -11    1    3    3    0    0  0.15663566445E+01  0.91099310211E+00 -0.93828849483E+01  0.95562498808E+01  0.51100000000E-03 0.  1.
         12    1    3    3    0    0 -0.10399386717E+02 -0.13423754343E+02 -0.28830923577E+02  0.33459924971E+02  0.00000000000E+00 0. -1.
</event>
<event>
 7    1  0.4432754E-010  0.4778728E+02  0.7816164E-02  0.1312668E+00
        -11   -1    0    0    0    0  0.00000000000E+00  0.00000000000E+00  0.45593999997E+02  0.45594000000E+02  0.51100000000E-03 0.  1.
         11   -1    0    0    0    0 -0.00000000000E+00 -0.00000000000E+00 -0.45593999997E+02  0.45594000000E+02  0.51100000000E-03 0. -1.
    9900012    2    1    2    0    0 -0.13890632364E+00  0.20107868897E+02 -0.38461372289E+02  0.47787275987E+02  0.20000022534E+02 0.  0.
        -12    1    1    2    0    0  0.13890632364E+00 -0.20107868897E+02  0.38461372289E+02  0.43400724013E+02  0.00000000000E+00 0.  1.
         11    1    3    3    0    0 -0.28298854622E+01  0.68972531272E+01 -0.51786584836E+01  0.90773815818E+01  0.51100000000E-03 0. -1.
        -11    1    3    3    0    0 -0.15127538792E+01 -0.14583083577E+01 -0.58992759108E-02  0.21012193193E+01  0.51100000000E-03 0.  1.
         12    1    3    3    0    0  0.42037330177E+01  0.14668924128E+02 -0.33276814529E+02  0.36608675086E+02  0.00000000000E+00 0. -1.
</event>
<event>
 7    1  0.4432754E-010  0.4778727E+02  0.7816164E-02  0.1312668E+00
        -11   -1    0    0    0    0  0.00000000000E+00  0.00000000000E+00  0.45593999997E+02  0.45594000000E+02  0.51100000000E-03 0.  1.
         11   -1    0    0    0    0 -0.00000000000E+00 -0.00000000000E+00 -0.45593999997E+02  0.45594000000E+02  0.51100000000E-03 0. -1.
    9900012    2    1    2    0    0 -0.39091013235E+01 -0.78808664524E+01 -0.42499814084E+02  0.47787270440E+02  0.19999997243E+02 0.  0.
        -12    1    1    2    0    0  0.39091013235E+01  0.78808664524E+01  0.42499814084E+02  0.43400729560E+02  0.00000000000E+00 0.  1.
         11    1    3    3    0    0 -0.12477667188E+01 -0.81789519740E+00 -0.44990150063E+01  0.47399378294E+01  0.51100000000E-03 0. -1.
        -11    1    3    3    0    0  0.69436069745E+01  0.11387172841E+01 -0.90669426040E+01  0.11476924820E+02  0.51100000000E-03 0.  1.
        -12    1    3    3    0    0 -0.96049415791E+01 -0.82016885391E+01 -0.28933856474E+02  0.31570407791E+02  0.00000000000E+00 0.  1.
</event>
<event>
 7    1  0.4432754E-010  0.4778727E+02  0.7816164E-02  0.1312668E+00
        -11   -1    0    0    0    0  0.00000000000E+00  0.00000000000E+00  0.45593999997E+02  0.45594000000E+02  0.51100000000E-03 0.  1.
         11   -1    0    0    0    0 -0.00000000000E+00 -0.00000000000E+00 -0.45593999997E+02  0.45594000000E+02  0.51100000000E-03 0. -1.
    9900012    2    1    2    0    0 -0.66761738313E+00  0.33464153089E+02 -0.27628392576E+02  0.47787270383E+02  0.19999996985E+02 0.  0.
        -12    1    1    2    0    0  0.66761738313E+00 -0.33464153089E+02  0.27628392576E+02  0.43400729617E+02  0.00000000000E+00 0.  1.
         11    1    3    3    0    0 -0.24287296076E+01  0.14306394406E+02 -0.16202088649E+02  0.21750386784E+02  0.51100000000E-03 0. -1.
        -11    1    3    3    0    0 -0.35695441618E+01  0.33052807217E+00 -0.48265375435E+00  0.36171603831E+01  0.51100000000E-03 0.  1.
         12    1    3    3    0    0  0.53306563862E+01  0.18827230611E+02 -0.10943650174E+02  0.22419723217E+02  0.00000000000E+00 0. -1.
</event>
<event>
 7    1  0.4432754E-010  0.4778727E+02  0.7816164E-02  0.1312668E+00
        -11   -1    0    0    0    0  0.00000000000E+00  0.00000000000E+00  0.45593999997E+02  0.45594000000E+02  0.51100000000E-03 0.  1.
         11   -1    0    0    0    0 -0.00000000000E+00 -0.00000000000E+00 -0.45593999997E+02  0.45594000000E+02  0.51100000000E-03 0. -1.
    9900012    2    1    2    0    0  0.20360692482E+01  0.24142394285E+02 -0.36008645391E+02  0.47787270482E+02  0.19999997438E+02 0.  0.
        -12    1    1    2    0    0 -0.20360692482E+01 -0.24142394285E+02  0.36008645391E+02  0.43400729518E+02  0.00000000000E+00 0.  1.
         11    1    3    3    0    0  0.19078223749E+00  0.70636365218E+01 -0.78401673188E+01  0.10554600069E+02  0.51100000000E-03 0. -1.
        -11    1    3    3    0    0  0.30227557667E+01 -0.28992220009E+01 -0.65360175767E+01  0.77628645911E+01  0.51100000000E-03 0.  1.
        -12    1    3    3    0    0 -0.11774687560E+01  0.19977979764E+02 -0.21632460495E+02  0.29469805822E+02  0.00000000000E+00 0.  1.
</event>
<event>
 7    1  0.4432754E-010  0.4778727E+02  0.7816164E-02  0.1312668E+00
        -11   -1    0    0    0    0  0.00000000000E+00  0.00000000000E+00  0.45593999997E+02  0.45594000000E+02  0.51100000000E-03 0.  1.
         11   -1    0    0    0    0 -0.00000000000E+00 -0.00000000000E+00 -0.45593999997E+02  0.45594000000E+02  0.51100000000E-03 0. -1.
    9900012    2    1    2    0    0  0.13746997831E+02 -0.18308297284E+02 -0.36870715571E+02  0.47787269989E+02  0.19999995187E+02 0.  0.
        -12    1    1    2    0    0 -0.13746997831E+02  0.18308297284E+02  0.36870715571E+02  0.43400730011E+02  0.00000000000E+00 0.  1.
         11    1    3    3    0    0  0.50545552958E+01 -0.15043516175E+02 -0.22104852430E+02  0.27211769685E+02  0.51100000000E-03 0. -1.
        -11    1    3    3    0    0  0.14343754008E+01 -0.37756764367E+01  0.82993632912E-01  0.40398086030E+01  0.51100000000E-03 0.  1.
        -12    1    3    3    0    0  0.72580671339E+01  0.51089532772E+00 -0.14848856773E+02  0.16535691701E+02  0.00000000000E+00 0.  1.
</event>
<event>
 7    1  0.4432754E-010  0.4778727E+02  0.7816164E-02  0.1312668E+00
        -11   -1    0    0    0    0  0.00000000000E+00  0.00000000000E+00  0.45593999997E+02  0.45594000000E+02  0.51100000000E-03 0. -1.
         11   -1    0    0    0    0 -0.00000000000E+00 -0.00000000000E+00 -0.45593999997E+02  0.45594000000E+02  0.51100000000E-03 0.  1.
    9900012    2    1    2    0    0 -0.41389287377E+02  0.39215411934E+00 -0.13053604727E+02  0.47787268545E+02  0.19999988605E+02 0.  0.
        -12    1    1    2    0    0  0.41389287377E+02 -0.39215411934E+00  0.13053604727E+02  0.43400731455E+02  0.00000000000E+00 0.  1.
         11    1    3    3    0    0  0.10875546947E+01 -0.14220150256E+01  0.63583300069E+00  0.18997857282E+01  0.51100000000E-03 0. -1.
        -11    1    3    3    0    0 -0.29921290824E+01  0.28817722731E+01 -0.24393678906E+01  0.48174644624E+01  0.51100000000E-03 0.  1.
         12    1    3    3    0    0 -0.39484712990E+02 -0.10676031281E+01 -0.11250069837E+02  0.41070018355E+02  0.00000000000E+00 0. -1.
</event>
<event>
 7    1  0.4432754E-010  0.4778727E+02  0.7816164E-02  0.1312668E+00
        -11   -1    0    0    0    0  0.00000000000E+00  0.00000000000E+00  0.45593999997E+02  0.45594000000E+02  0.51100000000E-03 0.  1.
         11   -1    0    0    0    0 -0.00000000000E+00 -0.00000000000E+00 -0.45593999997E+02  0.45594000000E+02  0.51100000000E-03 0. -1.
    9900012    2    1    2    0    0 -0.30893485367E+02  0.16293861368E+02 -0.25762873889E+02  0.47787273884E+02  0.20000012945E+02 0.  0.
        -12    1    1    2    0    0  0.30893485367E+02 -0.16293861368E+02  0.25762873889E+02  0.43400726116E+02  0.00000000000E+00 0.  1.
         11    1    3    3    0    0 -0.14495420777E+02  0.75443302092E+01 -0.40954681572E+01  0.16846572396E+02  0.51100000000E-03 0. -1.
        -11    1    3    3    0    0 -0.14994157614E+01  0.68962065624E+01 -0.74924119239E+01  0.10292820278E+02  0.51100000000E-03 0.  1.
         12    1    3    3    0    0 -0.14898648828E+02  0.18533245963E+01 -0.14174993808E+02  0.20647881209E+02  0.00000000000E+00 0. -1.
</event>
<event>
 7    1  0.4432754E-010  0.4778730E+02  0.7816164E-02  0.1312668E+00
        -11   -1    0    0    0    0  0.00000000000E+00  0.00000000000E+00  0.45593999997E+02  0.45594000000E+02  0.51100000000E-03 0.  1.
         11   -1    0    0    0    0 -0.00000000000E+00 -0.00000000000E+00 -0.45593999997E+02  0.45594000000E+02  0.51100000000E-03 0. -1.
    9900012    2    1    2    0    0 -0.15590510980E+02 -0.28194470711E+02 -0.29079700189E+02  0.47787295232E+02  0.20000110278E+02 0.  0.
        -12    1    1    2    0    0  0.15590510980E+02  0.28194470711E+02  0.29079700189E+02  0.43400704768E+02  0.00000000000E+00 0.  1.
         11    1    3    3    0    0 -0.10529668641E+02 -0.75811086355E+01 -0.18570119692E+02  0.22653840192E+02  0.51100000000E-03 0. -1.
        -11    1    3    3    0    0 -0.66634496394E+00  0.61176070807E+00  0.24446259448E+00  0.93703201446E+00  0.51100000000E-03 0.  1.
        -12    1    3    3    0    0 -0.43944973753E+01 -0.21225122784E+02 -0.10754043092E+02  0.24196423025E+02  0.00000000000E+00 0.  1.
</event>
<event>
 7    1  0.4432754E-010  0.4778727E+02  0.7816164E-02  0.1312668E+00
        -11   -1    0    0    0    0  0.00000000000E+00  0.00000000000E+00  0.45593999997E+02  0.45594000000E+02  0.51100000000E-03 0.  1.
         11   -1    0    0    0    0 -0.00000000000E+00 -0.00000000000E+00 -0.45593999997E+02  0.45594000000E+02  0.51100000000E-03 0. -1.
    9900012    2    1    2    0    0  0.10245389358E+02  0.36612696629E+02 -0.20932409864E+02  0.47787270280E+02  0.19999996513E+02 0.  0.
        -12    1    1    2    0    0 -0.10245389358E+02 -0.36612696629E+02  0.20932409864E+02  0.43400729720E+02  0.00000000000E+00 0.  1.
         11    1    3    3    0    0  0.60700107731E+01  0.21320256932E+02 -0.19909399763E+02  0.29795680654E+02  0.51100000000E-03 0. -1.
        -11    1    3    3    0    0  0.18768821955E+01 -0.38991893935E+00 -0.95470568440E+00  0.21415384096E+01  0.51100000000E-03 0.  1.
        -12    1    3    3    0    0  0.22984963895E+01  0.15682358636E+02 -0.68304416053E-01  0.15850051216E+02  0.00000000000E+00 0.  1.
</event>
<event>
 7    1  0.4432754E-010  0.4778727E+02  0.7816164E-02  0.1312668E+00
        -11   -1    0    0    0    0  0.00000000000E+00  0.00000000000E+00  0.45593999997E+02  0.45594000000E+02  0.51100000000E-03 0.  1.
         11   -1    0    0    0    0 -0.00000000000E+00 -0.00000000000E+00 -0.45593999997E+02  0.45594000000E+02  0.51100000000E-03 0. -1.
    9900012    2    1    2    0    0  0.18793812229E+02 -0.25026079728E+02 -0.30068440171E+02  0.47787272598E+02  0.20000007085E+02 0.  0.
        -12    1    1    2    0    0 -0.18793812229E+02  0.25026079728E+02  0.30068440171E+02  0.43400727402E+02  0.00000000000E+00 0.  1.
         11    1    3    3    0    0  0.16585615633E+00 -0.14837170083E+02 -0.11343053793E+02  0.18677098114E+02  0.51100000000E-03 0. -1.
        -11    1    3    3    0    0  0.22762342481E+00 -0.22049861260E+01 -0.15673154453E+01  0.27148212106E+01  0.51100000000E-03 0.  1.
        -12    1    3    3    0    0  0.18400332648E+02 -0.79839235193E+01 -0.17158070933E+02  0.26395353274E+02  0.00000000000E+00 0.  1.
</event>
<event>
 7    1  0.4432754E-010  0.4778727E+02  0.7816164E-02  0.1312668E+00
        -11   -1    0    0    0    0  0.00000000000E+00  0.00000000000E+00  0.45593999997E+02  0.45594000000E+02  0.51100000000E-03 0.  1.
         11   -1    0    0    0    0 -0.00000000000E+00 -0.00000000000E+00 -0.45593999997E+02  0.45594000000E+02  0.51100000000E-03 0. -1.
    9900012    2    1    2    0    0  0.23072668605E+02 -0.24584172214E+02 -0.27329355399E+02  0.47787271590E+02  0.20000002488E+02 0.  0.
        -12    1    1    2    0    0 -0.23072668605E+02  0.24584172214E+02  0.27329355399E+02  0.43400728410E+02  0.00000000000E+00 0.  1.
         11    1    3    3    0    0  0.15938122831E+02 -0.15592317946E+02 -0.23783588860E+02  0.32600663147E+02  0.51100000000E-03 0. -1.
        -11    1    3    3    0    0 -0.82966178990E+00 -0.44703357077E+00 -0.33754057370E+01  0.35045030817E+01  0.51100000000E-03 0.  1.
        -12    1    3    3    0    0  0.79642075645E+01 -0.85448206974E+01 -0.17036080162E+00  0.11682105362E+02  0.00000000000E+00 0.  1.
</event>
<event>
 7    1  0.4432754E-010  0.4778727E+02  0.7816164E-02  0.1312668E+00
        -11   -1    0    0    0    0  0.00000000000E+00  0.00000000000E+00  0.45593999997E+02  0.45594000000E+02  0.51100000000E-03 0.  1.
         11   -1    0    0    0    0 -0.00000000000E+00 -0.00000000000E+00 -0.45593999997E+02  0.45594000000E+02  0.51100000000E-03 0. -1.
    9900012    2    1    2    0    0  0.36408286306E+02 -0.23612459099E+02  0.71521103082E+00  0.47787273471E+02  0.20000011064E+02 0.  0.
        -12    1    1    2    0    0 -0.36408286306E+02  0.23612459099E+02 -0.71521103082E+00  0.43400726529E+02  0.00000000000E+00 0.  1.
         11    1    3    3    0    0  0.33728560388E+02 -0.17101811067E+02  0.51700348302E+01  0.38168272008E+02  0.51100000000E-03 0. -1.
        -11    1    3    3    0    0  0.15801515417E+01 -0.32567927441E+01 -0.49673032915E+01  0.61463550275E+01  0.51100000000E-03 0.  1.
         12    1    3    3    0    0  0.10995743759E+01 -0.32538552875E+01  0.51247949217E+00  0.34726464361E+01  0.00000000000E+00 0. -1.
</event>
<event>
 7    1  0.4432754E-010  0.4778727E+02  0.7816164E-02  0.1312668E+00
        -11   -1    0    0    0    0  0.00000000000E+00  0.00000000000E+00  0.45593999997E+02  0.45594000000E+02  0.51100000000E-03 0.  1.
         11   -1    0    0    0    0 -0.00000000000E+00 -0.00000000000E+00 -0.45593999997E+02  0.45594000000E+02  0.51100000000E-03 0. -1.
    9900012    2    1    2    0    0 -0.19091723365E+02  0.16818690785E+02 -0.35160504127E+02  0.47787270614E+02  0.19999998037E+02 0.  0.
        -12    1    1    2    0    0  0.19091723365E+02 -0.16818690785E+02  0.35160504127E+02  0.43400729386E+02  0.00000000000E+00 0.  1.
         11    1    3    3    0    0 -0.30583748603E+01 -0.17827678502E+01 -0.59203675399E+01  0.68980192855E+01  0.51100000000E-03 0. -1.
        -11    1    3    3    0    0  0.17212549640E+01  0.73144214193E+00  0.47883477430E+00  0.19305463631E+01  0.51100000000E-03 0.  1.
         12    1    3    3    0    0 -0.17754603469E+02  0.17870016493E+02 -0.29718971362E+02  0.38958704965E+02  0.00000000000E+00 0. -1.
</event>
<event>
 7    1  0.4432754E-010  0.4778728E+02  0.7816164E-02  0.1312668E+00
        -11   -1    0    0    0    0  0.00000000000E+00  0.00000000000E+00  0.45593999997E+02  0.45594000000E+02  0.51100000000E-03 0. -1.
         11   -1    0    0    0    0 -0.00000000000E+00 -0.00000000000E+00 -0.45593999997E+02  0.45594000000E+02  0.51100000000E-03 0.  1.
    9900012    2    1    2    0    0  0.22857903476E+02 -0.33081037847E+02  0.16333526102E+02  0.47787275453E+02  0.20000020099E+02 0.  0.
        -12    1    1    2    0    0 -0.22857903476E+02  0.33081037847E+02 -0.16333526102E+02  0.43400724547E+02  0.00000000000E+00 0.  1.
         11    1    3    3    0    0  0.18195834206E+02 -0.30912930254E+02  0.14313544356E+02  0.38620916505E+02  0.51100000000E-03 0. -1.
        -11    1    3    3    0    0  0.59910494180E+01 -0.34379673067E+01  0.78497830324E+00  0.69518690673E+01  0.51100000000E-03 0.  1.
         12    1    3    3    0    0 -0.13289801483E+01  0.12698597144E+01  0.12350034426E+01  0.22144898808E+01  0.00000000000E+00 0. -1.
</event>
<event>
 7    1  0.4432754E-010  0.4778727E+02  0.7816164E-02  0.1312668E+00
        -11   -1    0    0    0    0  0.00000000000E+00  0.00000000000E+00  0.45593999997E+02  0.45594000000E+02  0.51100000000E-03 0.  1.
         11   -1    0    0    0    0 -0.00000000000E+00 -0.00000000000E+00 -0.45593999997E+02  0.45594000000E+02  0.51100000000E-03 0. -1.
    9900012    2    1    2    0    0  0.15551405234E+02  0.10483731635E+00 -0.40518711740E+02  0.47787271934E+02  0.20000004054E+02 0.  0.
        -12    1    1    2    0    0 -0.15551405234E+02 -0.10483731635E+00  0.40518711740E+02  0.43400728066E+02  0.00000000000E+00 0.  1.
         11    1    3    3    0    0  0.35523122409E+00  0.38956195331E+01 -0.91770213283E+01  0.99759591765E+01  0.51100000000E-03 0. -1.
        -11    1    3    3    0    0  0.18142435579E+01  0.32517961257E+01 -0.15377872592E+02  0.15822282498E+02  0.51100000000E-03 0.  1.
         12    1    3    3    0    0  0.13381930453E+02 -0.70425783425E+01 -0.15963817819E+02  0.21989030259E+02  0.00000000000E+00 0. -1.
</event>
<event>
 7    1  0.4432754E-010  0.4778727E+02  0.7816164E-02  0.1312668E+00
        -11   -1    0    0    0    0  0.00000000000E+00  0.00000000000E+00  0.45593999997E+02  0.45594000000E+02  0.51100000000E-03 0.  1.
         11   -1    0    0    0    0 -0.00000000000E+00 -0.00000000000E+00 -0.45593999997E+02  0.45594000000E+02  0.51100000000E-03 0. -1.
    9900012    2    1    2    0    0  0.24775978748E+02  0.62935651111E+01 -0.35073712772E+02  0.47787269450E+02  0.19999992729E+02 0.  0.
        -12    1    1    2    0    0 -0.24775978748E+02 -0.62935651111E+01  0.35073712772E+02  0.43400730550E+02  0.00000000000E+00 0.  1.
         11    1    3    3    0    0  0.12063827717E+02  0.61970744822E+01 -0.14165024042E+02  0.19610904561E+02  0.51100000000E-03 0. -1.
        -11    1    3    3    0    0  0.12077481186E+02 -0.30012810240E+01 -0.21610167506E+02  0.24937373147E+02  0.51100000000E-03 0.  1.
        -12    1    3    3    0    0  0.63466984516E+00  0.30977716528E+01  0.70147877698E+00  0.32389917413E+01  0.00000000000E+00 0.  1.
</event>
<event>
 7    1  0.4432754E-010  0.4778730E+02  0.7816164E-02  0.1312668E+00
        -11   -1    0    0    0    0  0.00000000000E+00  0.00000000000E+00  0.45593999997E+02  0.45594000000E+02  0.51100000000E-03 0.  1.
         11   -1    0    0    0    0 -0.00000000000E+00 -0.00000000000E+00 -0.45593999997E+02  0.45594000000E+02  0.51100000000E-03 0. -1.
    9900012    2    1    2    0    0 -0.58011405720E+01 -0.27355739868E+02 -0.33190828362E+02  0.47787299279E+02  0.20000128733E+02 0.  0.
        -12    1    1    2    0    0  0.58011405720E+01  0.27355739868E+02  0.33190828362E+02  0.43400700721E+02  0.00000000000E+00 0.  1.
         11    1    3    3    0    0 -0.78016534492E+01 -0.71583602314E+01 -0.16140795030E+02  0.19303709027E+02  0.51100000000E-03 0. -1.
        -11    1    3    3    0    0 -0.13299660634E+01 -0.34766761609E+01  0.79169769395E+00  0.38056369188E+01  0.51100000000E-03 0.  1.
         12    1    3    3    0    0  0.33304789406E+01 -0.16720703476E+02 -0.17841731027E+02  0.24677953334E+02  0.00000000000E+00 0. -1.
</event>
<event>
 7    1  0.4432754E-010  0.4778727E+02  0.7816164E-02  0.1312668E+00
        -11   -1    0    0    0    0  0.00000000000E+00  0.00000000000E+00  0.45593999997E+02  0.45594000000E+02  0.51100000000E-03 0.  1.
         11   -1    0    0    0    0 -0.00000000000E+00 -0.00000000000E+00 -0.45593999997E+02  0.45594000000E+02  0.51100000000E-03 0. -1.
    9900012    2    1    2    0    0 -0.25269613970E+02 -0.12105894634E+02 -0.33143890591E+02  0.47787267764E+02  0.19999985045E+02 0.  0.
        -12    1    1    2    0    0  0.25269613970E+02  0.12105894634E+02  0.33143890591E+02  0.43400732236E+02  0.00000000000E+00 0.  1.
         11    1    3    3    0    0 -0.64729501500E+01 -0.10534137222E+01 -0.45147099586E+00  0.65736284071E+01  0.51100000000E-03 0. -1.
        -11    1    3    3    0    0 -0.31775402466E+00  0.78808406371E+00 -0.85282384426E+01  0.85704664579E+01  0.51100000000E-03 0.  1.
         12    1    3    3    0    0 -0.18478909796E+02 -0.11840564975E+02 -0.24164181152E+02  0.32643172899E+02  0.00000000000E+00 0. -1.
</event>
<event>
 7    1  0.4432754E-010  0.4778727E+02  0.7816164E-02  0.1312668E+00
        -11   -1    0    0    0    0  0.00000000000E+00  0.00000000000E+00  0.45593999997E+02  0.45594000000E+02  0.51100000000E-03 0. -1.
         11   -1    0    0    0    0 -0.00000000000E+00 -0.00000000000E+00 -0.45593999997E+02  0.45594000000E+02  0.51100000000E-03 0.  1.
    9900012    2    1    2    0    0 -0.21217199141E+02  0.30278930518E+02  0.22729713208E+02  0.47787273794E+02  0.20000012535E+02 0.  0.
        -12    1    1    2    0    0  0.21217199141E+02 -0.30278930518E+02 -0.22729713208E+02  0.43400726206E+02  0.00000000000E+00 0.  1.
         11    1    3    3    0    0 -0.10739906613E+02  0.23736392512E+02  0.19807293947E+02  0.32727523849E+02  0.51100000000E-03 0. -1.
        -11    1    3    3    0    0 -0.41023177680E+01  0.71339761569E+01  0.60759432004E+00  0.82517754451E+01  0.51100000000E-03 0.  1.
        -12    1    3    3    0    0 -0.63749747600E+01 -0.59143815056E+00  0.23148249404E+01  0.68079744992E+01  0.00000000000E+00 0.  1.
</event>
<event>
 7    1  0.4432754E-010  0.4778727E+02  0.7816164E-02  0.1312668E+00
        -11   -1    0    0    0    0  0.00000000000E+00  0.00000000000E+00  0.45593999997E+02  0.45594000000E+02  0.51100000000E-03 0. -1.
         11   -1    0    0    0    0 -0.00000000000E+00 -0.00000000000E+00 -0.45593999997E+02  0.45594000000E+02  0.51100000000E-03 0.  1.
    9900012    2    1    2    0    0  0.82916508790E+01  0.17087540815E+02  0.39024192234E+02  0.47787272991E+02  0.20000008873E+02 0.  0.
        -12    1    1    2    0    0 -0.82916508790E+01 -0.17087540815E+02 -0.39024192234E+02  0.43400727009E+02  0.00000000000E+00 0.  1.
         11    1    3    3    0    0  0.21186356306E+00  0.45129588428E+01  0.16621497272E+02  0.17224571272E+02  0.51100000000E-03 0. -1.
        -11    1    3    3    0    0 -0.22054428646E+01 -0.19823996809E+01  0.32088105519E+01  0.43692507530E+01  0.51100000000E-03 0.  1.
         12    1    3    3    0    0  0.10285230181E+02  0.14556981653E+02  0.19193884411E+02  0.26193450966E+02  0.00000000000E+00 0. -1.
</event>
<event>
 7    1  0.4432754E-010  0.4778727E+02  0.7816164E-02  0.1312668E+00
        -11   -1    0    0    0    0  0.00000000000E+00  0.00000000000E+00  0.45593999997E+02  0.45594000000E+02  0.51100000000E-03 0. -1.
         11   -1    0    0    0    0 -0.00000000000E+00 -0.00000000000E+00 -0.45593999997E+02  0.45594000000E+02  0.51100000000E-03 0.  1.
    9900012    2    1    2    0    0 -0.25805153920E+02 -0.23490101713E+02 -0.25805665636E+02  0.47787271593E+02  0.20000002502E+02 0.  0.
        -12    1    1    2    0    0  0.25805153920E+02  0.23490101713E+02  0.25805665636E+02  0.43400728407E+02  0.00000000000E+00 0.  1.
         11    1    3    3    0    0  0.65507733883E-01 -0.44022908791E+01 -0.24854601635E+01  0.50558845648E+01  0.51100000000E-03 0.  1.
        -11    1    3    3    0    0 -0.16327317893E+02 -0.19517079955E+02 -0.12674330923E+02  0.28427739695E+02  0.51100000000E-03 0. -1.
         12    1    3    3    0    0 -0.95433437612E+01  0.42926912095E+00 -0.10645874550E+02  0.14303647334E+02  0.00000000000E+00 0. -1.
</event>
<event>
 7    1  0.4432754E-010  0.4778727E+02  0.7816164E-02  0.1312668E+00
        -11   -1    0    0    0    0  0.00000000000E+00  0.00000000000E+00  0.45593999997E+02  0.45594000000E+02  0.51100000000E-03 0.  1.
         11   -1    0    0    0    0 -0.00000000000E+00 -0.00000000000E+00 -0.45593999997E+02  0.45594000000E+02  0.51100000000E-03 0. -1.
    9900012    2    1    2    0    0  0.40501820637E+02 -0.13500766993E+02  0.78073763513E+01  0.47787270631E+02  0.19999998115E+02 0.  0.
        -12    1    1    2    0    0 -0.40501820637E+02  0.13500766993E+02 -0.78073763513E+01  0.43400729369E+02  0.00000000000E+00 0.  1.
         11    1    3    3    0    0  0.19222597090E+02 -0.29394929738E+01  0.83862156348E+01  0.21177286671E+02  0.51100000000E-03 0. -1.
        -11    1    3    3    0    0  0.21049384271E+02 -0.11069907952E+02  0.20984307478E+01  0.23875151352E+02  0.51100000000E-03 0.  1.
         12    1    3    3    0    0  0.22983927610E+00  0.50863393274E+00 -0.26772700313E+01  0.27348326074E+01  0.00000000000E+00 0. -1.
</event>
<event>
 7    1  0.4432754E-010  0.4778727E+02  0.7816164E-02  0.1312668E+00
        -11   -1    0    0    0    0  0.00000000000E+00  0.00000000000E+00  0.45593999997E+02  0.45594000000E+02  0.51100000000E-03 0.  1.
         11   -1    0    0    0    0 -0.00000000000E+00 -0.00000000000E+00 -0.45593999997E+02  0.45594000000E+02  0.51100000000E-03 0. -1.
    9900012    2    1    2    0    0  0.31494532363E+01  0.58942825115E+01 -0.42883117147E+02  0.47787270072E+02  0.19999995568E+02 0.  0.
        -12    1    1    2    0    0 -0.31494532363E+01 -0.58942825115E+01  0.42883117147E+02  0.43400729928E+02  0.00000000000E+00 0.  1.
         11    1    3    3    0    0 -0.28387308757E+01 -0.35924501154E+01 -0.14524251744E+02  0.15228853529E+02  0.51100000000E-03 0. -1.
        -11    1    3    3    0    0  0.98210541846E+00 -0.52326256478E+00  0.77012751266E+00  0.13533038874E+01  0.51100000000E-03 0.  1.
         12    1    3    3    0    0  0.50060786935E+01  0.10009995192E+02 -0.29128992915E+02  0.31205112656E+02  0.00000000000E+00 0. -1.
</event>
<event>
 7    1  0.4432754E-010  0.4778727E+02  0.7816164E-02  0.1312668E+00
        -11   -1    0    0    0    0  0.00000000000E+00  0.00000000000E+00  0.45593999997E+02  0.45594000000E+02  0.51100000000E-03 0.  1.
         11   -1    0    0    0    0 -0.00000000000E+00 -0.00000000000E+00 -0.45593999997E+02  0.45594000000E+02  0.51100000000E-03 0. -1.
    9900012    2    1    2    0    0  0.30003260604E+02 -0.12970988443E+02 -0.28551377658E+02  0.47787270119E+02  0.19999995780E+02 0.  0.
        -12    1    1    2    0    0 -0.30003260604E+02  0.12970988443E+02  0.28551377658E+02  0.43400729881E+02  0.00000000000E+00 0.  1.
         11    1    3    3    0    0  0.65019730067E-01  0.14152769583E+00 -0.37044722995E+01  0.37077449929E+01  0.51100000000E-03 0. -1.
        -11    1    3    3    0    0  0.70713908818E+01  0.17701589844E+01 -0.16963383125E+00  0.72915572912E+01  0.51100000000E-03 0.  1.
         12    1    3    3    0    0  0.22866849993E+02 -0.14882675123E+02 -0.24677271527E+02  0.36787967835E+02  0.00000000000E+00 0. -1.
</event>
<event>
 7    1  0.4432754E-010  0.4778727E+02  0.7816164E-02  0.1312668E+00
        -11   -1    0    0    0    0  0.00000000000E+00  0.00000000000E+00  0.45593999997E+02  0.45594000000E+02  0.51100000000E-03 0. -1.
         11   -1    0    0    0    0 -0.00000000000E+00 -0.00000000000E+00 -0.45593999997E+02  0.45594000000E+02  0.51100000000E-03 0.  1.
    9900012    2    1    2    0    0  0.42329608155E+02  0.29995540736E+01 -0.91011331207E+01  0.47787266420E+02  0.19999978914E+02 0.  0.
        -12    1    1    2    0    0 -0.42329608155E+02 -0.29995540736E+01  0.91011331207E+01  0.43400733580E+02  0.00000000000E+00 0.  1.
         11    1    3    3    0    0  0.70855017256E+01 -0.18988275884E+01  0.17044574259E+01  0.75309399342E+01  0.51100000000E-03 0. -1.
        -11    1    3    3    0    0  0.55390258922E+01 -0.11537230923E+01  0.35857396251E+01  0.66984635349E+01  0.51100000000E-03 0.  1.
         12    1    3    3    0    0  0.29705080538E+02  0.60521047543E+01 -0.14391330172E+02  0.33557862951E+02  0.00000000000E+00 0. -1.
</event>
<event>
 7    1  0.4432754E-010  0.4778727E+02  0.7816164E-02  0.1312668E+00
        -11   -1    0    0    0    0  0.00000000000E+00  0.00000000000E+00  0.45593999997E+02  0.45594000000E+02  0.51100000000E-03 0. -1.
         11   -1    0    0    0    0 -0.00000000000E+00 -0.00000000000E+00 -0.45593999997E+02  0.45594000000E+02  0.51100000000E-03 0.  1.
    9900012    2    1    2    0    0 -0.21708614160E+02 -0.90832018360E+01  0.36467173555E+02  0.47787271534E+02  0.20000002231E+02 0.  0.
        -12    1    1    2    0    0  0.21708614160E+02  0.90832018360E+01 -0.36467173555E+02  0.43400728466E+02  0.00000000000E+00 0.  1.
         11    1    3    3    0    0 -0.10981131480E+02 -0.10171704551E+02  0.29667358224E+02  0.33229519502E+02  0.51100000000E-03 0. -1.
        -11    1    3    3    0    0 -0.59347657672E+01 -0.28434032759E+01  0.43689212040E+01  0.78989783927E+01  0.51100000000E-03 0.  1.
        -12    1    3    3    0    0 -0.47927169125E+01  0.39319059909E+01  0.24308941266E+01  0.66587736393E+01  0.00000000000E+00 0.  1.
</event>
<event>
 7    1  0.4432754E-010  0.4778725E+02  0.7816164E-02  0.1312668E+00
        -11   -1    0    0    0    0  0.00000000000E+00  0.00000000000E+00  0.45593999997E+02  0.45594000000E+02  0.51100000000E-03 0. -1.
         11   -1    0    0    0    0 -0.00000000000E+00 -0.00000000000E+00 -0.45593999997E+02  0.45594000000E+02  0.51100000000E-03 0.  1.
    9900012    2    1    2    0    0  0.24987574060E+02 -0.31784550334E+02  0.15779360633E+02  0.47787254392E+02  0.19999924074E+02 0.  0.
        -12    1    1    2    0    0 -0.24987574060E+02  0.31784550334E+02 -0.15779360633E+02  0.43400745608E+02  0.00000000000E+00 0.  1.
         11    1    3    3    0    0  0.13929308803E+02 -0.27668592574E+02  0.82028170191E+01  0.32044701061E+02  0.51100000000E-03 0. -1.
        -11    1    3    3    0    0 -0.73896890232E+00 -0.23237844114E+00  0.19678824794E+01  0.21148608683E+01  0.51100000000E-03 0.  1.
        -12    1    3    3    0    0  0.11797234159E+02 -0.38835793191E+01  0.56086611347E+01  0.13627692463E+02  0.00000000000E+00 0.  1.
</event>
<event>
 7    1  0.4432754E-010  0.4778727E+02  0.7816164E-02  0.1312668E+00
        -11   -1    0    0    0    0  0.00000000000E+00  0.00000000000E+00  0.45593999997E+02  0.45594000000E+02  0.51100000000E-03 0. -1.
         11   -1    0    0    0    0 -0.00000000000E+00 -0.00000000000E+00 -0.45593999997E+02  0.45594000000E+02  0.51100000000E-03 0.  1.
    9900012    2    1    2    0    0 -0.42533444133E+02 -0.66991455791E+01 -0.54452528908E+01  0.47787271892E+02  0.20000003863E+02 0.  0.
        -12    1    1    2    0    0  0.42533444133E+02  0.66991455791E+01  0.54452528908E+01  0.43400728108E+02  0.00000000000E+00 0.  1.
         11    1    3    3    0    0 -0.15353398999E+02  0.39774386141E+00  0.12876704367E+01  0.15412435123E+02  0.51100000000E-03 0. -1.
        -11    1    3    3    0    0 -0.22200736397E+02  0.41844455995E+00 -0.22845692902E+01  0.22321896190E+02  0.51100000000E-03 0.  1.
        -12    1    3    3    0    0 -0.49793087362E+01 -0.75153340005E+01 -0.44483540373E+01  0.10052940578E+02  0.00000000000E+00 0.  1.
</event>
<event>
 7    1  0.4432754E-010  0.4778728E+02  0.7816164E-02  0.1312668E+00
        -11   -1    0    0    0    0  0.00000000000E+00  0.00000000000E+00  0.45593999997E+02  0.45594000000E+02  0.51100000000E-03 0. -1.
         11   -1    0    0    0    0 -0.00000000000E+00 -0.00000000000E+00 -0.45593999997E+02  0.45594000000E+02  0.51100000000E-03 0.  1.
    9900012    2    1    2    0    0 -0.24054657547E+02  0.35540863194E+02 -0.64686432964E+01  0.47787275900E+02  0.20000022140E+02 0.  0.
        -12    1    1    2    0    0  0.24054657547E+02 -0.35540863194E+02  0.64686432964E+01  0.43400724100E+02  0.00000000000E+00 0.  1.
         11    1    3    3    0    0 -0.23057223454E+01  0.47455225887E+01 -0.40244346630E+01  0.66356924877E+01  0.51100000000E-03 0. -1.
        -11    1    3    3    0    0 -0.12053351277E+01  0.99130914486E+01  0.46433953614E+01  0.11012871360E+02  0.51100000000E-03 0.  1.
        -12    1    3    3    0    0 -0.20543600074E+02  0.20882249157E+02 -0.70876039947E+01  0.30138712053E+02  0.00000000000E+00 0.  1.
</event>
<event>
 7    1  0.4432754E-010  0.4778732E+02  0.7816164E-02  0.1312668E+00
        -11   -1    0    0    0    0  0.00000000000E+00  0.00000000000E+00  0.45593999997E+02  0.45594000000E+02  0.51100000000E-03 0.  1.
         11   -1    0    0    0    0 -0.00000000000E+00 -0.00000000000E+00 -0.45593999997E+02  0.45594000000E+02  0.51100000000E-03 0. -1.
    9900012    2    1    2    0    0  0.16072430181E+02 -0.13962145909E+02  0.37820029956E+02  0.47787318021E+02  0.20000214186E+02 0.  0.
        -12    1    1    2    0    0 -0.16072430181E+02  0.13962145909E+02 -0.37820029956E+02  0.43400681979E+02  0.00000000000E+00 0.  1.
         11    1    3    3    0    0  0.73537914497E+01 -0.60690626779E+00  0.13938314711E+02  0.15770960692E+02  0.51100000000E-03 0. -1.
        -11    1    3    3    0    0 -0.18836803839E+01 -0.49118753159E+01  0.14785112805E+02  0.15693130084E+02  0.51100000000E-03 0.  1.
         12    1    3    3    0    0  0.10602319115E+02 -0.84433643256E+01  0.90966024403E+01  0.16323227246E+02  0.00000000000E+00 0. -1.
</event>
<event>
 7    1  0.4432754E-010  0.4778727E+02  0.7816164E-02  0.1312668E+00
        -11   -1    0    0    0    0  0.00000000000E+00  0.00000000000E+00  0.45593999997E+02  0.45594000000E+02  0.51100000000E-03 0.  1.
         11   -1    0    0    0    0 -0.00000000000E+00 -0.00000000000E+00 -0.45593999997E+02  0.45594000000E+02  0.51100000000E-03 0. -1.
    9900012    2    1    2    0    0 -0.21068404812E+02 -0.36606880907E+02 -0.99840813385E+01  0.47787270844E+02  0.19999999087E+02 0.  0.
        -12    1    1    2    0    0  0.21068404812E+02  0.36606880907E+02  0.99840813385E+01  0.43400729156E+02  0.00000000000E+00 0.  1.
         11    1    3    3    0    0 -0.24278422493E+01 -0.15888991852E+01 -0.25011571670E+01  0.38307709463E+01  0.51100000000E-03 0. -1.
        -11    1    3    3    0    0 -0.41681291340E+00 -0.51229148641E+01 -0.73201397650E+01  0.89444080939E+01  0.51100000000E-03 0.  1.
         12    1    3    3    0    0 -0.18223749649E+02 -0.29895066858E+02 -0.16278440656E+00  0.35012091804E+02  0.00000000000E+00 0. -1.
</event>
<event>
 7    1  0.4432754E-010  0.4778725E+02  0.7816164E-02  0.1312668E+00
        -11   -1    0    0    0    0  0.00000000000E+00  0.00000000000E+00  0.45593999997E+02  0.45594000000E+02  0.51100000000E-03 0.  1.
         11   -1    0    0    0    0 -0.00000000000E+00 -0.00000000000E+00 -0.45593999997E+02  0.45594000000E+02  0.51100000000E-03 0. -1.
    9900012    2    1    2    0    0  0.14344202694E+02  0.15869657577E+02 -0.37762715899E+02  0.47787252373E+02  0.19999914870E+02 0.  0.
        -12    1    1    2    0    0 -0.14344202694E+02 -0.15869657577E+02  0.37762715899E+02  0.43400747627E+02  0.00000000000E+00 0.  1.
         11    1    3    3    0    0  0.10426820016E+02  0.10592397131E+02 -0.29507202183E+02  0.33039255947E+02  0.51100000000E-03 0. -1.
        -11    1    3    3    0    0  0.52443720218E+01  0.72330016187E+01 -0.85501373642E+01  0.12366268618E+02  0.51100000000E-03 0.  1.
        -12    1    3    3    0    0 -0.13269893443E+01 -0.19557411733E+01  0.29462364820E+00  0.23817278079E+01  0.00000000000E+00 0.  1.
</event>
<event>
 7    1  0.4432754E-010  0.4778727E+02  0.7816164E-02  0.1312668E+00
        -11   -1    0    0    0    0  0.00000000000E+00  0.00000000000E+00  0.45593999997E+02  0.45594000000E+02  0.51100000000E-03 0. -1.
         11   -1    0    0    0    0 -0.00000000000E+00 -0.00000000000E+00 -0.45593999997E+02  0.45594000000E+02  0.51100000000E-03 0.  1.
    9900012    2    1    2    0    0 -0.13892045279E+01 -0.37270834100E+02  0.22194100094E+02  0.47787273708E+02  0.20000012144E+02 0.  0.
        -12    1    1    2    0    0  0.13892045279E+01  0.37270834100E+02 -0.22194100094E+02  0.43400726292E+02  0.00000000000E+00 0.  1.
         11    1    3    3    0    0  0.60125818125E+01 -0.13224987146E+02  0.53357680141E+01  0.15476493325E+02  0.51100000000E-03 0. -1.
        -11    1    3    3    0    0 -0.19760972303E+01  0.47473102356E+00  0.30103600918E+01  0.36321616087E+01  0.51100000000E-03 0.  1.
         12    1    3    3    0    0 -0.54256891101E+01 -0.24520577977E+02  0.13847971988E+02  0.28678618774E+02  0.00000000000E+00 0. -1.
</event>
<event>
 7    1  0.4432754E-010  0.4778727E+02  0.7816164E-02  0.1312668E+00
        -11   -1    0    0    0    0  0.00000000000E+00  0.00000000000E+00  0.45593999997E+02  0.45594000000E+02  0.51100000000E-03 0. -1.
         11   -1    0    0    0    0 -0.00000000000E+00 -0.00000000000E+00 -0.45593999997E+02  0.45594000000E+02  0.51100000000E-03 0.  1.
    9900012    2    1    2    0    0 -0.39271784366E+02  0.11402425271E+02 -0.14537359880E+02  0.47787272107E+02  0.20000004844E+02 0.  0.
        -12    1    1    2    0    0  0.39271784366E+02 -0.11402425271E+02  0.14537359880E+02  0.43400727893E+02  0.00000000000E+00 0.  1.
         11    1    3    3    0    0 -0.23166080107E+02  0.69212037935E+01 -0.21813845893E+01  0.24276094588E+02  0.51100000000E-03 0. -1.
        -11    1    3    3    0    0 -0.20595733347E+01  0.93829142544E+00  0.20700919211E+01  0.30671670875E+01  0.51100000000E-03 0.  1.
         12    1    3    3    0    0 -0.14046130925E+02  0.35429300519E+01 -0.14426067212E+02  0.20444010431E+02  0.00000000000E+00 0. -1.
</event>
<event>
 7    1  0.4432754E-010  0.4778727E+02  0.7816164E-02  0.1312668E+00
        -11   -1    0    0    0    0  0.00000000000E+00  0.00000000000E+00  0.45593999997E+02  0.45594000000E+02  0.51100000000E-03 0. -1.
         11   -1    0    0    0    0 -0.00000000000E+00 -0.00000000000E+00 -0.45593999997E+02  0.45594000000E+02  0.51100000000E-03 0.  1.
    9900012    2    1    2    0    0  0.14469055968E+01  0.43261543913E+02 -0.31572530846E+01  0.47787274608E+02  0.20000016247E+02 0.  0.
        -12    1    1    2    0    0 -0.14469055968E+01 -0.43261543913E+02  0.31572530846E+01  0.43400725392E+02  0.00000000000E+00 0.  1.
         11    1    3    3    0    0 -0.56707011735E+01  0.32442443323E+02 -0.15083960576E+01  0.32968837400E+02  0.51100000000E-03 0. -1.
        -11    1    3    3    0    0  0.40794225233E+01  0.32889023656E+01  0.23784002049E+01  0.57545942246E+01  0.51100000000E-03 0.  1.
        -12    1    3    3    0    0  0.30381842470E+01  0.75301982238E+01 -0.40272572319E+01  0.90638429830E+01  0.00000000000E+00 0.  1.
</event>
<event>
 7    1  0.4432754E-010  0.4778727E+02  0.7816164E-02  0.1312668E+00
        -11   -1    0    0    0    0  0.00000000000E+00  0.00000000000E+00  0.45593999997E+02  0.45594000000E+02  0.51100000000E-03 0. -1.
         11   -1    0    0    0    0 -0.00000000000E+00 -0.00000000000E+00 -0.45593999997E+02  0.45594000000E+02  0.51100000000E-03 0.  1.
    9900012    2    1    2    0    0 -0.49780819787E+01  0.35427277604E+02 -0.24571322249E+02  0.47787272176E+02  0.20000005157E+02 0.  0.
        -12    1    1    2    0    0  0.49780819787E+01 -0.35427277604E+02  0.24571322249E+02  0.43400727824E+02  0.00000000000E+00 0.  1.
         11    1    3    3    0    0 -0.35084754884E+01  0.13628577250E+02 -0.10171727695E+02  0.17364088305E+02  0.51100000000E-03 0. -1.
        -11    1    3    3    0    0  0.11377283087E+00  0.15422072253E+02 -0.17356194028E+02  0.23218327421E+02  0.51100000000E-03 0.  1.
        -12    1    3    3    0    0 -0.15833793212E+01  0.63766281012E+01  0.29565994732E+01  0.72048564497E+01  0.00000000000E+00 0.  1.
</event>
<event>
 7    1  0.4432754E-010  0.4778728E+02  0.7816164E-02  0.1312668E+00
        -11   -1    0    0    0    0  0.00000000000E+00  0.00000000000E+00  0.45593999997E+02  0.45594000000E+02  0.51100000000E-03 0.  1.
         11   -1    0    0    0    0 -0.00000000000E+00 -0.00000000000E+00 -0.45593999997E+02  0.45594000000E+02  0.51100000000E-03 0. -1.
    9900012    2    1    2    0    0 -0.33280710426E+02  0.27461104321E+01 -0.27721401701E+02  0.47787275107E+02  0.20000018523E+02 0.  0.
        -12    1    1    2    0    0  0.33280710426E+02 -0.27461104321E+01  0.27721401701E+02  0.43400724893E+02  0.00000000000E+00 0.  1.
         11    1    3    3    0    0 -0.61173035734E+01 -0.30426771561E+00  0.13486705098E+01  0.62715942357E+01  0.51100000000E-03 0. -1.
        -11    1    3    3    0    0 -0.68643919050E-01  0.25279584672E+01 -0.27990193422E+01  0.37722401221E+01  0.51100000000E-03 0.  1.
        -12    1    3    3    0    0 -0.27094762933E+02  0.52241968052E+00 -0.26271052869E+02  0.37743440749E+02  0.00000000000E+00 0.  1.
</event>
<event>
 7    1  0.4432754E-010  0.4778727E+02  0.7816164E-02  0.1312668E+00
        -11   -1    0    0    0    0  0.00000000000E+00  0.00000000000E+00  0.45593999997E+02  0.45594000000E+02  0.51100000000E-03 0.  1.
         11   -1    0    0    0    0 -0.00000000000E+00 -0.00000000000E+00 -0.45593999997E+02  0.45594000000E+02  0.51100000000E-03 0. -1.
    9900012    2    1    2    0    0 -0.21397581669E+01 -0.38902355805E+02 -0.19122014519E+02  0.47787270841E+02  0.19999999074E+02 0.  0.
        -12    1    1    2    0    0  0.21397581669E+01  0.38902355805E+02  0.19122014519E+02  0.43400729159E+02  0.00000000000E+00 0.  1.
         11    1    3    3    0    0  0.28885086213E+01 -0.15446683820E+02 -0.10216188359E+02  0.18743372907E+02  0.51100000000E-03 0. -1.
        -11    1    3    3    0    0  0.37207928067E+01 -0.11975796881E+02 -0.73268960263E+01  0.14524028907E+02  0.51100000000E-03 0.  1.
        -12    1    3    3    0    0 -0.87490595949E+01 -0.11479875105E+02 -0.15789301339E+01  0.14519869028E+02  0.00000000000E+00 0.  1.
</event>
<event>
 7    1  0.4432754E-010  0.4778727E+02  0.7816164E-02  0.1312668E+00
        -11   -1    0    0    0    0  0.00000000000E+00  0.00000000000E+00  0.45593999997E+02  0.45594000000E+02  0.51100000000E-03 0.  1.
         11   -1    0    0    0    0 -0.00000000000E+00 -0.00000000000E+00 -0.45593999997E+02  0.45594000000E+02  0.51100000000E-03 0. -1.
    9900012    2    1    2    0    0  0.31066570976E+01 -0.25917956551E+02 -0.34673211399E+02  0.47787269836E+02  0.19999994488E+02 0.  0.
        -12    1    1    2    0    0 -0.31066570976E+01  0.25917956551E+02  0.34673211399E+02  0.43400730164E+02  0.00000000000E+00 0.  1.
         11    1    3    3    0    0 -0.58091495476E+01 -0.85279340384E+01 -0.51099741092E+01  0.11514500123E+02  0.51100000000E-03 0. -1.
        -11    1    3    3    0    0  0.17368830118E+01 -0.91036214537E+01 -0.87364625909E+01  0.12736501287E+02  0.51100000000E-03 0.  1.
        -12    1    3    3    0    0  0.71789236334E+01 -0.82864010589E+01 -0.20826774699E+02  0.23536268425E+02  0.00000000000E+00 0.  1.
</event>
<event>
 7    1  0.4432754E-010  0.4778727E+02  0.7816164E-02  0.1312668E+00
        -11   -1    0    0    0    0  0.00000000000E+00  0.00000000000E+00  0.45593999997E+02  0.45594000000E+02  0.51100000000E-03 0.  1.
         11   -1    0    0    0    0 -0.00000000000E+00 -0.00000000000E+00 -0.45593999997E+02  0.45594000000E+02  0.51100000000E-03 0. -1.
    9900012    2    1    2    0    0 -0.23068328149E+00 -0.66476550752E+01 -0.42887978419E+02  0.47787271600E+02  0.20000002534E+02 0.  0.
        -12    1    1    2    0    0  0.23068328149E+00  0.66476550752E+01  0.42887978419E+02  0.43400728400E+02  0.00000000000E+00 0.  1.
         11    1    3    3    0    0 -0.33814186050E+00  0.25643077862E+01 -0.82214866148E+01  0.86187503015E+01  0.51100000000E-03 0. -1.
        -11    1    3    3    0    0 -0.26326061741E+01 -0.70238369605E+01 -0.43931877038E+01  0.86928130877E+01  0.51100000000E-03 0.  1.
         12    1    3    3    0    0  0.27400647531E+01 -0.21881259009E+01 -0.30273304100E+02  0.30475708211E+02  0.00000000000E+00 0. -1.
</event>
<event>
 7    1  0.4432754E-010  0.4778727E+02  0.7816164E-02  0.1312668E+00
        -11   -1    0    0    0    0  0.00000000000E+00  0.00000000000E+00  0.45593999997E+02  0.45594000000E+02  0.51100000000E-03 0. -1.
         11   -1    0    0    0    0 -0.00000000000E+00 -0.00000000000E+00 -0.45593999997E+02  0.45594000000E+02  0.51100000000E-03 0.  1.
    9900012    2    1    2    0    0 -0.36489422790E+02  0.23465348911E+02 -0.12338813865E+01  0.47787273758E+02  0.20000012371E+02 0.  0.
        -12    1    1    2    0    0  0.36489422790E+02 -0.23465348911E+02  0.12338813865E+01  0.43400726242E+02  0.00000000000E+00 0.  1.
         11    1    3    3    0    0 -0.22823744869E+02  0.14949141853E+02  0.24773330812E+01  0.27395936769E+02  0.51100000000E-03 0. -1.
        -11    1    3    3    0    0 -0.13707916640E+02  0.23993109734E+01 -0.21853002250E+01  0.14086845250E+02  0.51100000000E-03 0.  1.
        -12    1    3    3    0    0  0.42238718365E-01  0.61168960840E+01 -0.15259142428E+01  0.63044917391E+01  0.00000000000E+00 0.  1.
</event>
<event>
 7    1  0.4432754E-010  0.4778727E+02  0.7816164E-02  0.1312668E+00
        -11   -1    0    0    0    0  0.00000000000E+00  0.00000000000E+00  0.45593999997E+02  0.45594000000E+02  0.51100000000E-03 0.  1.
         11   -1    0    0    0    0 -0.00000000000E+00 -0.00000000000E+00 -0.45593999997E+02  0.45594000000E+02  0.51100000000E-03 0. -1.
    9900012    2    1    2    0    0  0.17474729345E+02  0.38994264804E+02 -0.75963436829E+01  0.47787270852E+02  0.19999999121E+02 0.  0.
        -12    1    1    2    0    0 -0.17474729345E+02 -0.38994264804E+02  0.75963436829E+01  0.43400729148E+02  0.00000000000E+00 0.  1.
         11    1    3    3    0    0  0.11481218820E+02  0.26888066638E+02 -0.47912337340E+01  0.29626718247E+02  0.51100000000E-03 0. -1.
        -11    1    3    3    0    0  0.17865718910E+01  0.10417055049E+02 -0.64166305606E+01  0.12364466144E+02  0.51100000000E-03 0.  1.
        -12    1    3    3    0    0  0.42069386335E+01  0.16891431170E+01  0.36115206117E+01  0.57960864611E+01  0.00000000000E+00 0.  1.
</event>
<event>
 7    1  0.4432754E-010  0.4778727E+02  0.7816164E-02  0.1312668E+00
        -11   -1    0    0    0    0  0.00000000000E+00  0.00000000000E+00  0.45593999997E+02  0.45594000000E+02  0.51100000000E-03 0.  1.
         11   -1    0    0    0    0 -0.00000000000E+00 -0.00000000000E+00 -0.45593999997E+02  0.45594000000E+02  0.51100000000E-03 0. -1.
    9900012    2    1    2    0    0 -0.12001246296E+02  0.32260420011E+02 -0.26435934326E+02  0.47787271485E+02  0.20000002009E+02 0.  0.
        -12    1    1    2    0    0  0.12001246296E+02 -0.32260420011E+02  0.26435934326E+02  0.43400728515E+02  0.00000000000E+00 0.  1.
         11    1    3    3    0    0 -0.56588485658E+01  0.83539464494E+01 -0.13751807888E+02  0.17056471172E+02  0.51100000000E-03 0. -1.
        -11    1    3    3    0    0 -0.88320127189E+01  0.80917899757E+01 -0.56571872718E+01  0.13247085784E+02  0.51100000000E-03 0.  1.
         12    1    3    3    0    0  0.24896149887E+01  0.15814683586E+02 -0.70269391662E+01  0.17483714530E+02  0.00000000000E+00 0. -1.
</event>
<event>
 7    1  0.4432754E-010  0.4778728E+02  0.7816164E-02  0.1312668E+00
        -11   -1    0    0    0    0  0.00000000000E+00  0.00000000000E+00  0.45593999997E+02  0.45594000000E+02  0.51100000000E-03 0. -1.
         11   -1    0    0    0    0 -0.00000000000E+00 -0.00000000000E+00 -0.45593999997E+02  0.45594000000E+02  0.51100000000E-03 0.  1.
    9900012    2    1    2    0    0 -0.27121628651E+02  0.93307972915E+01  0.32572628464E+02  0.47787278303E+02  0.20000033094E+02 0.  0.
        -12    1    1    2    0    0  0.27121628651E+02 -0.93307972915E+01 -0.32572628464E+02  0.43400721697E+02  0.00000000000E+00 0.  1.
         11    1    3    3    0    0 -0.16358359872E+02  0.26901867381E+01  0.27519141046E+02  0.32126876079E+02  0.51100000000E-03 0.  1.
        -11    1    3    3    0    0 -0.25692823240E+01 -0.11505036835E+01  0.30976506384E+01  0.41857269530E+01  0.51100000000E-03 0. -1.
        -12    1    3    3    0    0 -0.81939864548E+01  0.77911142369E+01  0.19558367796E+01  0.11474675271E+02  0.00000000000E+00 0.  1.
</event>
<event>
 7    1  0.4432754E-010  0.4778727E+02  0.7816164E-02  0.1312668E+00
        -11   -1    0    0    0    0  0.00000000000E+00  0.00000000000E+00  0.45593999997E+02  0.45594000000E+02  0.51100000000E-03 0.  1.
         11   -1    0    0    0    0 -0.00000000000E+00 -0.00000000000E+00 -0.45593999997E+02  0.45594000000E+02  0.51100000000E-03 0. -1.
    9900012    2    1    2    0    0 -0.16235275930E+02 -0.33834080738E+02 -0.21801236197E+02  0.47787273006E+02  0.20000008943E+02 0.  0.
        -12    1    1    2    0    0  0.16235275930E+02  0.33834080738E+02  0.21801236197E+02  0.43400726994E+02  0.00000000000E+00 0.  1.
         11    1    3    3    0    0 -0.12159506673E+02 -0.16006873596E+02 -0.92411505855E+01  0.22124024707E+02  0.51100000000E-03 0. -1.
        -11    1    3    3    0    0 -0.22375357494E+01  0.12164929988E+01  0.36704290058E+00  0.25731580204E+01  0.51100000000E-03 0.  1.
        -12    1    3    3    0    0 -0.18382335074E+01 -0.19043700141E+02 -0.12927128512E+02  0.23090090278E+02  0.00000000000E+00 0.  1.
</event>
<event>
 7    1  0.4432754E-010  0.4778727E+02  0.7816164E-02  0.1312668E+00
        -11   -1    0    0    0    0  0.00000000000E+00  0.00000000000E+00  0.45593999997E+02  0.45594000000E+02  0.51100000000E-03 0.  1.
         11   -1    0    0    0    0 -0.00000000000E+00 -0.00000000000E+00 -0.45593999997E+02  0.45594000000E+02  0.51100000000E-03 0. -1.
    9900012    2    1    2    0    0 -0.67773691430E+01 -0.23771015241E+02 -0.35673931625E+02  0.47787270794E+02  0.19999998856E+02 0.  0.
        -12    1    1    2    0    0  0.67773691430E+01  0.23771015241E+02  0.35673931625E+02  0.43400729206E+02  0.00000000000E+00 0.  1.
         11    1    3    3    0    0 -0.44505892471E+01 -0.20204221806E+02 -0.14883135129E+02  0.25485800654E+02  0.51100000000E-03 0. -1.
        -11    1    3    3    0    0  0.13497736693E+01  0.20899515812E+00 -0.70749606115E+00  0.15382193836E+01  0.51100000000E-03 0.  1.
         12    1    3    3    0    0 -0.36765535651E+01 -0.37757885928E+01 -0.20083300435E+02  0.20763250756E+02  0.00000000000E+00 0. -1.
</event>
<event>
 7    1  0.4432754E-010  0.4778725E+02  0.7816164E-02  0.1312668E+00
        -11   -1    0    0    0    0  0.00000000000E+00  0.00000000000E+00  0.45593999997E+02  0.45594000000E+02  0.51100000000E-03 0. -1.
         11   -1    0    0    0    0 -0.00000000000E+00 -0.00000000000E+00 -0.45593999997E+02  0.45594000000E+02  0.51100000000E-03 0.  1.
    9900012    2    1    2    0    0  0.16706558782E+02 -0.14499401343E+02  0.37340103011E+02  0.47787250715E+02  0.19999907308E+02 0.  0.
        -12    1    1    2    0    0 -0.16706558782E+02  0.14499401343E+02 -0.37340103011E+02  0.43400749285E+02  0.00000000000E+00 0.  1.
         11    1    3    3    0    0 -0.12522176546E+01 -0.10427196777E+01  0.16396763233E+01  0.23116773319E+01  0.51100000000E-03 0.  1.
        -11    1    3    3    0    0  0.85558995856E+01 -0.12361357713E+02  0.31918369855E+02  0.35281566245E+02  0.51100000000E-03 0. -1.
         12    1    3    3    0    0  0.94028768512E+01 -0.10953239521E+01  0.37820568328E+01  0.10194007138E+02  0.00000000000E+00 0. -1.
</event>
<event>
 7    1  0.4432754E-010  0.4778728E+02  0.7816164E-02  0.1312668E+00
        -11   -1    0    0    0    0  0.00000000000E+00  0.00000000000E+00  0.45593999997E+02  0.45594000000E+02  0.51100000000E-03 0.  1.
         11   -1    0    0    0    0 -0.00000000000E+00 -0.00000000000E+00 -0.45593999997E+02  0.45594000000E+02  0.51100000000E-03 0. -1.
    9900012    2    1    2    0    0 -0.14526759051E+01 -0.41883271972E+02 -0.11282907485E+02  0.47787277199E+02  0.20000028061E+02 0.  0.
        -12    1    1    2    0    0  0.14526759051E+01  0.41883271972E+02  0.11282907485E+02  0.43400722801E+02  0.00000000000E+00 0.  1.
         11    1    3    3    0    0  0.31327577813E+01 -0.47992501479E+01  0.12446817530E+01  0.58648278940E+01  0.51100000000E-03 0. -1.
        -11    1    3    3    0    0  0.38877647529E+01 -0.10582948276E+02  0.31482978233E+00  0.11278857524E+02  0.51100000000E-03 0.  1.
         12    1    3    3    0    0 -0.84731984394E+01 -0.26501073548E+02 -0.12842419020E+02  0.30643591781E+02  0.00000000000E+00 0. -1.
</event>
<event>
 7    1  0.4432754E-010  0.4778727E+02  0.7816164E-02  0.1312668E+00
        -11   -1    0    0    0    0  0.00000000000E+00  0.00000000000E+00  0.45593999997E+02  0.45594000000E+02  0.51100000000E-03 0. -1.
         11   -1    0    0    0    0 -0.00000000000E+00 -0.00000000000E+00 -0.45593999997E+02  0.45594000000E+02  0.51100000000E-03 0.  1.
    9900012    2    1    2    0    0  0.14986997936E+02 -0.28227798893E+02  0.29363319025E+02  0.47787271415E+02  0.20000001690E+02 0.  0.
        -12    1    1    2    0    0 -0.14986997936E+02  0.28227798893E+02 -0.29363319025E+02  0.43400728585E+02  0.00000000000E+00 0.  1.
         11    1    3    3    0    0  0.87835347358E+01 -0.11034105841E+02  0.21541965965E+02  0.25747976077E+02  0.51100000000E-03 0. -1.
        -11    1    3    3    0    0  0.39276169189E+01 -0.30646763643E+01  0.57025675598E+01  0.75721656688E+01  0.51100000000E-03 0.  1.
        -12    1    3    3    0    0  0.22758462817E+01 -0.14129016688E+02  0.21187855010E+01  0.14467129670E+02  0.00000000000E+00 0.  1.
</event>
<event>
 7    1  0.4432754E-010  0.4778727E+02  0.7816164E-02  0.1312668E+00
        -11   -1    0    0    0    0  0.00000000000E+00  0.00000000000E+00  0.45593999997E+02  0.45594000000E+02  0.51100000000E-03 0. -1.
         11   -1    0    0    0    0 -0.00000000000E+00 -0.00000000000E+00 -0.45593999997E+02  0.45594000000E+02  0.51100000000E-03 0.  1.
    9900012    2    1    2    0    0  0.24310474109E+02 -0.88517746052E+01  0.34846379474E+02  0.47787271579E+02  0.20000002436E+02 0.  0.
        -12    1    1    2    0    0 -0.24310474109E+02  0.88517746052E+01 -0.34846379474E+02  0.43400728421E+02  0.00000000000E+00 0.  1.
         11    1    3    3    0    0  0.53125770469E+01 -0.69944816690E+01  0.17901700765E+02  0.19940339497E+02  0.51100000000E-03 0.  1.
        -11    1    3    3    0    0  0.25995210911E+01  0.27693261381E+01  0.73981927086E+01  0.83162451129E+01  0.51100000000E-03 0. -1.
        -12    1    3    3    0    0  0.16398375971E+02 -0.46266190743E+01  0.95464860000E+01  0.19530686969E+02  0.00000000000E+00 0.  1.
</event>
<event>
 7    1  0.4432754E-010  0.4778727E+02  0.7816164E-02  0.1312668E+00
        -11   -1    0    0    0    0  0.00000000000E+00  0.00000000000E+00  0.45593999997E+02  0.45594000000E+02  0.51100000000E-03 0.  1.
         11   -1    0    0    0    0 -0.00000000000E+00 -0.00000000000E+00 -0.45593999997E+02  0.45594000000E+02  0.51100000000E-03 0. -1.
    9900012    2    1    2    0    0  0.39708464610E+02 -0.14846905337E+02 -0.92967958033E+01  0.47787272218E+02  0.20000005352E+02 0.  0.
        -12    1    1    2    0    0 -0.39708464610E+02  0.14846905337E+02  0.92967958033E+01  0.43400727782E+02  0.00000000000E+00 0.  1.
         11    1    3    3    0    0  0.54550557252E+01  0.27122442333E+01 -0.78691581238E+00  0.61427305413E+01  0.51100000000E-03 0.  1.
        -11    1    3    3    0    0  0.77465829588E+01 -0.14041586892E+01 -0.70505565106E+01  0.10568422613E+02  0.51100000000E-03 0. -1.
         12    1    3    3    0    0  0.26506825926E+02 -0.16154990881E+02 -0.14593234803E+01  0.31076119064E+02  0.00000000000E+00 0. -1.
</event>
<event>
 7    1  0.4432754E-010  0.4778727E+02  0.7816164E-02  0.1312668E+00
        -11   -1    0    0    0    0  0.00000000000E+00  0.00000000000E+00  0.45593999997E+02  0.45594000000E+02  0.51100000000E-03 0. -1.
         11   -1    0    0    0    0 -0.00000000000E+00 -0.00000000000E+00 -0.45593999997E+02  0.45594000000E+02  0.51100000000E-03 0.  1.
    9900012    2    1    2    0    0 -0.15562894893E+02  0.72472226294E+01  0.39860980065E+02  0.47787266538E+02  0.19999979454E+02 0.  0.
        -12    1    1    2    0    0  0.15562894893E+02 -0.72472226294E+01 -0.39860980065E+02  0.43400733462E+02  0.00000000000E+00 0.  1.
         11    1    3    3    0    0 -0.15060366134E+01 -0.24281950067E+01 -0.13472435425E+00  0.28604943950E+01  0.51100000000E-03 0. -1.
        -11    1    3    3    0    0  0.12030946038E+01  0.22033380950E+01  0.11321475540E+02  0.11596462566E+02  0.51100000000E-03 0.  1.
         12    1    3    3    0    0 -0.15259952884E+02  0.74720795411E+01  0.28674228879E+02  0.33330309577E+02  0.00000000000E+00 0. -1.
</event>
<event>
 7    1  0.4432754E-010  0.4778727E+02  0.7816164E-02  0.1312668E+00
        -11   -1    0    0    0    0  0.00000000000E+00  0.00000000000E+00  0.45593999997E+02  0.45594000000E+02  0.51100000000E-03 0.  1.
         11   -1    0    0    0    0 -0.00000000000E+00 -0.00000000000E+00 -0.45593999997E+02  0.45594000000E+02  0.51100000000E-03 0. -1.
    9900012    2    1    2    0    0 -0.32950768327E+02  0.14423636338E+02 -0.24286395658E+02  0.47787269215E+02  0.19999991661E+02 0.  0.
        -12    1    1    2    0    0  0.32950768327E+02 -0.14423636338E+02  0.24286395658E+02  0.43400730785E+02  0.00000000000E+00 0.  1.
         11    1    3    3    0    0 -0.31249647449E+01  0.55365006434E+01 -0.57595291227E+01  0.85784858808E+01  0.51100000000E-03 0. -1.
        -11    1    3    3    0    0 -0.14182494862E+02  0.57994197251E+01 -0.76753002588E+00  0.15341627432E+02  0.51100000000E-03 0.  1.
         12    1    3    3    0    0 -0.15643308721E+02  0.30877159696E+01 -0.17759336509E+02  0.23867155903E+02  0.00000000000E+00 0. -1.
</event>
<event>
 7    1  0.4432754E-010  0.4778727E+02  0.7816164E-02  0.1312668E+00
        -11   -1    0    0    0    0  0.00000000000E+00  0.00000000000E+00  0.45593999997E+02  0.45594000000E+02  0.51100000000E-03 0.  1.
         11   -1    0    0    0    0 -0.00000000000E+00 -0.00000000000E+00 -0.45593999997E+02  0.45594000000E+02  0.51100000000E-03 0. -1.
    9900012    2    1    2    0    0 -0.36764862876E+02  0.23033189377E+02  0.12000755619E+01  0.47787272627E+02  0.20000007214E+02 0.  0.
        -12    1    1    2    0    0  0.36764862876E+02 -0.23033189377E+02 -0.12000755619E+01  0.43400727373E+02  0.00000000000E+00 0.  1.
         11    1    3    3    0    0 -0.14620326832E+02  0.43418490356E+01  0.42765536373E+01  0.15839650280E+02  0.51100000000E-03 0. -1.
        -11    1    3    3    0    0 -0.79382204804E+01  0.11708658564E+02  0.38626724041E+01  0.14663842202E+02  0.51100000000E-03 0.  1.
        -12    1    3    3    0    0 -0.14206315564E+02  0.69826817772E+01 -0.69391504796E+01  0.17283780144E+02  0.00000000000E+00 0.  1.
</event>
<event>
 7    1  0.4432754E-010  0.4778727E+02  0.7816164E-02  0.1312668E+00
        -11   -1    0    0    0    0  0.00000000000E+00  0.00000000000E+00  0.45593999997E+02  0.45594000000E+02  0.51100000000E-03 0. -1.
         11   -1    0    0    0    0 -0.00000000000E+00 -0.00000000000E+00 -0.45593999997E+02  0.45594000000E+02  0.51100000000E-03 0.  1.
    9900012    2    1    2    0    0  0.33462471927E+02 -0.24599487935E+02  0.12599662442E+02  0.47787270423E+02  0.19999997168E+02 0.  0.
        -12    1    1    2    0    0 -0.33462471927E+02  0.24599487935E+02 -0.12599662442E+02  0.43400729577E+02  0.00000000000E+00 0.  1.
         11    1    3    3    0    0  0.13412658972E+02 -0.13769895566E+02  0.13010354867E+01  0.19266606816E+02  0.51100000000E-03 0. -1.
        -11    1    3    3    0    0  0.84577256789E+01 -0.51386158150E+01 -0.18758630961E+01  0.10072604369E+02  0.51100000000E-03 0.  1.
        -12    1    3    3    0    0  0.11592087277E+02 -0.56909765534E+01  0.13174490051E+02  0.18448059239E+02  0.00000000000E+00 0.  1.
</event>
<event>
 7    1  0.4432754E-010  0.4778727E+02  0.7816164E-02  0.1312668E+00
        -11   -1    0    0    0    0  0.00000000000E+00  0.00000000000E+00  0.45593999997E+02  0.45594000000E+02  0.51100000000E-03 0. -1.
         11   -1    0    0    0    0 -0.00000000000E+00 -0.00000000000E+00 -0.45593999997E+02  0.45594000000E+02  0.51100000000E-03 0.  1.
    9900012    2    1    2    0    0 -0.33221731039E+02  0.25197481059E+02  0.12042712564E+02  0.47787269697E+02  0.19999993855E+02 0.  0.
        -12    1    1    2    0    0  0.33221731039E+02 -0.25197481059E+02 -0.12042712564E+02  0.43400730303E+02  0.00000000000E+00 0.  1.
         11    1    3    3    0    0 -0.21560239189E+02  0.18899370541E+02  0.11600951231E+02  0.30929147910E+02  0.51100000000E-03 0. -1.
        -11    1    3    3    0    0 -0.10023113037E+02  0.88848106641E+01  0.17887172890E+01  0.13513036864E+02  0.51100000000E-03 0.  1.
         12    1    3    3    0    0 -0.16383788140E+01 -0.25867001467E+01 -0.13469559569E+01  0.33450849222E+01  0.00000000000E+00 0. -1.
</event>
<event>
 7    1  0.4432754E-010  0.4778727E+02  0.7816164E-02  0.1312668E+00
        -11   -1    0    0    0    0  0.00000000000E+00  0.00000000000E+00  0.45593999997E+02  0.45594000000E+02  0.51100000000E-03 0. -1.
         11   -1    0    0    0    0 -0.00000000000E+00 -0.00000000000E+00 -0.45593999997E+02  0.45594000000E+02  0.51100000000E-03 0.  1.
    9900012    2    1    2    0    0  0.49169970381E+01 -0.37521059596E+02  0.21251269265E+02  0.47787271683E+02  0.20000002914E+02 0.  0.
        -12    1    1    2    0    0 -0.49169970381E+01  0.37521059596E+02 -0.21251269265E+02  0.43400728317E+02  0.00000000000E+00 0.  1.
         11    1    3    3    0    0 -0.43450672076E+01 -0.75326510726E+01  0.81448530241E+01  0.11914657874E+02  0.51100000000E-03 0. -1.
        -11    1    3    3    0    0 -0.24628549440E+01 -0.79500450977E+01  0.45394282990E+01  0.94802574371E+01  0.51100000000E-03 0.  1.
         12    1    3    3    0    0  0.11724919190E+02 -0.22038363425E+02  0.85669879415E+01  0.26392356372E+02  0.00000000000E+00 0. -1.
</event>
<event>
 7    1  0.4432754E-010  0.4778727E+02  0.7816164E-02  0.1312668E+00
        -11   -1    0    0    0    0  0.00000000000E+00  0.00000000000E+00  0.45593999997E+02  0.45594000000E+02  0.51100000000E-03 0.  1.
         11   -1    0    0    0    0 -0.00000000000E+00 -0.00000000000E+00 -0.45593999997E+02  0.45594000000E+02  0.51100000000E-03 0. -1.
    9900012    2    1    2    0    0 -0.33489153052E+02  0.27075310176E+02 -0.53877018652E+01  0.47787272764E+02  0.20000007838E+02 0.  0.
        -12    1    1    2    0    0  0.33489153052E+02 -0.27075310176E+02  0.53877018652E+01  0.43400727236E+02  0.00000000000E+00 0.  1.
         11    1    3    3    0    0 -0.99652146818E+01  0.68844481113E+01  0.46811469941E+01  0.12985155636E+02  0.51100000000E-03 0.  1.
        -11    1    3    3    0    0 -0.49888989292E+01  0.24587339470E+01  0.26614258626E+01  0.61658473084E+01  0.51100000000E-03 0. -1.
         12    1    3    3    0    0 -0.18535039441E+02  0.17732128118E+02 -0.12730274722E+02  0.28636269819E+02  0.00000000000E+00 0. -1.
</event>
<event>
 7    1  0.4514773E-010  0.4778727E+02  0.7816164E-02  0.1312668E+00
        -11   -1    0    0    0    0  0.00000000000E+00  0.00000000000E+00  0.45593999997E+02  0.45594000000E+02  0.51100000000E-03 0. -1.
         11   -1    0    0    0    0 -0.00000000000E+00 -0.00000000000E+00 -0.45593999997E+02  0.45594000000E+02  0.51100000000E-03 0.  1.
    9900012    2    1    2    0    0 -0.74926072460E+00  0.23054009752E+02  0.36763770488E+02  0.47787267543E+02  0.19999984036E+02 0.  0.
        -12    1    1    2    0    0  0.74926072460E+00 -0.23054009752E+02 -0.36763770488E+02  0.43400732457E+02  0.00000000000E+00 0.  1.
         11    1    3    3    0    0 -0.46090688965E+01  0.17859816609E+02  0.19890506685E+02  0.27126533539E+02  0.51100000000E-03 0. -1.
        -11    1    3    3    0    0  0.23806738301E+01  0.40078201867E+01  0.11206083486E+01  0.47943710606E+01  0.51100000000E-03 0.  1.
        -12    1    3    3    0    0  0.14791343418E+01  0.11863729567E+01  0.15752655454E+02  0.15866362944E+02  0.00000000000E+00 0.  1.
</event>
<event>
 7    1  0.4432754E-010  0.4778727E+02  0.7816164E-02  0.1312668E+00
        -11   -1    0    0    0    0  0.00000000000E+00  0.00000000000E+00  0.45593999997E+02  0.45594000000E+02  0.51100000000E-03 0.  1.
         11   -1    0    0    0    0 -0.00000000000E+00 -0.00000000000E+00 -0.45593999997E+02  0.45594000000E+02  0.51100000000E-03 0. -1.
    9900012    2    1    2    0    0 -0.18311722679E+02 -0.19668837137E+02 -0.34079923622E+02  0.47787268026E+02  0.19999986238E+02 0.  0.
        -12    1    1    2    0    0  0.18311722679E+02  0.19668837137E+02  0.34079923622E+02  0.43400731974E+02  0.00000000000E+00 0.  1.
         11    1    3    3    0    0 -0.61334183302E+01 -0.61903745077E+01 -0.10534678355E+02  0.13671832550E+02  0.51100000000E-03 0. -1.
        -11    1    3    3    0    0 -0.61272461758E+00  0.56872685938E-01 -0.13810544188E+02  0.13824246706E+02  0.51100000000E-03 0.  1.
         12    1    3    3    0    0 -0.11565579731E+02 -0.13535335315E+02 -0.97347010784E+01  0.20291188770E+02  0.00000000000E+00 0. -1.
</event>
<event>
 7    1  0.4432754E-010  0.4778727E+02  0.7816164E-02  0.1312668E+00
        -11   -1    0    0    0    0  0.00000000000E+00  0.00000000000E+00  0.45593999997E+02  0.45594000000E+02  0.51100000000E-03 0. -1.
         11   -1    0    0    0    0 -0.00000000000E+00 -0.00000000000E+00 -0.45593999997E+02  0.45594000000E+02  0.51100000000E-03 0.  1.
    9900012    2    1    2    0    0 -0.40417312930E+02 -0.84978018095E+01  0.13336096387E+02  0.47787270894E+02  0.19999999316E+02 0.  0.
        -12    1    1    2    0    0  0.40417312930E+02  0.84978018095E+01 -0.13336096387E+02  0.43400729106E+02  0.00000000000E+00 0.  1.
         11    1    3    3    0    0 -0.11949599979E+02  0.35783594767E+01  0.71969349773E+01  0.14401162090E+02  0.51100000000E-03 0.  1.
        -11    1    3    3    0    0 -0.11526144304E+01  0.17048874817E+01  0.12373179427E+01  0.24012740999E+01  0.51100000000E-03 0. -1.
         12    1    3    3    0    0 -0.27315098520E+02 -0.13781048768E+02  0.49018434666E+01  0.30984834705E+02  0.00000000000E+00 0. -1.
</event>
<event>
 7    1  0.4432754E-010  0.4778727E+02  0.7816164E-02  0.1312668E+00
        -11   -1    0    0    0    0  0.00000000000E+00  0.00000000000E+00  0.45593999997E+02  0.45594000000E+02  0.51100000000E-03 0.  1.
         11   -1    0    0    0    0 -0.00000000000E+00 -0.00000000000E+00 -0.45593999997E+02  0.45594000000E+02  0.51100000000E-03 0. -1.
    9900012    2    1    2    0    0  0.36454561864E+02  0.62886860722E+01 -0.22696712520E+02  0.47787269448E+02  0.19999992723E+02 0.  0.
        -12    1    1    2    0    0 -0.36454561864E+02 -0.62886860722E+01  0.22696712520E+02  0.43400730552E+02  0.00000000000E+00 0.  1.
         11    1    3    3    0    0  0.19002493658E+02  0.37609653493E+01 -0.10081270549E+02  0.21837390910E+02  0.51100000000E-03 0. -1.
        -11    1    3    3    0    0  0.19578454535E+02  0.24867486323E+01 -0.88584002440E+01  0.21632638671E+02  0.51100000000E-03 0.  1.
        -12    1    3    3    0    0 -0.21263863295E+01  0.40972090576E-01 -0.37570417272E+01  0.43172398676E+01  0.00000000000E+00 0.  1.
</event>
<event>
 7    1  0.4432754E-010  0.4778727E+02  0.7816164E-02  0.1312668E+00
        -11   -1    0    0    0    0  0.00000000000E+00  0.00000000000E+00  0.45593999997E+02  0.45594000000E+02  0.51100000000E-03 0.  1.
         11   -1    0    0    0    0 -0.00000000000E+00 -0.00000000000E+00 -0.45593999997E+02  0.45594000000E+02  0.51100000000E-03 0. -1.
    9900012    2    1    2    0    0 -0.11596124826E+01  0.41462025371E+02  0.12774155617E+02  0.47787270735E+02  0.19999998589E+02 0.  0.
        -12    1    1    2    0    0  0.11596124826E+01 -0.41462025371E+02 -0.12774155617E+02  0.43400729265E+02  0.00000000000E+00 0.  1.
         11    1    3    3    0    0  0.85519323898E+00  0.23530547944E+02  0.42414431322E+01  0.23925047171E+02  0.51100000000E-03 0. -1.
        -11    1    3    3    0    0  0.11808401959E+01  0.18345503328E+02  0.49389779884E+01  0.19035371805E+02  0.51100000000E-03 0.  1.
         12    1    3    3    0    0 -0.31956459174E+01 -0.41402590063E+00  0.35937344962E+01  0.48268517592E+01  0.00000000000E+00 0. -1.
</event>
<event>
 7    1  0.4432754E-010  0.4778728E+02  0.7816164E-02  0.1312668E+00
        -11   -1    0    0    0    0  0.00000000000E+00  0.00000000000E+00  0.45593999997E+02  0.45594000000E+02  0.51100000000E-03 0.  1.
         11   -1    0    0    0    0 -0.00000000000E+00 -0.00000000000E+00 -0.45593999997E+02  0.45594000000E+02  0.51100000000E-03 0. -1.
    9900012    2    1    2    0    0  0.12598619615E+02  0.17333784099E+02 -0.37741716929E+02  0.47787280143E+02  0.20000041482E+02 0.  0.
        -12    1    1    2    0    0 -0.12598619615E+02 -0.17333784099E+02  0.37741716929E+02  0.43400719857E+02  0.00000000000E+00 0.  1.
         11    1    3    3    0    0  0.95616915863E+01  0.53278178301E+01 -0.13869383686E+02  0.17668372673E+02  0.51100000000E-03 0. -1.
        -11    1    3    3    0    0  0.37941628849E+01 -0.18304380601E+01 -0.80558665288E+01  0.90908284155E+01  0.51100000000E-03 0.  1.
        -12    1    3    3    0    0 -0.75723485654E+00  0.13836404329E+02 -0.15816466714E+02  0.21028079054E+02  0.00000000000E+00 0.  1.
</event>
<event>
 7    1  0.4432754E-010  0.4778727E+02  0.7816164E-02  0.1312668E+00
        -11   -1    0    0    0    0  0.00000000000E+00  0.00000000000E+00  0.45593999997E+02  0.45594000000E+02  0.51100000000E-03 0.  1.
         11   -1    0    0    0    0 -0.00000000000E+00 -0.00000000000E+00 -0.45593999997E+02  0.45594000000E+02  0.51100000000E-03 0. -1.
    9900012    2    1    2    0    0 -0.15036267764E+01 -0.40954415164E+02 -0.14286289457E+02  0.47787273262E+02  0.20000010111E+02 0.  0.
        -12    1    1    2    0    0  0.15036267764E+01  0.40954415164E+02  0.14286289457E+02  0.43400726738E+02  0.00000000000E+00 0.  1.
         11    1    3    3    0    0 -0.33173129703E+01 -0.34759944410E+02 -0.14176878212E+02  0.37686100578E+02  0.51100000000E-03 0.  1.
        -11    1    3    3    0    0 -0.13841252064E+01 -0.67123217280E+01  0.10824328088E+00  0.68543987655E+01  0.51100000000E-03 0. -1.
        -12    1    3    3    0    0  0.31978114003E+01  0.51785097312E+00 -0.21765452552E+00  0.32467739181E+01  0.00000000000E+00 0.  1.
</event>
<event>
 7    1  0.4432754E-010  0.4778727E+02  0.7816164E-02  0.1312668E+00
        -11   -1    0    0    0    0  0.00000000000E+00  0.00000000000E+00  0.45593999997E+02  0.45594000000E+02  0.51100000000E-03 0.  1.
         11   -1    0    0    0    0 -0.00000000000E+00 -0.00000000000E+00 -0.45593999997E+02  0.45594000000E+02  0.51100000000E-03 0. -1.
    9900012    2    1    2    0    0 -0.17727561389E+02 -0.15728473142E+02 -0.36358931327E+02  0.47787272040E+02  0.20000004540E+02 0.  0.
        -12    1    1    2    0    0  0.17727561389E+02  0.15728473142E+02  0.36358931327E+02  0.43400727960E+02  0.00000000000E+00 0.  1.
         11    1    3    3    0    0 -0.25288177555E+00  0.22425591730E+01 -0.35631059405E+00  0.22847271910E+01  0.51100000000E-03 0. -1.
        -11    1    3    3    0    0 -0.52479586681E+01 -0.34362142353E+01 -0.20516893310E+01  0.65998536214E+01  0.51100000000E-03 0.  1.
         12    1    3    3    0    0 -0.12226720946E+02 -0.14534818080E+02 -0.33950931402E+02  0.38902691228E+02  0.00000000000E+00 0. -1.
</event>
<event>
 7    1  0.4432754E-010  0.4778728E+02  0.7816164E-02  0.1312668E+00
        -11   -1    0    0    0    0  0.00000000000E+00  0.00000000000E+00  0.45593999997E+02  0.45594000000E+02  0.51100000000E-03 0. -1.
         11   -1    0    0    0    0 -0.00000000000E+00 -0.00000000000E+00 -0.45593999997E+02  0.45594000000E+02  0.51100000000E-03 0.  1.
    9900012    2    1    2    0    0 -0.32380662347E+02  0.27388739577E+02  0.92180571469E+01  0.47787275038E+02  0.20000018209E+02 0.  0.
        -12    1    1    2    0    0  0.32380662347E+02 -0.27388739577E+02 -0.92180571469E+01  0.43400724962E+02  0.00000000000E+00 0.  1.
         11    1    3    3    0    0 -0.88867747056E+01  0.13967122477E+01  0.28453267493E+00  0.90003627079E+01  0.51100000000E-03 0. -1.
        -11    1    3    3    0    0 -0.90595014524E+01  0.82437421687E+01 -0.35138844398E+01  0.12742889611E+02  0.51100000000E-03 0.  1.
        -12    1    3    3    0    0 -0.14434386189E+02  0.17748285161E+02  0.12447408912E+02  0.26044022720E+02  0.00000000000E+00 0.  1.
</event>
<event>
 7    1  0.4432754E-010  0.4778727E+02  0.7816164E-02  0.1312668E+00
        -11   -1    0    0    0    0  0.00000000000E+00  0.00000000000E+00  0.45593999997E+02  0.45594000000E+02  0.51100000000E-03 0.  1.
         11   -1    0    0    0    0 -0.00000000000E+00 -0.00000000000E+00 -0.45593999997E+02  0.45594000000E+02  0.51100000000E-03 0. -1.
    9900012    2    1    2    0    0  0.30397029922E+02  0.27760140363E+02 -0.13748402181E+02  0.47787269781E+02  0.19999994238E+02 0.  0.
        -12    1    1    2    0    0 -0.30397029922E+02 -0.27760140363E+02  0.13748402181E+02  0.43400730219E+02  0.00000000000E+00 0.  1.
         11    1    3    3    0    0  0.40652517189E+01  0.46730680928E+01  0.12283046909E+01  0.63144730273E+01  0.51100000000E-03 0. -1.
        -11    1    3    3    0    0  0.21792550872E+02  0.12341928440E+02 -0.38249517906E+01  0.25335128332E+02  0.51100000000E-03 0.  1.
         12    1    3    3    0    0  0.45392273313E+01  0.10745143830E+02 -0.11151755081E+02  0.16137668422E+02  0.00000000000E+00 0. -1.
</event>
<event>
 7    1  0.4432754E-010  0.4778728E+02  0.7816164E-02  0.1312668E+00
        -11   -1    0    0    0    0  0.00000000000E+00  0.00000000000E+00  0.45593999997E+02  0.45594000000E+02  0.51100000000E-03 0.  1.
         11   -1    0    0    0    0 -0.00000000000E+00 -0.00000000000E+00 -0.45593999997E+02  0.45594000000E+02  0.51100000000E-03 0. -1.
    9900012    2    1    2    0    0  0.19353086014E+01 -0.40961040314E+02 -0.14215155558E+02  0.47787275461E+02  0.20000020137E+02 0.  0.
        -12    1    1    2    0    0 -0.19353086014E+01  0.40961040314E+02  0.14215155558E+02  0.43400724539E+02  0.00000000000E+00 0.  1.
         11    1    3    3    0    0  0.54149825368E+00 -0.44320702664E+01 -0.49702018609E+01  0.66812703885E+01  0.51100000000E-03 0.  1.
        -11    1    3    3    0    0 -0.60426247542E+01 -0.63412015183E+01 -0.37758687392E+01  0.95384136843E+01  0.51100000000E-03 0. -1.
         12    1    3    3    0    0  0.74364351020E+01 -0.30187768529E+02 -0.54690849578E+01  0.31567591388E+02  0.00000000000E+00 0. -1.
</event>
<event>
 7    1  0.4432754E-010  0.4778727E+02  0.7816164E-02  0.1312668E+00
        -11   -1    0    0    0    0  0.00000000000E+00  0.00000000000E+00  0.45593999997E+02  0.45594000000E+02  0.51100000000E-03 0.  1.
         11   -1    0    0    0    0 -0.00000000000E+00 -0.00000000000E+00 -0.45593999997E+02  0.45594000000E+02  0.51100000000E-03 0. -1.
    9900012    2    1    2    0    0 -0.81457859347E+01  0.26111725079E+02 -0.33696402601E+02  0.47787267709E+02  0.19999984795E+02 0.  0.
        -12    1    1    2    0    0  0.81457859347E+01 -0.26111725079E+02  0.33696402601E+02  0.43400732291E+02  0.00000000000E+00 0.  1.
         11    1    3    3    0    0 -0.45181394809E+01  0.56682754523E+01 -0.95362660426E+01  0.11978451539E+02  0.51100000000E-03 0. -1.
        -11    1    3    3    0    0  0.42478035567E+00  0.21957380309E+02 -0.18712526449E+02  0.28852480565E+02  0.51100000000E-03 0.  1.
        -12    1    3    3    0    0 -0.40524268095E+01 -0.15139306820E+01 -0.54476101097E+01  0.69563356060E+01  0.00000000000E+00 0.  1.
</event>
<event>
 7    1  0.4432754E-010  0.4778724E+02  0.7816164E-02  0.1312668E+00
        -11   -1    0    0    0    0  0.00000000000E+00  0.00000000000E+00  0.45593999997E+02  0.45594000000E+02  0.51100000000E-03 0. -1.
         11   -1    0    0    0    0 -0.00000000000E+00 -0.00000000000E+00 -0.45593999997E+02  0.45594000000E+02  0.51100000000E-03 0.  1.
    9900012    2    1    2    0    0 -0.34966104987E+02  0.34504538665E+01  0.25477288371E+02  0.47787235576E+02  0.19999838283E+02 0.  0.
        -12    1    1    2    0    0  0.34966104987E+02 -0.34504538665E+01 -0.25477288371E+02  0.43400764424E+02  0.00000000000E+00 0.  1.
         11    1    3    3    0    0 -0.19531077942E+02  0.14161452142E+01  0.12934362782E+02  0.23468408844E+02  0.51100000000E-03 0. -1.
        -11    1    3    3    0    0 -0.99344581731E+01  0.29305946630E+01 -0.25420440265E+00  0.10360813888E+02  0.51100000000E-03 0.  1.
        -12    1    3    3    0    0 -0.55005688726E+01 -0.89628601073E+00  0.12797129992E+02  0.13958012844E+02  0.00000000000E+00 0.  1.
</event>
<event>
 7    1  0.4432754E-010  0.4778727E+02  0.7816164E-02  0.1312668E+00
        -11   -1    0    0    0    0  0.00000000000E+00  0.00000000000E+00  0.45593999997E+02  0.45594000000E+02  0.51100000000E-03 0.  1.
         11   -1    0    0    0    0 -0.00000000000E+00 -0.00000000000E+00 -0.45593999997E+02  0.45594000000E+02  0.51100000000E-03 0. -1.
    9900012    2    1    2    0    0  0.33433490779E+02  0.25226731952E+02 -0.11377036382E+02  0.47787271118E+02  0.20000000335E+02 0.  0.
        -12    1    1    2    0    0 -0.33433490779E+02 -0.25226731952E+02  0.11377036382E+02  0.43400728882E+02  0.00000000000E+00 0.  1.
         11    1    3    3    0    0  0.96090650063E+00  0.16892740441E+01  0.65675090380E+00  0.20514166105E+01  0.51100000000E-03 0.  1.
        -11    1    3    3    0    0 -0.93352958067E-02 -0.21903824312E+01 -0.22901637243E+01  0.31690239014E+01  0.51100000000E-03 0. -1.
         12    1    3    3    0    0  0.32481919574E+02  0.25727840339E+02 -0.97436235617E+01  0.42566830606E+02  0.00000000000E+00 0. -1.
</event>
<event>
 7    1  0.4432754E-010  0.4778727E+02  0.7816164E-02  0.1312668E+00
        -11   -1    0    0    0    0  0.00000000000E+00  0.00000000000E+00  0.45593999997E+02  0.45594000000E+02  0.51100000000E-03 0. -1.
         11   -1    0    0    0    0 -0.00000000000E+00 -0.00000000000E+00 -0.45593999997E+02  0.45594000000E+02  0.51100000000E-03 0.  1.
    9900012    2    1    2    0    0 -0.51752336199E+01  0.42976041638E+02 -0.31464235049E+01  0.47787272141E+02  0.20000004998E+02 0.  0.
        -12    1    1    2    0    0  0.51752336199E+01 -0.42976041638E+02  0.31464235049E+01  0.43400727859E+02  0.00000000000E+00 0.  1.
         11    1    3    3    0    0  0.17232859846E+01  0.84782753888E+01 -0.38958014107E+01  0.94883158171E+01  0.51100000000E-03 0. -1.
        -11    1    3    3    0    0  0.37723294781E+01  0.19606384930E+02  0.60939948034E-01  0.19966084084E+02  0.51100000000E-03 0.  1.
        -12    1    3    3    0    0 -0.10670849083E+02  0.14891381319E+02  0.68843795773E+00  0.18332872240E+02  0.00000000000E+00 0.  1.
</event>
<event>
 7    1  0.4432754E-010  0.4778727E+02  0.7816164E-02  0.1312668E+00
        -11   -1    0    0    0    0  0.00000000000E+00  0.00000000000E+00  0.45593999997E+02  0.45594000000E+02  0.51100000000E-03 0. -1.
         11   -1    0    0    0    0 -0.00000000000E+00 -0.00000000000E+00 -0.45593999997E+02  0.45594000000E+02  0.51100000000E-03 0.  1.
    9900012    2    1    2    0    0  0.14405546172E+01  0.43373712471E+02 -0.51859825007E+00  0.47787273332E+02  0.20000010430E+02 0.  0.
        -12    1    1    2    0    0 -0.14405546172E+01 -0.43373712471E+02  0.51859825007E+00  0.43400726668E+02  0.00000000000E+00 0.  1.
         11    1    3    3    0    0  0.38922041196E+01  0.26100125284E+02  0.46260773734E+01  0.26791162439E+02  0.51100000000E-03 0. -1.
        -11    1    3    3    0    0 -0.23528765368E+01  0.16991993206E+02 -0.13690004265E+01  0.17208661294E+02  0.51100000000E-03 0.  1.
        -12    1    3    3    0    0 -0.98772965601E-01  0.28159398207E+00 -0.37756751969E+01  0.37874495987E+01  0.00000000000E+00 0.  1.
</event>
<event>
 7    1  0.4432754E-010  0.4778727E+02  0.7816164E-02  0.1312668E+00
        -11   -1    0    0    0    0  0.00000000000E+00  0.00000000000E+00  0.45593999997E+02  0.45594000000E+02  0.51100000000E-03 0.  1.
         11   -1    0    0    0    0 -0.00000000000E+00 -0.00000000000E+00 -0.45593999997E+02  0.45594000000E+02  0.51100000000E-03 0. -1.
    9900012    2    1    2    0    0 -0.24115175742E+02 -0.33344281270E+02  0.13792765024E+02  0.47787272339E+02  0.20000005904E+02 0.  0.
        -12    1    1    2    0    0  0.24115175742E+02  0.33344281270E+02 -0.13792765024E+02  0.43400727661E+02  0.00000000000E+00 0.  1.
         11    1    3    3    0    0 -0.17983302266E+01 -0.69814061995E+01  0.35065915011E+01  0.80168702336E+01  0.51100000000E-03 0. -1.
        -11    1    3    3    0    0 -0.18408152645E+02 -0.10737112105E+02  0.10285951729E+02  0.23663187938E+02  0.51100000000E-03 0.  1.
        -12    1    3    3    0    0 -0.39086928706E+01 -0.15625762965E+02  0.22179369617E-03  0.16107214168E+02  0.00000000000E+00 0.  1.
</event>
<event>
 7    1  0.4432754E-010  0.4778727E+02  0.7816164E-02  0.1312668E+00
        -11   -1    0    0    0    0  0.00000000000E+00  0.00000000000E+00  0.45593999997E+02  0.45594000000E+02  0.51100000000E-03 0.  1.
         11   -1    0    0    0    0 -0.00000000000E+00 -0.00000000000E+00 -0.45593999997E+02  0.45594000000E+02  0.51100000000E-03 0. -1.
    9900012    2    1    2    0    0  0.23897886373E+02 -0.29211423103E+02 -0.21429119884E+02  0.47787269686E+02  0.19999993805E+02 0.  0.
        -12    1    1    2    0    0 -0.23897886373E+02  0.29211423103E+02  0.21429119884E+02  0.43400730314E+02  0.00000000000E+00 0.  1.
         11    1    3    3    0    0  0.11146158323E+02 -0.14582425205E+02 -0.60604031940E+01  0.19329057332E+02  0.51100000000E-03 0. -1.
        -11    1    3    3    0    0 -0.15273428864E+01 -0.36476003202E+01  0.10429377562E+01  0.40896801603E+01  0.51100000000E-03 0.  1.
         12    1    3    3    0    0  0.14279070937E+02 -0.10981397577E+02 -0.16411654446E+02  0.24368532193E+02  0.00000000000E+00 0. -1.
</event>
<event>
 7    1  0.4432754E-010  0.4778727E+02  0.7816164E-02  0.1312668E+00
        -11   -1    0    0    0    0  0.00000000000E+00  0.00000000000E+00  0.45593999997E+02  0.45594000000E+02  0.51100000000E-03 0.  1.
         11   -1    0    0    0    0 -0.00000000000E+00 -0.00000000000E+00 -0.45593999997E+02  0.45594000000E+02  0.51100000000E-03 0. -1.
    9900012    2    1    2    0    0  0.36263547786E+02 -0.13031646511E+02 -0.19968831357E+02  0.47787274953E+02  0.20000017820E+02 0.  0.
        -12    1    1    2    0    0 -0.36263547786E+02  0.13031646511E+02  0.19968831357E+02  0.43400725047E+02  0.00000000000E+00 0.  1.
         11    1    3    3    0    0 -0.36499690738E+00 -0.33851603766E+01 -0.15932812672E+01  0.37591327425E+01  0.51100000000E-03 0. -1.
        -11    1    3    3    0    0 -0.10040858748E+01 -0.79849989215E+00 -0.16001871074E+00  0.12928251122E+01  0.51100000000E-03 0.  1.
        -12    1    3    3    0    0  0.37632630569E+02 -0.88479862427E+01 -0.18215531379E+02  0.42735317098E+02  0.00000000000E+00 0.  1.
</event>
<event>
 7    1  0.4432754E-010  0.4778727E+02  0.7816164E-02  0.1312668E+00
        -11   -1    0    0    0    0  0.00000000000E+00  0.00000000000E+00  0.45593999997E+02  0.45594000000E+02  0.51100000000E-03 0. -1.
         11   -1    0    0    0    0 -0.00000000000E+00 -0.00000000000E+00 -0.45593999997E+02  0.45594000000E+02  0.51100000000E-03 0.  1.
    9900012    2    1    2    0    0  0.38491292156E+02 -0.19638049385E+02  0.40485277904E+01  0.47787272670E+02  0.20000007413E+02 0.  0.
        -12    1    1    2    0    0 -0.38491292156E+02  0.19638049385E+02 -0.40485277904E+01  0.43400727330E+02  0.00000000000E+00 0.  1.
         11    1    3    3    0    0  0.67331838569E+01 -0.38203693865E+01 -0.29832675487E+01  0.82964373456E+01  0.51100000000E-03 0. -1.
        -11    1    3    3    0    0  0.91862424581E+01 -0.67174773657E+01 -0.48947894475E+01  0.12388321785E+02  0.51100000000E-03 0.  1.
         12    1    3    3    0    0  0.22571865841E+02 -0.91002026324E+01  0.11926584787E+02  0.27102513540E+02  0.00000000000E+00 0. -1.
</event>
<event>
 7    1  0.4432754E-010  0.4778726E+02  0.7816164E-02  0.1312668E+00
        -11   -1    0    0    0    0  0.00000000000E+00  0.00000000000E+00  0.45593999997E+02  0.45594000000E+02  0.51100000000E-03 0. -1.
         11   -1    0    0    0    0 -0.00000000000E+00 -0.00000000000E+00 -0.45593999997E+02  0.45594000000E+02  0.51100000000E-03 0.  1.
    9900012    2    1    2    0    0  0.33696965541E+02  0.15871912682E+02  0.22276028946E+02  0.47787256176E+02  0.19999932210E+02 0.  0.
        -12    1    1    2    0    0 -0.33696965541E+02 -0.15871912682E+02 -0.22276028946E+02  0.43400743824E+02  0.00000000000E+00 0.  1.
         11    1    3    3    0    0  0.10064889615E+02 -0.94833644836E+00  0.57237324841E+01  0.11617334410E+02  0.51100000000E-03 0. -1.
        -11    1    3    3    0    0  0.18374768797E+01 -0.23527763093E+01  0.59067211480E+00  0.30431515659E+01  0.51100000000E-03 0.  1.
         12    1    3    3    0    0  0.21794599046E+02  0.19173025440E+02  0.15961624348E+02  0.33126770200E+02  0.00000000000E+00 0. -1.
</event>
<event>
 7    1  0.4432754E-010  0.4778726E+02  0.7816164E-02  0.1312668E+00
        -11   -1    0    0    0    0  0.00000000000E+00  0.00000000000E+00  0.45593999997E+02  0.45594000000E+02  0.51100000000E-03 0.  1.
         11   -1    0    0    0    0 -0.00000000000E+00 -0.00000000000E+00 -0.45593999997E+02  0.45594000000E+02  0.51100000000E-03 0. -1.
    9900012    2    1    2    0    0 -0.76625878037E+01  0.26189124520E+02 -0.33749642749E+02  0.47787264054E+02  0.19999968128E+02 0.  0.
        -12    1    1    2    0    0  0.76625878037E+01 -0.26189124520E+02  0.33749642749E+02  0.43400735946E+02  0.00000000000E+00 0.  1.
         11    1    3    3    0    0  0.18545162455E+01  0.53111346037E+01 -0.34152571660E+01  0.65811369120E+01  0.51100000000E-03 0. -1.
        -11    1    3    3    0    0  0.32289645174E+01 -0.18974115689E+00 -0.29284431959E+01  0.43632549059E+01  0.51100000000E-03 0.  1.
         12    1    3    3    0    0 -0.12746068567E+02  0.21067731073E+02 -0.27405942387E+02  0.36842872236E+02  0.00000000000E+00 0. -1.
</event>
<event>
 7    1  0.4432754E-010  0.4778727E+02  0.7816164E-02  0.1312668E+00
        -11   -1    0    0    0    0  0.00000000000E+00  0.00000000000E+00  0.45593999997E+02  0.45594000000E+02  0.51100000000E-03 0.  1.
         11   -1    0    0    0    0 -0.00000000000E+00 -0.00000000000E+00 -0.45593999997E+02  0.45594000000E+02  0.51100000000E-03 0. -1.
    9900012    2    1    2    0    0 -0.10764871275E+02  0.20598603560E+02 -0.36652944673E+02  0.47787271027E+02  0.19999999918E+02 0.  0.
        -12    1    1    2    0    0  0.10764871275E+02 -0.20598603560E+02  0.36652944673E+02  0.43400728973E+02  0.00000000000E+00 0.  1.
         11    1    3    3    0    0  0.28301985984E+01  0.84467753537E+01 -0.15162749702E+02  0.17585989218E+02  0.51100000000E-03 0. -1.
        -11    1    3    3    0    0 -0.71880260944E+01  0.10438844049E+02 -0.75212907196E+01  0.14737944177E+02  0.51100000000E-03 0.  1.
         12    1    3    3    0    0 -0.64070437791E+01  0.17129841572E+01 -0.13968904252E+02  0.15463337632E+02  0.00000000000E+00 0. -1.
</event>
<event>
 7    1  0.4432754E-010  0.4778726E+02  0.7816164E-02  0.1312668E+00
        -11   -1    0    0    0    0  0.00000000000E+00  0.00000000000E+00  0.45593999997E+02  0.45594000000E+02  0.51100000000E-03 0. -1.
         11   -1    0    0    0    0 -0.00000000000E+00 -0.00000000000E+00 -0.45593999997E+02  0.45594000000E+02  0.51100000000E-03 0.  1.
    9900012    2    1    2    0    0 -0.38939531067E+02  0.17970370052E+02  0.66635348442E+01  0.47787262954E+02  0.19999963113E+02 0.  0.
        -12    1    1    2    0    0  0.38939531067E+02 -0.17970370052E+02 -0.66635348442E+01  0.43400737046E+02  0.00000000000E+00 0.  1.
         11    1    3    3    0    0 -0.29214252416E+02  0.15164374095E+02 -0.27933547794E+01  0.33033825348E+02  0.51100000000E-03 0. -1.
        -11    1    3    3    0    0 -0.42095361420E+00  0.12065189833E+01 -0.14704598510E+00  0.12862786577E+01  0.51100000000E-03 0.  1.
         12    1    3    3    0    0 -0.93043250364E+01  0.15994769739E+01  0.96039356087E+01  0.13467158949E+02  0.00000000000E+00 0. -1.
</event>
<event>
 7    1  0.4432754E-010  0.4778727E+02  0.7816164E-02  0.1312668E+00
        -11   -1    0    0    0    0  0.00000000000E+00  0.00000000000E+00  0.45593999997E+02  0.45594000000E+02  0.51100000000E-03 0.  1.
         11   -1    0    0    0    0 -0.00000000000E+00 -0.00000000000E+00 -0.45593999997E+02  0.45594000000E+02  0.51100000000E-03 0. -1.
    9900012    2    1    2    0    0  0.32740788103E+02  0.16270085035E+01 -0.28443221531E+02  0.47787271742E+02  0.20000003181E+02 0.  0.
        -12    1    1    2    0    0 -0.32740788103E+02 -0.16270085035E+01  0.28443221531E+02  0.43400728258E+02  0.00000000000E+00 0.  1.
         11    1    3    3    0    0  0.21381132359E+02 -0.22436283464E+01 -0.14171889316E+02  0.25749352150E+02  0.51100000000E-03 0. -1.
        -11    1    3    3    0    0  0.41787594972E+01 -0.36421223774E+01 -0.85072467390E+01  0.10153833448E+02  0.51100000000E-03 0.  1.
        -12    1    3    3    0    0  0.71808962470E+01  0.75127592273E+01 -0.57640854751E+01  0.11884086144E+02  0.00000000000E+00 0.  1.
</event>
<event>
 7    1  0.4432754E-010  0.4778727E+02  0.7816164E-02  0.1312668E+00
        -11   -1    0    0    0    0  0.00000000000E+00  0.00000000000E+00  0.45593999997E+02  0.45594000000E+02  0.51100000000E-03 0.  1.
         11   -1    0    0    0    0 -0.00000000000E+00 -0.00000000000E+00 -0.45593999997E+02  0.45594000000E+02  0.51100000000E-03 0. -1.
    9900012    2    1    2    0    0 -0.24168594337E+02  0.30510226356E+01 -0.35919267801E+02  0.47787268546E+02  0.19999988610E+02 0.  0.
        -12    1    1    2    0    0  0.24168594337E+02 -0.30510226356E+01  0.35919267801E+02  0.43400731454E+02  0.00000000000E+00 0.  1.
         11    1    3    3    0    0 -0.99607595852E+01  0.13334897582E+01 -0.39546575887E+01  0.10799733485E+02  0.51100000000E-03 0. -1.
        -11    1    3    3    0    0 -0.74652556786E+00 -0.31340562061E+01 -0.20275932511E+01  0.38066709051E+01  0.51100000000E-03 0.  1.
         12    1    3    3    0    0 -0.13461309184E+02  0.48515890834E+01 -0.29937016962E+02  0.33180864156E+02  0.00000000000E+00 0. -1.
</event>
<event>
 7    1  0.4432754E-010  0.4778727E+02  0.7816164E-02  0.1312668E+00
        -11   -1    0    0    0    0  0.00000000000E+00  0.00000000000E+00  0.45593999997E+02  0.45594000000E+02  0.51100000000E-03 0.  1.
         11   -1    0    0    0    0 -0.00000000000E+00 -0.00000000000E+00 -0.45593999997E+02  0.45594000000E+02  0.51100000000E-03 0. -1.
    9900012    2    1    2    0    0 -0.48158670933E+00  0.89702693272E+01 -0.42460871014E+02  0.47787271609E+02  0.20000002576E+02 0.  0.
        -12    1    1    2    0    0  0.48158670933E+00 -0.89702693272E+01  0.42460871014E+02  0.43400728391E+02  0.00000000000E+00 0.  1.
         11    1    3    3    0    0  0.36299828395E+01 -0.32410111508E+01 -0.10133883607E+02  0.11241731446E+02  0.51100000000E-03 0.  1.
        -11    1    3    3    0    0  0.26890163017E+01  0.62729187505E+01 -0.75635500136E+01  0.10187620301E+02  0.51100000000E-03 0. -1.
         12    1    3    3    0    0 -0.68005858505E+01  0.59383617276E+01 -0.24763437394E+02  0.26357919862E+02  0.00000000000E+00 0. -1.
</event>
<event>
 7    1  0.4432754E-010  0.4778727E+02  0.7816164E-02  0.1312668E+00
        -11   -1    0    0    0    0  0.00000000000E+00  0.00000000000E+00  0.45593999997E+02  0.45594000000E+02  0.51100000000E-03 0.  1.
         11   -1    0    0    0    0 -0.00000000000E+00 -0.00000000000E+00 -0.45593999997E+02  0.45594000000E+02  0.51100000000E-03 0. -1.
    9900012    2    1    2    0    0 -0.29188306914E+02  0.32782323300E+01 -0.31951825845E+02  0.47787271405E+02  0.20000001646E+02 0.  0.
        -12    1    1    2    0    0  0.29188306914E+02 -0.32782323300E+01  0.31951825845E+02  0.43400728595E+02  0.00000000000E+00 0.  1.
         11    1    3    3    0    0 -0.84754889904E+01 -0.50465156062E+01 -0.10092629084E+02  0.14112490761E+02  0.51100000000E-03 0. -1.
        -11    1    3    3    0    0 -0.49808114333E+01 -0.27150598301E+01 -0.19397347229E+01  0.59952150480E+01  0.51100000000E-03 0.  1.
         12    1    3    3    0    0 -0.15732006491E+02  0.11039807766E+02 -0.19919462038E+02  0.27679565597E+02  0.00000000000E+00 0. -1.
</event>
<event>
 7    1  0.4432754E-010  0.4778727E+02  0.7816164E-02  0.1312668E+00
        -11   -1    0    0    0    0  0.00000000000E+00  0.00000000000E+00  0.45593999997E+02  0.45594000000E+02  0.51100000000E-03 0.  1.
         11   -1    0    0    0    0 -0.00000000000E+00 -0.00000000000E+00 -0.45593999997E+02  0.45594000000E+02  0.51100000000E-03 0. -1.
    9900012    2    1    2    0    0  0.27612039611E+02 -0.16363715309E+02 -0.29213476614E+02  0.47787272747E+02  0.20000007763E+02 0.  0.
        -12    1    1    2    0    0 -0.27612039611E+02  0.16363715309E+02  0.29213476614E+02  0.43400727253E+02  0.00000000000E+00 0.  1.
         11    1    3    3    0    0 -0.23270873484E+00  0.50801172523E+00 -0.44203517277E+01  0.44555290288E+01  0.51100000000E-03 0. -1.
        -11    1    3    3    0    0 -0.12803955196E+01 -0.47871876520E+00 -0.33616180165E+01  0.36289199899E+01  0.51100000000E-03 0.  1.
         12    1    3    3    0    0  0.29125143865E+02 -0.16393008269E+02 -0.21431506870E+02  0.39702823728E+02  0.00000000000E+00 0. -1.
</event>
<event>
 7    1  0.4432754E-010  0.4778727E+02  0.7816164E-02  0.1312668E+00
        -11   -1    0    0    0    0  0.00000000000E+00  0.00000000000E+00  0.45593999997E+02  0.45594000000E+02  0.51100000000E-03 0. -1.
         11   -1    0    0    0    0 -0.00000000000E+00 -0.00000000000E+00 -0.45593999997E+02  0.45594000000E+02  0.51100000000E-03 0.  1.
    9900012    2    1    2    0    0  0.38400146081E+02  0.11706218257E+01  0.20191138247E+02  0.47787266847E+02  0.19999980864E+02 0.  0.
        -12    1    1    2    0    0 -0.38400146081E+02 -0.11706218257E+01 -0.20191138247E+02  0.43400733153E+02  0.00000000000E+00 0.  1.
         11    1    3    3    0    0  0.10991649844E+02  0.86436329466E+00  0.71769496980E+01  0.13155686885E+02  0.51100000000E-03 0. -1.
        -11    1    3    3    0    0  0.27623856270E+02  0.14691932100E+01  0.15621211862E+02  0.31768824722E+02  0.51100000000E-03 0.  1.
        -12    1    3    3    0    0 -0.21536003251E+00 -0.11629346789E+01 -0.26070233133E+01  0.28627552405E+01  0.00000000000E+00 0.  1.
</event>
<event>
 7    1  0.4432754E-010  0.4778727E+02  0.7816164E-02  0.1312668E+00
        -11   -1    0    0    0    0  0.00000000000E+00  0.00000000000E+00  0.45593999997E+02  0.45594000000E+02  0.51100000000E-03 0.  1.
         11   -1    0    0    0    0 -0.00000000000E+00 -0.00000000000E+00 -0.45593999997E+02  0.45594000000E+02  0.51100000000E-03 0. -1.
    9900012    2    1    2    0    0 -0.10949225857E+02 -0.31981573680E+02 -0.27219793528E+02  0.47787265425E+02  0.19999974378E+02 0.  0.
        -12    1    1    2    0    0  0.10949225857E+02  0.31981573680E+02  0.27219793528E+02  0.43400734575E+02  0.00000000000E+00 0.  1.
         11    1    3    3    0    0 -0.66171239706E+01 -0.22185324570E+02 -0.22551576378E+02  0.32319476377E+02  0.51100000000E-03 0. -1.
        -11    1    3    3    0    0 -0.68537621193E+01 -0.84835749239E+01 -0.58651120926E+01  0.12383240238E+02  0.51100000000E-03 0.  1.
        -12    1    3    3    0    0  0.25216602334E+01 -0.13126741869E+01  0.11968949425E+01  0.30845488093E+01  0.00000000000E+00 0.  1.
</event>
<event>
 7    1  0.4432754E-010  0.4778726E+02  0.7816164E-02  0.1312668E+00
        -11   -1    0    0    0    0  0.00000000000E+00  0.00000000000E+00  0.45593999997E+02  0.45594000000E+02  0.51100000000E-03 0. -1.
         11   -1    0    0    0    0 -0.00000000000E+00 -0.00000000000E+00 -0.45593999997E+02  0.45594000000E+02  0.51100000000E-03 0.  1.
    9900012    2    1    2    0    0 -0.26365792094E+02 -0.49567607417E+01  0.34115970604E+02  0.47787263600E+02  0.19999966059E+02 0.  0.
        -12    1    1    2    0    0  0.26365792094E+02  0.49567607417E+01 -0.34115970604E+02  0.43400736400E+02  0.00000000000E+00 0.  1.
         11    1    3    3    0    0 -0.20720803723E+02 -0.30933293151E+01  0.18937212953E+02  0.28240722863E+02  0.51100000000E-03 0. -1.
        -11    1    3    3    0    0 -0.64203866193E+01 -0.28965965030E+00  0.16261113754E+02  0.17485110462E+02  0.51100000000E-03 0.  1.
         12    1    3    3    0    0  0.77539824795E+00 -0.15737717763E+01 -0.10823561033E+01  0.20614302756E+01  0.00000000000E+00 0. -1.
</event>
<event>
 7    1  0.4432754E-010  0.4778727E+02  0.7816164E-02  0.1312668E+00
        -11   -1    0    0    0    0  0.00000000000E+00  0.00000000000E+00  0.45593999997E+02  0.45594000000E+02  0.51100000000E-03 0.  1.
         11   -1    0    0    0    0 -0.00000000000E+00 -0.00000000000E+00 -0.45593999997E+02  0.45594000000E+02  0.51100000000E-03 0. -1.
    9900012    2    1    2    0    0  0.11574159992E+02  0.35539827076E+02 -0.22058622857E+02  0.47787270393E+02  0.19999997029E+02 0.  0.
        -12    1    1    2    0    0 -0.11574159992E+02 -0.35539827076E+02  0.22058622857E+02  0.43400729607E+02  0.00000000000E+00 0.  1.
         11    1    3    3    0    0 -0.23850755736E+01  0.19320345464E+01 -0.55968414264E+01  0.63832575691E+01  0.51100000000E-03 0. -1.
        -11    1    3    3    0    0  0.32874652891E+01  0.55181561641E+01  0.12215872866E+01  0.65383293920E+01  0.51100000000E-03 0.  1.
        -12    1    3    3    0    0  0.10671770277E+02  0.28089636365E+02 -0.17683368717E+02  0.34865683432E+02  0.00000000000E+00 0.  1.
</event>
<event>
 7    1  0.4432754E-010  0.4778727E+02  0.7816164E-02  0.1312668E+00
        -11   -1    0    0    0    0  0.00000000000E+00  0.00000000000E+00  0.45593999997E+02  0.45594000000E+02  0.51100000000E-03 0. -1.
         11   -1    0    0    0    0 -0.00000000000E+00 -0.00000000000E+00 -0.45593999997E+02  0.45594000000E+02  0.51100000000E-03 0.  1.
    9900012    2    1    2    0    0 -0.24829012052E+01  0.86800989494E+01  0.42451315360E+02  0.47787273141E+02  0.20000009557E+02 0.  0.
        -12    1    1    2    0    0  0.24829012052E+01 -0.86800989494E+01 -0.42451315360E+02  0.43400726859E+02  0.00000000000E+00 0.  1.
         11    1    3    3    0    0  0.38493612698E+01  0.25519179886E+01  0.49861796390E+01  0.67964590236E+01  0.51100000000E-03 0. -1.
        -11    1    3    3    0    0  0.41792099307E+01  0.14814757877E+00  0.63007477486E+01  0.75622196347E+01  0.51100000000E-03 0.  1.
         12    1    3    3    0    0 -0.10511472406E+02  0.59800333820E+01  0.31164387972E+02  0.33428594482E+02  0.00000000000E+00 0. -1.
</event>
<event>
 7    1  0.4432754E-010  0.4778727E+02  0.7816164E-02  0.1312668E+00
        -11   -1    0    0    0    0  0.00000000000E+00  0.00000000000E+00  0.45593999997E+02  0.45594000000E+02  0.51100000000E-03 0.  1.
         11   -1    0    0    0    0 -0.00000000000E+00 -0.00000000000E+00 -0.45593999997E+02  0.45594000000E+02  0.51100000000E-03 0. -1.
    9900012    2    1    2    0    0  0.26856447136E+02 -0.33933562015E+02 -0.32966287204E+01  0.47787272532E+02  0.20000006783E+02 0.  0.
        -12    1    1    2    0    0 -0.26856447136E+02  0.33933562015E+02  0.32966287204E+01  0.43400727468E+02  0.00000000000E+00 0.  1.
         11    1    3    3    0    0  0.28501609638E+00 -0.43696542761E+01 -0.79076540579E+00  0.44497666069E+01  0.51100000000E-03 0. -1.
        -11    1    3    3    0    0  0.12415333901E+02 -0.81355350837E+01  0.63871166034E+01  0.16159291623E+02  0.51100000000E-03 0.  1.
        -12    1    3    3    0    0  0.14156097139E+02 -0.21428372655E+02 -0.88929799180E+01  0.27178214303E+02  0.00000000000E+00 0.  1.
</event>
<event>
 7    1  0.4432754E-010  0.4778728E+02  0.7816164E-02  0.1312668E+00
        -11   -1    0    0    0    0  0.00000000000E+00  0.00000000000E+00  0.45593999997E+02  0.45594000000E+02  0.51100000000E-03 0. -1.
         11   -1    0    0    0    0 -0.00000000000E+00 -0.00000000000E+00 -0.45593999997E+02  0.45594000000E+02  0.51100000000E-03 0.  1.
    9900012    2    1    2    0    0  0.19270329060E+02 -0.28774676348E+02  0.26159037398E+02  0.47787276290E+02  0.20000023914E+02 0.  0.
        -12    1    1    2    0    0 -0.19270329060E+02  0.28774676348E+02 -0.26159037398E+02  0.43400723710E+02  0.00000000000E+00 0.  1.
         11    1    3    3    0    0  0.64457275133E+01 -0.15087288194E+02  0.18298765658E+02  0.24576787689E+02  0.51100000000E-03 0. -1.
        -11    1    3    3    0    0  0.10611099910E+02 -0.14761416071E+02  0.92365615434E+01  0.20391393163E+02  0.51100000000E-03 0.  1.
        -12    1    3    3    0    0  0.22135016366E+01  0.10740279170E+01 -0.13762898039E+01  0.28190954376E+01  0.00000000000E+00 0.  1.
</event>
<event>
 7    1  0.4432754E-010  0.4778727E+02  0.7816164E-02  0.1312668E+00
        -11   -1    0    0    0    0  0.00000000000E+00  0.00000000000E+00  0.45593999997E+02  0.45594000000E+02  0.51100000000E-03 0.  1.
         11   -1    0    0    0    0 -0.00000000000E+00 -0.00000000000E+00 -0.45593999997E+02  0.45594000000E+02  0.51100000000E-03 0. -1.
    9900012    2    1    2    0    0  0.13521417088E+02  0.12024979963E+02 -0.39448630195E+02  0.47787270888E+02  0.19999999286E+02 0.  0.
        -12    1    1    2    0    0 -0.13521417088E+02 -0.12024979963E+02  0.39448630195E+02  0.43400729112E+02  0.00000000000E+00 0.  1.
         11    1    3    3    0    0  0.50449778054E+01  0.53490516810E+01 -0.12133549381E+02  0.14187571173E+02  0.51100000000E-03 0. -1.
        -11    1    3    3    0    0  0.49004629548E+01 -0.13297178258E+01 -0.17743773948E+00  0.50807648125E+01  0.51100000000E-03 0.  1.
         12    1    3    3    0    0  0.35759763277E+01  0.80056461079E+01 -0.27137643075E+02  0.28518934903E+02  0.00000000000E+00 0. -1.
</event>
<event>
 7    1  0.4432754E-010  0.4778727E+02  0.7816164E-02  0.1312668E+00
        -11   -1    0    0    0    0  0.00000000000E+00  0.00000000000E+00  0.45593999997E+02  0.45594000000E+02  0.51100000000E-03 0.  1.
         11   -1    0    0    0    0 -0.00000000000E+00 -0.00000000000E+00 -0.45593999997E+02  0.45594000000E+02  0.51100000000E-03 0. -1.
    9900012    2    1    2    0    0 -0.29248136513E+02  0.25375519129E+02 -0.19602377313E+02  0.47787266632E+02  0.19999979883E+02 0.  0.
        -12    1    1    2    0    0  0.29248136513E+02 -0.25375519129E+02  0.19602377313E+02  0.43400733368E+02  0.00000000000E+00 0.  1.
         11    1    3    3    0    0 -0.46793766217E+01  0.29816928174E+01 -0.93317065893E+00  0.56265322681E+01  0.51100000000E-03 0. -1.
        -11    1    3    3    0    0  0.21552789147E+01 -0.91255477160E+00 -0.10483635054E+01  0.25645759322E+01  0.51100000000E-03 0.  1.
         12    1    3    3    0    0 -0.26724038806E+02  0.23306381083E+02 -0.17620843148E+02  0.39596158432E+02  0.00000000000E+00 0. -1.
</event>
<event>
 7    1  0.4432754E-010  0.4778727E+02  0.7816164E-02  0.1312668E+00
        -11   -1    0    0    0    0  0.00000000000E+00  0.00000000000E+00  0.45593999997E+02  0.45594000000E+02  0.51100000000E-03 0.  1.
         11   -1    0    0    0    0 -0.00000000000E+00 -0.00000000000E+00 -0.45593999997E+02  0.45594000000E+02  0.51100000000E-03 0. -1.
    9900012    2    1    2    0    0  0.22309561215E+02  0.19186535200E+02 -0.31902722245E+02  0.47787270269E+02  0.19999996463E+02 0.  0.
        -12    1    1    2    0    0 -0.22309561215E+02 -0.19186535200E+02  0.31902722245E+02  0.43400729731E+02  0.00000000000E+00 0.  1.
         11    1    3    3    0    0  0.14737562753E+01  0.27417540653E+01 -0.10752289393E+01  0.32932188580E+01  0.51100000000E-03 0. -1.
        -11    1    3    3    0    0  0.14890976488E+02  0.72983564676E+01 -0.29037912169E+02  0.33439610214E+02  0.51100000000E-03 0.  1.
        -12    1    3    3    0    0  0.59448284513E+01  0.91464246675E+01 -0.17895811364E+01  0.11054441196E+02  0.00000000000E+00 0.  1.
</event>
<event>
 7    1  0.4432754E-010  0.4778727E+02  0.7816164E-02  0.1312668E+00
        -11   -1    0    0    0    0  0.00000000000E+00  0.00000000000E+00  0.45593999997E+02  0.45594000000E+02  0.51100000000E-03 0.  1.
         11   -1    0    0    0    0 -0.00000000000E+00 -0.00000000000E+00 -0.45593999997E+02  0.45594000000E+02  0.51100000000E-03 0. -1.
    9900012    2    1    2    0    0 -0.32597372891E+02  0.26071452278E+02 -0.11887553929E+02  0.47787270954E+02  0.19999999590E+02 0.  0.
        -12    1    1    2    0    0  0.32597372891E+02 -0.26071452278E+02  0.11887553929E+02  0.43400729046E+02  0.00000000000E+00 0.  1.
         11    1    3    3    0    0 -0.11478009583E+01  0.11329070631E+01  0.20472035761E+01  0.26061404791E+01  0.51100000000E-03 0. -1.
        -11    1    3    3    0    0 -0.18416506965E+01  0.33644417577E+00 -0.54489292530E+01  0.57615711605E+01  0.51100000000E-03 0.  1.
         12    1    3    3    0    0 -0.29607921236E+02  0.24602101039E+02 -0.84858282523E+01  0.39419559315E+02  0.00000000000E+00 0. -1.
</event>
<event>
 7    1  0.4432754E-010  0.4778728E+02  0.7816164E-02  0.1312668E+00
        -11   -1    0    0    0    0  0.00000000000E+00  0.00000000000E+00  0.45593999997E+02  0.45594000000E+02  0.51100000000E-03 0.  1.
         11   -1    0    0    0    0 -0.00000000000E+00 -0.00000000000E+00 -0.45593999997E+02  0.45594000000E+02  0.51100000000E-03 0. -1.
    9900012    2    1    2    0    0 -0.33435458990E+02  0.12889900910E+02 -0.24485575013E+02  0.47787275962E+02  0.20000022421E+02 0.  0.
        -12    1    1    2    0    0  0.33435458990E+02 -0.12889900910E+02  0.24485575013E+02  0.43400724038E+02  0.00000000000E+00 0.  1.
         11    1    3    3    0    0 -0.17252946514E+02  0.78485894893E+01 -0.13719699265E+02  0.23398603987E+02  0.51100000000E-03 0. -1.
        -11    1    3    3    0    0 -0.14749562484E+02  0.72884333491E+01 -0.12954421104E+02  0.20940102210E+02  0.51100000000E-03 0.  1.
        -12    1    3    3    0    0 -0.14329499916E+01 -0.22471219286E+01  0.21885453568E+01  0.34485697643E+01  0.00000000000E+00 0.  1.
</event>
<event>
 7    1  0.4432754E-010  0.4778727E+02  0.7816164E-02  0.1312668E+00
        -11   -1    0    0    0    0  0.00000000000E+00  0.00000000000E+00  0.45593999997E+02  0.45594000000E+02  0.51100000000E-03 0.  1.
         11   -1    0    0    0    0 -0.00000000000E+00 -0.00000000000E+00 -0.45593999997E+02  0.45594000000E+02  0.51100000000E-03 0. -1.
    9900012    2    1    2    0    0  0.37508703751E+02 -0.14175195231E+02 -0.16606754605E+02  0.47787270566E+02  0.19999997818E+02 0.  0.
        -12    1    1    2    0    0 -0.37508703751E+02  0.14175195231E+02  0.16606754605E+02  0.43400729434E+02  0.00000000000E+00 0.  1.
         11    1    3    3    0    0  0.15583237334E+02 -0.10540403210E+02 -0.92646586315E+01  0.20970724486E+02  0.51100000000E-03 0. -1.
        -11    1    3    3    0    0  0.44876751007E+01 -0.14537510539E+00 -0.78303683179E+01  0.90263519755E+01  0.51100000000E-03 0.  1.
        -12    1    3    3    0    0  0.17437791316E+02 -0.34894169157E+01  0.48827234491E+00  0.17790194105E+02  0.00000000000E+00 0.  1.
</event>
<event>
 7    1  0.4432754E-010  0.4778727E+02  0.7816164E-02  0.1312668E+00
        -11   -1    0    0    0    0  0.00000000000E+00  0.00000000000E+00  0.45593999997E+02  0.45594000000E+02  0.51100000000E-03 0. -1.
         11   -1    0    0    0    0 -0.00000000000E+00 -0.00000000000E+00 -0.45593999997E+02  0.45594000000E+02  0.51100000000E-03 0.  1.
    9900012    2    1    2    0    0  0.32998973405E+02 -0.21868162641E+02  0.17789727380E+02  0.47787272087E+02  0.20000004755E+02 0.  0.
        -12    1    1    2    0    0 -0.32998973405E+02  0.21868162641E+02 -0.17789727380E+02  0.43400727913E+02  0.00000000000E+00 0.  1.
         11    1    3    3    0    0  0.24740339533E+02 -0.16744039772E+02  0.35939761910E+01  0.30089266079E+02  0.51100000000E-03 0. -1.
        -11    1    3    3    0    0  0.59154298470E+01 -0.50897874656E+01  0.84999414767E+01  0.11538945016E+02  0.51100000000E-03 0.  1.
         12    1    3    3    0    0  0.23432040253E+01 -0.34335404031E-01  0.56958097120E+01  0.61590609917E+01  0.00000000000E+00 0. -1.
</event>
<event>
 7    1 -0.4432754E-010  0.4778727E+02  0.7816164E-02  0.1312668E+00
        -11   -1    0    0    0    0  0.00000000000E+00  0.00000000000E+00  0.45593999997E+02  0.45594000000E+02  0.51100000000E-03 0. -1.
         11   -1    0    0    0    0 -0.00000000000E+00 -0.00000000000E+00 -0.45593999997E+02  0.45594000000E+02  0.51100000000E-03 0.  1.
    9900012    2    1    2    0    0  0.25614159130E+02  0.16052660656E+02  0.31142415343E+02  0.47787273100E+02  0.20000009372E+02 0.  0.
        -12    1    1    2    0    0 -0.25614159130E+02 -0.16052660656E+02 -0.31142415343E+02  0.43400726900E+02  0.00000000000E+00 0.  1.
         11    1    3    3    0    0  0.17496016819E+02  0.23094762994E+01  0.18526483300E+02  0.25586615036E+02  0.51100000000E-03 0. -1.
        -11    1    3    3    0    0  0.85507706019E+01  0.98937990691E+01  0.12831872891E+02  0.18321023445E+02  0.51100000000E-03 0.  1.
         12    1    3    3    0    0 -0.43262829029E+00  0.38493852872E+01 -0.21594084806E+00  0.38796346190E+01  0.00000000000E+00 0. -1.
</event>
<event>
 7    1  0.4432754E-010  0.4778727E+02  0.7816164E-02  0.1312668E+00
        -11   -1    0    0    0    0  0.00000000000E+00  0.00000000000E+00  0.45593999997E+02  0.45594000000E+02  0.51100000000E-03 0.  1.
         11   -1    0    0    0    0 -0.00000000000E+00 -0.00000000000E+00 -0.45593999997E+02  0.45594000000E+02  0.51100000000E-03 0. -1.
    9900012    2    1    2    0    0 -0.34294705934E+02  0.17842667823E+02 -0.19726520602E+02  0.47787271144E+02  0.20000000456E+02 0.  0.
        -12    1    1    2    0    0  0.34294705934E+02 -0.17842667823E+02  0.19726520602E+02  0.43400728856E+02  0.00000000000E+00 0.  1.
         11    1    3    3    0    0 -0.71441418350E+01  0.92769900465E-01 -0.91552867315E+01  0.11613209901E+02  0.51100000000E-03 0. -1.
        -11    1    3    3    0    0 -0.20774337557E+02  0.12064834419E+02 -0.12969833323E+02  0.27301097179E+02  0.51100000000E-03 0.  1.
        -12    1    3    3    0    0 -0.63762265420E+01  0.56850635033E+01  0.23985994523E+01  0.88729640642E+01  0.00000000000E+00 0.  1.
</event>
<event>
 7    1  0.4432754E-010  0.4778725E+02  0.7816164E-02  0.1312668E+00
        -11   -1    0    0    0    0  0.00000000000E+00  0.00000000000E+00  0.45593999997E+02  0.45594000000E+02  0.51100000000E-03 0.  1.
         11   -1    0    0    0    0 -0.00000000000E+00 -0.00000000000E+00 -0.45593999997E+02  0.45594000000E+02  0.51100000000E-03 0. -1.
    9900012    2    1    2    0    0  0.16069595354E+02  0.40230838543E+02 -0.26216383588E+01  0.47787248251E+02  0.19999896076E+02 0.  0.
        -12    1    1    2    0    0 -0.16069595354E+02 -0.40230838543E+02  0.26216383588E+01  0.43400751749E+02  0.00000000000E+00 0.  1.
         11    1    3    3    0    0  0.94062994666E+01  0.16215416463E+02  0.21527301453E+01  0.18869352084E+02  0.51100000000E-03 0. -1.
        -11    1    3    3    0    0  0.10520399795E+02  0.12298361516E+02 -0.28435557221E+01  0.16432112379E+02  0.51100000000E-03 0.  1.
        -12    1    3    3    0    0 -0.38571039078E+01  0.11717060563E+02 -0.19308127820E+01  0.12485783788E+02  0.00000000000E+00 0.  1.
</event>
<event>
 7    1  0.4432754E-010  0.4778727E+02  0.7816164E-02  0.1312668E+00
        -11   -1    0    0    0    0  0.00000000000E+00  0.00000000000E+00  0.45593999997E+02  0.45594000000E+02  0.51100000000E-03 0. -1.
         11   -1    0    0    0    0 -0.00000000000E+00 -0.00000000000E+00 -0.45593999997E+02  0.45594000000E+02  0.51100000000E-03 0.  1.
    9900012    2    1    2    0    0  0.31923791570E+02  0.16810378537E+01  0.29354199970E+02  0.47787269449E+02  0.19999992725E+02 0.  0.
        -12    1    1    2    0    0 -0.31923791570E+02 -0.16810378537E+01 -0.29354199970E+02  0.43400730551E+02  0.00000000000E+00 0.  1.
         11    1    3    3    0    0  0.46548885576E-01  0.49693522416E+00  0.18182094870E+01  0.18854700781E+01  0.51100000000E-03 0.  1.
        -11    1    3    3    0    0 -0.16386899624E+00 -0.39387314553E+01  0.51290805247E+01  0.64689972805E+01  0.51100000000E-03 0. -1.
         12    1    3    3    0    0  0.32041111681E+02  0.51228340848E+01  0.22406909958E+02  0.39432802090E+02  0.00000000000E+00 0. -1.
</event>
<event>
 7    1  0.4432754E-010  0.4778728E+02  0.7816164E-02  0.1312668E+00
        -11   -1    0    0    0    0  0.00000000000E+00  0.00000000000E+00  0.45593999997E+02  0.45594000000E+02  0.51100000000E-03 0.  1.
         11   -1    0    0    0    0 -0.00000000000E+00 -0.00000000000E+00 -0.45593999997E+02  0.45594000000E+02  0.51100000000E-03 0. -1.
    9900012    2    1    2    0    0  0.19368019287E+02  0.30887382326E+02 -0.23547236022E+02  0.47787275555E+02  0.20000020567E+02 0.  0.
        -12    1    1    2    0    0 -0.19368019287E+02 -0.30887382326E+02  0.23547236022E+02  0.43400724445E+02  0.00000000000E+00 0.  1.
         11    1    3    3    0    0  0.30401120583E+01  0.84623897271E+01 -0.59069523943E+01  0.10758550463E+02  0.51100000000E-03 0. -1.
        -11    1    3    3    0    0  0.76036345054E+01  0.53763739731E+01  0.20774704122E+01  0.95413069526E+01  0.51100000000E-03 0.  1.
        -12    1    3    3    0    0  0.87242727236E+01  0.17048618626E+02 -0.19717754040E+02  0.27487418139E+02  0.00000000000E+00 0.  1.
</event>
<event>
 7    1  0.4432754E-010  0.4778727E+02  0.7816164E-02  0.1312668E+00
        -11   -1    0    0    0    0  0.00000000000E+00  0.00000000000E+00  0.45593999997E+02  0.45594000000E+02  0.51100000000E-03 0. -1.
         11   -1    0    0    0    0 -0.00000000000E+00 -0.00000000000E+00 -0.45593999997E+02  0.45594000000E+02  0.51100000000E-03 0.  1.
    9900012    2    1    2    0    0 -0.38645242761E+02  0.19239788706E+02 -0.44720483791E+01  0.47787268736E+02  0.19999989476E+02 0.  0.
        -12    1    1    2    0    0  0.38645242761E+02 -0.19239788706E+02  0.44720483791E+01  0.43400731264E+02  0.00000000000E+00 0.  1.
         11    1    3    3    0    0 -0.25415503811E+01  0.12853272577E+01 -0.35106107420E+01  0.45206119654E+01  0.51100000000E-03 0. -1.
        -11    1    3    3    0    0 -0.15741901238E+02  0.41429732581E+01 -0.73293138195E+01  0.17851905314E+02  0.51100000000E-03 0.  1.
         12    1    3    3    0    0 -0.20361791142E+02  0.13811488191E+02  0.63678761823E+01  0.25414751457E+02  0.00000000000E+00 0. -1.
</event>
<event>
 7    1  0.4432754E-010  0.4778728E+02  0.7816164E-02  0.1312668E+00
        -11   -1    0    0    0    0  0.00000000000E+00  0.00000000000E+00  0.45593999997E+02  0.45594000000E+02  0.51100000000E-03 0.  1.
         11   -1    0    0    0    0 -0.00000000000E+00 -0.00000000000E+00 -0.45593999997E+02  0.45594000000E+02  0.51100000000E-03 0. -1.
    9900012    2    1    2    0    0  0.24493267601E+01 -0.16420790597E+02 -0.40099637139E+02  0.47787280374E+02  0.20000042537E+02 0.  0.
        -12    1    1    2    0    0 -0.24493267601E+01  0.16420790597E+02  0.40099637139E+02  0.43400719626E+02  0.00000000000E+00 0.  1.
         11    1    3    3    0    0  0.48641367932E+01 -0.14131651302E+02 -0.20598985800E+02  0.25449589614E+02  0.51100000000E-03 0.  1.
        -11    1    3    3    0    0 -0.16658692957E+00 -0.62746738342E+01 -0.12234681512E+02  0.13750880513E+02  0.51100000000E-03 0. -1.
        -12    1    3    3    0    0 -0.22482231035E+01  0.39855345396E+01 -0.72659698265E+01  0.85868102464E+01  0.00000000000E+00 0.  1.
</event>
<event>
 7    1  0.4432754E-010  0.4778727E+02  0.7816164E-02  0.1312668E+00
        -11   -1    0    0    0    0  0.00000000000E+00  0.00000000000E+00  0.45593999997E+02  0.45594000000E+02  0.51100000000E-03 0. -1.
         11   -1    0    0    0    0 -0.00000000000E+00 -0.00000000000E+00 -0.45593999997E+02  0.45594000000E+02  0.51100000000E-03 0.  1.
    9900012    2    1    2    0    0  0.18527213031E+02  0.20458376385E+02  0.33493589117E+02  0.47787270755E+02  0.19999998682E+02 0.  0.
        -12    1    1    2    0    0 -0.18527213031E+02 -0.20458376385E+02 -0.33493589117E+02  0.43400729245E+02  0.00000000000E+00 0.  1.
         11    1    3    3    0    0  0.33440623270E+01  0.85848995307E+01  0.66477930687E+01  0.11361179769E+02  0.51100000000E-03 0. -1.
        -11    1    3    3    0    0 -0.16437070142E+01  0.66217543946E+01  0.94946513410E+01  0.11691783797E+02  0.51100000000E-03 0.  1.
         12    1    3    3    0    0  0.16826857718E+02  0.52517224598E+01  0.17351144707E+02  0.24734307189E+02  0.00000000000E+00 0. -1.
</event>
<event>
 7    1  0.4432754E-010  0.4778727E+02  0.7816164E-02  0.1312668E+00
        -11   -1    0    0    0    0  0.00000000000E+00  0.00000000000E+00  0.45593999997E+02  0.45594000000E+02  0.51100000000E-03 0.  1.
         11   -1    0    0    0    0 -0.00000000000E+00 -0.00000000000E+00 -0.45593999997E+02  0.45594000000E+02  0.51100000000E-03 0. -1.
    9900012    2    1    2    0    0  0.11174774305E+02 -0.38647510654E+02 -0.16282434870E+02  0.47787270216E+02  0.19999996221E+02 0.  0.
        -12    1    1    2    0    0 -0.11174774305E+02  0.38647510654E+02  0.16282434870E+02  0.43400729784E+02  0.00000000000E+00 0.  1.
         11    1    3    3    0    0  0.49277638766E+01 -0.17454262138E+01 -0.14927813932E+01  0.54367054399E+01  0.51100000000E-03 0. -1.
        -11    1    3    3    0    0  0.41269034131E+01 -0.48414079039E+01  0.11798184310E+01  0.64701262788E+01  0.51100000000E-03 0.  1.
         12    1    3    3    0    0  0.21201070157E+01 -0.32060676536E+02 -0.15969471908E+02  0.35880438497E+02  0.00000000000E+00 0. -1.
</event>
<event>
 7    1  0.4432754E-010  0.4778728E+02  0.7816164E-02  0.1312668E+00
        -11   -1    0    0    0    0  0.00000000000E+00  0.00000000000E+00  0.45593999997E+02  0.45594000000E+02  0.51100000000E-03 0.  1.
         11   -1    0    0    0    0 -0.00000000000E+00 -0.00000000000E+00 -0.45593999997E+02  0.45594000000E+02  0.51100000000E-03 0. -1.
    9900012    2    1    2    0    0 -0.38790005057E+02  0.14217011594E+02 -0.13297931590E+02  0.47787275403E+02  0.20000019874E+02 0.  0.
        -12    1    1    2    0    0  0.38790005057E+02 -0.14217011594E+02  0.13297931590E+02  0.43400724597E+02  0.00000000000E+00 0.  1.
         11    1    3    3    0    0  0.30662219807E+00 -0.13799246107E+00  0.29712591609E+01  0.29902241311E+01  0.51100000000E-03 0.  1.
        -11    1    3    3    0    0 -0.80528630315E+01  0.27648226230E+01 -0.45147461906E+01  0.96372081313E+01  0.51100000000E-03 0. -1.
        -12    1    3    3    0    0 -0.31043764223E+02  0.11590181432E+02 -0.11754444561E+02  0.35159843141E+02  0.00000000000E+00 0.  1.
</event>
<event>
 7    1  0.4432754E-010  0.4778727E+02  0.7816164E-02  0.1312668E+00
        -11   -1    0    0    0    0  0.00000000000E+00  0.00000000000E+00  0.45593999997E+02  0.45594000000E+02  0.51100000000E-03 0.  1.
         11   -1    0    0    0    0 -0.00000000000E+00 -0.00000000000E+00 -0.45593999997E+02  0.45594000000E+02  0.51100000000E-03 0. -1.
    9900012    2    1    2    0    0  0.15926922171E+02 -0.34516177481E+02 -0.20942537315E+02  0.47787271585E+02  0.20000002466E+02 0.  0.
        -12    1    1    2    0    0 -0.15926922171E+02  0.34516177481E+02  0.20942537315E+02  0.43400728415E+02  0.00000000000E+00 0.  1.
         11    1    3    3    0    0  0.12630039626E+02 -0.12385818145E+02 -0.21619221878E+01  0.17821343941E+02  0.51100000000E-03 0.  1.
        -11    1    3    3    0    0  0.41215941916E+01 -0.10720144565E+02 -0.65614172555E+01  0.13227291288E+02  0.51100000000E-03 0. -1.
        -12    1    3    3    0    0 -0.82471164573E+00 -0.11410214772E+02 -0.12219197872E+02  0.16738636356E+02  0.00000000000E+00 0.  1.
</event>
<event>
 7    1  0.4432754E-010  0.4778727E+02  0.7816164E-02  0.1312668E+00
        -11   -1    0    0    0    0  0.00000000000E+00  0.00000000000E+00  0.45593999997E+02  0.45594000000E+02  0.51100000000E-03 0. -1.
         11   -1    0    0    0    0 -0.00000000000E+00 -0.00000000000E+00 -0.45593999997E+02  0.45594000000E+02  0.51100000000E-03 0.  1.
    9900012    2    1    2    0    0 -0.35793223210E+02 -0.23387874182E+02 -0.74481872632E+01  0.47787274430E+02  0.20000015437E+02 0.  0.
        -12    1    1    2    0    0  0.35793223210E+02  0.23387874182E+02  0.74481872632E+01  0.43400725570E+02  0.00000000000E+00 0.  1.
         11    1    3    3    0    0 -0.31971753811E+01 -0.34461390260E+01 -0.62234136597E+00  0.47418470706E+01  0.51100000000E-03 0. -1.
        -11    1    3    3    0    0 -0.22847183491E+02 -0.14924028421E+02 -0.13251580328E+02  0.30336855460E+02  0.51100000000E-03 0.  1.
        -12    1    3    3    0    0 -0.97488643380E+01 -0.50177067345E+01  0.64257344303E+01  0.12708571899E+02  0.00000000000E+00 0.  1.
</event>
<event>
 7    1  0.4432754E-010  0.4778728E+02  0.7816164E-02  0.1312668E+00
        -11   -1    0    0    0    0  0.00000000000E+00  0.00000000000E+00  0.45593999997E+02  0.45594000000E+02  0.51100000000E-03 0.  1.
         11   -1    0    0    0    0 -0.00000000000E+00 -0.00000000000E+00 -0.45593999997E+02  0.45594000000E+02  0.51100000000E-03 0. -1.
    9900012    2    1    2    0    0 -0.27577187253E+02 -0.31120609026E+02 -0.12434979276E+02  0.47787282581E+02  0.20000052598E+02 0.  0.
        -12    1    1    2    0    0  0.27577187253E+02  0.31120609026E+02  0.12434979276E+02  0.43400717419E+02  0.00000000000E+00 0.  1.
         11    1    3    3    0    0 -0.15449566573E+02 -0.13932564931E+02 -0.11889076416E+02  0.23961544423E+02  0.51100000000E-03 0. -1.
        -11    1    3    3    0    0 -0.10129294449E+01 -0.76584698307E+01 -0.41199729102E+01  0.87551335369E+01  0.51100000000E-03 0.  1.
        -12    1    3    3    0    0 -0.11114691236E+02 -0.95295742642E+01  0.35740700500E+01  0.15070604621E+02  0.00000000000E+00 0.  1.
</event>
<event>
 7    1  0.4432754E-010  0.4778727E+02  0.7816164E-02  0.1312668E+00
        -11   -1    0    0    0    0  0.00000000000E+00  0.00000000000E+00  0.45593999997E+02  0.45594000000E+02  0.51100000000E-03 0. -1.
         11   -1    0    0    0    0 -0.00000000000E+00 -0.00000000000E+00 -0.45593999997E+02  0.45594000000E+02  0.51100000000E-03 0.  1.
    9900012    2    1    2    0    0  0.84003161133E+00  0.41002684318E+02 -0.14202023676E+02  0.47787271310E+02  0.20000001209E+02 0.  0.
        -12    1    1    2    0    0 -0.84003161133E+00 -0.41002684318E+02  0.14202023676E+02  0.43400728690E+02  0.00000000000E+00 0.  1.
         11    1    3    3    0    0 -0.76187011042E+00  0.34407218978E+01 -0.45044092629E+01  0.57191534611E+01  0.51100000000E-03 0. -1.
        -11    1    3    3    0    0 -0.99839599937E+00  0.13452240893E+02 -0.11535527899E+02  0.17749027686E+02  0.51100000000E-03 0.  1.
         12    1    3    3    0    0  0.26002977211E+01  0.24109721527E+02  0.18379134867E+01  0.24319090162E+02  0.00000000000E+00 0. -1.
</event>
<event>
 7    1  0.4432754E-010  0.4778727E+02  0.7816164E-02  0.1312668E+00
        -11   -1    0    0    0    0  0.00000000000E+00  0.00000000000E+00  0.45593999997E+02  0.45594000000E+02  0.51100000000E-03 0.  1.
         11   -1    0    0    0    0 -0.00000000000E+00 -0.00000000000E+00 -0.45593999997E+02  0.45594000000E+02  0.51100000000E-03 0. -1.
    9900012    2    1    2    0    0  0.40040437916E+01  0.30297317063E+02 -0.30816613521E+02  0.47787268937E+02  0.19999990392E+02 0.  0.
        -12    1    1    2    0    0 -0.40040437916E+01 -0.30297317063E+02  0.30816613521E+02  0.43400731063E+02  0.00000000000E+00 0.  1.
         11    1    3    3    0    0  0.77782980118E+01  0.98880168940E+01 -0.14658034825E+02  0.19316645238E+02  0.51100000000E-03 0. -1.
        -11    1    3    3    0    0  0.19420489723E+01  0.15377950881E+02 -0.85323296547E+01  0.17693320127E+02  0.51100000000E-03 0.  1.
        -12    1    3    3    0    0 -0.57163031925E+01  0.50313492873E+01 -0.76262490410E+01  0.10777303572E+02  0.00000000000E+00 0.  1.
</event>
<event>
 7    1  0.4432754E-010  0.4778728E+02  0.7816164E-02  0.1312668E+00
        -11   -1    0    0    0    0  0.00000000000E+00  0.00000000000E+00  0.45593999997E+02  0.45594000000E+02  0.51100000000E-03 0.  1.
         11   -1    0    0    0    0 -0.00000000000E+00 -0.00000000000E+00 -0.45593999997E+02  0.45594000000E+02  0.51100000000E-03 0. -1.
    9900012    2    1    2    0    0 -0.19678653897E+02  0.14541966979E+02 -0.35845559395E+02  0.47787281675E+02  0.20000048467E+02 0.  0.
        -12    1    1    2    0    0  0.19678653897E+02 -0.14541966979E+02  0.35845559395E+02  0.43400718325E+02  0.00000000000E+00 0.  1.
         11    1    3    3    0    0 -0.45666272703E+01  0.15368034044E+01 -0.18605370622E+01  0.51650215634E+01  0.51100000000E-03 0. -1.
        -11    1    3    3    0    0  0.11650999368E+01  0.15134281333E+01  0.11509372122E+01  0.22299280942E+01  0.51100000000E-03 0.  1.
         12    1    3    3    0    0 -0.16277126563E+02  0.11491735442E+02 -0.35135959545E+02  0.40392332017E+02  0.00000000000E+00 0. -1.
</event>
<event>
 7    1  0.4432754E-010  0.4778728E+02  0.7816164E-02  0.1312668E+00
        -11   -1    0    0    0    0  0.00000000000E+00  0.00000000000E+00  0.45593999997E+02  0.45594000000E+02  0.51100000000E-03 0.  1.
         11   -1    0    0    0    0 -0.00000000000E+00 -0.00000000000E+00 -0.45593999997E+02  0.45594000000E+02  0.51100000000E-03 0. -1.
    9900012    2    1    2    0    0  0.11466348917E+02 -0.26236335453E+02 -0.32615949764E+02  0.47787278410E+02  0.20000033584E+02 0.  0.
        -12    1    1    2    0    0 -0.11466348917E+02  0.26236335453E+02  0.32615949764E+02  0.43400721590E+02  0.00000000000E+00 0.  1.
         11    1    3    3    0    0  0.74096650955E+00 -0.16977986210E+01 -0.10418354215E+02  0.10581760550E+02  0.51100000000E-03 0. -1.
        -11    1    3    3    0    0  0.17255064834E+01  0.88061702266E+00  0.45280483772E+00  0.19894450098E+01  0.51100000000E-03 0.  1.
         12    1    3    3    0    0  0.89998759245E+01 -0.25419153855E+02 -0.22650400386E+02  0.35216072851E+02  0.00000000000E+00 0. -1.
</event>
<event>
 7    1  0.4432754E-010  0.4778727E+02  0.7816164E-02  0.1312668E+00
        -11   -1    0    0    0    0  0.00000000000E+00  0.00000000000E+00  0.45593999997E+02  0.45594000000E+02  0.51100000000E-03 0.  1.
         11   -1    0    0    0    0 -0.00000000000E+00 -0.00000000000E+00 -0.45593999997E+02  0.45594000000E+02  0.51100000000E-03 0. -1.
    9900012    2    1    2    0    0 -0.28880904491E+02 -0.14869799077E+02 -0.28782039044E+02  0.47787270279E+02  0.19999996510E+02 0.  0.
        -12    1    1    2    0    0  0.28880904491E+02  0.14869799077E+02  0.28782039044E+02  0.43400729721E+02  0.00000000000E+00 0.  1.
         11    1    3    3    0    0 -0.68887767350E+01 -0.34574924487E+01 -0.12431741299E+02  0.14627292672E+02  0.51100000000E-03 0. -1.
        -11    1    3    3    0    0 -0.20268989081E+02 -0.14034927687E+02 -0.17011101897E+02  0.29953108379E+02  0.51100000000E-03 0.  1.
        -12    1    3    3    0    0 -0.17231386753E+01  0.26226210592E+01  0.66080415287E+00  0.32068692276E+01  0.00000000000E+00 0.  1.
</event>
<event>
 7    1  0.4432754E-010  0.4778727E+02  0.7816164E-02  0.1312668E+00
        -11   -1    0    0    0    0  0.00000000000E+00  0.00000000000E+00  0.45593999997E+02  0.45594000000E+02  0.51100000000E-03 0.  1.
         11   -1    0    0    0    0 -0.00000000000E+00 -0.00000000000E+00 -0.45593999997E+02  0.45594000000E+02  0.51100000000E-03 0. -1.
    9900012    2    1    2    0    0  0.72416083874E+01  0.18257484754E+02 -0.38702027447E+02  0.47787267632E+02  0.19999984441E+02 0.  0.
        -12    1    1    2    0    0 -0.72416083874E+01 -0.18257484754E+02  0.38702027447E+02  0.43400732368E+02  0.00000000000E+00 0.  1.
         11    1    3    3    0    0  0.59589877551E+01  0.77475266256E+01 -0.21553798056E+02  0.23666430123E+02  0.51100000000E-03 0. -1.
        -11    1    3    3    0    0 -0.37048648398E+00  0.11506197892E+02 -0.18482402983E+02  0.21774505056E+02  0.51100000000E-03 0.  1.
        -12    1    3    3    0    0  0.16531071164E+01 -0.99623976347E+00  0.13341735919E+01  0.23463324526E+01  0.00000000000E+00 0.  1.
</event>
<event>
 7    1  0.4432754E-010  0.4778727E+02  0.7816164E-02  0.1312668E+00
        -11   -1    0    0    0    0  0.00000000000E+00  0.00000000000E+00  0.45593999997E+02  0.45594000000E+02  0.51100000000E-03 0.  1.
         11   -1    0    0    0    0 -0.00000000000E+00 -0.00000000000E+00 -0.45593999997E+02  0.45594000000E+02  0.51100000000E-03 0. -1.
    9900012    2    1    2    0    0  0.18892221524E+02  0.32778050863E+02 -0.21267500171E+02  0.47787271711E+02  0.20000003039E+02 0.  0.
        -12    1    1    2    0    0 -0.18892221524E+02 -0.32778050863E+02  0.21267500171E+02  0.43400728289E+02  0.00000000000E+00 0.  1.
         11    1    3    3    0    0 -0.19141888968E+01  0.48478494373E+00 -0.11835939318E+01  0.23021794958E+01  0.51100000000E-03 0. -1.
        -11    1    3    3    0    0  0.69365654447E+01  0.32981516658E+01 -0.81512636551E+01  0.11199859107E+02  0.51100000000E-03 0.  1.
         12    1    3    3    0    0  0.13869844976E+02  0.28995114254E+02 -0.11932642584E+02  0.34285233108E+02  0.00000000000E+00 0. -1.
</event>
<event>
 7    1  0.4432754E-010  0.4778727E+02  0.7816164E-02  0.1312668E+00
        -11   -1    0    0    0    0  0.00000000000E+00  0.00000000000E+00  0.45593999997E+02  0.45594000000E+02  0.51100000000E-03 0.  1.
         11   -1    0    0    0    0 -0.00000000000E+00 -0.00000000000E+00 -0.45593999997E+02  0.45594000000E+02  0.51100000000E-03 0. -1.
    9900012    2    1    2    0    0 -0.11674988867E+02 -0.15896306085E+02 -0.38660388922E+02  0.47787267474E+02  0.19999983722E+02 0.  0.
        -12    1    1    2    0    0  0.11674988867E+02  0.15896306085E+02  0.38660388922E+02  0.43400732526E+02  0.00000000000E+00 0.  1.
         11    1    3    3    0    0  0.14421885743E+01 -0.33691781498E+01 -0.11828170966E+01  0.38510162080E+01  0.51100000000E-03 0. -1.
        -11    1    3    3    0    0  0.34076444294E+00 -0.69215022185E+01 -0.56957620705E+01  0.89702296063E+01  0.51100000000E-03 0.  1.
        -12    1    3    3    0    0 -0.13457941884E+02 -0.56056257170E+01 -0.31781809755E+02  0.34966021660E+02  0.00000000000E+00 0.  1.
</event>
<event>
 7    1  0.4432754E-010  0.4778729E+02  0.7816164E-02  0.1312668E+00
        -11   -1    0    0    0    0  0.00000000000E+00  0.00000000000E+00  0.45593999997E+02  0.45594000000E+02  0.51100000000E-03 0. -1.
         11   -1    0    0    0    0 -0.00000000000E+00 -0.00000000000E+00 -0.45593999997E+02  0.45594000000E+02  0.51100000000E-03 0.  1.
    9900012    2    1    2    0    0  0.29539529803E+02  0.30922272274E+02 -0.74061096664E+01  0.47787294891E+02  0.20000108726E+02 0.  0.
        -12    1    1    2    0    0 -0.29539529803E+02 -0.30922272274E+02  0.74061096664E+01  0.43400705109E+02  0.00000000000E+00 0.  1.
         11    1    3    3    0    0  0.62691847500E+01  0.13545391841E+02  0.37124007964E+01  0.15380579881E+02  0.51100000000E-03 0. -1.
        -11    1    3    3    0    0  0.57426709512E+01  0.32264868243E+01  0.12548990045E+01  0.67054648350E+01  0.51100000000E-03 0.  1.
        -12    1    3    3    0    0  0.17527674101E+02  0.14150393609E+02 -0.12373409467E+02  0.25701250175E+02  0.00000000000E+00 0.  1.
</event>
<event>
 7    1  0.4432754E-010  0.4778728E+02  0.7816164E-02  0.1312668E+00
        -11   -1    0    0    0    0  0.00000000000E+00  0.00000000000E+00  0.45593999997E+02  0.45594000000E+02  0.51100000000E-03 0.  1.
         11   -1    0    0    0    0 -0.00000000000E+00 -0.00000000000E+00 -0.45593999997E+02  0.45594000000E+02  0.51100000000E-03 0. -1.
    9900012    2    1    2    0    0  0.30028888404E+01 -0.71111009508E+01 -0.42708748970E+02  0.47787281841E+02  0.20000049227E+02 0.  0.
        -12    1    1    2    0    0 -0.30028888404E+01  0.71111009508E+01  0.42708748970E+02  0.43400718159E+02  0.00000000000E+00 0.  1.
         11    1    3    3    0    0 -0.52345921686E+01 -0.25260778909E+01 -0.53130249275E+01  0.78746592830E+01  0.51100000000E-03 0. -1.
        -11    1    3    3    0    0 -0.15969896405E+00 -0.44688114929E+01 -0.21228512638E+02  0.21694366297E+02  0.51100000000E-03 0.  1.
        -12    1    3    3    0    0  0.83971799731E+01 -0.11621156706E+00 -0.16167211404E+02  0.18218256262E+02  0.00000000000E+00 0.  1.
</event>
<event>
 7    1  0.4432754E-010  0.4778727E+02  0.7816164E-02  0.1312668E+00
        -11   -1    0    0    0    0  0.00000000000E+00  0.00000000000E+00  0.45593999997E+02  0.45594000000E+02  0.51100000000E-03 0.  1.
         11   -1    0    0    0    0 -0.00000000000E+00 -0.00000000000E+00 -0.45593999997E+02  0.45594000000E+02  0.51100000000E-03 0. -1.
    9900012    2    1    2    0    0  0.36291943637E+02  0.21473775377E+02 -0.10266223757E+02  0.47787267839E+02  0.19999985383E+02 0.  0.
        -12    1    1    2    0    0 -0.36291943637E+02 -0.21473775377E+02  0.10266223757E+02  0.43400732161E+02  0.00000000000E+00 0.  1.
         11    1    3    3    0    0  0.15089226471E+02  0.10339578392E+02  0.66907944188E+00  0.18304078900E+02  0.51100000000E-03 0. -1.
        -11    1    3    3    0    0  0.10149888927E+02  0.10074541162E+02 -0.59934411093E+00  0.14313484498E+02  0.51100000000E-03 0.  1.
         12    1    3    3    0    0  0.11052828239E+02  0.10596558238E+01 -0.10335959088E+02  0.15169704440E+02  0.00000000000E+00 0. -1.
</event>
<event>
 7    1  0.4432754E-010  0.4778728E+02  0.7816164E-02  0.1312668E+00
        -11   -1    0    0    0    0  0.00000000000E+00  0.00000000000E+00  0.45593999997E+02  0.45594000000E+02  0.51100000000E-03 0.  1.
         11   -1    0    0    0    0 -0.00000000000E+00 -0.00000000000E+00 -0.45593999997E+02  0.45594000000E+02  0.51100000000E-03 0. -1.
    9900012    2    1    2    0    0 -0.89320802446E+01 -0.20060051906E+02 -0.37435738980E+02  0.47787282345E+02  0.20000051524E+02 0.  0.
        -12    1    1    2    0    0  0.89320802446E+01  0.20060051906E+02  0.37435738980E+02  0.43400717655E+02  0.00000000000E+00 0.  1.
         11    1    3    3    0    0  0.24524953733E+01  0.13590224503E+01 -0.29768727084E+01  0.40894311290E+01  0.51100000000E-03 0. -1.
        -11    1    3    3    0    0 -0.67998053621E+01 -0.33121054491E+01 -0.59885743547E+01  0.96473011009E+01  0.51100000000E-03 0.  1.
         12    1    3    3    0    0 -0.45847702558E+01 -0.18106968907E+02 -0.28470291917E+02  0.34050550115E+02  0.00000000000E+00 0. -1.
</event>
<event>
 7    1  0.4432754E-010  0.4778728E+02  0.7816164E-02  0.1312668E+00
        -11   -1    0    0    0    0  0.00000000000E+00  0.00000000000E+00  0.45593999997E+02  0.45594000000E+02  0.51100000000E-03 0.  1.
         11   -1    0    0    0    0 -0.00000000000E+00 -0.00000000000E+00 -0.45593999997E+02  0.45594000000E+02  0.51100000000E-03 0. -1.
    9900012    2    1    2    0    0 -0.26912395745E+02 -0.25141687358E+02 -0.22961728608E+02  0.47787280322E+02  0.20000042300E+02 0.  0.
        -12    1    1    2    0    0  0.26912395745E+02  0.25141687358E+02  0.22961728608E+02  0.43400719678E+02  0.00000000000E+00 0.  1.
         11    1    3    3    0    0 -0.30529616398E+01 -0.11017181755E+02 -0.40033794075E+01  0.12113047327E+02  0.51100000000E-03 0. -1.
        -11    1    3    3    0    0 -0.26401985363E+01 -0.39379716033E+01 -0.88866283409E+01  0.10072260530E+02  0.51100000000E-03 0.  1.
        -12    1    3    3    0    0 -0.21219235569E+02 -0.10186533999E+02 -0.10071720859E+02  0.25601972465E+02  0.00000000000E+00 0.  1.
</event>
<event>
 7    1  0.4432754E-010  0.4778727E+02  0.7816164E-02  0.1312668E+00
        -11   -1    0    0    0    0  0.00000000000E+00  0.00000000000E+00  0.45593999997E+02  0.45594000000E+02  0.51100000000E-03 0. -1.
         11   -1    0    0    0    0 -0.00000000000E+00 -0.00000000000E+00 -0.45593999997E+02  0.45594000000E+02  0.51100000000E-03 0.  1.
    9900012    2    1    2    0    0  0.37184016711E+02 -0.17500792841E+02  0.13953290594E+02  0.47787272273E+02  0.20000005604E+02 0.  0.
        -12    1    1    2    0    0 -0.37184016711E+02  0.17500792841E+02 -0.13953290594E+02  0.43400727727E+02  0.00000000000E+00 0.  1.
         11    1    3    3    0    0 -0.63929513083E+00 -0.29353081700E+01  0.23421845625E+01  0.38092730413E+01  0.51100000000E-03 0. -1.
        -11    1    3    3    0    0  0.55045909644E+01  0.15639535709E+01 -0.81515024845E+00  0.57802199479E+01  0.51100000000E-03 0.  1.
         12    1    3    3    0    0  0.32318720877E+02 -0.16129438242E+02  0.12426256280E+02  0.38197779284E+02  0.00000000000E+00 0. -1.
</event>
<event>
 7    1  0.4432754E-010  0.4778726E+02  0.7816164E-02  0.1312668E+00
        -11   -1    0    0    0    0  0.00000000000E+00  0.00000000000E+00  0.45593999997E+02  0.45594000000E+02  0.51100000000E-03 0.  1.
         11   -1    0    0    0    0 -0.00000000000E+00 -0.00000000000E+00 -0.45593999997E+02  0.45594000000E+02  0.51100000000E-03 0. -1.
    9900012    2    1    2    0    0 -0.18320852238E+02  0.18724385901E+02 -0.34603009604E+02  0.47787256599E+02  0.19999934137E+02 0.  0.
        -12    1    1    2    0    0  0.18320852238E+02 -0.18724385901E+02  0.34603009604E+02  0.43400743401E+02  0.00000000000E+00 0.  1.
         11    1    3    3    0    0 -0.95623775242E+01  0.32462356495E+01 -0.10090852662E+02  0.14275938411E+02  0.51100000000E-03 0. -1.
        -11    1    3    3    0    0 -0.77728206855E+01  0.48016273235E+00 -0.92295013480E+01  0.12076050391E+02  0.51100000000E-03 0.  1.
         12    1    3    3    0    0 -0.98565402799E+00  0.14997987520E+02 -0.15282655594E+02  0.21435267797E+02  0.00000000000E+00 0. -1.
</event>
<event>
 7    1  0.4432754E-010  0.4778727E+02  0.7816164E-02  0.1312668E+00
        -11   -1    0    0    0    0  0.00000000000E+00  0.00000000000E+00  0.45593999997E+02  0.45594000000E+02  0.51100000000E-03 0.  1.
         11   -1    0    0    0    0 -0.00000000000E+00 -0.00000000000E+00 -0.45593999997E+02  0.45594000000E+02  0.51100000000E-03 0. -1.
    9900012    2    1    2    0    0 -0.88576504950E+01 -0.40062003674E+02 -0.14149240757E+02  0.47787272763E+02  0.20000007835E+02 0.  0.
        -12    1    1    2    0    0  0.88576504950E+01  0.40062003674E+02  0.14149240757E+02  0.43400727237E+02  0.00000000000E+00 0.  1.
         11    1    3    3    0    0  0.40373984924E+01 -0.41734083646E+01 -0.56207313884E+01  0.80814940182E+01  0.51100000000E-03 0. -1.
        -11    1    3    3    0    0 -0.26692696167E+01 -0.15746375575E+02 -0.14658294795E+01  0.16038142048E+02  0.51100000000E-03 0.  1.
         12    1    3    3    0    0 -0.10225779371E+02 -0.20142219735E+02 -0.70626798896E+01  0.23667636697E+02  0.00000000000E+00 0. -1.
</event>
<event>
 7    1  0.4432754E-010  0.4778727E+02  0.7816164E-02  0.1312668E+00
        -11   -1    0    0    0    0  0.00000000000E+00  0.00000000000E+00  0.45593999997E+02  0.45594000000E+02  0.51100000000E-03 0. -1.
         11   -1    0    0    0    0 -0.00000000000E+00 -0.00000000000E+00 -0.45593999997E+02  0.45594000000E+02  0.51100000000E-03 0.  1.
    9900012    2    1    2    0    0  0.53475796021E+01 -0.22278352518E+02  0.36860571857E+02  0.47787270097E+02  0.19999995681E+02 0.  0.
        -12    1    1    2    0    0 -0.53475796021E+01  0.22278352518E+02 -0.36860571857E+02  0.43400729903E+02  0.00000000000E+00 0.  1.
         11    1    3    3    0    0 -0.43896711170E+00 -0.46765872840E+01  0.13149146666E+02  0.13962923012E+02  0.51100000000E-03 0. -1.
        -11    1    3    3    0    0  0.10961661783E+02 -0.14151936909E+02  0.17438254950E+02  0.24990559884E+02  0.51100000000E-03 0.  1.
        -12    1    3    3    0    0 -0.51751150690E+01 -0.34498283244E+01  0.62731702407E+01  0.88337872011E+01  0.00000000000E+00 0.  1.
</event>
<event>
 7    1  0.4432754E-010  0.4778727E+02  0.7816164E-02  0.1312668E+00
        -11   -1    0    0    0    0  0.00000000000E+00  0.00000000000E+00  0.45593999997E+02  0.45594000000E+02  0.51100000000E-03 0.  1.
         11   -1    0    0    0    0 -0.00000000000E+00 -0.00000000000E+00 -0.45593999997E+02  0.45594000000E+02  0.51100000000E-03 0. -1.
    9900012    2    1    2    0    0  0.10182575970E+02  0.81158840144E+01 -0.41401338931E+02  0.47787270836E+02  0.19999999048E+02 0.  0.
        -12    1    1    2    0    0 -0.10182575970E+02 -0.81158840144E+01  0.41401338931E+02  0.43400729164E+02  0.00000000000E+00 0.  1.
         11    1    3    3    0    0 -0.50288833561E+00 -0.10573864631E+01 -0.12504258766E+01  0.17130463929E+01  0.51100000000E-03 0. -1.
        -11    1    3    3    0    0  0.70379787887E+01  0.14016114077E+02 -0.33971950228E+02  0.37417616196E+02  0.51100000000E-03 0.  1.
        -12    1    3    3    0    0  0.36474855170E+01 -0.48428435994E+01 -0.61789628267E+01  0.86566082468E+01  0.00000000000E+00 0.  1.
</event>
<event>
 7    1  0.4432754E-010  0.4778727E+02  0.7816164E-02  0.1312668E+00
        -11   -1    0    0    0    0  0.00000000000E+00  0.00000000000E+00  0.45593999997E+02  0.45594000000E+02  0.51100000000E-03 0. -1.
         11   -1    0    0    0    0 -0.00000000000E+00 -0.00000000000E+00 -0.45593999997E+02  0.45594000000E+02  0.51100000000E-03 0.  1.
    9900012    2    1    2    0    0  0.30367157361E+02 -0.30933255151E+02  0.21430258343E+01  0.47787273276E+02  0.20000010176E+02 0.  0.
        -12    1    1    2    0    0 -0.30367157361E+02  0.30933255151E+02 -0.21430258343E+01  0.43400726724E+02  0.00000000000E+00 0.  1.
         11    1    3    3    0    0 -0.70359299446E+00 -0.44071730388E+01 -0.92574885899E+00  0.45579851368E+01  0.51100000000E-03 0. -1.
        -11    1    3    3    0    0  0.44750278297E+01 -0.33776257841E+01 -0.44737355845E+01  0.71727637878E+01  0.51100000000E-03 0.  1.
         12    1    3    3    0    0  0.26595722526E+02 -0.23148456328E+02  0.75425102778E+01  0.36056524352E+02  0.00000000000E+00 0. -1.
</event>
<event>
 7    1  0.4432754E-010  0.4778730E+02  0.7816164E-02  0.1312668E+00
        -11   -1    0    0    0    0  0.00000000000E+00  0.00000000000E+00  0.45593999997E+02  0.45594000000E+02  0.51100000000E-03 0.  1.
         11   -1    0    0    0    0 -0.00000000000E+00 -0.00000000000E+00 -0.45593999997E+02  0.45594000000E+02  0.51100000000E-03 0. -1.
    9900012    2    1    2    0    0 -0.21407280347E+02  0.35988609213E+02 -0.11409182002E+02  0.47787296332E+02  0.20000115294E+02 0.  0.
        -12    1    1    2    0    0  0.21407280347E+02 -0.35988609213E+02  0.11409182002E+02  0.43400703668E+02  0.00000000000E+00 0.  1.
         11    1    3    3    0    0 -0.59364417522E+01  0.13106200996E+02 -0.45016366996E+01  0.15075761290E+02  0.51100000000E-03 0. -1.
        -11    1    3    3    0    0 -0.14668697525E+02  0.11523586083E+02 -0.96453598398E+01  0.20999921190E+02  0.51100000000E-03 0.  1.
         12    1    3    3    0    0 -0.80214106913E+00  0.11358822134E+02  0.27378145371E+01  0.11711613852E+02  0.00000000000E+00 0. -1.
</event>
<event>
 7    1  0.4432754E-010  0.4778728E+02  0.7816164E-02  0.1312668E+00
        -11   -1    0    0    0    0  0.00000000000E+00  0.00000000000E+00  0.45593999997E+02  0.45594000000E+02  0.51100000000E-03 0.  1.
         11   -1    0    0    0    0 -0.00000000000E+00 -0.00000000000E+00 -0.45593999997E+02  0.45594000000E+02  0.51100000000E-03 0. -1.
    9900012    2    1    2    0    0  0.66924363466E+01 -0.19185235825E+02 -0.38350500126E+02  0.47787276068E+02  0.20000022906E+02 0.  0.
        -12    1    1    2    0    0 -0.66924363466E+01  0.19185235825E+02  0.38350500126E+02  0.43400723932E+02  0.00000000000E+00 0.  1.
         11    1    3    3    0    0 -0.61192921911E+01 -0.87090703081E+01 -0.10203359389E+02  0.14744564613E+02  0.51100000000E-03 0. -1.
        -11    1    3    3    0    0  0.18141193271E+00 -0.14131763176E+01 -0.93796211527E+00  0.17057991630E+01  0.51100000000E-03 0.  1.
        -12    1    3    3    0    0  0.12630316605E+02 -0.90629891992E+01 -0.27209178621E+02  0.31336912292E+02  0.00000000000E+00 0.  1.
</event>
<event>
 7    1  0.4432754E-010  0.4778727E+02  0.7816164E-02  0.1312668E+00
        -11   -1    0    0    0    0  0.00000000000E+00  0.00000000000E+00  0.45593999997E+02  0.45594000000E+02  0.51100000000E-03 0. -1.
         11   -1    0    0    0    0 -0.00000000000E+00 -0.00000000000E+00 -0.45593999997E+02  0.45594000000E+02  0.51100000000E-03 0.  1.
    9900012    2    1    2    0    0 -0.15912781341E+02 -0.36779392474E+02  0.16663819958E+02  0.47787271708E+02  0.20000003024E+02 0.  0.
        -12    1    1    2    0    0  0.15912781341E+02  0.36779392474E+02 -0.16663819958E+02  0.43400728292E+02  0.00000000000E+00 0.  1.
         11    1    3    3    0    0 -0.70168279043E+01 -0.14475744388E+02  0.59609902640E+01  0.17155653722E+02  0.51100000000E-03 0. -1.
        -11    1    3    3    0    0 -0.15461495306E+00 -0.11978655533E+02  0.12105167804E+02  0.17030771620E+02  0.51100000000E-03 0.  1.
        -12    1    3    3    0    0 -0.87413384833E+01 -0.10324992553E+02 -0.14023381103E+01  0.13600846366E+02  0.00000000000E+00 0.  1.
</event>
<event>
 7    1  0.4432754E-010  0.4778723E+02  0.7816164E-02  0.1312668E+00
        -11   -1    0    0    0    0  0.00000000000E+00  0.00000000000E+00  0.45593999997E+02  0.45594000000E+02  0.51100000000E-03 0.  1.
         11   -1    0    0    0    0 -0.00000000000E+00 -0.00000000000E+00 -0.45593999997E+02  0.45594000000E+02  0.51100000000E-03 0. -1.
    9900012    2    1    2    0    0 -0.36511004954E+02  0.19389856957E+02 -0.13213873625E+02  0.47787233973E+02  0.19999830976E+02 0.  0.
        -12    1    1    2    0    0  0.36511004954E+02 -0.19389856957E+02  0.13213873625E+02  0.43400766027E+02  0.00000000000E+00 0.  1.
         11    1    3    3    0    0 -0.18571822749E+02  0.10260449754E+02 -0.21960311263E+01  0.21331009877E+02  0.51100000000E-03 0. -1.
        -11    1    3    3    0    0 -0.69097374836E+01 -0.27429081899E+01 -0.12601939684E+01  0.75402988356E+01  0.51100000000E-03 0.  1.
         12    1    3    3    0    0 -0.11029444721E+02  0.11872315393E+02 -0.97576485299E+01  0.18915925261E+02  0.00000000000E+00 0. -1.
</event>
<event>
 7    1  0.4648758E-010  0.4778728E+02  0.7816164E-02  0.1312668E+00
        -11   -1    0    0    0    0  0.00000000000E+00  0.00000000000E+00  0.45593999997E+02  0.45594000000E+02  0.51100000000E-03 0. -1.
         11   -1    0    0    0    0 -0.00000000000E+00 -0.00000000000E+00 -0.45593999997E+02  0.45594000000E+02  0.51100000000E-03 0.  1.
    9900012    2    1    2    0    0 -0.16262631127E+01  0.94636066829E+01  0.42325146749E+02  0.47787278457E+02  0.20000033796E+02 0.  0.
        -12    1    1    2    0    0  0.16262631127E+01 -0.94636066829E+01 -0.42325146749E+02  0.43400721543E+02  0.00000000000E+00 0.  1.
         11    1    3    3    0    0  0.45956629953E+01  0.39139762670E+01  0.14177028435E+02  0.15408681452E+02  0.51100000000E-03 0. -1.
        -11    1    3    3    0    0 -0.27364185581E+01  0.94367201524E+01  0.12604956680E+02  0.15982008851E+02  0.51100000000E-03 0.  1.
         12    1    3    3    0    0 -0.34855075499E+01 -0.38870897364E+01  0.15543161634E+02  0.16396588154E+02  0.00000000000E+00 0. -1.
</event>
<event>
 7    1  0.4432754E-010  0.4778727E+02  0.7816164E-02  0.1312668E+00
        -11   -1    0    0    0    0  0.00000000000E+00  0.00000000000E+00  0.45593999997E+02  0.45594000000E+02  0.51100000000E-03 0.  1.
         11   -1    0    0    0    0 -0.00000000000E+00 -0.00000000000E+00 -0.45593999997E+02  0.45594000000E+02  0.51100000000E-03 0. -1.
    9900012    2    1    2    0    0 -0.26063179019E+02  0.22474726457E+02 -0.26442779354E+02  0.47787271782E+02  0.20000003363E+02 0.  0.
        -12    1    1    2    0    0  0.26063179019E+02 -0.22474726457E+02  0.26442779354E+02  0.43400728218E+02  0.00000000000E+00 0.  1.
         11    1    3    3    0    0 -0.14915296849E+01  0.59478101296E+01 -0.85692485258E+01  0.10537225759E+02  0.51100000000E-03 0. -1.
        -11    1    3    3    0    0 -0.17941486287E+02  0.18267973809E+02 -0.15803739259E+02  0.30089432897E+02  0.51100000000E-03 0.  1.
        -12    1    3    3    0    0 -0.66301630475E+01 -0.17410574822E+01 -0.20697915695E+01  0.71606131255E+01  0.00000000000E+00 0.  1.
</event>
<event>
 7    1  0.4432754E-010  0.4778727E+02  0.7816164E-02  0.1312668E+00
        -11   -1    0    0    0    0  0.00000000000E+00  0.00000000000E+00  0.45593999997E+02  0.45594000000E+02  0.51100000000E-03 0.  1.
         11   -1    0    0    0    0 -0.00000000000E+00 -0.00000000000E+00 -0.45593999997E+02  0.45594000000E+02  0.51100000000E-03 0. -1.
    9900012    2    1    2    0    0 -0.32808390023E+02 -0.11188042955E+02  0.26116292896E+02  0.47787268258E+02  0.19999987297E+02 0.  0.
        -12    1    1    2    0    0  0.32808390023E+02  0.11188042955E+02 -0.26116292896E+02  0.43400731742E+02  0.00000000000E+00 0.  1.
         11    1    3    3    0    0 -0.55263532582E+01 -0.50325423654E+01  0.35400333134E+01  0.82703626955E+01  0.51100000000E-03 0. -1.
        -11    1    3    3    0    0 -0.26232326771E+02 -0.10155453439E+02  0.18244144234E+02  0.33527854114E+02  0.51100000000E-03 0.  1.
         12    1    3    3    0    0 -0.10497099934E+01  0.39999528490E+01  0.43321153486E+01  0.59890514490E+01  0.00000000000E+00 0. -1.
</event>
<event>
 7    1  0.4432754E-010  0.4778727E+02  0.7816164E-02  0.1312668E+00
        -11   -1    0    0    0    0  0.00000000000E+00  0.00000000000E+00  0.45593999997E+02  0.45594000000E+02  0.51100000000E-03 0.  1.
         11   -1    0    0    0    0 -0.00000000000E+00 -0.00000000000E+00 -0.45593999997E+02  0.45594000000E+02  0.51100000000E-03 0. -1.
    9900012    2    1    2    0    0  0.34541184017E+02  0.23944835045E+02  0.10824718120E+02  0.47787273727E+02  0.20000012230E+02 0.  0.
        -12    1    1    2    0    0 -0.34541184017E+02 -0.23944835045E+02 -0.10824718120E+02  0.43400726273E+02  0.00000000000E+00 0.  1.
         11    1    3    3    0    0  0.13712145884E+01  0.63804671985E+01  0.98532758165E+00  0.66001107432E+01  0.51100000000E-03 0. -1.
        -11    1    3    3    0    0  0.67832827385E+01  0.36211035748E+01  0.82838236903E+01  0.11302524099E+02  0.51100000000E-03 0.  1.
         12    1    3    3    0    0  0.26386686690E+02  0.13943264272E+02  0.15555668478E+01  0.29884638885E+02  0.00000000000E+00 0. -1.
</event>
<event>
 7    1  0.4432754E-010  0.4778727E+02  0.7816164E-02  0.1312668E+00
        -11   -1    0    0    0    0  0.00000000000E+00  0.00000000000E+00  0.45593999997E+02  0.45594000000E+02  0.51100000000E-03 0. -1.
         11   -1    0    0    0    0 -0.00000000000E+00 -0.00000000000E+00 -0.45593999997E+02  0.45594000000E+02  0.51100000000E-03 0.  1.
    9900012    2    1    2    0    0 -0.42343382342E+02  0.94985425661E+01  0.66247921255E+00  0.47787271691E+02  0.20000002947E+02 0.  0.
        -12    1    1    2    0    0  0.42343382342E+02 -0.94985425661E+01 -0.66247921255E+00  0.43400728309E+02  0.00000000000E+00 0.  1.
         11    1    3    3    0    0 -0.97989104612E+01 -0.27675099393E+00 -0.18705693225E+01  0.99796927403E+01  0.51100000000E-03 0. -1.
        -11    1    3    3    0    0 -0.92413426733E+01 -0.13678090015E+01  0.68957975523E+01  0.11611431437E+02  0.51100000000E-03 0.  1.
         12    1    3    3    0    0 -0.23303129208E+02  0.11143102562E+02 -0.43627490172E+01  0.26196147514E+02  0.00000000000E+00 0. -1.
</event>
<event>
 7    1  0.4432754E-010  0.4778727E+02  0.7816164E-02  0.1312668E+00
        -11   -1    0    0    0    0  0.00000000000E+00  0.00000000000E+00  0.45593999997E+02  0.45594000000E+02  0.51100000000E-03 0. -1.
         11   -1    0    0    0    0 -0.00000000000E+00 -0.00000000000E+00 -0.45593999997E+02  0.45594000000E+02  0.51100000000E-03 0.  1.
    9900012    2    1    2    0    0 -0.36427244462E+02  0.23107345678E+02  0.47675844490E+01  0.47787269306E+02  0.19999992072E+02 0.  0.
        -12    1    1    2    0    0  0.36427244462E+02 -0.23107345678E+02 -0.47675844490E+01  0.43400730694E+02  0.00000000000E+00 0.  1.
         11    1    3    3    0    0 -0.25538466539E+02  0.18773606750E+02  0.41010079912E+01  0.31960598405E+02  0.51100000000E-03 0. -1.
        -11    1    3    3    0    0 -0.11859924761E+02  0.64301665084E+01  0.78000792194E+00  0.13513447720E+02  0.51100000000E-03 0.  1.
        -12    1    3    3    0    0  0.97114683870E+00 -0.20964275812E+01 -0.11343146411E+00  0.23132231805E+01  0.00000000000E+00 0.  1.
</event>
<event>
 7    1  0.4432754E-010  0.4778727E+02  0.7816164E-02  0.1312668E+00
        -11   -1    0    0    0    0  0.00000000000E+00  0.00000000000E+00  0.45593999997E+02  0.45594000000E+02  0.51100000000E-03 0. -1.
         11   -1    0    0    0    0 -0.00000000000E+00 -0.00000000000E+00 -0.45593999997E+02  0.45594000000E+02  0.51100000000E-03 0.  1.
    9900012    2    1    2    0    0  0.36329685009E+02 -0.36515206440E+01  0.23461534368E+02  0.47787271772E+02  0.20000003315E+02 0.  0.
        -12    1    1    2    0    0 -0.36329685009E+02  0.36515206440E+01 -0.23461534368E+02  0.43400728228E+02  0.00000000000E+00 0.  1.
         11    1    3    3    0    0  0.20698512690E+02 -0.68325520854E+01  0.10202244050E+02  0.24066532353E+02  0.51100000000E-03 0. -1.
        -11    1    3    3    0    0  0.53735228301E+01 -0.43421558461E+01  0.53922072797E+01  0.87638441683E+01  0.51100000000E-03 0.  1.
        -12    1    3    3    0    0  0.10257649489E+02  0.75231872875E+01  0.78670830382E+01  0.14956895250E+02  0.00000000000E+00 0.  1.
</event>
<event>
 7    1  0.4432754E-010  0.4778727E+02  0.7816164E-02  0.1312668E+00
        -11   -1    0    0    0    0  0.00000000000E+00  0.00000000000E+00  0.45593999997E+02  0.45594000000E+02  0.51100000000E-03 0.  1.
         11   -1    0    0    0    0 -0.00000000000E+00 -0.00000000000E+00 -0.45593999997E+02  0.45594000000E+02  0.51100000000E-03 0. -1.
    9900012    2    1    2    0    0 -0.33967748153E+02  0.67777580060E+01 -0.26151052971E+02  0.47787268558E+02  0.19999988665E+02 0.  0.
        -12    1    1    2    0    0  0.33967748153E+02 -0.67777580060E+01  0.26151052971E+02  0.43400731442E+02  0.00000000000E+00 0.  1.
         11    1    3    3    0    0 -0.19182361529E+02  0.30537634322E+01 -0.59253918595E+01  0.20307602859E+02  0.51100000000E-03 0. -1.
        -11    1    3    3    0    0 -0.10389896510E+02  0.20142360168E+01 -0.53191623671E+01  0.11844854780E+02  0.51100000000E-03 0.  1.
        -12    1    3    3    0    0 -0.43954901143E+01  0.17097585571E+01 -0.14906498744E+02  0.15634810919E+02  0.00000000000E+00 0.  1.
</event>
<event>
 7    1  0.4432754E-010  0.4778727E+02  0.7816164E-02  0.1312668E+00
        -11   -1    0    0    0    0  0.00000000000E+00  0.00000000000E+00  0.45593999997E+02  0.45594000000E+02  0.51100000000E-03 0.  1.
         11   -1    0    0    0    0 -0.00000000000E+00 -0.00000000000E+00 -0.45593999997E+02  0.45594000000E+02  0.51100000000E-03 0. -1.
    9900012    2    1    2    0    0 -0.41820347270E+02  0.13455503413E+01 -0.11526968693E+02  0.47787274674E+02  0.20000016551E+02 0.  0.
        -12    1    1    2    0    0  0.41820347270E+02 -0.13455503413E+01  0.11526968693E+02  0.43400725326E+02  0.00000000000E+00 0.  1.
         11    1    3    3    0    0 -0.37378619824E+01  0.36149010256E+01 -0.12837255934E+01  0.53560314865E+01  0.51100000000E-03 0. -1.
        -11    1    3    3    0    0 -0.25869503821E+02 -0.78972943252E+01 -0.10411891148E+02  0.28982856366E+02  0.51100000000E-03 0.  1.
         12    1    3    3    0    0 -0.12212981467E+02  0.56279436410E+01  0.16864804897E+00  0.13448386822E+02  0.00000000000E+00 0. -1.
</event>
<event>
 7    1  0.4432754E-010  0.4778727E+02  0.7816164E-02  0.1312668E+00
        -11   -1    0    0    0    0  0.00000000000E+00  0.00000000000E+00  0.45593999997E+02  0.45594000000E+02  0.51100000000E-03 0. -1.
         11   -1    0    0    0    0 -0.00000000000E+00 -0.00000000000E+00 -0.45593999997E+02  0.45594000000E+02  0.51100000000E-03 0.  1.
    9900012    2    1    2    0    0 -0.32220627440E+02 -0.28139156910E+02  0.73240975490E+01  0.47787269717E+02  0.19999993947E+02 0.  0.
        -12    1    1    2    0    0  0.32220627440E+02  0.28139156910E+02 -0.73240975490E+01  0.43400730283E+02  0.00000000000E+00 0.  1.
         11    1    3    3    0    0 -0.22637209146E+02 -0.28878349489E+02  0.38063468797E+01  0.36890250527E+02  0.51100000000E-03 0. -1.
        -11    1    3    3    0    0 -0.81277431078E+01  0.46400132530E+00  0.13210716675E+01  0.82474684521E+01  0.51100000000E-03 0.  1.
        -12    1    3    3    0    0 -0.14556751858E+01  0.27519125411E+00  0.21966790018E+01  0.26495507374E+01  0.00000000000E+00 0.  1.
</event>
<event>
 7    1  0.4432754E-010  0.4778726E+02  0.7816164E-02  0.1312668E+00
        -11   -1    0    0    0    0  0.00000000000E+00  0.00000000000E+00  0.45593999997E+02  0.45594000000E+02  0.51100000000E-03 0.  1.
         11   -1    0    0    0    0 -0.00000000000E+00 -0.00000000000E+00 -0.45593999997E+02  0.45594000000E+02  0.51100000000E-03 0. -1.
    9900012    2    1    2    0    0  0.35646437311E+01 -0.43146389415E+02 -0.30506211274E+01  0.47787263903E+02  0.19999967440E+02 0.  0.
        -12    1    1    2    0    0 -0.35646437311E+01  0.43146389415E+02  0.30506211274E+01  0.43400736097E+02  0.00000000000E+00 0.  1.
         11    1    3    3    0    0 -0.39857449103E+01 -0.23030352004E+02 -0.65443266597E+01  0.24271618974E+02  0.51100000000E-03 0. -1.
        -11    1    3    3    0    0  0.14260984202E+01  0.45516043156E+00 -0.68979299497E+00  0.16482543370E+01  0.51100000000E-03 0.  1.
        -12    1    3    3    0    0  0.61242902213E+01 -0.20571197842E+02  0.41834985273E+01  0.21867390592E+02  0.00000000000E+00 0.  1.
</event>
<event>
 7    1  0.4432754E-010  0.4778727E+02  0.7816164E-02  0.1312668E+00
        -11   -1    0    0    0    0  0.00000000000E+00  0.00000000000E+00  0.45593999997E+02  0.45594000000E+02  0.51100000000E-03 0.  1.
         11   -1    0    0    0    0 -0.00000000000E+00 -0.00000000000E+00 -0.45593999997E+02  0.45594000000E+02  0.51100000000E-03 0. -1.
    9900012    2    1    2    0    0 -0.41920787150E+02 -0.10176048419E+02  0.47664583290E+01  0.47787268650E+02  0.19999989082E+02 0.  0.
        -12    1    1    2    0    0  0.41920787150E+02  0.10176048419E+02 -0.47664583290E+01  0.43400731350E+02  0.00000000000E+00 0.  1.
         11    1    3    3    0    0 -0.19235802387E+02 -0.30410663944E+01  0.60284976005E+01  0.20386440638E+02  0.51100000000E-03 0. -1.
        -11    1    3    3    0    0 -0.20427083685E+02 -0.43131882798E+01  0.37602580189E+01  0.21213412777E+02  0.51100000000E-03 0.  1.
        -12    1    3    3    0    0 -0.22579010775E+01 -0.28217937450E+01 -0.50222972905E+01  0.61874152349E+01  0.00000000000E+00 0.  1.
</event>
<event>
 7    1  0.4432754E-010  0.4778727E+02  0.7816164E-02  0.1312668E+00
        -11   -1    0    0    0    0  0.00000000000E+00  0.00000000000E+00  0.45593999997E+02  0.45594000000E+02  0.51100000000E-03 0.  1.
         11   -1    0    0    0    0 -0.00000000000E+00 -0.00000000000E+00 -0.45593999997E+02  0.45594000000E+02  0.51100000000E-03 0. -1.
    9900012    2    1    2    0    0 -0.41338539999E+02  0.40496119480E+01 -0.12583676270E+02  0.47787272418E+02  0.20000006264E+02 0.  0.
        -12    1    1    2    0    0  0.41338539999E+02 -0.40496119480E+01  0.12583676270E+02  0.43400727582E+02  0.00000000000E+00 0.  1.
         11    1    3    3    0    0 -0.30435944308E+02  0.42408448520E+01 -0.53613576878E+01  0.31194160151E+02  0.51100000000E-03 0. -1.
        -11    1    3    3    0    0 -0.94641250686E+01 -0.38902815574E+01 -0.27132089598E+01  0.10586097347E+02  0.51100000000E-03 0.  1.
        -12    1    3    3    0    0 -0.14384706217E+01  0.36990486535E+01 -0.45091096227E+01  0.60070149209E+01  0.00000000000E+00 0.  1.
</event>
<event>
 7    1  0.4432754E-010  0.4778727E+02  0.7816164E-02  0.1312668E+00
        -11   -1    0    0    0    0  0.00000000000E+00  0.00000000000E+00  0.45593999997E+02  0.45594000000E+02  0.51100000000E-03 0.  1.
         11   -1    0    0    0    0 -0.00000000000E+00 -0.00000000000E+00 -0.45593999997E+02  0.45594000000E+02  0.51100000000E-03 0. -1.
    9900012    2    1    2    0    0 -0.41189199516E+02  0.11688094888E+02 -0.71036142000E+01  0.47787273582E+02  0.20000011571E+02 0.  0.
        -12    1    1    2    0    0  0.41189199516E+02 -0.11688094888E+02  0.71036142000E+01  0.43400726418E+02  0.00000000000E+00 0.  1.
         11    1    3    3    0    0 -0.29284231310E+02  0.10060229919E+01 -0.53562910766E+01  0.29787046514E+02  0.51100000000E-03 0. -1.
        -11    1    3    3    0    0 -0.51035263252E+01  0.29033825228E+01 -0.43941510198E+01  0.73337694586E+01  0.51100000000E-03 0.  1.
         12    1    3    3    0    0 -0.68014418807E+01  0.77786893730E+01  0.26468278965E+01  0.10666457609E+02  0.00000000000E+00 0. -1.
</event>
<event>
 7    1  0.4432754E-010  0.4778728E+02  0.7816164E-02  0.1312668E+00
        -11   -1    0    0    0    0  0.00000000000E+00  0.00000000000E+00  0.45593999997E+02  0.45594000000E+02  0.51100000000E-03 0.  1.
         11   -1    0    0    0    0 -0.00000000000E+00 -0.00000000000E+00 -0.45593999997E+02  0.45594000000E+02  0.51100000000E-03 0. -1.
    9900012    2    1    2    0    0 -0.31528543441E+02 -0.12639768689E+02 -0.27014994184E+02  0.47787277486E+02  0.20000029368E+02 0.  0.
        -12    1    1    2    0    0  0.31528543441E+02  0.12639768689E+02  0.27014994184E+02  0.43400722514E+02  0.00000000000E+00 0.  1.
         11    1    3    3    0    0 -0.38661453744E+01 -0.35215161087E+01 -0.76011039563E+01  0.92263176499E+01  0.51100000000E-03 0. -1.
        -11    1    3    3    0    0 -0.23984587219E+01  0.37947351401E+00  0.27268027424E+01  0.36513090592E+01  0.51100000000E-03 0.  1.
        -12    1    3    3    0    0 -0.25263939344E+02 -0.94977260938E+01 -0.22140692970E+02  0.34909650777E+02  0.00000000000E+00 0.  1.
</event>
<event>
 7    1  0.4432754E-010  0.4778727E+02  0.7816164E-02  0.1312668E+00
        -11   -1    0    0    0    0  0.00000000000E+00  0.00000000000E+00  0.45593999997E+02  0.45594000000E+02  0.51100000000E-03 0.  1.
         11   -1    0    0    0    0 -0.00000000000E+00 -0.00000000000E+00 -0.45593999997E+02  0.45594000000E+02  0.51100000000E-03 0. -1.
    9900012    2    1    2    0    0 -0.13485315336E+02  0.39350415381E+02  0.12382036500E+02  0.47787265579E+02  0.19999975081E+02 0.  0.
        -12    1    1    2    0    0  0.13485315336E+02 -0.39350415381E+02 -0.12382036500E+02  0.43400734421E+02  0.00000000000E+00 0.  1.
         11    1    3    3    0    0 -0.36134255680E+01  0.18716812052E+02  0.66541430180E+01  0.20190431330E+02  0.51100000000E-03 0. -1.
        -11    1    3    3    0    0 -0.30513171122E+01  0.36130833861E+01 -0.45617913060E+01  0.65707570229E+01  0.51100000000E-03 0.  1.
        -12    1    3    3    0    0 -0.68205726556E+01  0.17020519943E+02  0.10289684788E+02  0.21026077226E+02  0.00000000000E+00 0.  1.
</event>
<event>
 7    1  0.4432754E-010  0.4778727E+02  0.7816164E-02  0.1312668E+00
        -11   -1    0    0    0    0  0.00000000000E+00  0.00000000000E+00  0.45593999997E+02  0.45594000000E+02  0.51100000000E-03 0.  1.
         11   -1    0    0    0    0 -0.00000000000E+00 -0.00000000000E+00 -0.45593999997E+02  0.45594000000E+02  0.51100000000E-03 0. -1.
    9900012    2    1    2    0    0 -0.15581243276E+02  0.40320557653E+02  0.38860032541E+01  0.47787268062E+02  0.19999986402E+02 0.  0.
        -12    1    1    2    0    0  0.15581243276E+02 -0.40320557653E+02 -0.38860032541E+01  0.43400731938E+02  0.00000000000E+00 0.  1.
         11    1    3    3    0    0 -0.19797916151E+01  0.20897109154E+02  0.16989214294E+01  0.21059322879E+02  0.51100000000E-03 0. -1.
        -11    1    3    3    0    0  0.10236413933E+01  0.11792872684E+01 -0.24352412750E+01  0.28929155695E+01  0.51100000000E-03 0.  1.
        -12    1    3    3    0    0 -0.14625093054E+02  0.18244161230E+02  0.46223230997E+01  0.23835029613E+02  0.00000000000E+00 0.  1.
</event>
<event>
 7    1  0.4432754E-010  0.4778723E+02  0.7816164E-02  0.1312668E+00
        -11   -1    0    0    0    0  0.00000000000E+00  0.00000000000E+00  0.45593999997E+02  0.45594000000E+02  0.51100000000E-03 0. -1.
         11   -1    0    0    0    0 -0.00000000000E+00 -0.00000000000E+00 -0.45593999997E+02  0.45594000000E+02  0.51100000000E-03 0.  1.
    9900012    2    1    2    0    0  0.11685405939E+02 -0.40918348957E+02  0.85303611749E+01  0.47787227483E+02  0.19999801383E+02 0.  0.
        -12    1    1    2    0    0 -0.11685405939E+02  0.40918348957E+02 -0.85303611749E+01  0.43400772517E+02  0.00000000000E+00 0.  1.
         11    1    3    3    0    0  0.63565598667E+01 -0.20311400509E+02  0.29796341647E+01  0.21490394692E+02  0.51100000000E-03 0. -1.
        -11    1    3    3    0    0  0.52270850746E+01 -0.34412015388E+01 -0.32002264724E+01  0.70289214068E+01  0.51100000000E-03 0.  1.
         12    1    3    3    0    0  0.10176099731E+00 -0.17165746909E+02  0.87509534825E+01  0.19267911384E+02  0.00000000000E+00 0. -1.
</event>
<event>
 7    1  0.4432754E-010  0.4778728E+02  0.7816164E-02  0.1312668E+00
        -11   -1    0    0    0    0  0.00000000000E+00  0.00000000000E+00  0.45593999997E+02  0.45594000000E+02  0.51100000000E-03 0.  1.
         11   -1    0    0    0    0 -0.00000000000E+00 -0.00000000000E+00 -0.45593999997E+02  0.45594000000E+02  0.51100000000E-03 0. -1.
    9900012    2    1    2    0    0 -0.23606302339E+02  0.29240652073E+02 -0.21710579518E+02  0.47787279882E+02  0.20000040293E+02 0.  0.
        -12    1    1    2    0    0  0.23606302339E+02 -0.29240652073E+02  0.21710579518E+02  0.43400720118E+02  0.00000000000E+00 0.  1.
         11    1    3    3    0    0 -0.20721134511E+01  0.86407105808E+01  0.12528621384E+01  0.89735833029E+01  0.51100000000E-03 0. -1.
        -11    1    3    3    0    0 -0.91934746325E+01  0.61725185611E+01 -0.34739337641E+01  0.11605523567E+02  0.51100000000E-03 0.  1.
         12    1    3    3    0    0 -0.12340714256E+02  0.14427422931E+02 -0.19489507892E+02  0.27208173012E+02  0.00000000000E+00 0. -1.
</event>
<event>
 7    1  0.4432754E-010  0.4778727E+02  0.7816164E-02  0.1312668E+00
        -11   -1    0    0    0    0  0.00000000000E+00  0.00000000000E+00  0.45593999997E+02  0.45594000000E+02  0.51100000000E-03 0.  1.
         11   -1    0    0    0    0 -0.00000000000E+00 -0.00000000000E+00 -0.45593999997E+02  0.45594000000E+02  0.51100000000E-03 0. -1.
    9900012    2    1    2    0    0 -0.26970779689E+02  0.89871741819E+01 -0.32793767811E+02  0.47787268853E+02  0.19999990010E+02 0.  0.
        -12    1    1    2    0    0  0.26970779689E+02 -0.89871741819E+01  0.32793767811E+02  0.43400731147E+02  0.00000000000E+00 0.  1.
         11    1    3    3    0    0 -0.22681927073E+01  0.26254325278E+00 -0.34955452608E+01  0.41752202396E+01  0.51100000000E-03 0. -1.
        -11    1    3    3    0    0 -0.20438903054E+02 -0.95635478724E+00 -0.24709109540E+02  0.32081201147E+02  0.51100000000E-03 0.  1.
        -12    1    3    3    0    0 -0.42636839278E+01  0.96809857164E+01 -0.45891130101E+01  0.11530847466E+02  0.00000000000E+00 0.  1.
</event>
<event>
 7    1  0.4432754E-010  0.4778727E+02  0.7816164E-02  0.1312668E+00
        -11   -1    0    0    0    0  0.00000000000E+00  0.00000000000E+00  0.45593999997E+02  0.45594000000E+02  0.51100000000E-03 0. -1.
         11   -1    0    0    0    0 -0.00000000000E+00 -0.00000000000E+00 -0.45593999997E+02  0.45594000000E+02  0.51100000000E-03 0.  1.
    9900012    2    1    2    0    0  0.40415439639E+00  0.10967620493E+02  0.41990134243E+02  0.47787269432E+02  0.19999992649E+02 0.  0.
        -12    1    1    2    0    0 -0.40415439639E+00 -0.10967620493E+02 -0.41990134243E+02  0.43400730568E+02  0.00000000000E+00 0.  1.
         11    1    3    3    0    0 -0.39797936839E+01  0.14916661737E+01  0.20893143192E+01  0.47359328886E+01  0.51100000000E-03 0. -1.
        -11    1    3    3    0    0 -0.33135826783E+01  0.43808838144E+01  0.71023775655E+01  0.89786268719E+01  0.51100000000E-03 0.  1.
         12    1    3    3    0    0  0.76975307586E+01  0.50950705051E+01  0.32798442358E+02  0.34072709672E+02  0.00000000000E+00 0. -1.
</event>
<event>
 7    1  0.4432754E-010  0.4778728E+02  0.7816164E-02  0.1312668E+00
        -11   -1    0    0    0    0  0.00000000000E+00  0.00000000000E+00  0.45593999997E+02  0.45594000000E+02  0.51100000000E-03 0.  1.
         11   -1    0    0    0    0 -0.00000000000E+00 -0.00000000000E+00 -0.45593999997E+02  0.45594000000E+02  0.51100000000E-03 0. -1.
    9900012    2    1    2    0    0  0.14550409902E+02 -0.19956246226E+02 -0.35688322698E+02  0.47787279168E+02  0.20000037037E+02 0.  0.
        -12    1    1    2    0    0 -0.14550409902E+02  0.19956246226E+02  0.35688322698E+02  0.43400720832E+02  0.00000000000E+00 0.  1.
         11    1    3    3    0    0  0.28397369049E+01 -0.92009381840E+01 -0.12129937233E+02  0.15487309214E+02  0.51100000000E-03 0. -1.
        -11    1    3    3    0    0  0.15427577636E+02 -0.96816087418E+01 -0.19867155954E+02  0.26952691619E+02  0.51100000000E-03 0.  1.
         12    1    3    3    0    0 -0.37169046388E+01 -0.10736993003E+01 -0.36912295108E+01  0.53472783342E+01  0.00000000000E+00 0. -1.
</event>
<event>
 7    1  0.4432754E-010  0.4778727E+02  0.7816164E-02  0.1312668E+00
        -11   -1    0    0    0    0  0.00000000000E+00  0.00000000000E+00  0.45593999997E+02  0.45594000000E+02  0.51100000000E-03 0.  1.
         11   -1    0    0    0    0 -0.00000000000E+00 -0.00000000000E+00 -0.45593999997E+02  0.45594000000E+02  0.51100000000E-03 0. -1.
    9900012    2    1    2    0    0  0.13961615918E+02 -0.37995665329E+01 -0.40917718576E+02  0.47787272837E+02  0.20000008172E+02 0.  0.
        -12    1    1    2    0    0 -0.13961615918E+02  0.37995665329E+01  0.40917718576E+02  0.43400727163E+02  0.00000000000E+00 0.  1.
         11    1    3    3    0    0 -0.16151960423E+01 -0.10912010706E+01 -0.49561754617E+01  0.53257162429E+01  0.51100000000E-03 0. -1.
        -11    1    3    3    0    0 -0.83064791691E+00 -0.55303146307E+01 -0.12493358535E+02  0.13687891131E+02  0.51100000000E-03 0.  1.
        -12    1    3    3    0    0  0.16407459877E+02  0.28219491685E+01 -0.23468184579E+02  0.28773665463E+02  0.00000000000E+00 0.  1.
</event>
<event>
 7    1  0.4432754E-010  0.4778727E+02  0.7816164E-02  0.1312668E+00
        -11   -1    0    0    0    0  0.00000000000E+00  0.00000000000E+00  0.45593999997E+02  0.45594000000E+02  0.51100000000E-03 0.  1.
         11   -1    0    0    0    0 -0.00000000000E+00 -0.00000000000E+00 -0.45593999997E+02  0.45594000000E+02  0.51100000000E-03 0. -1.
    9900012    2    1    2    0    0  0.17507529498E+02  0.27947602825E+02 -0.28214197925E+02  0.47787273539E+02  0.20000011372E+02 0.  0.
        -12    1    1    2    0    0 -0.17507529498E+02 -0.27947602825E+02  0.28214197925E+02  0.43400726461E+02  0.00000000000E+00 0.  1.
         11    1    3    3    0    0  0.35485368190E+01  0.10179772490E+02 -0.14378594825E+02  0.17971195589E+02  0.51100000000E-03 0. -1.
        -11    1    3    3    0    0 -0.77600970657E+00 -0.28734792330E+00 -0.47200335541E+01  0.47920222147E+01  0.51100000000E-03 0.  1.
         12    1    3    3    0    0  0.14735002386E+02  0.18055178259E+02 -0.91155695459E+01  0.25024055735E+02  0.00000000000E+00 0. -1.
</event>
<event>
 7    1  0.4432754E-010  0.4778727E+02  0.7816164E-02  0.1312668E+00
        -11   -1    0    0    0    0  0.00000000000E+00  0.00000000000E+00  0.45593999997E+02  0.45594000000E+02  0.51100000000E-03 0.  1.
         11   -1    0    0    0    0 -0.00000000000E+00 -0.00000000000E+00 -0.45593999997E+02  0.45594000000E+02  0.51100000000E-03 0. -1.
    9900012    2    1    2    0    0  0.20135284370E+02 -0.10892523112E+02 -0.36872026475E+02  0.47787273361E+02  0.20000010564E+02 0.  0.
        -12    1    1    2    0    0 -0.20135284370E+02  0.10892523112E+02  0.36872026475E+02  0.43400726639E+02  0.00000000000E+00 0.  1.
         11    1    3    3    0    0  0.81447677863E+01 -0.28884147186E+01 -0.11567389976E+02  0.14438999030E+02  0.51100000000E-03 0. -1.
        -11    1    3    3    0    0  0.56455826295E+01 -0.12572276574E+02 -0.14419860707E+02  0.19946606843E+02  0.51100000000E-03 0.  1.
        -12    1    3    3    0    0  0.63449339540E+01  0.45681681812E+01 -0.10884775793E+02  0.13401667488E+02  0.00000000000E+00 0.  1.
</event>
<event>
 7    1  0.4432754E-010  0.4778728E+02  0.7816164E-02  0.1312668E+00
        -11   -1    0    0    0    0  0.00000000000E+00  0.00000000000E+00  0.45593999997E+02  0.45594000000E+02  0.51100000000E-03 0.  1.
         11   -1    0    0    0    0 -0.00000000000E+00 -0.00000000000E+00 -0.45593999997E+02  0.45594000000E+02  0.51100000000E-03 0. -1.
    9900012    2    1    2    0    0  0.13419847889E+02 -0.10368704437E+02 -0.39950223125E+02  0.47787277923E+02  0.20000031362E+02 0.  0.
        -12    1    1    2    0    0 -0.13419847889E+02  0.10368704437E+02  0.39950223125E+02  0.43400722077E+02  0.00000000000E+00 0.  1.
         11    1    3    3    0    0  0.11967441917E+01 -0.38698669697E+01 -0.93995210749E+01  0.10235187527E+02  0.51100000000E-03 0. -1.
        -11    1    3    3    0    0  0.91714791805E+00 -0.85168422355E+01 -0.60314934869E+01  0.10476482039E+02  0.51100000000E-03 0.  1.
         12    1    3    3    0    0  0.11305955779E+02  0.20180047680E+01 -0.24519208563E+02  0.27075608357E+02  0.00000000000E+00 0. -1.
</event>
<event>
 7    1  0.4432754E-010  0.4778727E+02  0.7816164E-02  0.1312668E+00
        -11   -1    0    0    0    0  0.00000000000E+00  0.00000000000E+00  0.45593999997E+02  0.45594000000E+02  0.51100000000E-03 0.  1.
         11   -1    0    0    0    0 -0.00000000000E+00 -0.00000000000E+00 -0.45593999997E+02  0.45594000000E+02  0.51100000000E-03 0. -1.
    9900012    2    1    2    0    0  0.33596109914E+02 -0.27464101810E+02 -0.80494335236E+00  0.47787269322E+02  0.19999992147E+02 0.  0.
        -12    1    1    2    0    0 -0.33596109914E+02  0.27464101810E+02  0.80494335236E+00  0.43400730678E+02  0.00000000000E+00 0.  1.
         11    1    3    3    0    0  0.16032195150E+02 -0.12902097096E+02  0.11176143151E+00  0.20579307123E+02  0.51100000000E-03 0. -1.
        -11    1    3    3    0    0  0.27428175695E+01 -0.10637840739E+02 -0.37666354987E+01  0.11613537232E+02  0.51100000000E-03 0.  1.
         12    1    3    3    0    0  0.14821097194E+02 -0.39241639755E+01  0.28499307148E+01  0.15594424966E+02  0.00000000000E+00 0. -1.
</event>
<event>
 7    1  0.4432754E-010  0.4778727E+02  0.7816164E-02  0.1312668E+00
        -11   -1    0    0    0    0  0.00000000000E+00  0.00000000000E+00  0.45593999997E+02  0.45594000000E+02  0.51100000000E-03 0.  1.
         11   -1    0    0    0    0 -0.00000000000E+00 -0.00000000000E+00 -0.45593999997E+02  0.45594000000E+02  0.51100000000E-03 0. -1.
    9900012    2    1    2    0    0 -0.14794969902E+02 -0.12835800519E+02 -0.38729503209E+02  0.47787270419E+02  0.19999997146E+02 0.  0.
        -12    1    1    2    0    0  0.14794969902E+02  0.12835800519E+02  0.38729503209E+02  0.43400729581E+02  0.00000000000E+00 0.  1.
         11    1    3    3    0    0 -0.10611907688E+02 -0.74386417450E+01 -0.12388384227E+02  0.17928135424E+02  0.51100000000E-03 0. -1.
        -11    1    3    3    0    0 -0.30922204144E+01  0.11050157997E+01 -0.66543423678E+00  0.33504760846E+01  0.51100000000E-03 0.  1.
        -12    1    3    3    0    0 -0.10908418000E+01 -0.65021745737E+01 -0.25675684746E+02  0.26508658910E+02  0.00000000000E+00 0.  1.
</event>
<event>
 7    1  0.4432754E-010  0.4778727E+02  0.7816164E-02  0.1312668E+00
        -11   -1    0    0    0    0  0.00000000000E+00  0.00000000000E+00  0.45593999997E+02  0.45594000000E+02  0.51100000000E-03 0.  1.
         11   -1    0    0    0    0 -0.00000000000E+00 -0.00000000000E+00 -0.45593999997E+02  0.45594000000E+02  0.51100000000E-03 0. -1.
    9900012    2    1    2    0    0 -0.19789897938E+02  0.37477410233E+02 -0.93502266702E+01  0.47787273313E+02  0.20000010343E+02 0.  0.
        -12    1    1    2    0    0  0.19789897938E+02 -0.37477410233E+02  0.93502266702E+01  0.43400726687E+02  0.00000000000E+00 0.  1.
         11    1    3    3    0    0 -0.12794878444E+02  0.77923288289E+01  0.16715140889E+01  0.15073926582E+02  0.51100000000E-03 0.  1.
        -11    1    3    3    0    0 -0.90552597394E+00  0.12823643529E+02 -0.40556935908E+01  0.13480150645E+02  0.51100000000E-03 0. -1.
        -12    1    3    3    0    0 -0.60894935196E+01  0.16861437875E+02 -0.69660471683E+01  0.19233196086E+02  0.00000000000E+00 0.  1.
</event>
<event>
 7    1  0.4432754E-010  0.4778727E+02  0.7816164E-02  0.1312668E+00
        -11   -1    0    0    0    0  0.00000000000E+00  0.00000000000E+00  0.45593999997E+02  0.45594000000E+02  0.51100000000E-03 0. -1.
         11   -1    0    0    0    0 -0.00000000000E+00 -0.00000000000E+00 -0.45593999997E+02  0.45594000000E+02  0.51100000000E-03 0.  1.
    9900012    2    1    2    0    0 -0.38462503613E+02  0.93805233522E+01  0.17783846956E+02  0.47787267113E+02  0.19999982075E+02 0.  0.
        -12    1    1    2    0    0  0.38462503613E+02 -0.93805233522E+01 -0.17783846956E+02  0.43400732887E+02  0.00000000000E+00 0.  1.
         11    1    3    3    0    0 -0.22640006639E+02  0.43388008349E+01  0.15028744555E+02  0.27518325829E+02  0.51100000000E-03 0. -1.
        -11    1    3    3    0    0 -0.13171283830E+02  0.81336696622E+01  0.40387859428E+01  0.15998471554E+02  0.51100000000E-03 0.  1.
         12    1    3    3    0    0 -0.26512131444E+01 -0.30919471448E+01 -0.12836835410E+01  0.42704697302E+01  0.00000000000E+00 0. -1.
</event>
<event>
 7    1  0.4432754E-010  0.4778727E+02  0.7816164E-02  0.1312668E+00
        -11   -1    0    0    0    0  0.00000000000E+00  0.00000000000E+00  0.45593999997E+02  0.45594000000E+02  0.51100000000E-03 0.  1.
         11   -1    0    0    0    0 -0.00000000000E+00 -0.00000000000E+00 -0.45593999997E+02  0.45594000000E+02  0.51100000000E-03 0. -1.
    9900012    2    1    2    0    0  0.30779452419E+01  0.14806470477E+02 -0.40680683341E+02  0.47787270606E+02  0.19999998000E+02 0.  0.
        -12    1    1    2    0    0 -0.30779452419E+01 -0.14806470477E+02  0.40680683341E+02  0.43400729394E+02  0.00000000000E+00 0.  1.
         11    1    3    3    0    0 -0.54638744542E-01  0.13080358276E+02 -0.37792383215E+02  0.39992036549E+02  0.51100000000E-03 0. -1.
        -11    1    3    3    0    0  0.22855670236E+01 -0.68272198269E+00 -0.42706381929E+01  0.48916537859E+01  0.51100000000E-03 0.  1.
        -12    1    3    3    0    0  0.84701696277E+00  0.24088341833E+01  0.13823380670E+01  0.29035802709E+01  0.00000000000E+00 0.  1.
</event>
<event>
 7    1  0.4432754E-010  0.4778727E+02  0.7816164E-02  0.1312668E+00
        -11   -1    0    0    0    0  0.00000000000E+00  0.00000000000E+00  0.45593999997E+02  0.45594000000E+02  0.51100000000E-03 0.  1.
         11   -1    0    0    0    0 -0.00000000000E+00 -0.00000000000E+00 -0.45593999997E+02  0.45594000000E+02  0.51100000000E-03 0. -1.
    9900012    2    1    2    0    0  0.32785921017E+02  0.28391625733E+02 -0.16192943777E+01  0.47787272552E+02  0.20000006875E+02 0.  0.
        -12    1    1    2    0    0 -0.32785921017E+02 -0.28391625733E+02  0.16192943777E+01  0.43400727448E+02  0.00000000000E+00 0.  1.
         11    1    3    3    0    0  0.60174292626E+01  0.19977653208E+01  0.19666455554E+01  0.66383895795E+01  0.51100000000E-03 0. -1.
        -11    1    3    3    0    0  0.26885760068E+02  0.18584828764E+02 -0.32508739041E+00  0.32685557004E+02  0.51100000000E-03 0.  1.
        -12    1    3    3    0    0 -0.11726831344E+00  0.78090316484E+01 -0.32608525427E+01  0.84633259685E+01  0.00000000000E+00 0.  1.
</event>
<event>
 7    1  0.4432754E-010  0.4778727E+02  0.7816164E-02  0.1312668E+00
        -11   -1    0    0    0    0  0.00000000000E+00  0.00000000000E+00  0.45593999997E+02  0.45594000000E+02  0.51100000000E-03 0.  1.
         11   -1    0    0    0    0 -0.00000000000E+00 -0.00000000000E+00 -0.45593999997E+02  0.45594000000E+02  0.51100000000E-03 0. -1.
    9900012    2    1    2    0    0  0.29772884095E+02  0.30966988978E+02  0.61841846416E+01  0.47787272203E+02  0.20000005280E+02 0.  0.
        -12    1    1    2    0    0 -0.29772884095E+02 -0.30966988978E+02 -0.61841846416E+01  0.43400727797E+02  0.00000000000E+00 0.  1.
         11    1    3    3    0    0  0.39789163231E+01  0.29291468561E+01 -0.24515278168E+01  0.55155838593E+01  0.51100000000E-03 0. -1.
        -11    1    3    3    0    0  0.92873832425E+01  0.53528548522E+00  0.20957784271E+01  0.95359480662E+01  0.51100000000E-03 0.  1.
         12    1    3    3    0    0  0.16506584529E+02  0.27502556637E+02  0.65399340313E+01  0.32735740277E+02  0.00000000000E+00 0. -1.
</event>
<event>
 7    1  0.4432754E-010  0.4778727E+02  0.7816164E-02  0.1312668E+00
        -11   -1    0    0    0    0  0.00000000000E+00  0.00000000000E+00  0.45593999997E+02  0.45594000000E+02  0.51100000000E-03 0. -1.
         11   -1    0    0    0    0 -0.00000000000E+00 -0.00000000000E+00 -0.45593999997E+02  0.45594000000E+02  0.51100000000E-03 0.  1.
    9900012    2    1    2    0    0 -0.42878987165E+02  0.19534768666E+01  0.64186912199E+01  0.47787271790E+02  0.20000003400E+02 0.  0.
        -12    1    1    2    0    0  0.42878987165E+02 -0.19534768666E+01 -0.64186912199E+01  0.43400728210E+02  0.00000000000E+00 0.  1.
         11    1    3    3    0    0 -0.22053793053E+01 -0.24111084722E+01 -0.27127628349E+01  0.42469076284E+01  0.51100000000E-03 0. -1.
        -11    1    3    3    0    0 -0.41156992729E+01  0.14725319522E+01  0.49920629936E+01  0.66353616367E+01  0.51100000000E-03 0.  1.
         12    1    3    3    0    0 -0.36557908587E+02  0.28920533865E+01  0.41393910612E+01  0.36905002525E+02  0.00000000000E+00 0. -1.
</event>
<event>
 7    1  0.4432754E-010  0.4778726E+02  0.7816164E-02  0.1312668E+00
        -11   -1    0    0    0    0  0.00000000000E+00  0.00000000000E+00  0.45593999997E+02  0.45594000000E+02  0.51100000000E-03 0. -1.
         11   -1    0    0    0    0 -0.00000000000E+00 -0.00000000000E+00 -0.45593999997E+02  0.45594000000E+02  0.51100000000E-03 0.  1.
    9900012    2    1    2    0    0  0.14025792808E+02  0.24650599488E+01  0.40997864517E+02  0.47787259460E+02  0.19999947184E+02 0.  0.
        -12    1    1    2    0    0 -0.14025792808E+02 -0.24650599488E+01 -0.40997864517E+02  0.43400740540E+02  0.00000000000E+00 0.  1.
         11    1    3    3    0    0  0.84374091440E+01 -0.77536977434E+01  0.22011447794E+02  0.24815590583E+02  0.51100000000E-03 0. -1.
        -11    1    3    3    0    0  0.33109426996E+01  0.21327679720E+01  0.95921317710E+01  0.10369186707E+02  0.51100000000E-03 0.  1.
        -12    1    3    3    0    0  0.22774409643E+01  0.80859897202E+01  0.93942849522E+01  0.12602482171E+02  0.00000000000E+00 0.  1.
</event>
<event>
 7    1  0.4432754E-010  0.4778729E+02  0.7816164E-02  0.1312668E+00
        -11   -1    0    0    0    0  0.00000000000E+00  0.00000000000E+00  0.45593999997E+02  0.45594000000E+02  0.51100000000E-03 0.  1.
         11   -1    0    0    0    0 -0.00000000000E+00 -0.00000000000E+00 -0.45593999997E+02  0.45594000000E+02  0.51100000000E-03 0. -1.
    9900012    2    1    2    0    0 -0.38531777405E+02 -0.14348787134E+02 -0.13893742878E+02  0.47787289713E+02  0.20000085120E+02 0.  0.
        -12    1    1    2    0    0  0.38531777405E+02  0.14348787134E+02  0.13893742878E+02  0.43400710287E+02  0.00000000000E+00 0.  1.
         11    1    3    3    0    0  0.10598189563E+00 -0.14654899338E+01  0.18905865545E+01  0.23944123892E+01  0.51100000000E-03 0. -1.
        -11    1    3    3    0    0 -0.84934458188E+01  0.17163396108E+00 -0.79208710553E+01  0.11615002309E+02  0.51100000000E-03 0.  1.
         12    1    3    3    0    0 -0.30144313482E+02 -0.13054931161E+02 -0.78634583768E+01  0.33777875016E+02  0.00000000000E+00 0. -1.
</event>
<event>
 7    1  0.4432754E-010  0.4778727E+02  0.7816164E-02  0.1312668E+00
        -11   -1    0    0    0    0  0.00000000000E+00  0.00000000000E+00  0.45593999997E+02  0.45594000000E+02  0.51100000000E-03 0. -1.
         11   -1    0    0    0    0 -0.00000000000E+00 -0.00000000000E+00 -0.45593999997E+02  0.45594000000E+02  0.51100000000E-03 0.  1.
    9900012    2    1    2    0    0  0.91747100974E+01 -0.33706306376E+02  0.25755250805E+02  0.47787270296E+02  0.19999996586E+02 0.  0.
        -12    1    1    2    0    0 -0.91747100974E+01  0.33706306376E+02 -0.25755250805E+02  0.43400729704E+02  0.00000000000E+00 0.  1.
         11    1    3    3    0    0 -0.12521559357E+01 -0.81706777904E+01  0.13106126185E+02  0.15495109353E+02  0.51100000000E-03 0. -1.
        -11    1    3    3    0    0  0.51437192171E+00 -0.12437023495E+01 -0.18716910995E+01  0.23053420226E+01  0.51100000000E-03 0.  1.
         12    1    3    3    0    0  0.99124941114E+01 -0.24291926236E+02  0.14520815719E+02  0.29986818920E+02  0.00000000000E+00 0. -1.
</event>
<event>
 7    1  0.4432754E-010  0.4778727E+02  0.7816164E-02  0.1312668E+00
        -11   -1    0    0    0    0  0.00000000000E+00  0.00000000000E+00  0.45593999997E+02  0.45594000000E+02  0.51100000000E-03 0.  1.
         11   -1    0    0    0    0 -0.00000000000E+00 -0.00000000000E+00 -0.45593999997E+02  0.45594000000E+02  0.51100000000E-03 0. -1.
    9900012    2    1    2    0    0 -0.18151982520E+02  0.37430325844E+02  0.12373332254E+02  0.47787272895E+02  0.20000008438E+02 0.  0.
        -12    1    1    2    0    0  0.18151982520E+02 -0.37430325844E+02 -0.12373332254E+02  0.43400727105E+02  0.00000000000E+00 0.  1.
         11    1    3    3    0    0 -0.79442717024E+01  0.71204529485E+01  0.91505575408E+01  0.14055070496E+02  0.51100000000E-03 0. -1.
        -11    1    3    3    0    0 -0.57758020132E+01  0.45213502790E+01  0.16505712555E+01  0.75184362052E+01  0.51100000000E-03 0.  1.
         12    1    3    3    0    0 -0.44319088044E+01  0.25788522616E+02  0.15722034579E+01  0.26213766194E+02  0.00000000000E+00 0. -1.
</event>
<event>
 7    1  0.4432754E-010  0.4778727E+02  0.7816164E-02  0.1312668E+00
        -11   -1    0    0    0    0  0.00000000000E+00  0.00000000000E+00  0.45593999997E+02  0.45594000000E+02  0.51100000000E-03 0.  1.
         11   -1    0    0    0    0 -0.00000000000E+00 -0.00000000000E+00 -0.45593999997E+02  0.45594000000E+02  0.51100000000E-03 0. -1.
    9900012    2    1    2    0    0  0.27481359569E+02 -0.78339588657E+01 -0.32665387560E+02  0.47787267521E+02  0.19999983936E+02 0.  0.
        -12    1    1    2    0    0 -0.27481359569E+02  0.78339588657E+01  0.32665387560E+02  0.43400732479E+02  0.00000000000E+00 0.  1.
         11    1    3    3    0    0  0.21920514752E+02  0.32652653878E+00 -0.20014378375E+02  0.29684860259E+02  0.51100000000E-03 0. -1.
        -11    1    3    3    0    0  0.43429434095E+01 -0.30210499292E+01 -0.11554466746E+02  0.12708013306E+02  0.51100000000E-03 0.  1.
        -12    1    3    3    0    0  0.12179014073E+01 -0.51394354752E+01 -0.10965424391E+01  0.53943939569E+01  0.00000000000E+00 0.  1.
</event>
<event>
 7    1  0.4432754E-010  0.4778727E+02  0.7816164E-02  0.1312668E+00
        -11   -1    0    0    0    0  0.00000000000E+00  0.00000000000E+00  0.45593999997E+02  0.45594000000E+02  0.51100000000E-03 0.  1.
         11   -1    0    0    0    0 -0.00000000000E+00 -0.00000000000E+00 -0.45593999997E+02  0.45594000000E+02  0.51100000000E-03 0. -1.
    9900012    2    1    2    0    0  0.16999527146E+02  0.33295563966E+02 -0.22046417548E+02  0.47787273857E+02  0.20000012825E+02 0.  0.
        -12    1    1    2    0    0 -0.16999527146E+02 -0.33295563966E+02  0.22046417548E+02  0.43400726143E+02  0.00000000000E+00 0.  1.
         11    1    3    3    0    0  0.44765336712E+01  0.12760037751E+02 -0.97088789371E+01  0.16646929074E+02  0.51100000000E-03 0. -1.
        -11    1    3    3    0    0  0.54316543596E+01  0.18010594068E+02 -0.13977676161E+02  0.23436292345E+02  0.51100000000E-03 0.  1.
        -12    1    3    3    0    0  0.70913391151E+01  0.25249321465E+01  0.16401375491E+01  0.77040524381E+01  0.00000000000E+00 0.  1.
</event>
<event>
 7    1  0.4432754E-010  0.4778727E+02  0.7816164E-02  0.1312668E+00
        -11   -1    0    0    0    0  0.00000000000E+00  0.00000000000E+00  0.45593999997E+02  0.45594000000E+02  0.51100000000E-03 0.  1.
         11   -1    0    0    0    0 -0.00000000000E+00 -0.00000000000E+00 -0.45593999997E+02  0.45594000000E+02  0.51100000000E-03 0. -1.
    9900012    2    1    2    0    0 -0.13267099499E+02  0.24268010427E+02 -0.33446538897E+02  0.47787271626E+02  0.20000002654E+02 0.  0.
        -12    1    1    2    0    0  0.13267099499E+02 -0.24268010427E+02  0.33446538897E+02  0.43400728374E+02  0.00000000000E+00 0.  1.
         11    1    3    3    0    0 -0.66893688971E+01  0.75942433842E+01 -0.91867591722E+01  0.13668091790E+02  0.51100000000E-03 0. -1.
        -11    1    3    3    0    0 -0.97077725091E+01  0.59977175885E+01 -0.64158759860E+01  0.13091101111E+02  0.51100000000E-03 0.  1.
         12    1    3    3    0    0  0.31300419073E+01  0.10676049454E+02 -0.17843903739E+02  0.21028078726E+02  0.00000000000E+00 0. -1.
</event>
<event>
 7    1  0.4432754E-010  0.4778727E+02  0.7816164E-02  0.1312668E+00
        -11   -1    0    0    0    0  0.00000000000E+00  0.00000000000E+00  0.45593999997E+02  0.45594000000E+02  0.51100000000E-03 0. -1.
         11   -1    0    0    0    0 -0.00000000000E+00 -0.00000000000E+00 -0.45593999997E+02  0.45594000000E+02  0.51100000000E-03 0.  1.
    9900012    2    1    2    0    0 -0.41352655269E+02 -0.22139110233E+01  0.12987697294E+02  0.47787265204E+02  0.19999973372E+02 0.  0.
        -12    1    1    2    0    0  0.41352655269E+02  0.22139110233E+01 -0.12987697294E+02  0.43400734796E+02  0.00000000000E+00 0.  1.
         11    1    3    3    0    0 -0.13236130942E+02  0.52456398154E+00  0.63344194347E+01  0.14683160406E+02  0.51100000000E-03 0. -1.
        -11    1    3    3    0    0 -0.29542716519E+02 -0.32964390261E+00  0.53870188784E+01  0.30031662243E+02  0.51100000000E-03 0.  1.
        -12    1    3    3    0    0  0.14261921918E+01 -0.24088311023E+01  0.12662589814E+01  0.30724425552E+01  0.00000000000E+00 0.  1.
</event>
<event>
 7    1  0.4432754E-010  0.4778727E+02  0.7816164E-02  0.1312668E+00
        -11   -1    0    0    0    0  0.00000000000E+00  0.00000000000E+00  0.45593999997E+02  0.45594000000E+02  0.51100000000E-03 0.  1.
         11   -1    0    0    0    0 -0.00000000000E+00 -0.00000000000E+00 -0.45593999997E+02  0.45594000000E+02  0.51100000000E-03 0. -1.
    9900012    2    1    2    0    0 -0.43967645999E+01  0.37573389096E+02 -0.21272813855E+02  0.47787265946E+02  0.19999976755E+02 0.  0.
        -12    1    1    2    0    0  0.43967645999E+01 -0.37573389096E+02  0.21272813855E+02  0.43400734054E+02  0.00000000000E+00 0.  1.
         11    1    3    3    0    0 -0.17757607248E+01  0.13614660142E+02 -0.43238245036E+01  0.14394712763E+02  0.51100000000E-03 0. -1.
        -11    1    3    3    0    0  0.14143492224E+01  0.21013978709E+02 -0.68873887287E+01  0.22159057035E+02  0.51100000000E-03 0.  1.
        -12    1    3    3    0    0 -0.40353530975E+01  0.29447502450E+01 -0.10061600622E+02  0.11233496148E+02  0.00000000000E+00 0.  1.
</event>
<event>
 7    1  0.4432754E-010  0.4778727E+02  0.7816164E-02  0.1312668E+00
        -11   -1    0    0    0    0  0.00000000000E+00  0.00000000000E+00  0.45593999997E+02  0.45594000000E+02  0.51100000000E-03 0.  1.
         11   -1    0    0    0    0 -0.00000000000E+00 -0.00000000000E+00 -0.45593999997E+02  0.45594000000E+02  0.51100000000E-03 0. -1.
    9900012    2    1    2    0    0 -0.21802192508E+02 -0.30663469308E+02 -0.21634208823E+02  0.47787274896E+02  0.20000017560E+02 0.  0.
        -12    1    1    2    0    0  0.21802192508E+02  0.30663469308E+02  0.21634208823E+02  0.43400725104E+02  0.00000000000E+00 0.  1.
         11    1    3    3    0    0 -0.96121901940E+01 -0.17003721635E+02 -0.18028346759E+02  0.26580858468E+02  0.51100000000E-03 0.  1.
        -11    1    3    3    0    0 -0.15114725923E+01 -0.33155497644E+01 -0.50960200207E+01  0.62647298385E+01  0.51100000000E-03 0. -1.
        -12    1    3    3    0    0 -0.10678529721E+02 -0.10344197909E+02  0.14901579570E+01  0.14941686589E+02  0.00000000000E+00 0.  1.
</event>
<event>
 7    1  0.4432754E-010  0.4778727E+02  0.7816164E-02  0.1312668E+00
        -11   -1    0    0    0    0  0.00000000000E+00  0.00000000000E+00  0.45593999997E+02  0.45594000000E+02  0.51100000000E-03 0.  1.
         11   -1    0    0    0    0 -0.00000000000E+00 -0.00000000000E+00 -0.45593999997E+02  0.45594000000E+02  0.51100000000E-03 0. -1.
    9900012    2    1    2    0    0  0.68462264249E+01  0.39331824677E+02 -0.17022338392E+02  0.47787271285E+02  0.20000001096E+02 0.  0.
        -12    1    1    2    0    0 -0.68462264249E+01 -0.39331824677E+02  0.17022338392E+02  0.43400728715E+02  0.00000000000E+00 0.  1.
         11    1    3    3    0    0  0.61182651548E+01  0.17317626586E+02 -0.98482326446E+01  0.20840370571E+02  0.51100000000E-03 0. -1.
        -11    1    3    3    0    0  0.71347558817E+01  0.10674825729E+02 -0.48035138836E+01  0.13708770613E+02  0.51100000000E-03 0.  1.
         12    1    3    3    0    0 -0.64067946116E+01  0.11339372362E+02 -0.23705918635E+01  0.13238130100E+02  0.00000000000E+00 0. -1.
</event>
<event>
 7    1  0.4432754E-010  0.4778727E+02  0.7816164E-02  0.1312668E+00
        -11   -1    0    0    0    0  0.00000000000E+00  0.00000000000E+00  0.45593999997E+02  0.45594000000E+02  0.51100000000E-03 0.  1.
         11   -1    0    0    0    0 -0.00000000000E+00 -0.00000000000E+00 -0.45593999997E+02  0.45594000000E+02  0.51100000000E-03 0. -1.
    9900012    2    1    2    0    0  0.23953745685E+02  0.63161582446E+00 -0.36186218465E+02  0.47787271001E+02  0.19999999800E+02 0.  0.
        -12    1    1    2    0    0 -0.23953745685E+02 -0.63161582446E+00  0.36186218465E+02  0.43400728999E+02  0.00000000000E+00 0.  1.
         11    1    3    3    0    0  0.57617746637E+01 -0.57925084351E+01 -0.16402238933E+02  0.18324427509E+02  0.51100000000E-03 0. -1.
        -11    1    3    3    0    0 -0.21711377553E+00  0.25147779751E+01 -0.47365962200E+01  0.53671771601E+01  0.51100000000E-03 0.  1.
         12    1    3    3    0    0  0.18409084797E+02  0.39093462845E+01 -0.15047383312E+02  0.24095666332E+02  0.00000000000E+00 0. -1.
</event>
<event>
 7    1  0.4432754E-010  0.4778727E+02  0.7816164E-02  0.1312668E+00
        -11   -1    0    0    0    0  0.00000000000E+00  0.00000000000E+00  0.45593999997E+02  0.45594000000E+02  0.51100000000E-03 0.  1.
         11   -1    0    0    0    0 -0.00000000000E+00 -0.00000000000E+00 -0.45593999997E+02  0.45594000000E+02  0.51100000000E-03 0. -1.
    9900012    2    1    2    0    0  0.18240724723E+02  0.29409004155E+02 -0.26191790251E+02  0.47787269126E+02  0.19999991255E+02 0.  0.
        -12    1    1    2    0    0 -0.18240724723E+02 -0.29409004155E+02  0.26191790251E+02  0.43400730874E+02  0.00000000000E+00 0.  1.
         11    1    3    3    0    0  0.39113171352E+01  0.21076185352E+02 -0.16314556388E+02  0.26938239384E+02  0.51100000000E-03 0. -1.
        -11    1    3    3    0    0  0.39663848815E+01 -0.36561144688E+00 -0.51641826767E+01  0.65218604506E+01  0.51100000000E-03 0.  1.
         12    1    3    3    0    0  0.10363022706E+02  0.86984302496E+01 -0.47130511867E+01  0.14327169292E+02  0.00000000000E+00 0. -1.
</event>
<event>
 7    1  0.4432754E-010  0.4778727E+02  0.7816164E-02  0.1312668E+00
        -11   -1    0    0    0    0  0.00000000000E+00  0.00000000000E+00  0.45593999997E+02  0.45594000000E+02  0.51100000000E-03 0. -1.
         11   -1    0    0    0    0 -0.00000000000E+00 -0.00000000000E+00 -0.45593999997E+02  0.45594000000E+02  0.51100000000E-03 0.  1.
    9900012    2    1    2    0    0  0.26098135371E+02 -0.83132803180E+01  0.33666010768E+02  0.47787267511E+02  0.19999983891E+02 0.  0.
        -12    1    1    2    0    0 -0.26098135371E+02  0.83132803180E+01 -0.33666010768E+02  0.43400732489E+02  0.00000000000E+00 0.  1.
         11    1    3    3    0    0  0.31838083163E+01  0.57547557855E+01  0.72482743523E+01  0.97873045775E+01  0.51100000000E-03 0.  1.
        -11    1    3    3    0    0  0.77006929749E+01 -0.72468333905E+01  0.11569582211E+02  0.15673943322E+02  0.51100000000E-03 0. -1.
        -12    1    3    3    0    0  0.15213634080E+02 -0.68212027131E+01  0.14848154206E+02  0.22326019611E+02  0.00000000000E+00 0.  1.
</event>
<event>
 7    1  0.4432754E-010  0.4778723E+02  0.7816164E-02  0.1312668E+00
        -11   -1    0    0    0    0  0.00000000000E+00  0.00000000000E+00  0.45593999997E+02  0.45594000000E+02  0.51100000000E-03 0.  1.
         11   -1    0    0    0    0 -0.00000000000E+00 -0.00000000000E+00 -0.45593999997E+02  0.45594000000E+02  0.51100000000E-03 0. -1.
    9900012    2    1    2    0    0  0.41539128081E+02 -0.10142264126E+02 -0.74338481411E+01  0.47787230635E+02  0.19999815756E+02 0.  0.
        -12    1    1    2    0    0 -0.41539128081E+02  0.10142264126E+02  0.74338481411E+01  0.43400769365E+02  0.00000000000E+00 0.  1.
         11    1    3    3    0    0  0.78090596021E+01 -0.32269145472E+01 -0.32255596378E+01  0.90442592069E+01  0.51100000000E-03 0. -1.
        -11    1    3    3    0    0  0.41900480615E+01 -0.39255981833E+01 -0.68461014226E+01  0.89350953439E+01  0.51100000000E-03 0.  1.
         12    1    3    3    0    0  0.29540020417E+02 -0.29897513957E+01  0.26378129193E+01  0.29807876084E+02  0.00000000000E+00 0. -1.
</event>
<event>
 7    1  0.4432754E-010  0.4778727E+02  0.7816164E-02  0.1312668E+00
        -11   -1    0    0    0    0  0.00000000000E+00  0.00000000000E+00  0.45593999997E+02  0.45594000000E+02  0.51100000000E-03 0.  1.
         11   -1    0    0    0    0 -0.00000000000E+00 -0.00000000000E+00 -0.45593999997E+02  0.45594000000E+02  0.51100000000E-03 0. -1.
    9900012    2    1    2    0    0 -0.27291602553E+02  0.14560002650E+02 -0.30443361405E+02  0.47787268432E+02  0.19999988087E+02 0.  0.
        -12    1    1    2    0    0  0.27291602553E+02 -0.14560002650E+02  0.30443361405E+02  0.43400731568E+02  0.00000000000E+00 0.  1.
         11    1    3    3    0    0 -0.20050483914E+02  0.65899652391E+01 -0.29597311902E+02  0.36351759505E+02  0.51100000000E-03 0. -1.
        -11    1    3    3    0    0 -0.32129391011E+01  0.10329151153E+01 -0.62199666071E-01  0.33754644662E+01  0.51100000000E-03 0.  1.
        -12    1    3    3    0    0 -0.40281795377E+01  0.69371222958E+01 -0.78384983642E+00  0.80600444602E+01  0.00000000000E+00 0.  1.
</event>
<event>
 7    1  0.4432754E-010  0.4778728E+02  0.7816164E-02  0.1312668E+00
        -11   -1    0    0    0    0  0.00000000000E+00  0.00000000000E+00  0.45593999997E+02  0.45594000000E+02  0.51100000000E-03 0.  1.
         11   -1    0    0    0    0 -0.00000000000E+00 -0.00000000000E+00 -0.45593999997E+02  0.45594000000E+02  0.51100000000E-03 0. -1.
    9900012    2    1    2    0    0 -0.10631056656E+02  0.38356564043E+02 -0.17302509857E+02  0.47787283207E+02  0.20000055455E+02 0.  0.
        -12    1    1    2    0    0  0.10631056656E+02 -0.38356564043E+02  0.17302509857E+02  0.43400716793E+02  0.00000000000E+00 0.  1.
         11    1    3    3    0    0  0.14651171787E+01  0.34538798829E+01  0.14017494883E+01  0.40050913200E+01  0.51100000000E-03 0.  1.
        -11    1    3    3    0    0 -0.28529743507E+01  0.26996371204E+02 -0.15254594064E+02  0.31139141946E+02  0.51100000000E-03 0. -1.
         12    1    3    3    0    0 -0.92431994838E+01  0.79063129555E+01 -0.34496652814E+01  0.12643049941E+02  0.00000000000E+00 0. -1.
</event>
<event>
 7    1  0.4432754E-010  0.4778728E+02  0.7816164E-02  0.1312668E+00
        -11   -1    0    0    0    0  0.00000000000E+00  0.00000000000E+00  0.45593999997E+02  0.45594000000E+02  0.51100000000E-03 0.  1.
         11   -1    0    0    0    0 -0.00000000000E+00 -0.00000000000E+00 -0.45593999997E+02  0.45594000000E+02  0.51100000000E-03 0. -1.
    9900012    2    1    2    0    0 -0.35925651030E+02  0.41650753120E+01 -0.23992126042E+02  0.47787281500E+02  0.20000047671E+02 0.  0.
        -12    1    1    2    0    0  0.35925651030E+02 -0.41650753120E+01  0.23992126042E+02  0.43400718500E+02  0.00000000000E+00 0.  1.
         11    1    3    3    0    0 -0.34368384148E+01 -0.31128662799E+01 -0.36060820661E+00  0.46510034730E+01  0.51100000000E-03 0. -1.
        -11    1    3    3    0    0 -0.16959181603E+02 -0.44246209780E+00 -0.50092981494E+01  0.17689055417E+02  0.51100000000E-03 0.  1.
         12    1    3    3    0    0 -0.15529631013E+02  0.77204036897E+01 -0.18622219686E+02  0.25447222610E+02  0.00000000000E+00 0. -1.
</event>
<event>
 7    1  0.4432754E-010  0.4778727E+02  0.7816164E-02  0.1312668E+00
        -11   -1    0    0    0    0  0.00000000000E+00  0.00000000000E+00  0.45593999997E+02  0.45594000000E+02  0.51100000000E-03 0. -1.
         11   -1    0    0    0    0 -0.00000000000E+00 -0.00000000000E+00 -0.45593999997E+02  0.45594000000E+02  0.51100000000E-03 0.  1.
    9900012    2    1    2    0    0  0.43157930732E+01 -0.20082180639E+02  0.38232232280E+02  0.47787266894E+02  0.19999981075E+02 0.  0.
        -12    1    1    2    0    0 -0.43157930732E+01  0.20082180639E+02 -0.38232232280E+02  0.43400733106E+02  0.00000000000E+00 0.  1.
         11    1    3    3    0    0 -0.66032522001E+01 -0.20821824708E+01  0.14364590368E+02  0.15946155654E+02  0.51100000000E-03 0.  1.
        -11    1    3    3    0    0  0.68512784479E+01 -0.10802696729E+02  0.15108508526E+02  0.19796598272E+02  0.51100000000E-03 0. -1.
        -12    1    3    3    0    0  0.40677668253E+01 -0.71973014384E+01  0.87591333864E+01  0.12044512967E+02  0.00000000000E+00 0.  1.
</event>
<event>
 7    1  0.4432754E-010  0.4778727E+02  0.7816164E-02  0.1312668E+00
        -11   -1    0    0    0    0  0.00000000000E+00  0.00000000000E+00  0.45593999997E+02  0.45594000000E+02  0.51100000000E-03 0. -1.
         11   -1    0    0    0    0 -0.00000000000E+00 -0.00000000000E+00 -0.45593999997E+02  0.45594000000E+02  0.51100000000E-03 0.  1.
    9900012    2    1    2    0    0 -0.88565161566E+01  0.73395953580E+01  0.41848722582E+02  0.47787272815E+02  0.20000008072E+02 0.  0.
        -12    1    1    2    0    0  0.88565161566E+01 -0.73395953580E+01 -0.41848722582E+02  0.43400727185E+02  0.00000000000E+00 0.  1.
         11    1    3    3    0    0 -0.31711855284E+01  0.32927047517E+01  0.27731453050E+01  0.53468362029E+01  0.51100000000E-03 0. -1.
        -11    1    3    3    0    0 -0.61072962642E+01  0.90014070076E+01  0.20456165912E+02  0.23168494121E+02  0.51100000000E-03 0.  1.
        -12    1    3    3    0    0  0.42196563599E+00 -0.49545164012E+01  0.18619411366E+02  0.19271942491E+02  0.00000000000E+00 0.  1.
</event>
<event>
 7    1  0.4432754E-010  0.4778727E+02  0.7816164E-02  0.1312668E+00
        -11   -1    0    0    0    0  0.00000000000E+00  0.00000000000E+00  0.45593999997E+02  0.45594000000E+02  0.51100000000E-03 0. -1.
         11   -1    0    0    0    0 -0.00000000000E+00 -0.00000000000E+00 -0.45593999997E+02  0.45594000000E+02  0.51100000000E-03 0.  1.
    9900012    2    1    2    0    0  0.40540426664E+02  0.15230141712E+02  0.28530401920E+01  0.47787271331E+02  0.20000001308E+02 0.  0.
        -12    1    1    2    0    0 -0.40540426664E+02 -0.15230141712E+02 -0.28530401920E+01  0.43400728669E+02  0.00000000000E+00 0.  1.
         11    1    3    3    0    0  0.26637516265E+02  0.72153783589E+01  0.40546482428E+01  0.27893711304E+02  0.51100000000E-03 0. -1.
        -11    1    3    3    0    0  0.13045106117E+02  0.10131117372E+02  0.12236982714E+01  0.16562360053E+02  0.51100000000E-03 0.  1.
        -12    1    3    3    0    0  0.85780428143E+00 -0.21163540185E+01 -0.24253063222E+01  0.33311999749E+01  0.00000000000E+00 0.  1.
</event>
<event>
 7    1  0.4432754E-010  0.4778727E+02  0.7816164E-02  0.1312668E+00
        -11   -1    0    0    0    0  0.00000000000E+00  0.00000000000E+00  0.45593999997E+02  0.45594000000E+02  0.51100000000E-03 0.  1.
         11   -1    0    0    0    0 -0.00000000000E+00 -0.00000000000E+00 -0.45593999997E+02  0.45594000000E+02  0.51100000000E-03 0. -1.
    9900012    2    1    2    0    0 -0.23191592818E+02 -0.20640976148E+02 -0.30326938056E+02  0.47787273674E+02  0.20000011989E+02 0.  0.
        -12    1    1    2    0    0  0.23191592818E+02  0.20640976148E+02  0.30326938056E+02  0.43400726326E+02  0.00000000000E+00 0.  1.
         11    1    3    3    0    0 -0.25845196475E+02 -0.13930973832E+02 -0.25402982604E+02  0.38824705256E+02  0.51100000000E-03 0. -1.
        -11    1    3    3    0    0  0.85878024007E+00 -0.43698974642E+00 -0.59865480028E+00  0.11343947154E+01  0.51100000000E-03 0.  1.
         12    1    3    3    0    0  0.17948234167E+01 -0.62730125699E+01 -0.43253006512E+01  0.78281737029E+01  0.00000000000E+00 0. -1.
</event>
<event>
 7    1  0.4432754E-010  0.4778727E+02  0.7816164E-02  0.1312668E+00
        -11   -1    0    0    0    0  0.00000000000E+00  0.00000000000E+00  0.45593999997E+02  0.45594000000E+02  0.51100000000E-03 0.  1.
         11   -1    0    0    0    0 -0.00000000000E+00 -0.00000000000E+00 -0.45593999997E+02  0.45594000000E+02  0.51100000000E-03 0. -1.
    9900012    2    1    2    0    0 -0.90193644731E+00  0.93398103596E+01 -0.42374258258E+02  0.47787270630E+02  0.19999998112E+02 0.  0.
        -12    1    1    2    0    0  0.90193644731E+00 -0.93398103596E+01  0.42374258258E+02  0.43400729370E+02  0.00000000000E+00 0.  1.
         11    1    3    3    0    0 -0.29292185844E+01  0.23427382823E+01 -0.24977121494E+02  0.25257183979E+02  0.51100000000E-03 0. -1.
        -11    1    3    3    0    0 -0.52234674274E+01  0.26778854069E+01 -0.68097819628E+01  0.89904845731E+01  0.51100000000E-03 0.  1.
         12    1    3    3    0    0  0.72507495645E+01  0.43191866705E+01 -0.10587354802E+02  0.13539602078E+02  0.00000000000E+00 0. -1.
</event>
<event>
 7    1  0.4432754E-010  0.4778727E+02  0.7816164E-02  0.1312668E+00
        -11   -1    0    0    0    0  0.00000000000E+00  0.00000000000E+00  0.45593999997E+02  0.45594000000E+02  0.51100000000E-03 0. -1.
         11   -1    0    0    0    0 -0.00000000000E+00 -0.00000000000E+00 -0.45593999997E+02  0.45594000000E+02  0.51100000000E-03 0.  1.
    9900012    2    1    2    0    0  0.29494692955E+02 -0.30810026546E+02  0.80267603765E+01  0.47787268089E+02  0.19999986525E+02 0.  0.
        -12    1    1    2    0    0 -0.29494692955E+02  0.30810026546E+02 -0.80267603765E+01  0.43400731911E+02  0.00000000000E+00 0.  1.
         11    1    3    3    0    0  0.51833161584E+01 -0.15977944931E+01  0.24836107475E+01  0.59655709070E+01  0.51100000000E-03 0.  1.
        -11    1    3    3    0    0  0.13512109009E+02 -0.10219532491E+02  0.97866664473E+01  0.19565141825E+02  0.51100000000E-03 0. -1.
        -12    1    3    3    0    0  0.10799267787E+02 -0.18992699562E+02 -0.42435168183E+01  0.22256555357E+02  0.00000000000E+00 0.  1.
</event>
<event>
 7    1  0.4432754E-010  0.4778727E+02  0.7816164E-02  0.1312668E+00
        -11   -1    0    0    0    0  0.00000000000E+00  0.00000000000E+00  0.45593999997E+02  0.45594000000E+02  0.51100000000E-03 0.  1.
         11   -1    0    0    0    0 -0.00000000000E+00 -0.00000000000E+00 -0.45593999997E+02  0.45594000000E+02  0.51100000000E-03 0. -1.
    9900012    2    1    2    0    0 -0.17701942552E+02  0.38138212461E+02  0.10758320533E+02  0.47787268663E+02  0.19999989144E+02 0.  0.
        -12    1    1    2    0    0  0.17701942552E+02 -0.38138212461E+02 -0.10758320533E+02  0.43400731337E+02  0.00000000000E+00 0.  1.
         11    1    3    3    0    0 -0.98893471941E+01  0.12173336738E+02  0.25032644550E+01  0.15882557995E+02  0.51100000000E-03 0. -1.
        -11    1    3    3    0    0 -0.59683993419E+01  0.13643312700E+01  0.21720766233E+01  0.64962379604E+01  0.51100000000E-03 0.  1.
        -12    1    3    3    0    0 -0.18441960164E+01  0.24600544453E+02  0.60829794552E+01  0.25408472708E+02  0.00000000000E+00 0.  1.
</event>
<event>
 7    1  0.4432754E-010  0.4778726E+02  0.7816164E-02  0.1312668E+00
        -11   -1    0    0    0    0  0.00000000000E+00  0.00000000000E+00  0.45593999997E+02  0.45594000000E+02  0.51100000000E-03 0.  1.
         11   -1    0    0    0    0 -0.00000000000E+00 -0.00000000000E+00 -0.45593999997E+02  0.45594000000E+02  0.51100000000E-03 0. -1.
    9900012    2    1    2    0    0  0.12720707092E+01  0.70803031792E+01 -0.42800414618E+02  0.47787258664E+02  0.19999943553E+02 0.  0.
        -12    1    1    2    0    0 -0.12720707092E+01 -0.70803031792E+01  0.42800414618E+02  0.43400741336E+02  0.00000000000E+00 0.  1.
         11    1    3    3    0    0 -0.44269507277E+01  0.10427109409E+02 -0.28824575957E+02  0.30970609983E+02  0.51100000000E-03 0.  1.
        -11    1    3    3    0    0  0.15070555980E+01  0.10613667249E+01 -0.82815657408E+01  0.84842234341E+01  0.51100000000E-03 0. -1.
        -12    1    3    3    0    0  0.41919658389E+01 -0.44081729550E+01 -0.56942729205E+01  0.83324252465E+01  0.00000000000E+00 0.  1.
</event>
<event>
 7    1  0.4432754E-010  0.4778727E+02  0.7816164E-02  0.1312668E+00
        -11   -1    0    0    0    0  0.00000000000E+00  0.00000000000E+00  0.45593999997E+02  0.45594000000E+02  0.51100000000E-03 0.  1.
         11   -1    0    0    0    0 -0.00000000000E+00 -0.00000000000E+00 -0.45593999997E+02  0.45594000000E+02  0.51100000000E-03 0. -1.
    9900012    2    1    2    0    0  0.96216037834E+01 -0.25184039281E+02 -0.34011949238E+02  0.47787265158E+02  0.19999973161E+02 0.  0.
        -12    1    1    2    0    0 -0.96216037834E+01  0.25184039281E+02  0.34011949238E+02  0.43400734842E+02  0.00000000000E+00 0.  1.
         11    1    3    3    0    0  0.29973297465E+01 -0.20150054361E+02 -0.28787360262E+02  0.35266425782E+02  0.51100000000E-03 0. -1.
        -11    1    3    3    0    0  0.54944531683E+01 -0.61418466347E+01 -0.64941360126E+01  0.10492144610E+02  0.51100000000E-03 0.  1.
        -12    1    3    3    0    0  0.11298208686E+01  0.11078617145E+01  0.12695470368E+01  0.20286947657E+01  0.00000000000E+00 0.  1.
</event>
<event>
 7    1  0.4432754E-010  0.4778728E+02  0.7816164E-02  0.1312668E+00
        -11   -1    0    0    0    0  0.00000000000E+00  0.00000000000E+00  0.45593999997E+02  0.45594000000E+02  0.51100000000E-03 0.  1.
         11   -1    0    0    0    0 -0.00000000000E+00 -0.00000000000E+00 -0.45593999997E+02  0.45594000000E+02  0.51100000000E-03 0. -1.
    9900012    2    1    2    0    0 -0.19147046947E+02  0.31289685525E+02 -0.23194154559E+02  0.47787278431E+02  0.20000033677E+02 0.  0.
        -12    1    1    2    0    0  0.19147046947E+02 -0.31289685525E+02  0.23194154559E+02  0.43400721569E+02  0.00000000000E+00 0.  1.
         11    1    3    3    0    0 -0.80356941751E+01  0.68877566567E+01 -0.86253444087E+01  0.13653209845E+02  0.51100000000E-03 0. -1.
        -11    1    3    3    0    0 -0.14069912738E+02  0.14748054917E+02 -0.71353186103E+01  0.21595840808E+02  0.51100000000E-03 0.  1.
        -12    1    3    3    0    0  0.29585599657E+01  0.96538739511E+01 -0.74334915397E+01  0.12538227778E+02  0.00000000000E+00 0.  1.
</event>
<event>
 7    1  0.4432754E-010  0.4778727E+02  0.7816164E-02  0.1312668E+00
        -11   -1    0    0    0    0  0.00000000000E+00  0.00000000000E+00  0.45593999997E+02  0.45594000000E+02  0.51100000000E-03 0.  1.
         11   -1    0    0    0    0 -0.00000000000E+00 -0.00000000000E+00 -0.45593999997E+02  0.45594000000E+02  0.51100000000E-03 0. -1.
    9900012    2    1    2    0    0  0.39439064761E+02 -0.29836803301E+00 -0.18113384159E+02  0.47787267997E+02  0.19999986108E+02 0.  0.
        -12    1    1    2    0    0 -0.39439064761E+02  0.29836803301E+00  0.18113384159E+02  0.43400732003E+02  0.00000000000E+00 0.  1.
         11    1    3    3    0    0  0.44506521124E+01  0.32725124185E+01 -0.46056829080E+01  0.71923540698E+01  0.51100000000E-03 0. -1.
        -11    1    3    3    0    0  0.18004354912E+02  0.57503743607E+01 -0.62672819821E+01  0.19912368638E+02  0.51100000000E-03 0.  1.
         12    1    3    3    0    0  0.16984057736E+02 -0.93212548122E+01 -0.72404192688E+01  0.20682545290E+02  0.00000000000E+00 0. -1.
</event>
<event>
 7    1  0.4432754E-010  0.4778727E+02  0.7816164E-02  0.1312668E+00
        -11   -1    0    0    0    0  0.00000000000E+00  0.00000000000E+00  0.45593999997E+02  0.45594000000E+02  0.51100000000E-03 0. -1.
         11   -1    0    0    0    0 -0.00000000000E+00 -0.00000000000E+00 -0.45593999997E+02  0.45594000000E+02  0.51100000000E-03 0.  1.
    9900012    2    1    2    0    0 -0.16702047320E+02 -0.38980948765E+02  0.92277310298E+01  0.47787265314E+02  0.19999973874E+02 0.  0.
        -12    1    1    2    0    0  0.16702047320E+02  0.38980948765E+02 -0.92277310298E+01  0.43400734686E+02  0.00000000000E+00 0.  1.
         11    1    3    3    0    0 -0.11282434250E+01 -0.59668276266E+01  0.33257239682E+01  0.69236121588E+01  0.51100000000E-03 0. -1.
        -11    1    3    3    0    0 -0.19313208171E+02 -0.29752402796E+02  0.50459668829E+01  0.35828302556E+02  0.51100000000E-03 0.  1.
        -12    1    3    3    0    0  0.37394042752E+01 -0.32617183423E+01  0.85604017869E+00  0.50353506001E+01  0.00000000000E+00 0.  1.
</event>
<event>
 7    1  0.4432754E-010  0.4778727E+02  0.7816164E-02  0.1312668E+00
        -11   -1    0    0    0    0  0.00000000000E+00  0.00000000000E+00  0.45593999997E+02  0.45594000000E+02  0.51100000000E-03 0. -1.
         11   -1    0    0    0    0 -0.00000000000E+00 -0.00000000000E+00 -0.45593999997E+02  0.45594000000E+02  0.51100000000E-03 0.  1.
    9900012    2    1    2    0    0 -0.29904569945E+02  0.85855603167E+00  0.31442054318E+02  0.47787271875E+02  0.20000003786E+02 0.  0.
        -12    1    1    2    0    0  0.29904569945E+02 -0.85855603167E+00 -0.31442054318E+02  0.43400728125E+02  0.00000000000E+00 0.  1.
         11    1    3    3    0    0 -0.91962927707E+01 -0.46454894853E+01  0.34332259795E+01  0.10859991444E+02  0.51100000000E-03 0. -1.
        -11    1    3    3    0    0 -0.77517731067E+01  0.51133606323E+01  0.50722599692E+01  0.10581316776E+02  0.51100000000E-03 0.  1.
        -12    1    3    3    0    0 -0.12956504067E+02  0.39068488469E+00  0.22936568370E+02  0.26345963655E+02  0.00000000000E+00 0.  1.
</event>
<event>
 7    1  0.4432754E-010  0.4778725E+02  0.7816164E-02  0.1312668E+00
        -11   -1    0    0    0    0  0.00000000000E+00  0.00000000000E+00  0.45593999997E+02  0.45594000000E+02  0.51100000000E-03 0.  1.
         11   -1    0    0    0    0 -0.00000000000E+00 -0.00000000000E+00 -0.45593999997E+02  0.45594000000E+02  0.51100000000E-03 0. -1.
    9900012    2    1    2    0    0  0.17605202685E+02  0.10915334057E+02 -0.38138392678E+02  0.47787254900E+02  0.19999926393E+02 0.  0.
        -12    1    1    2    0    0 -0.17605202685E+02 -0.10915334057E+02  0.38138392678E+02  0.43400745100E+02  0.00000000000E+00 0.  1.
         11    1    3    3    0    0  0.63812815146E+01  0.11800767133E+02 -0.29284570825E+02  0.32211254980E+02  0.51100000000E-03 0. -1.
        -11    1    3    3    0    0  0.15105739754E+01  0.12457761652E+01  0.39269703973E+00  0.19969985516E+01  0.51100000000E-03 0.  1.
         12    1    3    3    0    0  0.97133471948E+01 -0.21312092409E+01 -0.92465188926E+01  0.13579001369E+02  0.00000000000E+00 0. -1.
</event>
<event>
 7    1  0.4432754E-010  0.4778727E+02  0.7816164E-02  0.1312668E+00
        -11   -1    0    0    0    0  0.00000000000E+00  0.00000000000E+00  0.45593999997E+02  0.45594000000E+02  0.51100000000E-03 0. -1.
         11   -1    0    0    0    0 -0.00000000000E+00 -0.00000000000E+00 -0.45593999997E+02  0.45594000000E+02  0.51100000000E-03 0.  1.
    9900012    2    1    2    0    0  0.33387163678E+02 -0.61997024803E+01  0.27027472505E+02  0.47787270982E+02  0.19999999715E+02 0.  0.
        -12    1    1    2    0    0 -0.33387163678E+02  0.61997024803E+01 -0.27027472505E+02  0.43400729018E+02  0.00000000000E+00 0.  1.
         11    1    3    3    0    0  0.15947596648E+02 -0.99794145848E+01  0.97524872167E+01  0.21190223252E+02  0.51100000000E-03 0.  1.
        -11    1    3    3    0    0  0.67582655731E+01 -0.27826000963E+01  0.39731207907E+01  0.83188163780E+01  0.51100000000E-03 0. -1.
        -12    1    3    3    0    0  0.10681301456E+02  0.65623122008E+01  0.13301864498E+02  0.18278231351E+02  0.00000000000E+00 0.  1.
</event>
<event>
 7    1  0.4432754E-010  0.4778726E+02  0.7816164E-02  0.1312668E+00
        -11   -1    0    0    0    0  0.00000000000E+00  0.00000000000E+00  0.45593999997E+02  0.45594000000E+02  0.51100000000E-03 0.  1.
         11   -1    0    0    0    0 -0.00000000000E+00 -0.00000000000E+00 -0.45593999997E+02  0.45594000000E+02  0.51100000000E-03 0. -1.
    9900012    2    1    2    0    0 -0.27063928549E+02  0.87813531770E+01 -0.32772792887E+02  0.47787258696E+02  0.19999943698E+02 0.  0.
        -12    1    1    2    0    0  0.27063928549E+02 -0.87813531770E+01  0.32772792887E+02  0.43400741304E+02  0.00000000000E+00 0.  1.
         11    1    3    3    0    0 -0.10262019625E+02 -0.44744935022E+01 -0.18589643681E+02  0.21700345420E+02  0.51100000000E-03 0. -1.
        -11    1    3    3    0    0  0.89962965979E-01  0.92086562052E+00 -0.10019992379E+01  0.13638510037E+01  0.51100000000E-03 0.  1.
        -12    1    3    3    0    0 -0.16891871890E+02  0.12334981059E+02 -0.13181149968E+02  0.24723062273E+02  0.00000000000E+00 0.  1.
</event>
<event>
 7    1  0.4432754E-010  0.4778726E+02  0.7816164E-02  0.1312668E+00
        -11   -1    0    0    0    0  0.00000000000E+00  0.00000000000E+00  0.45593999997E+02  0.45594000000E+02  0.51100000000E-03 0. -1.
         11   -1    0    0    0    0 -0.00000000000E+00 -0.00000000000E+00 -0.45593999997E+02  0.45594000000E+02  0.51100000000E-03 0.  1.
    9900012    2    1    2    0    0  0.28708873193E+02  0.32285759119E+02  0.41296767440E+01  0.47787264155E+02  0.19999968586E+02 0.  0.
        -12    1    1    2    0    0 -0.28708873193E+02 -0.32285759119E+02 -0.41296767440E+01  0.43400735845E+02  0.00000000000E+00 0.  1.
         11    1    3    3    0    0  0.20079572179E+02  0.10951198947E+02  0.62391514447E+01  0.23707488022E+02  0.51100000000E-03 0. -1.
        -11    1    3    3    0    0 -0.75045659350E+00  0.17520531780E+01  0.98814807282E+00  0.21469309053E+01  0.51100000000E-03 0.  1.
         12    1    3    3    0    0  0.93797576077E+01  0.19582506994E+02 -0.30976227735E+01  0.21932845228E+02  0.00000000000E+00 0. -1.
</event>
<event>
 7    1  0.4432754E-010  0.4778727E+02  0.7816164E-02  0.1312668E+00
        -11   -1    0    0    0    0  0.00000000000E+00  0.00000000000E+00  0.45593999997E+02  0.45594000000E+02  0.51100000000E-03 0.  1.
         11   -1    0    0    0    0 -0.00000000000E+00 -0.00000000000E+00 -0.45593999997E+02  0.45594000000E+02  0.51100000000E-03 0. -1.
    9900012    2    1    2    0    0  0.19532210879E+02 -0.39021793874E+01 -0.38560201595E+02  0.47787269443E+02  0.19999992700E+02 0.  0.
        -12    1    1    2    0    0 -0.19532210879E+02  0.39021793874E+01  0.38560201595E+02  0.43400730557E+02  0.00000000000E+00 0.  1.
         11    1    3    3    0    0  0.72070748120E+01 -0.49289756884E+01 -0.12743525764E+02  0.15447788768E+02  0.51100000000E-03 0. -1.
        -11    1    3    3    0    0  0.35780130923E+00 -0.37299288597E+01 -0.15183257927E+02  0.15638788720E+02  0.51100000000E-03 0.  1.
         12    1    3    3    0    0  0.11967334757E+02  0.47567251606E+01 -0.10633417904E+02  0.16700691955E+02  0.00000000000E+00 0. -1.
</event>
<event>
 7    1  0.4432754E-010  0.4778727E+02  0.7816164E-02  0.1312668E+00
        -11   -1    0    0    0    0  0.00000000000E+00  0.00000000000E+00  0.45593999997E+02  0.45594000000E+02  0.51100000000E-03 0. -1.
         11   -1    0    0    0    0 -0.00000000000E+00 -0.00000000000E+00 -0.45593999997E+02  0.45594000000E+02  0.51100000000E-03 0.  1.
    9900012    2    1    2    0    0 -0.14046799812E+02  0.38196640387E+01  0.40886680625E+02  0.47787273384E+02  0.20000010666E+02 0.  0.
        -12    1    1    2    0    0  0.14046799812E+02 -0.38196640387E+01 -0.40886680625E+02  0.43400726616E+02  0.00000000000E+00 0.  1.
         11    1    3    3    0    0 -0.99157691848E+01  0.22585994232E+01  0.20100917195E+02  0.22527108608E+02  0.51100000000E-03 0. -1.
        -11    1    3    3    0    0 -0.57118228886E+01 -0.49781835507E+01  0.12049808304E+02  0.14233942272E+02  0.51100000000E-03 0.  1.
        -12    1    3    3    0    0  0.15807922618E+01  0.65392481662E+01  0.87359551247E+01  0.11026222503E+02  0.00000000000E+00 0.  1.
</event>
<event>
 7    1  0.4432754E-010  0.4778726E+02  0.7816164E-02  0.1312668E+00
        -11   -1    0    0    0    0  0.00000000000E+00  0.00000000000E+00  0.45593999997E+02  0.45594000000E+02  0.51100000000E-03 0. -1.
         11   -1    0    0    0    0 -0.00000000000E+00 -0.00000000000E+00 -0.45593999997E+02  0.45594000000E+02  0.51100000000E-03 0.  1.
    9900012    2    1    2    0    0 -0.21954537541E+02  0.27629109397E+02  0.25263699550E+02  0.47787263605E+02  0.19999966079E+02 0.  0.
        -12    1    1    2    0    0  0.21954537541E+02 -0.27629109397E+02 -0.25263699550E+02  0.43400736395E+02  0.00000000000E+00 0.  1.
         11    1    3    3    0    0 -0.13997398570E+02  0.19547702632E+02  0.94660953853E+01  0.25838862340E+02  0.51100000000E-03 0. -1.
        -11    1    3    3    0    0 -0.10073567925E+02  0.82498849429E+01  0.12665997602E+02  0.18164935117E+02  0.51100000000E-03 0.  1.
        -12    1    3    3    0    0  0.21164289548E+01 -0.16847817842E+00  0.31316065632E+01  0.37834661468E+01  0.00000000000E+00 0.  1.
</event>
<event>
 7    1  0.4432754E-010  0.4778729E+02  0.7816164E-02  0.1312668E+00
        -11   -1    0    0    0    0  0.00000000000E+00  0.00000000000E+00  0.45593999997E+02  0.45594000000E+02  0.51100000000E-03 0.  1.
         11   -1    0    0    0    0 -0.00000000000E+00 -0.00000000000E+00 -0.45593999997E+02  0.45594000000E+02  0.51100000000E-03 0. -1.
    9900012    2    1    2    0    0 -0.85149562907E+01  0.41367149692E+02 -0.99937927347E+01  0.47787292085E+02  0.20000095934E+02 0.  0.
        -12    1    1    2    0    0  0.85149562907E+01 -0.41367149692E+02  0.99937927347E+01  0.43400707915E+02  0.00000000000E+00 0.  1.
         11    1    3    3    0    0  0.11088042206E+00  0.66516825754E+01 -0.80551577917E+01  0.10447140416E+02  0.51100000000E-03 0.  1.
        -11    1    3    3    0    0 -0.50658840018E+01  0.22609435598E+02 -0.62622700818E+01  0.24001370494E+02  0.51100000000E-03 0. -1.
        -12    1    3    3    0    0 -0.35599527110E+01  0.12106031519E+02  0.43236351389E+01  0.13338781176E+02  0.00000000000E+00 0.  1.
</event>
<event>
 7    1  0.4432754E-010  0.4778727E+02  0.7816164E-02  0.1312668E+00
        -11   -1    0    0    0    0  0.00000000000E+00  0.00000000000E+00  0.45593999997E+02  0.45594000000E+02  0.51100000000E-03 0. -1.
         11   -1    0    0    0    0 -0.00000000000E+00 -0.00000000000E+00 -0.45593999997E+02  0.45594000000E+02  0.51100000000E-03 0.  1.
    9900012    2    1    2    0    0  0.30995086195E+02 -0.25256467084E+02  0.16883093256E+02  0.47787270332E+02  0.19999996751E+02 0.  0.
        -12    1    1    2    0    0 -0.30995086195E+02  0.25256467084E+02 -0.16883093256E+02  0.43400729668E+02  0.00000000000E+00 0.  1.
         11    1    3    3    0    0  0.16994999804E+02 -0.15985299082E+02  0.11928827291E+02  0.26204135664E+02  0.51100000000E-03 0. -1.
        -11    1    3    3    0    0  0.22134666376E+01 -0.48275316595E+01  0.70365407440E+01  0.88157474091E+01  0.51100000000E-03 0.  1.
        -12    1    3    3    0    0  0.11786619753E+02 -0.44436363429E+01 -0.20822747791E+01  0.12767387259E+02  0.00000000000E+00 0.  1.
</event>
<event>
 7    1  0.4432754E-010  0.4778727E+02  0.7816164E-02  0.1312668E+00
        -11   -1    0    0    0    0  0.00000000000E+00  0.00000000000E+00  0.45593999997E+02  0.45594000000E+02  0.51100000000E-03 0.  1.
         11   -1    0    0    0    0 -0.00000000000E+00 -0.00000000000E+00 -0.45593999997E+02  0.45594000000E+02  0.51100000000E-03 0. -1.
    9900012    2    1    2    0    0  0.33384607171E+02 -0.21768695209E+02 -0.17181824339E+02  0.47787272187E+02  0.20000005210E+02 0.  0.
        -12    1    1    2    0    0 -0.33384607171E+02  0.21768695209E+02  0.17181824339E+02  0.43400727813E+02  0.00000000000E+00 0.  1.
         11    1    3    3    0    0  0.12751363966E+02 -0.92970048691E+01 -0.16105981060E+02  0.22548485730E+02  0.51100000000E-03 0. -1.
        -11    1    3    3    0    0  0.13106527983E+02 -0.59713113307E+01 -0.38605267631E+01  0.14911113369E+02  0.51100000000E-03 0.  1.
        -12    1    3    3    0    0  0.75267152229E+01 -0.65003790089E+01  0.27846834845E+01  0.10327673088E+02  0.00000000000E+00 0.  1.
</event>
<event>
 7    1  0.4432754E-010  0.4778727E+02  0.7816164E-02  0.1312668E+00
        -11   -1    0    0    0    0  0.00000000000E+00  0.00000000000E+00  0.45593999997E+02  0.45594000000E+02  0.51100000000E-03 0.  1.
         11   -1    0    0    0    0 -0.00000000000E+00 -0.00000000000E+00 -0.45593999997E+02  0.45594000000E+02  0.51100000000E-03 0. -1.
    9900012    2    1    2    0    0 -0.11636577266E+02 -0.29840937411E+02  0.29287053873E+02  0.47787274193E+02  0.20000014354E+02 0.  0.
        -12    1    1    2    0    0  0.11636577266E+02  0.29840937411E+02 -0.29287053873E+02  0.43400725807E+02  0.00000000000E+00 0.  1.
         11    1    3    3    0    0  0.17996382190E+01 -0.51732551333E+01  0.54372766674E+00  0.55042625692E+01  0.51100000000E-03 0. -1.
        -11    1    3    3    0    0 -0.70915604876E+01 -0.17849005702E+02  0.10720016436E+02  0.21995362860E+02  0.51100000000E-03 0.  1.
        -12    1    3    3    0    0 -0.63446549979E+01 -0.68186765764E+01  0.18023309770E+02  0.20287648764E+02  0.00000000000E+00 0.  1.
</event>
<event>
 7    1  0.4432754E-010  0.4778728E+02  0.7816164E-02  0.1312668E+00
        -11   -1    0    0    0    0  0.00000000000E+00  0.00000000000E+00  0.45593999997E+02  0.45594000000E+02  0.51100000000E-03 0.  1.
         11   -1    0    0    0    0 -0.00000000000E+00 -0.00000000000E+00 -0.45593999997E+02  0.45594000000E+02  0.51100000000E-03 0. -1.
    9900012    2    1    2    0    0 -0.81912392938E+01 -0.13534502777E+02 -0.40414643215E+02  0.47787279352E+02  0.20000037876E+02 0.  0.
        -12    1    1    2    0    0  0.81912392938E+01  0.13534502777E+02  0.40414643215E+02  0.43400720648E+02  0.00000000000E+00 0.  1.
         11    1    3    3    0    0 -0.69792352269E+01 -0.81404561865E+01 -0.13918597682E+02  0.17569977603E+02  0.51100000000E-03 0. -1.
        -11    1    3    3    0    0 -0.36286402918E+01 -0.69306555336E+01 -0.26194410935E+02  0.27337669633E+02  0.51100000000E-03 0.  1.
        -12    1    3    3    0    0  0.24166362250E+01  0.15366089428E+01 -0.30163459757E+00  0.28796321149E+01  0.00000000000E+00 0.  1.
</event>
<event>
 7    1  0.4432754E-010  0.4778727E+02  0.7816164E-02  0.1312668E+00
        -11   -1    0    0    0    0  0.00000000000E+00  0.00000000000E+00  0.45593999997E+02  0.45594000000E+02  0.51100000000E-03 0.  1.
         11   -1    0    0    0    0 -0.00000000000E+00 -0.00000000000E+00 -0.45593999997E+02  0.45594000000E+02  0.51100000000E-03 0. -1.
    9900012    2    1    2    0    0 -0.30899456096E+02 -0.18685765518E+02 -0.24076732913E+02  0.47787270884E+02  0.19999999271E+02 0.  0.
        -12    1    1    2    0    0  0.30899456096E+02  0.18685765518E+02  0.24076732913E+02  0.43400729116E+02  0.00000000000E+00 0.  1.
         11    1    3    3    0    0 -0.49910805031E+01 -0.99104132614E+01 -0.70276663741E+01  0.13134506863E+02  0.51100000000E-03 0. -1.
        -11    1    3    3    0    0 -0.71017902798E+00  0.19240601029E+01 -0.36201702879E+01  0.41607685235E+01  0.51100000000E-03 0.  1.
         12    1    3    3    0    0 -0.25198196565E+02 -0.10699412360E+02 -0.13428896251E+02  0.30491995498E+02  0.00000000000E+00 0. -1.
</event>
<event>
 7    1  0.4432754E-010  0.4778727E+02  0.7816164E-02  0.1312668E+00
        -11   -1    0    0    0    0  0.00000000000E+00  0.00000000000E+00  0.45593999997E+02  0.45594000000E+02  0.51100000000E-03 0.  1.
         11   -1    0    0    0    0 -0.00000000000E+00 -0.00000000000E+00 -0.45593999997E+02  0.45594000000E+02  0.51100000000E-03 0. -1.
    9900012    2    1    2    0    0  0.35187831339E+02  0.13810912666E+02 -0.21323656589E+02  0.47787272894E+02  0.20000008433E+02 0.  0.
        -12    1    1    2    0    0 -0.35187831339E+02 -0.13810912666E+02  0.21323656589E+02  0.43400727106E+02  0.00000000000E+00 0.  1.
         11    1    3    3    0    0  0.57685186647E+01 -0.23559604053E+01  0.24635171890E+00  0.62359479188E+01  0.51100000000E-03 0. -1.
        -11    1    3    3    0    0  0.67905803459E+01  0.29098027675E+00 -0.87529106379E+01  0.11081971659E+02  0.51100000000E-03 0.  1.
         12    1    3    3    0    0  0.22628732328E+02  0.15875892795E+02 -0.12817097670E+02  0.30469353316E+02  0.00000000000E+00 0. -1.
</event>
<event>
 7    1  0.4432754E-010  0.4778727E+02  0.7816164E-02  0.1312668E+00
        -11   -1    0    0    0    0  0.00000000000E+00  0.00000000000E+00  0.45593999997E+02  0.45594000000E+02  0.51100000000E-03 0.  1.
         11   -1    0    0    0    0 -0.00000000000E+00 -0.00000000000E+00 -0.45593999997E+02  0.45594000000E+02  0.51100000000E-03 0. -1.
    9900012    2    1    2    0    0 -0.35977283105E+02 -0.10312099137E+02 -0.21975422635E+02  0.47787268575E+02  0.19999988739E+02 0.  0.
        -12    1    1    2    0    0  0.35977283105E+02  0.10312099137E+02  0.21975422635E+02  0.43400731425E+02  0.00000000000E+00 0.  1.
         11    1    3    3    0    0 -0.18819707117E+02 -0.14507841241E+02 -0.98791627115E+01  0.25734348439E+02  0.51100000000E-03 0. -1.
        -11    1    3    3    0    0 -0.10000675442E+02 -0.10637691218E+00 -0.55168892878E+01  0.11421947865E+02  0.51100000000E-03 0.  1.
         12    1    3    3    0    0 -0.71569005459E+01  0.43021190162E+01 -0.65793706360E+01  0.10630972271E+02  0.00000000000E+00 0. -1.
</event>
<event>
 7    1  0.4432754E-010  0.4778726E+02  0.7816164E-02  0.1312668E+00
        -11   -1    0    0    0    0  0.00000000000E+00  0.00000000000E+00  0.45593999997E+02  0.45594000000E+02  0.51100000000E-03 0.  1.
         11   -1    0    0    0    0 -0.00000000000E+00 -0.00000000000E+00 -0.45593999997E+02  0.45594000000E+02  0.51100000000E-03 0. -1.
    9900012    2    1    2    0    0 -0.97787533508E+00 -0.32652020213E+02 -0.28574695232E+02  0.47787264156E+02  0.19999968594E+02 0.  0.
        -12    1    1    2    0    0  0.97787533508E+00  0.32652020213E+02  0.28574695232E+02  0.43400735844E+02  0.00000000000E+00 0.  1.
         11    1    3    3    0    0 -0.30676765710E+01 -0.71880262045E+01 -0.66228208497E+01  0.10244028335E+02  0.51100000000E-03 0. -1.
        -11    1    3    3    0    0  0.17066873065E+01  0.13467327568E+01 -0.59104499454E+01  0.62976098243E+01  0.51100000000E-03 0.  1.
        -12    1    3    3    0    0  0.38311392944E+00 -0.26810726766E+02 -0.16041424437E+02  0.31245625997E+02  0.00000000000E+00 0.  1.
</event>
<event>
 7    1  0.4432754E-010  0.4778727E+02  0.7816164E-02  0.1312668E+00
        -11   -1    0    0    0    0  0.00000000000E+00  0.00000000000E+00  0.45593999997E+02  0.45594000000E+02  0.51100000000E-03 0. -1.
         11   -1    0    0    0    0 -0.00000000000E+00 -0.00000000000E+00 -0.45593999997E+02  0.45594000000E+02  0.51100000000E-03 0.  1.
    9900012    2    1    2    0    0  0.71036714577E+01 -0.48661532953E+01  0.42537999801E+02  0.47787273933E+02  0.20000013170E+02 0.  0.
        -12    1    1    2    0    0 -0.71036714577E+01  0.48661532953E+01 -0.42537999801E+02  0.43400726067E+02  0.00000000000E+00 0.  1.
         11    1    3    3    0    0  0.12345300915E+02  0.56733347558E-01  0.21227166074E+02  0.24556104193E+02  0.51100000000E-03 0. -1.
        -11    1    3    3    0    0  0.52328173754E+00 -0.29260038818E+01  0.92365221376E+01  0.97030234439E+01  0.51100000000E-03 0.  1.
        -12    1    3    3    0    0 -0.57649111945E+01 -0.19968827611E+01  0.12074311589E+02  0.13528146296E+02  0.00000000000E+00 0.  1.
</event>
<event>
 7    1  0.4432754E-010  0.4778729E+02  0.7816164E-02  0.1312668E+00
        -11   -1    0    0    0    0  0.00000000000E+00  0.00000000000E+00  0.45593999997E+02  0.45594000000E+02  0.51100000000E-03 0.  1.
         11   -1    0    0    0    0 -0.00000000000E+00 -0.00000000000E+00 -0.45593999997E+02  0.45594000000E+02  0.51100000000E-03 0. -1.
    9900012    2    1    2    0    0  0.18608070109E+02  0.21596078549E+02 -0.32725688360E+02  0.47787290784E+02  0.20000089998E+02 0.  0.
        -12    1    1    2    0    0 -0.18608070109E+02 -0.21596078549E+02  0.32725688360E+02  0.43400709216E+02  0.00000000000E+00 0.  1.
         11    1    3    3    0    0  0.12188834247E+02  0.12835508146E+02 -0.14681797963E+02  0.22997242038E+02  0.51100000000E-03 0. -1.
        -11    1    3    3    0    0  0.35762149369E+00  0.64070517575E+01 -0.93201737132E+00  0.64843551720E+01  0.51100000000E-03 0.  1.
        -12    1    3    3    0    0  0.60616143684E+01  0.23535186449E+01 -0.17111873026E+02  0.18305693574E+02  0.00000000000E+00 0.  1.
</event>
<event>
 7    1  0.4432754E-010  0.4778727E+02  0.7816164E-02  0.1312668E+00
        -11   -1    0    0    0    0  0.00000000000E+00  0.00000000000E+00  0.45593999997E+02  0.45594000000E+02  0.51100000000E-03 0. -1.
         11   -1    0    0    0    0 -0.00000000000E+00 -0.00000000000E+00 -0.45593999997E+02  0.45594000000E+02  0.51100000000E-03 0.  1.
    9900012    2    1    2    0    0 -0.42259379906E+02  0.73496115160E+01  0.66144830321E+01  0.47787269992E+02  0.19999995200E+02 0.  0.
        -12    1    1    2    0    0  0.42259379906E+02 -0.73496115160E+01 -0.66144830321E+01  0.43400730008E+02  0.00000000000E+00 0.  1.
         11    1    3    3    0    0 -0.35213682343E+01 -0.28459748586E+01 -0.35644020416E+00  0.45416579591E+01  0.51100000000E-03 0. -1.
        -11    1    3    3    0    0 -0.72909817814E+01  0.64397464184E+01 -0.27638241628E+01  0.10112738182E+02  0.51100000000E-03 0.  1.
         12    1    3    3    0    0 -0.31447029890E+02  0.37558399561E+01  0.97347473990E+01  0.33132873851E+02  0.00000000000E+00 0. -1.
</event>
<event>
 7    1  0.4432754E-010  0.4778727E+02  0.7816164E-02  0.1312668E+00
        -11   -1    0    0    0    0  0.00000000000E+00  0.00000000000E+00  0.45593999997E+02  0.45594000000E+02  0.51100000000E-03 0.  1.
         11   -1    0    0    0    0 -0.00000000000E+00 -0.00000000000E+00 -0.45593999997E+02  0.45594000000E+02  0.51100000000E-03 0. -1.
    9900012    2    1    2    0    0 -0.22578918693E+02 -0.20582949127E+02 -0.30824632058E+02  0.47787270679E+02  0.19999998333E+02 0.  0.
        -12    1    1    2    0    0  0.22578918693E+02  0.20582949127E+02  0.30824632058E+02  0.43400729321E+02  0.00000000000E+00 0.  1.
         11    1    3    3    0    0 -0.56772163733E+01 -0.46077634562E+01 -0.13611874483E+02  0.15451388191E+02  0.51100000000E-03 0. -1.
        -11    1    3    3    0    0 -0.57468438068E+01 -0.14896076787E+02 -0.12016538849E+02  0.19982905783E+02  0.51100000000E-03 0.  1.
        -12    1    3    3    0    0 -0.11154858513E+02 -0.10791088838E+01 -0.51962187263E+01  0.12352976705E+02  0.00000000000E+00 0.  1.
</event>
<event>
 7    1  0.4432754E-010  0.4778727E+02  0.7816164E-02  0.1312668E+00
        -11   -1    0    0    0    0  0.00000000000E+00  0.00000000000E+00  0.45593999997E+02  0.45594000000E+02  0.51100000000E-03 0.  1.
         11   -1    0    0    0    0 -0.00000000000E+00 -0.00000000000E+00 -0.45593999997E+02  0.45594000000E+02  0.51100000000E-03 0. -1.
    9900012    2    1    2    0    0 -0.18751679370E+02 -0.11176452256E+02 -0.37511131924E+02  0.47787267490E+02  0.19999983793E+02 0.  0.
        -12    1    1    2    0    0  0.18751679370E+02  0.11176452256E+02  0.37511131924E+02  0.43400732510E+02  0.00000000000E+00 0.  1.
         11    1    3    3    0    0 -0.79798560938E+01  0.29873038734E+00 -0.12831688600E+02  0.15113556024E+02  0.51100000000E-03 0. -1.
        -11    1    3    3    0    0  0.23490483875E+01 -0.37368759148E+00  0.25219393429E+00  0.23919182228E+01  0.51100000000E-03 0.  1.
        -12    1    3    3    0    0 -0.13120871664E+02 -0.11101495052E+02 -0.24931637258E+02  0.30281793242E+02  0.00000000000E+00 0.  1.
</event>
<event>
 7    1  0.4432754E-010  0.4778727E+02  0.7816164E-02  0.1312668E+00
        -11   -1    0    0    0    0  0.00000000000E+00  0.00000000000E+00  0.45593999997E+02  0.45594000000E+02  0.51100000000E-03 0.  1.
         11   -1    0    0    0    0 -0.00000000000E+00 -0.00000000000E+00 -0.45593999997E+02  0.45594000000E+02  0.51100000000E-03 0. -1.
    9900012    2    1    2    0    0  0.28491885641E+02  0.19940017188E+02 -0.25965961026E+02  0.47787274605E+02  0.20000016234E+02 0.  0.
        -12    1    1    2    0    0 -0.28491885641E+02 -0.19940017188E+02  0.25965961026E+02  0.43400725395E+02  0.00000000000E+00 0.  1.
         11    1    3    3    0    0  0.59374654236E+01 -0.57785344771E+00 -0.12475922067E+02  0.13828812022E+02  0.51100000000E-03 0.  1.
        -11    1    3    3    0    0  0.24586267137E+01  0.54482665568E+01 -0.34978488293E+01  0.69255613841E+01  0.51100000000E-03 0. -1.
        -12    1    3    3    0    0  0.20095793503E+02  0.15069604079E+02 -0.99921901293E+01  0.27032901198E+02  0.00000000000E+00 0.  1.
</event>
<event>
 7    1  0.4432754E-010  0.4778727E+02  0.7816164E-02  0.1312668E+00
        -11   -1    0    0    0    0  0.00000000000E+00  0.00000000000E+00  0.45593999997E+02  0.45594000000E+02  0.51100000000E-03 0.  1.
         11   -1    0    0    0    0 -0.00000000000E+00 -0.00000000000E+00 -0.45593999997E+02  0.45594000000E+02  0.51100000000E-03 0. -1.
    9900012    2    1    2    0    0  0.31701237454E+02  0.29022379930E+01 -0.29499692948E+02  0.47787270450E+02  0.19999997288E+02 0.  0.
        -12    1    1    2    0    0 -0.31701237454E+02 -0.29022379930E+01  0.29499692948E+02  0.43400729550E+02  0.00000000000E+00 0.  1.
         11    1    3    3    0    0  0.22541425605E+02  0.12425540662E+01 -0.21433153037E+02  0.31129405043E+02  0.51100000000E-03 0. -1.
        -11    1    3    3    0    0  0.33930256602E+01  0.58852572609E+00 -0.99246781191E+01  0.10505152150E+02  0.51100000000E-03 0.  1.
         12    1    3    3    0    0  0.57667861879E+01  0.10711582007E+01  0.18581382077E+01  0.61527132573E+01  0.00000000000E+00 0. -1.
</event>
<event>
 7    1  0.4432754E-010  0.4778727E+02  0.7816164E-02  0.1312668E+00
        -11   -1    0    0    0    0  0.00000000000E+00  0.00000000000E+00  0.45593999997E+02  0.45594000000E+02  0.51100000000E-03 0.  1.
         11   -1    0    0    0    0 -0.00000000000E+00 -0.00000000000E+00 -0.45593999997E+02  0.45594000000E+02  0.51100000000E-03 0. -1.
    9900012    2    1    2    0    0 -0.12112401589E+02 -0.23648723405E+02 -0.34316925213E+02  0.47787265594E+02  0.19999975147E+02 0.  0.
        -12    1    1    2    0    0  0.12112401589E+02  0.23648723405E+02  0.34316925213E+02  0.43400734406E+02  0.00000000000E+00 0.  1.
         11    1    3    3    0    0  0.21768273895E+01 -0.66465636675E+01 -0.84097515106E+01  0.10937975443E+02  0.51100000000E-03 0. -1.
        -11    1    3    3    0    0  0.18161288313E+01 -0.60425661132E+01 -0.37239552055E+01  0.73265798159E+01  0.51100000000E-03 0.  1.
        -12    1    3    3    0    0 -0.16105357810E+02 -0.10959593624E+02 -0.22183218497E+02  0.29522710334E+02  0.00000000000E+00 0.  1.
</event>
<event>
 7    1  0.4432754E-010  0.4778727E+02  0.7816164E-02  0.1312668E+00
        -11   -1    0    0    0    0  0.00000000000E+00  0.00000000000E+00  0.45593999997E+02  0.45594000000E+02  0.51100000000E-03 0.  1.
         11   -1    0    0    0    0 -0.00000000000E+00 -0.00000000000E+00 -0.45593999997E+02  0.45594000000E+02  0.51100000000E-03 0. -1.
    9900012    2    1    2    0    0  0.38579857399E+01  0.28049128930E+02 -0.32893547607E+02  0.47787272335E+02  0.20000005882E+02 0.  0.
        -12    1    1    2    0    0 -0.38579857399E+01 -0.28049128930E+02  0.32893547607E+02  0.43400727665E+02  0.00000000000E+00 0.  1.
         11    1    3    3    0    0 -0.92725279918E+00  0.22841724098E+02 -0.12878971176E+02  0.26238751044E+02  0.51100000000E-03 0. -1.
        -11    1    3    3    0    0  0.16955455195E+01  0.26166482590E+00 -0.21171132792E+01  0.27249792638E+01  0.51100000000E-03 0.  1.
         12    1    3    3    0    0  0.30896930195E+01  0.49457400058E+01 -0.17897463152E+02  0.18823542026E+02  0.00000000000E+00 0. -1.
</event>
<event>
 7    1  0.4432754E-010  0.4778727E+02  0.7816164E-02  0.1312668E+00
        -11   -1    0    0    0    0  0.00000000000E+00  0.00000000000E+00  0.45593999997E+02  0.45594000000E+02  0.51100000000E-03 0. -1.
         11   -1    0    0    0    0 -0.00000000000E+00 -0.00000000000E+00 -0.45593999997E+02  0.45594000000E+02  0.51100000000E-03 0.  1.
    9900012    2    1    2    0    0 -0.24133345097E+02 -0.34251618115E+02  0.11315106896E+02  0.47787270362E+02  0.19999996887E+02 0.  0.
        -12    1    1    2    0    0  0.24133345097E+02  0.34251618115E+02 -0.11315106896E+02  0.43400729638E+02  0.00000000000E+00 0.  1.
         11    1    3    3    0    0 -0.22194538947E+01  0.15833249856E+01  0.60952205897E+00  0.27936375932E+01  0.51100000000E-03 0.  1.
        -11    1    3    3    0    0 -0.14407991187E+02 -0.12940384071E+02  0.71266324222E+01  0.20635712730E+02  0.51100000000E-03 0. -1.
         12    1    3    3    0    0 -0.75059000160E+01 -0.22894559029E+02  0.35789524149E+01  0.24357920038E+02  0.00000000000E+00 0. -1.
</event>
<event>
 7    1  0.4432754E-010  0.4778727E+02  0.7816164E-02  0.1312668E+00
        -11   -1    0    0    0    0  0.00000000000E+00  0.00000000000E+00  0.45593999997E+02  0.45594000000E+02  0.51100000000E-03 0.  1.
         11   -1    0    0    0    0 -0.00000000000E+00 -0.00000000000E+00 -0.45593999997E+02  0.45594000000E+02  0.51100000000E-03 0. -1.
    9900012    2    1    2    0    0 -0.54458500459E+01 -0.37237005520E+02 -0.21618772445E+02  0.47787272070E+02  0.20000004677E+02 0.  0.
        -12    1    1    2    0    0  0.54458500459E+01  0.37237005520E+02  0.21618772445E+02  0.43400727930E+02  0.00000000000E+00 0.  1.
         11    1    3    3    0    0 -0.39593847149E+01 -0.73685515004E+01 -0.54300112977E+00  0.83825490767E+01  0.51100000000E-03 0. -1.
        -11    1    3    3    0    0 -0.74042123279E+01 -0.11804135757E+02 -0.11771639322E+02  0.18240928534E+02  0.51100000000E-03 0.  1.
         12    1    3    3    0    0  0.59177469969E+01 -0.18064318262E+02 -0.93041319931E+01  0.21163794460E+02  0.00000000000E+00 0. -1.
</event>
<event>
 7    1  0.4432754E-010  0.4778726E+02  0.7816164E-02  0.1312668E+00
        -11   -1    0    0    0    0  0.00000000000E+00  0.00000000000E+00  0.45593999997E+02  0.45594000000E+02  0.51100000000E-03 0. -1.
         11   -1    0    0    0    0 -0.00000000000E+00 -0.00000000000E+00 -0.45593999997E+02  0.45594000000E+02  0.51100000000E-03 0.  1.
    9900012    2    1    2    0    0  0.40235791831E+02  0.14573377064E+02  0.72333963320E+01  0.47787259387E+02  0.19999946847E+02 0.  0.
        -12    1    1    2    0    0 -0.40235791831E+02 -0.14573377064E+02 -0.72333963320E+01  0.43400740613E+02  0.00000000000E+00 0.  1.
         11    1    3    3    0    0  0.60201739019E+01  0.10314895514E+02  0.23621430901E+01  0.12174534221E+02  0.51100000000E-03 0. -1.
        -11    1    3    3    0    0  0.10431408652E+02  0.34254443168E+01  0.43455606558E+01  0.11808126562E+02  0.51100000000E-03 0.  1.
        -12    1    3    3    0    0  0.23784209277E+02  0.83303723323E+00  0.52569258603E+00  0.23804598603E+02  0.00000000000E+00 0.  1.
</event>
<event>
 7    1  0.4432754E-010  0.4778728E+02  0.7816164E-02  0.1312668E+00
        -11   -1    0    0    0    0  0.00000000000E+00  0.00000000000E+00  0.45593999997E+02  0.45594000000E+02  0.51100000000E-03 0.  1.
         11   -1    0    0    0    0 -0.00000000000E+00 -0.00000000000E+00 -0.45593999997E+02  0.45594000000E+02  0.51100000000E-03 0. -1.
    9900012    2    1    2    0    0  0.56561557831E+01  0.40526616163E+02 -0.14464568561E+02  0.47787280426E+02  0.20000042774E+02 0.  0.
        -12    1    1    2    0    0 -0.56561557831E+01 -0.40526616163E+02  0.14464568561E+02  0.43400719574E+02  0.00000000000E+00 0.  1.
         11    1    3    3    0    0  0.37672154124E+01  0.25225250125E+02 -0.48770935240E+01  0.25967117617E+02  0.51100000000E-03 0. -1.
        -11    1    3    3    0    0 -0.31768273776E+00  0.11515783435E+02 -0.26946882857E+00  0.11523315675E+02  0.51100000000E-03 0.  1.
         12    1    3    3    0    0  0.22066231085E+01  0.37855826030E+01 -0.93180062082E+01  0.10296847133E+02  0.00000000000E+00 0. -1.
</event>
<event>
 7    1  0.4432754E-010  0.4778727E+02  0.7816164E-02  0.1312668E+00
        -11   -1    0    0    0    0  0.00000000000E+00  0.00000000000E+00  0.45593999997E+02  0.45594000000E+02  0.51100000000E-03 0.  1.
         11   -1    0    0    0    0 -0.00000000000E+00 -0.00000000000E+00 -0.45593999997E+02  0.45594000000E+02  0.51100000000E-03 0. -1.
    9900012    2    1    2    0    0 -0.77897596302E+01  0.55314044160E+01 -0.42336114105E+02  0.47787270197E+02  0.19999996135E+02 0.  0.
        -12    1    1    2    0    0  0.77897596302E+01 -0.55314044160E+01  0.42336114105E+02  0.43400729803E+02  0.00000000000E+00 0.  1.
         11    1    3    3    0    0 -0.15851592251E+01  0.57220041124E+01 -0.15263469892E+02  0.16377654723E+02  0.51100000000E-03 0. -1.
        -11    1    3    3    0    0 -0.50379217996E+01  0.66955272600E+01 -0.10558933339E+02  0.13479681557E+02  0.51100000000E-03 0.  1.
        -12    1    3    3    0    0 -0.11666786055E+01 -0.68861269564E+01 -0.16513710874E+02  0.17929933917E+02  0.00000000000E+00 0.  1.
</event>
<event>
 7    1  0.4432754E-010  0.4778727E+02  0.7816164E-02  0.1312668E+00
        -11   -1    0    0    0    0  0.00000000000E+00  0.00000000000E+00  0.45593999997E+02  0.45594000000E+02  0.51100000000E-03 0.  1.
         11   -1    0    0    0    0 -0.00000000000E+00 -0.00000000000E+00 -0.45593999997E+02  0.45594000000E+02  0.51100000000E-03 0. -1.
    9900012    2    1    2    0    0  0.37375521074E+02  0.21907776735E+02 -0.25966720334E+01  0.47787274630E+02  0.20000016347E+02 0.  0.
        -12    1    1    2    0    0 -0.37375521074E+02 -0.21907776735E+02  0.25966720334E+01  0.43400725370E+02  0.00000000000E+00 0.  1.
         11    1    3    3    0    0  0.20411335726E+02  0.15660005119E+02 -0.12924011863E+01  0.25759050594E+02  0.51100000000E-03 0.  1.
        -11    1    3    3    0    0  0.18857147774E+02  0.50366806866E+01 -0.21300238647E+01  0.19634082012E+02  0.51100000000E-03 0. -1.
        -12    1    3    3    0    0 -0.18929624259E+01  0.12110909296E+01  0.82575301760E+00  0.23941420241E+01  0.00000000000E+00 0.  1.
</event>
<event>
 7    1  0.4432754E-010  0.4778726E+02  0.7816164E-02  0.1312668E+00
        -11   -1    0    0    0    0  0.00000000000E+00  0.00000000000E+00  0.45593999997E+02  0.45594000000E+02  0.51100000000E-03 0. -1.
         11   -1    0    0    0    0 -0.00000000000E+00 -0.00000000000E+00 -0.45593999997E+02  0.45594000000E+02  0.51100000000E-03 0.  1.
    9900012    2    1    2    0    0 -0.27035054420E+02  0.31047695334E+02  0.13739371003E+02  0.47787264193E+02  0.19999968762E+02 0.  0.
        -12    1    1    2    0    0  0.27035054420E+02 -0.31047695334E+02 -0.13739371003E+02  0.43400735807E+02  0.00000000000E+00 0.  1.
         11    1    3    3    0    0 -0.11795445125E+02  0.14883306160E+02  0.89371991995E+01  0.20988541105E+02  0.51100000000E-03 0.  1.
        -11    1    3    3    0    0 -0.16346601394E+02  0.85441228854E+01  0.49482561741E+01  0.19097084920E+02  0.51100000000E-03 0. -1.
        -12    1    3    3    0    0  0.11069920992E+01  0.76202662889E+01 -0.14608437057E+00  0.77016381676E+01  0.00000000000E+00 0.  1.
</event>
<event>
 7    1  0.4432754E-010  0.4778727E+02  0.7816164E-02  0.1312668E+00
        -11   -1    0    0    0    0  0.00000000000E+00  0.00000000000E+00  0.45593999997E+02  0.45594000000E+02  0.51100000000E-03 0.  1.
         11   -1    0    0    0    0 -0.00000000000E+00 -0.00000000000E+00 -0.45593999997E+02  0.45594000000E+02  0.51100000000E-03 0. -1.
    9900012    2    1    2    0    0  0.22952935434E+02  0.11483186770E+02 -0.34998893373E+02  0.47787270043E+02  0.19999995435E+02 0.  0.
        -12    1    1    2    0    0 -0.22952935434E+02 -0.11483186770E+02  0.34998893373E+02  0.43400729957E+02  0.00000000000E+00 0.  1.
         11    1    3    3    0    0  0.17799347268E+02  0.10238556887E+02 -0.19460706548E+02  0.28290703595E+02  0.51100000000E-03 0. -1.
        -11    1    3    3    0    0  0.68619796656E+00  0.45738639979E+01 -0.23671953792E+01  0.51956437277E+01  0.51100000000E-03 0.  1.
        -12    1    3    3    0    0  0.44673901992E+01 -0.33292341150E+01 -0.13170991446E+02  0.14300922721E+02  0.00000000000E+00 0.  1.
</event>
<event>
 7    1  0.4432754E-010  0.4778728E+02  0.7816164E-02  0.1312668E+00
        -11   -1    0    0    0    0  0.00000000000E+00  0.00000000000E+00  0.45593999997E+02  0.45594000000E+02  0.51100000000E-03 0.  1.
         11   -1    0    0    0    0 -0.00000000000E+00 -0.00000000000E+00 -0.45593999997E+02  0.45594000000E+02  0.51100000000E-03 0. -1.
    9900012    2    1    2    0    0 -0.31190005395E+02 -0.29823663374E+02  0.46212008379E+01  0.47787276149E+02  0.20000023276E+02 0.  0.
        -12    1    1    2    0    0  0.31190005395E+02  0.29823663374E+02 -0.46212008379E+01  0.43400723851E+02  0.00000000000E+00 0.  1.
         11    1    3    3    0    0 -0.33763106484E+00 -0.29575554828E+01  0.64072873737E+00  0.30449405159E+01  0.51100000000E-03 0. -1.
        -11    1    3    3    0    0 -0.17227817406E+02 -0.35952170884E+01  0.15856295571E+01  0.17670243344E+02  0.51100000000E-03 0.  1.
         12    1    3    3    0    0 -0.13624556924E+02 -0.23270890803E+02  0.23948425434E+01  0.27072092290E+02  0.00000000000E+00 0. -1.
</event>
<event>
 7    1  0.4432754E-010  0.4778727E+02  0.7816164E-02  0.1312668E+00
        -11   -1    0    0    0    0  0.00000000000E+00  0.00000000000E+00  0.45593999997E+02  0.45594000000E+02  0.51100000000E-03 0.  1.
         11   -1    0    0    0    0 -0.00000000000E+00 -0.00000000000E+00 -0.45593999997E+02  0.45594000000E+02  0.51100000000E-03 0. -1.
    9900012    2    1    2    0    0 -0.12369615061E+02 -0.41469762782E+01 -0.41393461372E+02  0.47787269207E+02  0.19999991621E+02 0.  0.
        -12    1    1    2    0    0  0.12369615061E+02  0.41469762782E+01  0.41393461372E+02  0.43400730793E+02  0.00000000000E+00 0.  1.
         11    1    3    3    0    0 -0.56789930693E+01 -0.11549715582E+01 -0.66138082404E+01  0.87935988812E+01  0.51100000000E-03 0. -1.
        -11    1    3    3    0    0 -0.54101340818E+01  0.25081393114E+01 -0.29243892432E+01  0.66417141082E+01  0.51100000000E-03 0.  1.
         12    1    3    3    0    0 -0.12804879099E+01 -0.55001440314E+01 -0.31855263889E+02  0.32351956217E+02  0.00000000000E+00 0. -1.
</event>
<event>
 7    1  0.4432754E-010  0.4778727E+02  0.7816164E-02  0.1312668E+00
        -11   -1    0    0    0    0  0.00000000000E+00  0.00000000000E+00  0.45593999997E+02  0.45594000000E+02  0.51100000000E-03 0.  1.
         11   -1    0    0    0    0 -0.00000000000E+00 -0.00000000000E+00 -0.45593999997E+02  0.45594000000E+02  0.51100000000E-03 0. -1.
    9900012    2    1    2    0    0  0.84279902914E+01 -0.24718971683E+02 -0.34663592616E+02  0.47787271498E+02  0.20000002067E+02 0.  0.
        -12    1    1    2    0    0 -0.84279902914E+01  0.24718971683E+02  0.34663592616E+02  0.43400728502E+02  0.00000000000E+00 0.  1.
         11    1    3    3    0    0 -0.20793919139E+01 -0.32066877866E+01 -0.37684166149E+00  0.38404071647E+01  0.51100000000E-03 0. -1.
        -11    1    3    3    0    0 -0.31612099030E+00  0.67070703607E+00 -0.74442429939E+01  0.74810784264E+01  0.51100000000E-03 0.  1.
         12    1    3    3    0    0  0.10823503196E+02 -0.22182990933E+02 -0.26842507961E+02  0.36465785907E+02  0.00000000000E+00 0. -1.
</event>
<event>
 7    1  0.4432754E-010  0.4778727E+02  0.7816164E-02  0.1312668E+00
        -11   -1    0    0    0    0  0.00000000000E+00  0.00000000000E+00  0.45593999997E+02  0.45594000000E+02  0.51100000000E-03 0. -1.
         11   -1    0    0    0    0 -0.00000000000E+00 -0.00000000000E+00 -0.45593999997E+02  0.45594000000E+02  0.51100000000E-03 0.  1.
    9900012    2    1    2    0    0 -0.32193301070E+02  0.40450228957E+01  0.28824513996E+02  0.47787269003E+02  0.19999990691E+02 0.  0.
        -12    1    1    2    0    0  0.32193301070E+02 -0.40450228957E+01 -0.28824513996E+02  0.43400730997E+02  0.00000000000E+00 0.  1.
         11    1    3    3    0    0  0.87888902769E+00 -0.94335373648E+00  0.11001548947E+01  0.16949050854E+01  0.51100000000E-03 0. -1.
        -11    1    3    3    0    0 -0.36818739531E+01  0.18861857591E+01  0.11837018569E+02  0.12539094919E+02  0.51100000000E-03 0.  1.
        -12    1    3    3    0    0 -0.29390316144E+02  0.31021908731E+01  0.15887340532E+02  0.33553268998E+02  0.00000000000E+00 0.  1.
</event>
<event>
 7    1  0.4432754E-010  0.4778728E+02  0.7816164E-02  0.1312668E+00
        -11   -1    0    0    0    0  0.00000000000E+00  0.00000000000E+00  0.45593999997E+02  0.45594000000E+02  0.51100000000E-03 0.  1.
         11   -1    0    0    0    0 -0.00000000000E+00 -0.00000000000E+00 -0.45593999997E+02  0.45594000000E+02  0.51100000000E-03 0. -1.
    9900012    2    1    2    0    0 -0.86962585730E+00 -0.17144550169E+02 -0.39861392648E+02  0.47787280266E+02  0.20000042044E+02 0.  0.
        -12    1    1    2    0    0  0.86962585730E+00  0.17144550169E+02  0.39861392648E+02  0.43400719734E+02  0.00000000000E+00 0.  1.
         11    1    3    3    0    0 -0.88155074669E+01 -0.61820916164E+01 -0.18624591238E+02  0.21512945584E+02  0.51100000000E-03 0. -1.
        -11    1    3    3    0    0  0.28885961998E+01  0.46715515070E+00 -0.48628174896E+01  0.56753163910E+01  0.51100000000E-03 0.  1.
        -12    1    3    3    0    0  0.50572854099E+01 -0.11429613704E+02 -0.16373983920E+02  0.20599018291E+02  0.00000000000E+00 0.  1.
</event>
<event>
 7    1  0.4432754E-010  0.4778727E+02  0.7816164E-02  0.1312668E+00
        -11   -1    0    0    0    0  0.00000000000E+00  0.00000000000E+00  0.45593999997E+02  0.45594000000E+02  0.51100000000E-03 0.  1.
         11   -1    0    0    0    0 -0.00000000000E+00 -0.00000000000E+00 -0.45593999997E+02  0.45594000000E+02  0.51100000000E-03 0. -1.
    9900012    2    1    2    0    0 -0.22112942464E+02  0.14411148838E+02 -0.34452284447E+02  0.47787270296E+02  0.19999996586E+02 0.  0.
        -12    1    1    2    0    0  0.22112942464E+02 -0.14411148838E+02  0.34452284447E+02  0.43400729704E+02  0.00000000000E+00 0.  1.
         11    1    3    3    0    0 -0.70221800594E+01  0.22217524961E+01 -0.20385178372E+02  0.21674932398E+02  0.51100000000E-03 0. -1.
        -11    1    3    3    0    0  0.12432444753E+01  0.87744340971E+00 -0.30136641887E+01  0.33760532973E+01  0.51100000000E-03 0.  1.
        -12    1    3    3    0    0 -0.16334006880E+02  0.11311952933E+02 -0.11053441886E+02  0.22736284600E+02  0.00000000000E+00 0.  1.
</event>
<event>
 7    1  0.4432754E-010  0.4778728E+02  0.7816164E-02  0.1312668E+00
        -11   -1    0    0    0    0  0.00000000000E+00  0.00000000000E+00  0.45593999997E+02  0.45594000000E+02  0.51100000000E-03 0.  1.
         11   -1    0    0    0    0 -0.00000000000E+00 -0.00000000000E+00 -0.45593999997E+02  0.45594000000E+02  0.51100000000E-03 0. -1.
    9900012    2    1    2    0    0 -0.25223770716E+02  0.29814096520E+02 -0.18934194892E+02  0.47787277694E+02  0.20000030317E+02 0.  0.
        -12    1    1    2    0    0  0.25223770716E+02 -0.29814096520E+02  0.18934194892E+02  0.43400722306E+02  0.00000000000E+00 0.  1.
         11    1    3    3    0    0 -0.14285308817E+02  0.15217716283E+02 -0.39216435395E+01  0.21237425107E+02  0.51100000000E-03 0. -1.
        -11    1    3    3    0    0 -0.21959878911E+01  0.10001364970E+02 -0.23762160366E+01  0.10511710945E+02  0.51100000000E-03 0.  1.
         12    1    3    3    0    0 -0.87424740085E+01  0.45950152672E+01 -0.12636335316E+02  0.16038141641E+02  0.00000000000E+00 0. -1.
</event>
<event>
 7    1  0.4432754E-010  0.4778728E+02  0.7816164E-02  0.1312668E+00
        -11   -1    0    0    0    0  0.00000000000E+00  0.00000000000E+00  0.45593999997E+02  0.45594000000E+02  0.51100000000E-03 0. -1.
         11   -1    0    0    0    0 -0.00000000000E+00 -0.00000000000E+00 -0.45593999997E+02  0.45594000000E+02  0.51100000000E-03 0.  1.
    9900012    2    1    2    0    0  0.97725088300E+01 -0.30402209473E+02  0.29390926378E+02  0.47787276238E+02  0.20000023681E+02 0.  0.
        -12    1    1    2    0    0 -0.97725088300E+01  0.30402209473E+02 -0.29390926378E+02  0.43400723762E+02  0.00000000000E+00 0.  1.
         11    1    3    3    0    0 -0.97595386152E+00 -0.99707327020E+01  0.10006853109E+02  0.14159982555E+02  0.51100000000E-03 0. -1.
        -11    1    3    3    0    0 -0.19395864772E+01  0.10208953931E+01  0.33095771100E+01  0.39695747901E+01  0.51100000000E-03 0.  1.
         12    1    3    3    0    0  0.12688049169E+02 -0.21452372164E+02  0.16074496159E+02  0.29657718893E+02  0.00000000000E+00 0. -1.
</event>
<event>
 7    1  0.4432754E-010  0.4778727E+02  0.7816164E-02  0.1312668E+00
        -11   -1    0    0    0    0  0.00000000000E+00  0.00000000000E+00  0.45593999997E+02  0.45594000000E+02  0.51100000000E-03 0.  1.
         11   -1    0    0    0    0 -0.00000000000E+00 -0.00000000000E+00 -0.45593999997E+02  0.45594000000E+02  0.51100000000E-03 0. -1.
    9900012    2    1    2    0    0  0.52451343932E+01 -0.39446480487E+01 -0.42901650489E+02  0.47787270770E+02  0.19999998747E+02 0.  0.
        -12    1    1    2    0    0 -0.52451343932E+01  0.39446480487E+01  0.42901650489E+02  0.43400729230E+02  0.00000000000E+00 0.  1.
         11    1    3    3    0    0  0.43257519687E+01  0.53457710122E+01 -0.83954552151E+01  0.10852329996E+02  0.51100000000E-03 0.  1.
        -11    1    3    3    0    0 -0.95027211072E+00  0.15122179313E+01 -0.89499314318E+01  0.91263954029E+01  0.51100000000E-03 0. -1.
        -12    1    3    3    0    0  0.18696545352E+01 -0.10802636992E+02 -0.25556263842E+02  0.27808545371E+02  0.00000000000E+00 0.  1.
</event>
<event>
 7    1  0.4432754E-010  0.4778727E+02  0.7816164E-02  0.1312668E+00
        -11   -1    0    0    0    0  0.00000000000E+00  0.00000000000E+00  0.45593999997E+02  0.45594000000E+02  0.51100000000E-03 0. -1.
         11   -1    0    0    0    0 -0.00000000000E+00 -0.00000000000E+00 -0.45593999997E+02  0.45594000000E+02  0.51100000000E-03 0.  1.
    9900012    2    1    2    0    0 -0.38299548966E+02 -0.16087635752E+02 -0.12568057250E+02  0.47787268001E+02  0.19999986122E+02 0.  0.
        -12    1    1    2    0    0  0.38299548966E+02  0.16087635752E+02  0.12568057250E+02  0.43400731999E+02  0.00000000000E+00 0.  1.
         11    1    3    3    0    0 -0.23591404215E+02 -0.52310169037E+01 -0.11322748811E+02  0.26685624062E+02  0.51100000000E-03 0. -1.
        -11    1    3    3    0    0 -0.15279017021E+01 -0.37259063680E+01 -0.42097671757E+01  0.58257189950E+01  0.51100000000E-03 0.  1.
        -12    1    3    3    0    0 -0.13180243048E+02 -0.71307124800E+01  0.29644587358E+01  0.15275924943E+02  0.00000000000E+00 0.  1.
</event>
<event>
 7    1  0.4432754E-010  0.4778727E+02  0.7816164E-02  0.1312668E+00
        -11   -1    0    0    0    0  0.00000000000E+00  0.00000000000E+00  0.45593999997E+02  0.45594000000E+02  0.51100000000E-03 0. -1.
         11   -1    0    0    0    0 -0.00000000000E+00 -0.00000000000E+00 -0.45593999997E+02  0.45594000000E+02  0.51100000000E-03 0.  1.
    9900012    2    1    2    0    0  0.32706671037E+02 -0.28214036410E+02  0.42266945271E+01  0.47787272731E+02  0.20000007691E+02 0.  0.
        -12    1    1    2    0    0 -0.32706671037E+02  0.28214036410E+02 -0.42266945271E+01  0.43400727269E+02  0.00000000000E+00 0.  1.
         11    1    3    3    0    0  0.23432883903E+02 -0.12280963781E+02  0.80421758723E-02  0.26456042492E+02  0.51100000000E-03 0.  1.
        -11    1    3    3    0    0  0.55802742416E+01 -0.13935656005E+01  0.23530299780E+01  0.62143572502E+01  0.51100000000E-03 0. -1.
        -12    1    3    3    0    0  0.36935128916E+01 -0.14539507029E+02  0.18656223732E+01  0.15116872989E+02  0.00000000000E+00 0.  1.
</event>
<event>
 7    1  0.4432754E-010  0.4778727E+02  0.7816164E-02  0.1312668E+00
        -11   -1    0    0    0    0  0.00000000000E+00  0.00000000000E+00  0.45593999997E+02  0.45594000000E+02  0.51100000000E-03 0.  1.
         11   -1    0    0    0    0 -0.00000000000E+00 -0.00000000000E+00 -0.45593999997E+02  0.45594000000E+02  0.51100000000E-03 0. -1.
    9900012    2    1    2    0    0  0.13663680384E+02 -0.48544035913E+01 -0.40906746575E+02  0.47787270614E+02  0.19999998038E+02 0.  0.
        -12    1    1    2    0    0 -0.13663680384E+02  0.48544035913E+01  0.40906746575E+02  0.43400729386E+02  0.00000000000E+00 0.  1.
         11    1    3    3    0    0  0.28637342236E+01 -0.51568271816E+01 -0.30318716705E+02  0.30887188657E+02  0.51100000000E-03 0. -1.
        -11    1    3    3    0    0  0.88451441663E+00 -0.10765290206E+01  0.90272267730E+00  0.16601773937E+01  0.51100000000E-03 0.  1.
         12    1    3    3    0    0  0.99154317441E+01  0.13789526109E+01 -0.11490752548E+02  0.15239904563E+02  0.00000000000E+00 0. -1.
</event>
<event>
 7    1  0.4432754E-010  0.4778728E+02  0.7816164E-02  0.1312668E+00
        -11   -1    0    0    0    0  0.00000000000E+00  0.00000000000E+00  0.45593999997E+02  0.45594000000E+02  0.51100000000E-03 0.  1.
         11   -1    0    0    0    0 -0.00000000000E+00 -0.00000000000E+00 -0.45593999997E+02  0.45594000000E+02  0.51100000000E-03 0. -1.
    9900012    2    1    2    0    0  0.29228041458E+01 -0.37297202788E+02  0.21999965601E+02  0.47787278735E+02  0.20000035066E+02 0.  0.
        -12    1    1    2    0    0 -0.29228041458E+01  0.37297202788E+02 -0.21999965601E+02  0.43400721265E+02  0.00000000000E+00 0.  1.
         11    1    3    3    0    0 -0.29116997042E+01 -0.13202210713E+02  0.35808144250E+01  0.13985656763E+02  0.51100000000E-03 0. -1.
        -11    1    3    3    0    0 -0.10909318042E+01  0.97802111865E+00 -0.59483984500E+00  0.15812944736E+01  0.51100000000E-03 0.  1.
        -12    1    3    3    0    0  0.69254356541E+01 -0.25073013193E+02  0.19013991021E+02  0.32220327499E+02  0.00000000000E+00 0.  1.
</event>
<event>
 7    1  0.4432754E-010  0.4778727E+02  0.7816164E-02  0.1312668E+00
        -11   -1    0    0    0    0  0.00000000000E+00  0.00000000000E+00  0.45593999997E+02  0.45594000000E+02  0.51100000000E-03 0.  1.
         11   -1    0    0    0    0 -0.00000000000E+00 -0.00000000000E+00 -0.45593999997E+02  0.45594000000E+02  0.51100000000E-03 0. -1.
    9900012    2    1    2    0    0  0.23726864587E+02  0.33807821422E+02 -0.13330070930E+02  0.47787266326E+02  0.19999978487E+02 0.  0.
        -12    1    1    2    0    0 -0.23726864587E+02 -0.33807821422E+02  0.13330070930E+02  0.43400733674E+02  0.00000000000E+00 0.  1.
         11    1    3    3    0    0  0.60122341070E+01  0.12660018398E+02  0.20195268691E+01  0.14159855714E+02  0.51100000000E-03 0. -1.
        -11    1    3    3    0    0  0.41629654349E+01  0.13949025268E+02 -0.80517979755E+01  0.16635415175E+02  0.51100000000E-03 0.  1.
         12    1    3    3    0    0  0.13551665045E+02  0.71987777555E+01 -0.72977998240E+01  0.16991995437E+02  0.00000000000E+00 0. -1.
</event>
<event>
 7    1  0.4432754E-010  0.4778727E+02  0.7816164E-02  0.1312668E+00
        -11   -1    0    0    0    0  0.00000000000E+00  0.00000000000E+00  0.45593999997E+02  0.45594000000E+02  0.51100000000E-03 0.  1.
         11   -1    0    0    0    0 -0.00000000000E+00 -0.00000000000E+00 -0.45593999997E+02  0.45594000000E+02  0.51100000000E-03 0. -1.
    9900012    2    1    2    0    0  0.43701420357E+01 -0.22202304478E+02 -0.37034884499E+02  0.47787272640E+02  0.20000007275E+02 0.  0.
        -12    1    1    2    0    0 -0.43701420357E+01  0.22202304478E+02  0.37034884499E+02  0.43400727360E+02  0.00000000000E+00 0.  1.
         11    1    3    3    0    0 -0.31981954738E+00 -0.12885252958E+02 -0.23779605435E+02  0.27048136040E+02  0.51100000000E-03 0. -1.
        -11    1    3    3    0    0  0.43431332956E+01 -0.43610898524E+01 -0.14383085912E+02  0.15644649953E+02  0.51100000000E-03 0.  1.
        -12    1    3    3    0    0  0.34682828743E+00 -0.49559616673E+01  0.11278068487E+01  0.50944866471E+01  0.00000000000E+00 0.  1.
</event>
<event>
 7    1  0.4432754E-010  0.4778727E+02  0.7816164E-02  0.1312668E+00
        -11   -1    0    0    0    0  0.00000000000E+00  0.00000000000E+00  0.45593999997E+02  0.45594000000E+02  0.51100000000E-03 0. -1.
         11   -1    0    0    0    0 -0.00000000000E+00 -0.00000000000E+00 -0.45593999997E+02  0.45594000000E+02  0.51100000000E-03 0.  1.
    9900012    2    1    2    0    0  0.40279809142E+02 -0.14539484186E+02  0.70543357756E+01  0.47787270995E+02  0.19999999776E+02 0.  0.
        -12    1    1    2    0    0 -0.40279809142E+02  0.14539484186E+02 -0.70543357756E+01  0.43400729005E+02  0.00000000000E+00 0.  1.
         11    1    3    3    0    0  0.26828853718E+02 -0.15630099757E+02 -0.20750174113E+01  0.31119015212E+02  0.51100000000E-03 0. -1.
        -11    1    3    3    0    0  0.31646755248E+01  0.19551263547E+00  0.41010042993E+01  0.51837855754E+01  0.51100000000E-03 0.  1.
         12    1    3    3    0    0  0.10286279899E+02  0.89510293540E+00  0.50283488875E+01  0.11484470208E+02  0.00000000000E+00 0. -1.
</event>
<event>
 7    1  0.4432754E-010  0.4778728E+02  0.7816164E-02  0.1312668E+00
        -11   -1    0    0    0    0  0.00000000000E+00  0.00000000000E+00  0.45593999997E+02  0.45594000000E+02  0.51100000000E-03 0. -1.
         11   -1    0    0    0    0 -0.00000000000E+00 -0.00000000000E+00 -0.45593999997E+02  0.45594000000E+02  0.51100000000E-03 0.  1.
    9900012    2    1    2    0    0 -0.36120257467E+02 -0.23566634817E+02  0.48542368207E+01  0.47787275453E+02  0.20000020102E+02 0.  0.
        -12    1    1    2    0    0  0.36120257467E+02  0.23566634817E+02 -0.48542368207E+01  0.43400724547E+02  0.00000000000E+00 0.  1.
         11    1    3    3    0    0 -0.72071045996E+01  0.11308302842E+01  0.20487816194E+01  0.75775088405E+01  0.51100000000E-03 0. -1.
        -11    1    3    3    0    0 -0.12308391136E+02 -0.30054475821E+01 -0.57831812628E+00  0.12683203839E+02  0.51100000000E-03 0.  1.
         12    1    3    3    0    0 -0.16604761732E+02 -0.21692017519E+02  0.33837733276E+01  0.27526562774E+02  0.00000000000E+00 0. -1.
</event>
<event>
 7    1  0.4432754E-010  0.4778727E+02  0.7816164E-02  0.1312668E+00
        -11   -1    0    0    0    0  0.00000000000E+00  0.00000000000E+00  0.45593999997E+02  0.45594000000E+02  0.51100000000E-03 0.  1.
         11   -1    0    0    0    0 -0.00000000000E+00 -0.00000000000E+00 -0.45593999997E+02  0.45594000000E+02  0.51100000000E-03 0. -1.
    9900012    2    1    2    0    0 -0.30476201433E+02 -0.28604580734E+02  0.11687708795E+02  0.47787269251E+02  0.19999991821E+02 0.  0.
        -12    1    1    2    0    0  0.30476201433E+02  0.28604580734E+02 -0.11687708795E+02  0.43400730749E+02  0.00000000000E+00 0.  1.
         11    1    3    3    0    0 -0.18669971695E+01 -0.40012303912E+01 -0.18227468412E+01  0.47768116336E+01  0.51100000000E-03 0. -1.
        -11    1    3    3    0    0 -0.23738260402E+02 -0.11651033739E+02  0.54601197933E+01  0.27001194464E+02  0.51100000000E-03 0.  1.
        -12    1    3    3    0    0 -0.48709438613E+01 -0.12952316604E+02  0.80503358424E+01  0.16009263152E+02  0.00000000000E+00 0.  1.
</event>
<event>
 7    1  0.4432754E-010  0.4778727E+02  0.7816164E-02  0.1312668E+00
        -11   -1    0    0    0    0  0.00000000000E+00  0.00000000000E+00  0.45593999997E+02  0.45594000000E+02  0.51100000000E-03 0.  1.
         11   -1    0    0    0    0 -0.00000000000E+00 -0.00000000000E+00 -0.45593999997E+02  0.45594000000E+02  0.51100000000E-03 0. -1.
    9900012    2    1    2    0    0  0.21691060318E+02 -0.22379552393E+02 -0.30203926324E+02  0.47787266960E+02  0.19999981378E+02 0.  0.
        -12    1    1    2    0    0 -0.21691060318E+02  0.22379552393E+02  0.30203926324E+02  0.43400733040E+02  0.00000000000E+00 0.  1.
         11    1    3    3    0    0  0.21626288006E+02 -0.22587943785E+02 -0.26213689996E+02  0.40805258004E+02  0.51100000000E-03 0. -1.
        -11    1    3    3    0    0  0.19608943515E+01 -0.19979761294E+01 -0.22541235708E+01  0.35941742591E+01  0.51100000000E-03 0.  1.
        -12    1    3    3    0    0 -0.18961220393E+01  0.22063675214E+01 -0.17361127571E+01  0.33878346968E+01  0.00000000000E+00 0.  1.
</event>
<event>
 7    1  0.4432754E-010  0.4778727E+02  0.7816164E-02  0.1312668E+00
        -11   -1    0    0    0    0  0.00000000000E+00  0.00000000000E+00  0.45593999997E+02  0.45594000000E+02  0.51100000000E-03 0. -1.
         11   -1    0    0    0    0 -0.00000000000E+00 -0.00000000000E+00 -0.45593999997E+02  0.45594000000E+02  0.51100000000E-03 0.  1.
    9900012    2    1    2    0    0  0.36539525439E+02  0.20752912611E+02  0.10853692714E+02  0.47787274814E+02  0.20000017186E+02 0.  0.
        -12    1    1    2    0    0 -0.36539525439E+02 -0.20752912611E+02 -0.10853692714E+02  0.43400725186E+02  0.00000000000E+00 0.  1.
         11    1    3    3    0    0  0.18361031753E+02  0.10402366598E+02  0.55998232504E+01  0.21833340069E+02  0.51100000000E-03 0. -1.
        -11    1    3    3    0    0  0.15850733667E+02  0.11152582814E+02 -0.82167671003E+00  0.19398479685E+02  0.51100000000E-03 0.  1.
         12    1    3    3    0    0  0.23277600188E+01 -0.80203680096E+00  0.60755461734E+01  0.65554550597E+01  0.00000000000E+00 0. -1.
</event>
<event>
 7    1  0.4432754E-010  0.4778727E+02  0.7816164E-02  0.1312668E+00
        -11   -1    0    0    0    0  0.00000000000E+00  0.00000000000E+00  0.45593999997E+02  0.45594000000E+02  0.51100000000E-03 0.  1.
         11   -1    0    0    0    0 -0.00000000000E+00 -0.00000000000E+00 -0.45593999997E+02  0.45594000000E+02  0.51100000000E-03 0. -1.
    9900012    2    1    2    0    0  0.42418094327E+02  0.91706933519E+01 -0.47647195430E+00  0.47787269956E+02  0.19999995036E+02 0.  0.
        -12    1    1    2    0    0 -0.42418094327E+02 -0.91706933519E+01  0.47647195430E+00  0.43400730044E+02  0.00000000000E+00 0.  1.
         11    1    3    3    0    0  0.27768970172E+01  0.25425601125E+01 -0.28195938793E+01  0.47038153530E+01  0.51100000000E-03 0. -1.
        -11    1    3    3    0    0  0.61823407831E+01  0.71739269326E+01 -0.61111147735E+00  0.94899959268E+01  0.51100000000E-03 0.  1.
         12    1    3    3    0    0  0.33458856526E+02 -0.54579369326E+00  0.29542334023E+01  0.33593458676E+02  0.00000000000E+00 0. -1.
</event>
<event>
 7    1  0.4432754E-010  0.4778727E+02  0.7816164E-02  0.1312668E+00
        -11   -1    0    0    0    0  0.00000000000E+00  0.00000000000E+00  0.45593999997E+02  0.45594000000E+02  0.51100000000E-03 0.  1.
         11   -1    0    0    0    0 -0.00000000000E+00 -0.00000000000E+00 -0.45593999997E+02  0.45594000000E+02  0.51100000000E-03 0. -1.
    9900012    2    1    2    0    0  0.10985177949E+02  0.30462320554E+02 -0.28896302749E+02  0.47787269354E+02  0.19999992291E+02 0.  0.
        -12    1    1    2    0    0 -0.10985177949E+02 -0.30462320554E+02  0.28896302749E+02  0.43400730646E+02  0.00000000000E+00 0.  1.
         11    1    3    3    0    0  0.12893358694E+02  0.14743365464E+02 -0.13757456139E+02  0.23934768085E+02  0.51100000000E-03 0. -1.
        -11    1    3    3    0    0  0.86950292742E+00  0.24281060981E+01 -0.82164192841E+01  0.86116944139E+01  0.51100000000E-03 0.  1.
         12    1    3    3    0    0 -0.27776836717E+01  0.13290848992E+02 -0.69224273249E+01  0.15240806854E+02  0.00000000000E+00 0. -1.
</event>
<event>
 7    1  0.4432754E-010  0.4778727E+02  0.7816164E-02  0.1312668E+00
        -11   -1    0    0    0    0  0.00000000000E+00  0.00000000000E+00  0.45593999997E+02  0.45594000000E+02  0.51100000000E-03 0.  1.
         11   -1    0    0    0    0 -0.00000000000E+00 -0.00000000000E+00 -0.45593999997E+02  0.45594000000E+02  0.51100000000E-03 0. -1.
    9900012    2    1    2    0    0  0.16554089013E+02 -0.37590617975E+02 -0.14018945664E+02  0.47787271201E+02  0.20000000712E+02 0.  0.
        -12    1    1    2    0    0 -0.16554089013E+02  0.37590617975E+02  0.14018945664E+02  0.43400728799E+02  0.00000000000E+00 0.  1.
         11    1    3    3    0    0  0.49433755381E+01 -0.22330063549E+01 -0.16050864382E+01  0.56568172877E+01  0.51100000000E-03 0. -1.
        -11    1    3    3    0    0 -0.28279249320E+01 -0.92907409734E+01 -0.66748315747E+01  0.11784243890E+02  0.51100000000E-03 0.  1.
         12    1    3    3    0    0  0.14438638406E+02 -0.26066870647E+02 -0.57390276508E+01  0.30346210023E+02  0.00000000000E+00 0. -1.
</event>
<event>
 7    1  0.4432754E-010  0.4778727E+02  0.7816164E-02  0.1312668E+00
        -11   -1    0    0    0    0  0.00000000000E+00  0.00000000000E+00  0.45593999997E+02  0.45594000000E+02  0.51100000000E-03 0.  1.
         11   -1    0    0    0    0 -0.00000000000E+00 -0.00000000000E+00 -0.45593999997E+02  0.45594000000E+02  0.51100000000E-03 0. -1.
    9900012    2    1    2    0    0 -0.19902987852E+02 -0.35005328569E+02 -0.16190162372E+02  0.47787270614E+02  0.19999998036E+02 0.  0.
        -12    1    1    2    0    0  0.19902987852E+02  0.35005328569E+02  0.16190162372E+02  0.43400729386E+02  0.00000000000E+00 0.  1.
         11    1    3    3    0    0 -0.12691455684E+02 -0.20140687386E+02 -0.14571531803E+02  0.27911464940E+02  0.51100000000E-03 0. -1.
        -11    1    3    3    0    0  0.17107000884E+01 -0.25259292125E+01 -0.33735712059E+01  0.45483839022E+01  0.51100000000E-03 0.  1.
        -12    1    3    3    0    0 -0.89222322565E+01 -0.12338711970E+02  0.17549406366E+01  0.15327421771E+02  0.00000000000E+00 0.  1.
</event>
<event>
 7    1  0.4432754E-010  0.4778727E+02  0.7816164E-02  0.1312668E+00
        -11   -1    0    0    0    0  0.00000000000E+00  0.00000000000E+00  0.45593999997E+02  0.45594000000E+02  0.51100000000E-03 0. -1.
         11   -1    0    0    0    0 -0.00000000000E+00 -0.00000000000E+00 -0.45593999997E+02  0.45594000000E+02  0.51100000000E-03 0.  1.
    9900012    2    1    2    0    0 -0.43265572989E+02  0.22923574408E+00  0.34148427150E+01  0.47787268372E+02  0.19999987813E+02 0.  0.
        -12    1    1    2    0    0  0.43265572989E+02 -0.22923574408E+00 -0.34148427150E+01  0.43400731628E+02  0.00000000000E+00 0.  1.
         11    1    3    3    0    0 -0.11730635491E+02 -0.28240671921E+01 -0.65087770452E+00  0.12083327628E+02  0.51100000000E-03 0. -1.
        -11    1    3    3    0    0 -0.55761984436E+01  0.52131020863E+01 -0.37546111055E+01  0.85069105590E+01  0.51100000000E-03 0.  1.
         12    1    3    3    0    0 -0.25958739055E+02 -0.21597991502E+01  0.78203315250E+01  0.27197030184E+02  0.00000000000E+00 0. -1.
</event>
<event>
 7    1  0.4432754E-010  0.4778727E+02  0.7816164E-02  0.1312668E+00
        -11   -1    0    0    0    0  0.00000000000E+00  0.00000000000E+00  0.45593999997E+02  0.45594000000E+02  0.51100000000E-03 0. -1.
         11   -1    0    0    0    0 -0.00000000000E+00 -0.00000000000E+00 -0.45593999997E+02  0.45594000000E+02  0.51100000000E-03 0.  1.
    9900012    2    1    2    0    0 -0.18487293239E+02 -0.32444655079E+02 -0.22117589364E+02  0.47787269433E+02  0.19999992653E+02 0.  0.
        -12    1    1    2    0    0  0.18487293239E+02  0.32444655079E+02  0.22117589364E+02  0.43400730567E+02  0.00000000000E+00 0.  1.
         11    1    3    3    0    0 -0.52203846723E+01 -0.92474530425E+01 -0.71407974419E+01  0.12796827430E+02  0.51100000000E-03 0. -1.
        -11    1    3    3    0    0 -0.43104167266E+01 -0.83144516142E+01 -0.14925462355E+02  0.17620420675E+02  0.51100000000E-03 0.  1.
         12    1    3    3    0    0 -0.89564918405E+01 -0.14882750422E+02 -0.51329566967E-01  0.17370021328E+02  0.00000000000E+00 0. -1.
</event>
<event>
 7    1  0.4432754E-010  0.4778728E+02  0.7816164E-02  0.1312668E+00
        -11   -1    0    0    0    0  0.00000000000E+00  0.00000000000E+00  0.45593999997E+02  0.45594000000E+02  0.51100000000E-03 0.  1.
         11   -1    0    0    0    0 -0.00000000000E+00 -0.00000000000E+00 -0.45593999997E+02  0.45594000000E+02  0.51100000000E-03 0. -1.
    9900012    2    1    2    0    0  0.15637481494E+02 -0.34167542037E+02 -0.21717990231E+02  0.47787275858E+02  0.20000021949E+02 0.  0.
        -12    1    1    2    0    0 -0.15637481494E+02  0.34167542037E+02  0.21717990231E+02  0.43400724142E+02  0.00000000000E+00 0.  1.
         11    1    3    3    0    0  0.18372377561E+02 -0.27840006707E+02 -0.16029152138E+02  0.37007349935E+02  0.51100000000E-03 0. -1.
        -11    1    3    3    0    0  0.23794988356E+00 -0.29569054496E+01  0.62330598029E+00  0.30312407676E+01  0.51100000000E-03 0.  1.
         12    1    3    3    0    0 -0.29728459509E+01 -0.33706298805E+01 -0.63121440730E+01  0.77486851554E+01  0.00000000000E+00 0. -1.
</event>
<event>
 7    1  0.4432754E-010  0.4778727E+02  0.7816164E-02  0.1312668E+00
        -11   -1    0    0    0    0  0.00000000000E+00  0.00000000000E+00  0.45593999997E+02  0.45594000000E+02  0.51100000000E-03 0. -1.
         11   -1    0    0    0    0 -0.00000000000E+00 -0.00000000000E+00 -0.45593999997E+02  0.45594000000E+02  0.51100000000E-03 0.  1.
    9900012    2    1    2    0    0  0.28512888549E+01  0.23518489421E+02  0.36364460242E+02  0.47787272340E+02  0.20000005905E+02 0.  0.
        -12    1    1    2    0    0 -0.28512888549E+01 -0.23518489421E+02 -0.36364460242E+02  0.43400727660E+02  0.00000000000E+00 0.  1.
         11    1    3    3    0    0 -0.11822745742E+01  0.13107407200E+02  0.13216098224E+02  0.18651196991E+02  0.51100000000E-03 0. -1.
        -11    1    3    3    0    0 -0.44651510475E+01  0.39190845957E+01  0.38712004235E+01  0.70910500580E+01  0.51100000000E-03 0.  1.
         12    1    3    3    0    0  0.84987144766E+01  0.64919976249E+01  0.19277161594E+02  0.22045025290E+02  0.00000000000E+00 0. -1.
</event>
<event>
 7    1  0.4432754E-010  0.4778727E+02  0.7816164E-02  0.1312668E+00
        -11   -1    0    0    0    0  0.00000000000E+00  0.00000000000E+00  0.45593999997E+02  0.45594000000E+02  0.51100000000E-03 0.  1.
         11   -1    0    0    0    0 -0.00000000000E+00 -0.00000000000E+00 -0.45593999997E+02  0.45594000000E+02  0.51100000000E-03 0. -1.
    9900012    2    1    2    0    0 -0.36122182326E+02 -0.19004412859E+02 -0.14752751413E+02  0.47787269150E+02  0.19999991362E+02 0.  0.
        -12    1    1    2    0    0  0.36122182326E+02  0.19004412859E+02  0.14752751413E+02  0.43400730850E+02  0.00000000000E+00 0.  1.
         11    1    3    3    0    0 -0.12622959683E+02 -0.35775572339E+01  0.13957259907E+01  0.13194168341E+02  0.51100000000E-03 0. -1.
        -11    1    3    3    0    0 -0.69893237546E+01  0.35109056170E+00 -0.72705016955E+01  0.10091288634E+02  0.51100000000E-03 0.  1.
         12    1    3    3    0    0 -0.16509898888E+02 -0.15777946187E+02 -0.88779757078E+01  0.24501812175E+02  0.00000000000E+00 0. -1.
</event>
<event>
 7    1  0.4432754E-010  0.4778727E+02  0.7816164E-02  0.1312668E+00
        -11   -1    0    0    0    0  0.00000000000E+00  0.00000000000E+00  0.45593999997E+02  0.45594000000E+02  0.51100000000E-03 0. -1.
         11   -1    0    0    0    0 -0.00000000000E+00 -0.00000000000E+00 -0.45593999997E+02  0.45594000000E+02  0.51100000000E-03 0.  1.
    9900012    2    1    2    0    0 -0.48357543521E+01  0.33426434970E+02  0.27256416176E+02  0.47787270769E+02  0.19999998746E+02 0.  0.
        -12    1    1    2    0    0  0.48357543521E+01 -0.33426434970E+02 -0.27256416176E+02  0.43400729231E+02  0.00000000000E+00 0.  1.
         11    1    3    3    0    0 -0.13109124848E+01  0.12175923898E+02  0.11788747804E+01  0.12302900484E+02  0.51100000000E-03 0. -1.
        -11    1    3    3    0    0  0.35685418198E+01  0.37819974145E+01  0.52032394615E+01  0.73560652742E+01  0.51100000000E-03 0.  1.
         12    1    3    3    0    0 -0.70933836871E+01  0.17468513658E+02  0.20874301935E+02  0.28128305011E+02  0.00000000000E+00 0. -1.
</event>
<event>
 7    1  0.4432754E-010  0.4778727E+02  0.7816164E-02  0.1312668E+00
        -11   -1    0    0    0    0  0.00000000000E+00  0.00000000000E+00  0.45593999997E+02  0.45594000000E+02  0.51100000000E-03 0.  1.
         11   -1    0    0    0    0 -0.00000000000E+00 -0.00000000000E+00 -0.45593999997E+02  0.45594000000E+02  0.51100000000E-03 0. -1.
    9900012    2    1    2    0    0 -0.68156114309E+01 -0.25149276077E+02 -0.34708566186E+02  0.47787271745E+02  0.20000003195E+02 0.  0.
        -12    1    1    2    0    0  0.68156114309E+01  0.25149276077E+02  0.34708566186E+02  0.43400728255E+02  0.00000000000E+00 0.  1.
         11    1    3    3    0    0 -0.47800732334E+01 -0.45855704205E+01 -0.17150230644E+02  0.18384965804E+02  0.51100000000E-03 0. -1.
        -11    1    3    3    0    0  0.27016459411E+00 -0.12256069612E+02 -0.16730323864E+02  0.20740973172E+02  0.51100000000E-03 0.  1.
        -12    1    3    3    0    0 -0.23057027916E+01 -0.83076360441E+01 -0.82801167721E+00  0.86613327694E+01  0.00000000000E+00 0.  1.
</event>
<event>
 7    1  0.4432754E-010  0.4778727E+02  0.7816164E-02  0.1312668E+00
        -11   -1    0    0    0    0  0.00000000000E+00  0.00000000000E+00  0.45593999997E+02  0.45594000000E+02  0.51100000000E-03 0.  1.
         11   -1    0    0    0    0 -0.00000000000E+00 -0.00000000000E+00 -0.45593999997E+02  0.45594000000E+02  0.51100000000E-03 0. -1.
    9900012    2    1    2    0    0  0.50098026439E+01 -0.33508494332E+02 -0.27123900746E+02  0.47787270667E+02  0.19999998280E+02 0.  0.
        -12    1    1    2    0    0 -0.50098026439E+01  0.33508494332E+02  0.27123900746E+02  0.43400729333E+02  0.00000000000E+00 0.  1.
         11    1    3    3    0    0  0.13697345984E+01 -0.96029919304E+01 -0.39622158280E+01  0.10478205066E+02  0.51100000000E-03 0. -1.
        -11    1    3    3    0    0  0.88273396854E+01 -0.80651117987E+01 -0.59727546186E+01  0.13365693107E+02  0.51100000000E-03 0.  1.
         12    1    3    3    0    0 -0.51872716399E+01 -0.15840390603E+02 -0.17188930300E+02  0.23943372493E+02  0.00000000000E+00 0. -1.
</event>
<event>
 7    1  0.4432754E-010  0.4778727E+02  0.7816164E-02  0.1312668E+00
        -11   -1    0    0    0    0  0.00000000000E+00  0.00000000000E+00  0.45593999997E+02  0.45594000000E+02  0.51100000000E-03 0. -1.
         11   -1    0    0    0    0 -0.00000000000E+00 -0.00000000000E+00 -0.45593999997E+02  0.45594000000E+02  0.51100000000E-03 0.  1.
    9900012    2    1    2    0    0 -0.20359020493E+02  0.37512705341E+02  0.78696063379E+01  0.47787268654E+02  0.19999989103E+02 0.  0.
        -12    1    1    2    0    0  0.20359020493E+02 -0.37512705341E+02 -0.78696063379E+01  0.43400731346E+02  0.00000000000E+00 0.  1.
         11    1    3    3    0    0  0.10685284195E+01  0.10377616993E+01  0.14038245996E+01  0.20468087589E+01  0.51100000000E-03 0. -1.
        -11    1    3    3    0    0 -0.17746971275E+02  0.17341404359E+02 -0.11037607275E+01  0.24837423026E+02  0.51100000000E-03 0.  1.
        -12    1    3    3    0    0 -0.36805776376E+01  0.19133539283E+02  0.75695424657E+01  0.20903036870E+02  0.00000000000E+00 0.  1.
</event>
<event>
 7    1  0.4432754E-010  0.4778727E+02  0.7816164E-02  0.1312668E+00
        -11   -1    0    0    0    0  0.00000000000E+00  0.00000000000E+00  0.45593999997E+02  0.45594000000E+02  0.51100000000E-03 0.  1.
         11   -1    0    0    0    0 -0.00000000000E+00 -0.00000000000E+00 -0.45593999997E+02  0.45594000000E+02  0.51100000000E-03 0. -1.
    9900012    2    1    2    0    0  0.36203898139E+02 -0.77399621829E+01 -0.22649373392E+02  0.47787269936E+02  0.19999994947E+02 0.  0.
        -12    1    1    2    0    0 -0.36203898139E+02  0.77399621829E+01  0.22649373392E+02  0.43400730064E+02  0.00000000000E+00 0.  1.
         11    1    3    3    0    0  0.10144132407E+02 -0.26473384118E+01 -0.71090569966E+01  0.12666906276E+02  0.51100000000E-03 0.  1.
        -11    1    3    3    0    0  0.22489264742E+02 -0.29104178899E+01 -0.19082825667E+02  0.29637675291E+02  0.51100000000E-03 0. -1.
        -12    1    3    3    0    0  0.35705009895E+01 -0.21822058812E+01  0.35425092715E+01  0.54826883700E+01  0.00000000000E+00 0.  1.
</event>
<event>
 7    1  0.4432754E-010  0.4778727E+02  0.7816164E-02  0.1312668E+00
        -11   -1    0    0    0    0  0.00000000000E+00  0.00000000000E+00  0.45593999997E+02  0.45594000000E+02  0.51100000000E-03 0. -1.
         11   -1    0    0    0    0 -0.00000000000E+00 -0.00000000000E+00 -0.45593999997E+02  0.45594000000E+02  0.51100000000E-03 0.  1.
    9900012    2    1    2    0    0 -0.29195074360E+02  0.81568802757E+01  0.31060205015E+02  0.47787269611E+02  0.19999993464E+02 0.  0.
        -12    1    1    2    0    0  0.29195074360E+02 -0.81568802757E+01 -0.31060205015E+02  0.43400730389E+02  0.00000000000E+00 0.  1.
         11    1    3    3    0    0  0.33948694816E+00 -0.28470984926E+00 -0.98716475771E+00  0.10820377102E+01  0.51100000000E-03 0.  1.
        -11    1    3    3    0    0 -0.13364642077E+02  0.11343235116E+02  0.17301783427E+02  0.24629948250E+02  0.51100000000E-03 0. -1.
         12    1    3    3    0    0 -0.16169919231E+02 -0.29016449914E+01  0.14745586346E+02  0.22075283651E+02  0.00000000000E+00 0. -1.
</event>
<event>
 7    1  0.4432754E-010  0.4778727E+02  0.7816164E-02  0.1312668E+00
        -11   -1    0    0    0    0  0.00000000000E+00  0.00000000000E+00  0.45593999997E+02  0.45594000000E+02  0.51100000000E-03 0.  1.
         11   -1    0    0    0    0 -0.00000000000E+00 -0.00000000000E+00 -0.45593999997E+02  0.45594000000E+02  0.51100000000E-03 0. -1.
    9900012    2    1    2    0    0  0.25303539911E+02  0.75802117711E+01 -0.34436816656E+02  0.47787273232E+02  0.20000009976E+02 0.  0.
        -12    1    1    2    0    0 -0.25303539911E+02 -0.75802117711E+01  0.34436816656E+02  0.43400726768E+02  0.00000000000E+00 0.  1.
         11    1    3    3    0    0  0.39658971974E+01 -0.28684692613E+01 -0.16835203174E+02  0.17532270893E+02  0.51100000000E-03 0. -1.
        -11    1    3    3    0    0  0.56658842766E+01  0.30284874232E+01 -0.15110751892E+01  0.65997976633E+01  0.51100000000E-03 0.  1.
        -12    1    3    3    0    0  0.15671758437E+02  0.74201936092E+01 -0.16090538293E+02  0.23655204676E+02  0.00000000000E+00 0.  1.
</event>
<event>
 7    1  0.4432754E-010  0.4778727E+02  0.7816164E-02  0.1312668E+00
        -11   -1    0    0    0    0  0.00000000000E+00  0.00000000000E+00  0.45593999997E+02  0.45594000000E+02  0.51100000000E-03 0. -1.
         11   -1    0    0    0    0 -0.00000000000E+00 -0.00000000000E+00 -0.45593999997E+02  0.45594000000E+02  0.51100000000E-03 0.  1.
    9900012    2    1    2    0    0 -0.21910885531E+02  0.31206998717E+02 -0.20728231353E+02  0.47787271335E+02  0.20000001323E+02 0.  0.
        -12    1    1    2    0    0  0.21910885531E+02 -0.31206998717E+02  0.20728231353E+02  0.43400728665E+02  0.00000000000E+00 0.  1.
         11    1    3    3    0    0 -0.84596395772E+01  0.18573946630E+02 -0.17870212990E+02  0.27127504636E+02  0.51100000000E-03 0. -1.
        -11    1    3    3    0    0 -0.72438076320E+01  0.43604792867E+01 -0.53705228804E+01  0.10016438733E+02  0.51100000000E-03 0.  1.
        -12    1    3    3    0    0 -0.62074383216E+01  0.82725728000E+01  0.25125045172E+01  0.10643327966E+02  0.00000000000E+00 0.  1.
</event>
<event>
 7    1  0.4432754E-010  0.4778727E+02  0.7816164E-02  0.1312668E+00
        -11   -1    0    0    0    0  0.00000000000E+00  0.00000000000E+00  0.45593999997E+02  0.45594000000E+02  0.51100000000E-03 0. -1.
         11   -1    0    0    0    0 -0.00000000000E+00 -0.00000000000E+00 -0.45593999997E+02  0.45594000000E+02  0.51100000000E-03 0.  1.
    9900012    2    1    2    0    0  0.15503454635E+02 -0.13541722569E+02  0.38208479517E+02  0.47787271173E+02  0.20000000584E+02 0.  0.
        -12    1    1    2    0    0 -0.15503454635E+02  0.13541722569E+02 -0.38208479517E+02  0.43400728827E+02  0.00000000000E+00 0.  1.
         11    1    3    3    0    0  0.66646994023E+01 -0.81845615719E+01  0.98693086037E+01  0.14450208262E+02  0.51100000000E-03 0. -1.
        -11    1    3    3    0    0  0.52903178693E+00  0.25033504675E+01  0.17136540509E+02  0.17326501639E+02  0.51100000000E-03 0.  1.
        -12    1    3    3    0    0  0.83097234459E+01 -0.78605114641E+01  0.11202630405E+02  0.16010561271E+02  0.00000000000E+00 0.  1.
</event>
<event>
 7    1  0.4432754E-010  0.4778727E+02  0.7816164E-02  0.1312668E+00
        -11   -1    0    0    0    0  0.00000000000E+00  0.00000000000E+00  0.45593999997E+02  0.45594000000E+02  0.51100000000E-03 0.  1.
         11   -1    0    0    0    0 -0.00000000000E+00 -0.00000000000E+00 -0.45593999997E+02  0.45594000000E+02  0.51100000000E-03 0. -1.
    9900012    2    1    2    0    0 -0.75221903159E+01  0.26119845241E+01 -0.42664011629E+02  0.47787266152E+02  0.19999977693E+02 0.  0.
        -12    1    1    2    0    0  0.75221903159E+01 -0.26119845241E+01  0.42664011629E+02  0.43400733848E+02  0.00000000000E+00 0.  1.
         11    1    3    3    0    0 -0.20649419728E+01 -0.34809796641E+01 -0.12895515730E+01  0.42478404270E+01  0.51100000000E-03 0. -1.
        -11    1    3    3    0    0 -0.24258989519E+01 -0.77748715924E-02 -0.10496883562E+01  0.26432729862E+01  0.51100000000E-03 0.  1.
         12    1    3    3    0    0 -0.30313493912E+01  0.61007390597E+01 -0.40324771700E+02  0.40896152739E+02  0.00000000000E+00 0. -1.
</event>
<event>
 7    1  0.4432754E-010  0.4778728E+02  0.7816164E-02  0.1312668E+00
        -11   -1    0    0    0    0  0.00000000000E+00  0.00000000000E+00  0.45593999997E+02  0.45594000000E+02  0.51100000000E-03 0.  1.
         11   -1    0    0    0    0 -0.00000000000E+00 -0.00000000000E+00 -0.45593999997E+02  0.45594000000E+02  0.51100000000E-03 0. -1.
    9900012    2    1    2    0    0 -0.22745743308E+02  0.22712125280E+02 -0.29161848811E+02  0.47787275358E+02  0.20000019668E+02 0.  0.
        -12    1    1    2    0    0  0.22745743308E+02 -0.22712125280E+02  0.29161848811E+02  0.43400724642E+02  0.00000000000E+00 0.  1.
         11    1    3    3    0    0  0.41163858362E+00  0.14466845147E+01  0.49625448379E+00  0.15838595842E+01  0.51100000000E-03 0. -1.
        -11    1    3    3    0    0 -0.20603036570E+00 -0.21717716985E+01 -0.34021348619E+00  0.22078918224E+01  0.51100000000E-03 0.  1.
         12    1    3    3    0    0 -0.22951351526E+02  0.23437212463E+02 -0.29317889809E+02  0.43995523952E+02  0.00000000000E+00 0. -1.
</event>
<event>
 7    1  0.4432754E-010  0.4778727E+02  0.7816164E-02  0.1312668E+00
        -11   -1    0    0    0    0  0.00000000000E+00  0.00000000000E+00  0.45593999997E+02  0.45594000000E+02  0.51100000000E-03 0. -1.
         11   -1    0    0    0    0 -0.00000000000E+00 -0.00000000000E+00 -0.45593999997E+02  0.45594000000E+02  0.51100000000E-03 0.  1.
    9900012    2    1    2    0    0  0.11566823276E+02 -0.35091527980E+02 -0.22768768349E+02  0.47787267877E+02  0.19999985559E+02 0.  0.
        -12    1    1    2    0    0 -0.11566823276E+02  0.35091527980E+02  0.22768768349E+02  0.43400732123E+02  0.00000000000E+00 0.  1.
         11    1    3    3    0    0  0.10936899051E+01 -0.80962045826E+01 -0.88957634015E+01  0.12078050050E+02  0.51100000000E-03 0. -1.
        -11    1    3    3    0    0  0.63844442701E+01 -0.28382227847E+01 -0.77908676612E+01  0.10464905943E+02  0.51100000000E-03 0.  1.
         12    1    3    3    0    0  0.40886891011E+01 -0.24157100612E+02 -0.60821372865E+01  0.25244311885E+02  0.00000000000E+00 0. -1.
</event>
<event>
 7    1  0.4432754E-010  0.4778726E+02  0.7816164E-02  0.1312668E+00
        -11   -1    0    0    0    0  0.00000000000E+00  0.00000000000E+00  0.45593999997E+02  0.45594000000E+02  0.51100000000E-03 0.  1.
         11   -1    0    0    0    0 -0.00000000000E+00 -0.00000000000E+00 -0.45593999997E+02  0.45594000000E+02  0.51100000000E-03 0. -1.
    9900012    2    1    2    0    0  0.40670714481E+02 -0.10462852398E+02  0.10956540779E+02  0.47787261728E+02  0.19999957524E+02 0.  0.
        -12    1    1    2    0    0 -0.40670714481E+02  0.10462852398E+02 -0.10956540779E+02  0.43400738272E+02  0.00000000000E+00 0.  1.
         11    1    3    3    0    0  0.24809221056E+02 -0.83874365843E+01  0.55966445146E+01  0.26780010679E+02  0.51100000000E-03 0. -1.
        -11    1    3    3    0    0  0.16679067060E+02 -0.36021759835E+01  0.71639344075E+01  0.18506455799E+02  0.51100000000E-03 0.  1.
        -12    1    3    3    0    0 -0.81757363497E+00  0.15267601699E+01 -0.18040381426E+01  0.25007952505E+01  0.00000000000E+00 0.  1.
</event>
<event>
 7    1  0.4432754E-010  0.4778727E+02  0.7816164E-02  0.1312668E+00
        -11   -1    0    0    0    0  0.00000000000E+00  0.00000000000E+00  0.45593999997E+02  0.45594000000E+02  0.51100000000E-03 0.  1.
         11   -1    0    0    0    0 -0.00000000000E+00 -0.00000000000E+00 -0.45593999997E+02  0.45594000000E+02  0.51100000000E-03 0. -1.
    9900012    2    1    2    0    0 -0.24949787378E+02 -0.43142763224E+01 -0.35249370034E+02  0.47787274681E+02  0.20000016582E+02 0.  0.
        -12    1    1    2    0    0  0.24949787378E+02  0.43142763224E+01  0.35249370034E+02  0.43400725319E+02  0.00000000000E+00 0.  1.
         11    1    3    3    0    0  0.13407083792E+01 -0.13292227860E+01 -0.84115562289E+01  0.86208242428E+01  0.51100000000E-03 0. -1.
        -11    1    3    3    0    0 -0.57917573225E+01 -0.48906187400E+01 -0.46223211851E+01  0.88785391784E+01  0.51100000000E-03 0.  1.
         12    1    3    3    0    0 -0.20498738435E+02  0.19055652037E+01 -0.22215492620E+02  0.30287911260E+02  0.00000000000E+00 0. -1.
</event>
<event>
 7    1  0.4432754E-010  0.4778728E+02  0.7816164E-02  0.1312668E+00
        -11   -1    0    0    0    0  0.00000000000E+00  0.00000000000E+00  0.45593999997E+02  0.45594000000E+02  0.51100000000E-03 0. -1.
         11   -1    0    0    0    0 -0.00000000000E+00 -0.00000000000E+00 -0.45593999997E+02  0.45594000000E+02  0.51100000000E-03 0.  1.
    9900012    2    1    2    0    0 -0.42236337247E+02 -0.78181964881E+01  0.62121117376E+01  0.47787277511E+02  0.20000029482E+02 0.  0.
        -12    1    1    2    0    0  0.42236337247E+02  0.78181964881E+01 -0.62121117376E+01  0.43400722489E+02  0.00000000000E+00 0.  1.
         11    1    3    3    0    0 -0.13895228546E+00 -0.33033936427E+01  0.18277055490E+01  0.37778598612E+01  0.51100000000E-03 0. -1.
        -11    1    3    3    0    0 -0.23943112956E+01  0.12047714481E+01 -0.20620944220E+01  0.33817797812E+01  0.51100000000E-03 0.  1.
         12    1    3    3    0    0 -0.39703073666E+02 -0.57195742934E+01  0.64465006106E+01  0.40627637868E+02  0.00000000000E+00 0. -1.
</event>
<event>
 7    1  0.4432754E-010  0.4778727E+02  0.7816164E-02  0.1312668E+00
        -11   -1    0    0    0    0  0.00000000000E+00  0.00000000000E+00  0.45593999997E+02  0.45594000000E+02  0.51100000000E-03 0. -1.
         11   -1    0    0    0    0 -0.00000000000E+00 -0.00000000000E+00 -0.45593999997E+02  0.45594000000E+02  0.51100000000E-03 0.  1.
    9900012    2    1    2    0    0  0.18104907359E+01 -0.40582264059E+02  0.15278257315E+02  0.47787272132E+02  0.20000004959E+02 0.  0.
        -12    1    1    2    0    0 -0.18104907359E+01  0.40582264059E+02 -0.15278257315E+02  0.43400727868E+02  0.00000000000E+00 0.  1.
         11    1    3    3    0    0 -0.35429712947E+00 -0.43667324693E+01  0.27180832422E+01  0.51557594675E+01  0.51100000000E-03 0. -1.
        -11    1    3    3    0    0 -0.66304463080E+01 -0.18612300410E+02  0.94403119382E+00  0.19780589980E+02  0.51100000000E-03 0.  1.
        -12    1    3    3    0    0  0.87952341734E+01 -0.17603231179E+02  0.11616142879E+02  0.22850922684E+02  0.00000000000E+00 0.  1.
</event>
<event>
 7    1  0.4432754E-010  0.4778727E+02  0.7816164E-02  0.1312668E+00
        -11   -1    0    0    0    0  0.00000000000E+00  0.00000000000E+00  0.45593999997E+02  0.45594000000E+02  0.51100000000E-03 0.  1.
         11   -1    0    0    0    0 -0.00000000000E+00 -0.00000000000E+00 -0.45593999997E+02  0.45594000000E+02  0.51100000000E-03 0. -1.
    9900012    2    1    2    0    0 -0.22564627727E+02  0.22194591608E+02 -0.29696141946E+02  0.47787272269E+02  0.20000005584E+02 0.  0.
        -12    1    1    2    0    0  0.22564627727E+02 -0.22194591608E+02  0.29696141946E+02  0.43400727731E+02  0.00000000000E+00 0.  1.
         11    1    3    3    0    0 -0.93464595267E+01  0.10240963934E+01 -0.37176555194E+01  0.10110689488E+02  0.51100000000E-03 0. -1.
        -11    1    3    3    0    0  0.89099322092E+00  0.63871496788E+01 -0.92014128830E+01  0.11236349463E+02  0.51100000000E-03 0.  1.
         12    1    3    3    0    0 -0.14109161421E+02  0.14783345536E+02 -0.16777073544E+02  0.26440233318E+02  0.00000000000E+00 0. -1.
</event>
<event>
 7    1  0.4432754E-010  0.4778727E+02  0.7816164E-02  0.1312668E+00
        -11   -1    0    0    0    0  0.00000000000E+00  0.00000000000E+00  0.45593999997E+02  0.45594000000E+02  0.51100000000E-03 0.  1.
         11   -1    0    0    0    0 -0.00000000000E+00 -0.00000000000E+00 -0.45593999997E+02  0.45594000000E+02  0.51100000000E-03 0. -1.
    9900012    2    1    2    0    0 -0.24429856438E+02 -0.26833481049E+02 -0.23806926177E+02  0.47787270458E+02  0.19999997326E+02 0.  0.
        -12    1    1    2    0    0  0.24429856438E+02  0.26833481049E+02  0.23806926177E+02  0.43400729542E+02  0.00000000000E+00 0.  1.
         11    1    3    3    0    0 -0.62652393708E+01 -0.98425726089E+01 -0.12711925632E+02  0.17254637448E+02  0.51100000000E-03 0. -1.
        -11    1    3    3    0    0 -0.17114302579E+02 -0.19136412216E+02 -0.11462625276E+02  0.28115714534E+02  0.51100000000E-03 0.  1.
        -12    1    3    3    0    0 -0.10503144888E+01  0.21455037757E+01  0.36762473159E+00  0.24169184761E+01  0.00000000000E+00 0.  1.
</event>
<event>
 7    1  0.4432754E-010  0.4778726E+02  0.7816164E-02  0.1312668E+00
        -11   -1    0    0    0    0  0.00000000000E+00  0.00000000000E+00  0.45593999997E+02  0.45594000000E+02  0.51100000000E-03 0.  1.
         11   -1    0    0    0    0 -0.00000000000E+00 -0.00000000000E+00 -0.45593999997E+02  0.45594000000E+02  0.51100000000E-03 0. -1.
    9900012    2    1    2    0    0  0.38585530428E+02 -0.28650257763E+01 -0.19661457701E+02  0.47787257495E+02  0.19999938223E+02 0.  0.
        -12    1    1    2    0    0 -0.38585530428E+02  0.28650257763E+01  0.19661457701E+02  0.43400742505E+02  0.00000000000E+00 0.  1.
         11    1    3    3    0    0  0.42247418121E+01  0.72625828052E-01  0.39968526568E+01  0.58162315387E+01  0.51100000000E-03 0.  1.
        -11    1    3    3    0    0  0.82279267636E+01  0.75320796814E+00 -0.51520437428E+01  0.97370250107E+01  0.51100000000E-03 0. -1.
        -12    1    3    3    0    0  0.26132861852E+02 -0.36908595724E+01 -0.18506266615E+02  0.32234000946E+02  0.00000000000E+00 0.  1.
</event>
<event>
 7    1  0.4432754E-010  0.4778727E+02  0.7816164E-02  0.1312668E+00
        -11   -1    0    0    0    0  0.00000000000E+00  0.00000000000E+00  0.45593999997E+02  0.45594000000E+02  0.51100000000E-03 0.  1.
         11   -1    0    0    0    0 -0.00000000000E+00 -0.00000000000E+00 -0.45593999997E+02  0.45594000000E+02  0.51100000000E-03 0. -1.
    9900012    2    1    2    0    0  0.39595631488E+02  0.10109272011E+02 -0.14615468606E+02  0.47787270328E+02  0.19999996734E+02 0.  0.
        -12    1    1    2    0    0 -0.39595631488E+02 -0.10109272011E+02  0.14615468606E+02  0.43400729672E+02  0.00000000000E+00 0.  1.
         11    1    3    3    0    0  0.30474152437E+02  0.55429088842E+00 -0.13615773946E+02  0.33382188448E+02  0.51100000000E-03 0. -1.
        -11    1    3    3    0    0  0.18076396908E+01  0.24049656722E+01 -0.26929239231E+01  0.40377296409E+01  0.51100000000E-03 0.  1.
        -12    1    3    3    0    0  0.73138393599E+01  0.71500154503E+01  0.16932292635E+01  0.10367352240E+02  0.00000000000E+00 0.  1.
</event>
<event>
 7    1  0.4432754E-010  0.4778727E+02  0.7816164E-02  0.1312668E+00
        -11   -1    0    0    0    0  0.00000000000E+00  0.00000000000E+00  0.45593999997E+02  0.45594000000E+02  0.51100000000E-03 0. -1.
         11   -1    0    0    0    0 -0.00000000000E+00 -0.00000000000E+00 -0.45593999997E+02  0.45594000000E+02  0.51100000000E-03 0.  1.
    9900012    2    1    2    0    0  0.24373669835E+02  0.13433133902E+02  0.33303129472E+02  0.47787270740E+02  0.19999998613E+02 0.  0.
        -12    1    1    2    0    0 -0.24373669835E+02 -0.13433133902E+02 -0.33303129472E+02  0.43400729260E+02  0.00000000000E+00 0.  1.
         11    1    3    3    0    0  0.10666634366E+02  0.53069668224E+01  0.13168003451E+02  0.17757739177E+02  0.51100000000E-03 0. -1.
        -11    1    3    3    0    0  0.54177117203E+01  0.11354944324E+02  0.77361564532E+01  0.14769376352E+02  0.51100000000E-03 0.  1.
         12    1    3    3    0    0  0.82893237488E+01 -0.32287772450E+01  0.12398969568E+02  0.15260155211E+02  0.00000000000E+00 0. -1.
</event>
<event>
 7    1  0.4432754E-010  0.4778727E+02  0.7816164E-02  0.1312668E+00
        -11   -1    0    0    0    0  0.00000000000E+00  0.00000000000E+00  0.45593999997E+02  0.45594000000E+02  0.51100000000E-03 0.  1.
         11   -1    0    0    0    0 -0.00000000000E+00 -0.00000000000E+00 -0.45593999997E+02  0.45594000000E+02  0.51100000000E-03 0. -1.
    9900012    2    1    2    0    0  0.10655456762E+01  0.35152741696E+02 -0.25431724518E+02  0.47787271340E+02  0.20000001345E+02 0.  0.
        -12    1    1    2    0    0 -0.10655456762E+01 -0.35152741696E+02  0.25431724518E+02  0.43400728660E+02  0.00000000000E+00 0.  1.
         11    1    3    3    0    0 -0.31128447106E+00  0.12246867372E+02 -0.49550260199E+01  0.13214951440E+02  0.51100000000E-03 0. -1.
        -11    1    3    3    0    0  0.75382497006E+01  0.18368196078E+02 -0.17119280082E+02  0.26216132180E+02  0.51100000000E-03 0.  1.
         12    1    3    3    0    0 -0.61614195533E+01  0.45376782457E+01 -0.33574184158E+01  0.83561877188E+01  0.00000000000E+00 0. -1.
</event>
<event>
 7    1  0.4432754E-010  0.4778727E+02  0.7816164E-02  0.1312668E+00
        -11   -1    0    0    0    0  0.00000000000E+00  0.00000000000E+00  0.45593999997E+02  0.45594000000E+02  0.51100000000E-03 0.  1.
         11   -1    0    0    0    0 -0.00000000000E+00 -0.00000000000E+00 -0.45593999997E+02  0.45594000000E+02  0.51100000000E-03 0. -1.
    9900012    2    1    2    0    0  0.32280406050E+02 -0.55492642983E+01 -0.28474624403E+02  0.47787272081E+02  0.20000004727E+02 0.  0.
        -12    1    1    2    0    0 -0.32280406050E+02  0.55492642983E+01  0.28474624403E+02  0.43400727919E+02  0.00000000000E+00 0.  1.
         11    1    3    3    0    0  0.93965336496E-02 -0.23285063169E+01 -0.17058561879E+01  0.28865161628E+01  0.51100000000E-03 0. -1.
        -11    1    3    3    0    0  0.15518610317E+02 -0.79315512279E+01 -0.76058856437E+01  0.19015421840E+02  0.51100000000E-03 0.  1.
         12    1    3    3    0    0  0.16752399199E+02  0.47107932465E+01 -0.19162882571E+02  0.25885334079E+02  0.00000000000E+00 0. -1.
</event>
<event>
 7    1  0.4432754E-010  0.4778727E+02  0.7816164E-02  0.1312668E+00
        -11   -1    0    0    0    0  0.00000000000E+00  0.00000000000E+00  0.45593999997E+02  0.45594000000E+02  0.51100000000E-03 0. -1.
         11   -1    0    0    0    0 -0.00000000000E+00 -0.00000000000E+00 -0.45593999997E+02  0.45594000000E+02  0.51100000000E-03 0.  1.
    9900012    2    1    2    0    0 -0.33624438370E+02 -0.26539473272E+02  0.69768706409E+01  0.47787271651E+02  0.20000002766E+02 0.  0.
        -12    1    1    2    0    0  0.33624438370E+02  0.26539473272E+02 -0.69768706409E+01  0.43400728349E+02  0.00000000000E+00 0.  1.
         11    1    3    3    0    0 -0.23555412627E+02 -0.16277618945E+02 -0.15378960573E+01  0.28673741770E+02  0.51100000000E-03 0. -1.
        -11    1    3    3    0    0 -0.16341813098E+01  0.13128158514E+01 -0.54588883687E+00  0.21661091608E+01  0.51100000000E-03 0.  1.
         12    1    3    3    0    0 -0.84348444337E+01 -0.11574670178E+02  0.90606555350E+01  0.16947420720E+02  0.00000000000E+00 0. -1.
</event>
<event>
 7    1  0.4432754E-010  0.4778727E+02  0.7816164E-02  0.1312668E+00
        -11   -1    0    0    0    0  0.00000000000E+00  0.00000000000E+00  0.45593999997E+02  0.45594000000E+02  0.51100000000E-03 0. -1.
         11   -1    0    0    0    0 -0.00000000000E+00 -0.00000000000E+00 -0.45593999997E+02  0.45594000000E+02  0.51100000000E-03 0.  1.
    9900012    2    1    2    0    0  0.34256155628E+02  0.24335316755E+02  0.10859636991E+02  0.47787267799E+02  0.19999985204E+02 0.  0.
        -12    1    1    2    0    0 -0.34256155628E+02 -0.24335316755E+02 -0.10859636991E+02  0.43400732201E+02  0.00000000000E+00 0.  1.
         11    1    3    3    0    0  0.72849783106E+01  0.14629754501E+02  0.44374462768E+01  0.16934921182E+02  0.51100000000E-03 0. -1.
        -11    1    3    3    0    0  0.14062257808E+02  0.95623673270E+01  0.16360692411E+01  0.17083989182E+02  0.51100000000E-03 0.  1.
        -12    1    3    3    0    0  0.12908919510E+02  0.14319492731E+00  0.47861214729E+01  0.13768357435E+02  0.00000000000E+00 0.  1.
</event>
<event>
 7    1  0.4432754E-010  0.4778726E+02  0.7816164E-02  0.1312668E+00
        -11   -1    0    0    0    0  0.00000000000E+00  0.00000000000E+00  0.45593999997E+02  0.45594000000E+02  0.51100000000E-03 0.  1.
         11   -1    0    0    0    0 -0.00000000000E+00 -0.00000000000E+00 -0.45593999997E+02  0.45594000000E+02  0.51100000000E-03 0. -1.
    9900012    2    1    2    0    0  0.15966931012E+01  0.43265646971E+02 -0.30263519076E+01  0.47787257581E+02  0.19999938615E+02 0.  0.
        -12    1    1    2    0    0 -0.15966931012E+01 -0.43265646971E+02  0.30263519076E+01  0.43400742419E+02  0.00000000000E+00 0.  1.
         11    1    3    3    0    0 -0.26378014384E+01  0.13905346550E+02 -0.19281746149E+01  0.14284065132E+02  0.51100000000E-03 0. -1.
        -11    1    3    3    0    0 -0.16031151985E+01  0.24740329001E+01  0.45453285359E+01  0.54176405280E+01  0.51100000000E-03 0.  1.
         12    1    3    3    0    0  0.58376097381E+01  0.26886267521E+02 -0.56435058286E+01  0.28085551921E+02  0.00000000000E+00 0. -1.
</event>
<event>
 7    1  0.4432754E-010  0.4778727E+02  0.7816164E-02  0.1312668E+00
        -11   -1    0    0    0    0  0.00000000000E+00  0.00000000000E+00  0.45593999997E+02  0.45594000000E+02  0.51100000000E-03 0. -1.
         11   -1    0    0    0    0 -0.00000000000E+00 -0.00000000000E+00 -0.45593999997E+02  0.45594000000E+02  0.51100000000E-03 0.  1.
    9900012    2    1    2    0    0  0.37214661616E+02 -0.21944644992E+02  0.41382089447E+01  0.47787271247E+02  0.20000000925E+02 0.  0.
        -12    1    1    2    0    0 -0.37214661616E+02  0.21944644992E+02 -0.41382089447E+01  0.43400728753E+02  0.00000000000E+00 0.  1.
         11    1    3    3    0    0  0.16040409654E+02 -0.97073864693E+00  0.51644635398E+01  0.16879240483E+02  0.51100000000E-03 0. -1.
        -11    1    3    3    0    0  0.95353267889E+01 -0.55169245628E+01 -0.31107874614E+01  0.11447091879E+02  0.51100000000E-03 0.  1.
        -12    1    3    3    0    0  0.11638925173E+02 -0.15456981782E+02  0.20845328663E+01  0.19460938885E+02  0.00000000000E+00 0.  1.
</event>
<event>
 7    1  0.4432754E-010  0.4778727E+02  0.7816164E-02  0.1312668E+00
        -11   -1    0    0    0    0  0.00000000000E+00  0.00000000000E+00  0.45593999997E+02  0.45594000000E+02  0.51100000000E-03 0.  1.
         11   -1    0    0    0    0 -0.00000000000E+00 -0.00000000000E+00 -0.45593999997E+02  0.45594000000E+02  0.51100000000E-03 0. -1.
    9900012    2    1    2    0    0 -0.18844005225E+02 -0.15879246124E+02 -0.35726410008E+02  0.47787270024E+02  0.19999995349E+02 0.  0.
        -12    1    1    2    0    0  0.18844005225E+02  0.15879246124E+02  0.35726410008E+02  0.43400729976E+02  0.00000000000E+00 0.  1.
         11    1    3    3    0    0 -0.17875373003E+02 -0.55970652745E+01 -0.25030595054E+02  0.31263185838E+02  0.51100000000E-03 0. -1.
        -11    1    3    3    0    0 -0.10886937777E+01 -0.27042008428E+01 -0.79424278268E+01  0.84605033175E+01  0.51100000000E-03 0.  1.
        -12    1    3    3    0    0  0.12006155650E+00 -0.75779800067E+01 -0.27533871267E+01  0.80635808689E+01  0.00000000000E+00 0.  1.
</event>
<event>
 7    1  0.4432754E-010  0.4778727E+02  0.7816164E-02  0.1312668E+00
        -11   -1    0    0    0    0  0.00000000000E+00  0.00000000000E+00  0.45593999997E+02  0.45594000000E+02  0.51100000000E-03 0. -1.
         11   -1    0    0    0    0 -0.00000000000E+00 -0.00000000000E+00 -0.45593999997E+02  0.45594000000E+02  0.51100000000E-03 0.  1.
    9900012    2    1    2    0    0  0.24710278507E+02  0.33761315534E+02  0.11541184863E+02  0.47787271451E+02  0.20000001855E+02 0.  0.
        -12    1    1    2    0    0 -0.24710278507E+02 -0.33761315534E+02 -0.11541184863E+02  0.43400728549E+02  0.00000000000E+00 0.  1.
         11    1    3    3    0    0  0.35080996196E+01  0.45094731074E+01 -0.27476379190E+01  0.63396865098E+01  0.51100000000E-03 0. -1.
        -11    1    3    3    0    0  0.10140029993E+02  0.10073975883E+02  0.12917278195E+02  0.19265546308E+02  0.51100000000E-03 0.  1.
         12    1    3    3    0    0  0.11062148894E+02  0.19177866544E+02  0.13715445876E+01  0.22182038633E+02  0.00000000000E+00 0. -1.
</event>
<event>
 7    1  0.4432754E-010  0.4778727E+02  0.7816164E-02  0.1312668E+00
        -11   -1    0    0    0    0  0.00000000000E+00  0.00000000000E+00  0.45593999997E+02  0.45594000000E+02  0.51100000000E-03 0. -1.
         11   -1    0    0    0    0 -0.00000000000E+00 -0.00000000000E+00 -0.45593999997E+02  0.45594000000E+02  0.51100000000E-03 0.  1.
    9900012    2    1    2    0    0 -0.33774740732E+01 -0.30158631643E+01  0.43163881131E+02  0.47787269637E+02  0.19999993585E+02 0.  0.
        -12    1    1    2    0    0  0.33774740732E+01  0.30158631643E+01 -0.43163881131E+02  0.43400730363E+02  0.00000000000E+00 0.  1.
         11    1    3    3    0    0 -0.28214639597E+01 -0.45273106388E+01  0.22344281196E+02  0.22972246363E+02  0.51100000000E-03 0.  1.
        -11    1    3    3    0    0  0.14018116821E+01 -0.17923654301E+01  0.20850760097E+02  0.20974552360E+02  0.51100000000E-03 0. -1.
        -12    1    3    3    0    0 -0.19578217956E+01  0.33038129046E+01 -0.31160162571E-01  0.38404709148E+01  0.00000000000E+00 0.  1.
</event>
<event>
 7    1  0.4432754E-010  0.4778727E+02  0.7816164E-02  0.1312668E+00
        -11   -1    0    0    0    0  0.00000000000E+00  0.00000000000E+00  0.45593999997E+02  0.45594000000E+02  0.51100000000E-03 0. -1.
         11   -1    0    0    0    0 -0.00000000000E+00 -0.00000000000E+00 -0.45593999997E+02  0.45594000000E+02  0.51100000000E-03 0.  1.
    9900012    2    1    2    0    0 -0.31521346940E+02 -0.24793415077E+02 -0.16592604681E+02  0.47787271041E+02  0.19999999985E+02 0.  0.
        -12    1    1    2    0    0  0.31521346940E+02  0.24793415077E+02  0.16592604681E+02  0.43400728959E+02  0.00000000000E+00 0.  1.
         11    1    3    3    0    0 -0.12259497916E+02 -0.14302979367E+02 -0.49105374105E+01  0.19467508465E+02  0.51100000000E-03 0. -1.
        -11    1    3    3    0    0  0.17579893527E+01 -0.26257851656E+01 -0.35338313245E+00  0.31796468671E+01  0.51100000000E-03 0.  1.
         12    1    3    3    0    0 -0.21019838376E+02 -0.78646505446E+01 -0.11328684138E+02  0.25140115709E+02  0.00000000000E+00 0. -1.
</event>
<event>
 7    1  0.4432754E-010  0.4778727E+02  0.7816164E-02  0.1312668E+00
        -11   -1    0    0    0    0  0.00000000000E+00  0.00000000000E+00  0.45593999997E+02  0.45594000000E+02  0.51100000000E-03 0. -1.
         11   -1    0    0    0    0 -0.00000000000E+00 -0.00000000000E+00 -0.45593999997E+02  0.45594000000E+02  0.51100000000E-03 0.  1.
    9900012    2    1    2    0    0  0.36921575157E+02 -0.17291154878E+02 -0.14880736180E+02  0.47787273528E+02  0.20000011322E+02 0.  0.
        -12    1    1    2    0    0 -0.36921575157E+02  0.17291154878E+02  0.14880736180E+02  0.43400726472E+02  0.00000000000E+00 0.  1.
         11    1    3    3    0    0  0.14519950891E+02 -0.72289920313E+01 -0.13653040185E+02  0.21201245393E+02  0.51100000000E-03 0. -1.
        -11    1    3    3    0    0  0.26629893752E+01 -0.55888163435E+01 -0.13954344422E+01  0.63461498625E+01  0.51100000000E-03 0.  1.
        -12    1    3    3    0    0  0.19738634891E+02 -0.44733465035E+01  0.16773844686E+00  0.20239878272E+02  0.00000000000E+00 0.  1.
</event>
<event>
 7    1  0.4432754E-010  0.4778727E+02  0.7816164E-02  0.1312668E+00
        -11   -1    0    0    0    0  0.00000000000E+00  0.00000000000E+00  0.45593999997E+02  0.45594000000E+02  0.51100000000E-03 0.  1.
         11   -1    0    0    0    0 -0.00000000000E+00 -0.00000000000E+00 -0.45593999997E+02  0.45594000000E+02  0.51100000000E-03 0. -1.
    9900012    2    1    2    0    0 -0.25444757893E+02  0.12231890990E+02 -0.32963138077E+02  0.47787270360E+02  0.19999996880E+02 0.  0.
        -12    1    1    2    0    0  0.25444757893E+02 -0.12231890990E+02  0.32963138077E+02  0.43400729640E+02  0.00000000000E+00 0.  1.
         11    1    3    3    0    0 -0.16616559525E+02  0.25903887496E+00 -0.10764810967E+02  0.19800462292E+02  0.51100000000E-03 0. -1.
        -11    1    3    3    0    0  0.44615334938E+00  0.28056258907E+01 -0.84041897674E+00  0.29625822803E+01  0.51100000000E-03 0.  1.
         12    1    3    3    0    0 -0.92743517171E+01  0.91672262243E+01 -0.21357908134E+02  0.25024225788E+02  0.00000000000E+00 0. -1.
</event>
<event>
 7    1  0.4432754E-010  0.4778727E+02  0.7816164E-02  0.1312668E+00
        -11   -1    0    0    0    0  0.00000000000E+00  0.00000000000E+00  0.45593999997E+02  0.45594000000E+02  0.51100000000E-03 0.  1.
         11   -1    0    0    0    0 -0.00000000000E+00 -0.00000000000E+00 -0.45593999997E+02  0.45594000000E+02  0.51100000000E-03 0. -1.
    9900012    2    1    2    0    0  0.52749454220E+01 -0.84213882891E+01 -0.42247823831E+02  0.47787269034E+02  0.19999990835E+02 0.  0.
        -12    1    1    2    0    0 -0.52749454220E+01  0.84213882891E+01  0.42247823831E+02  0.43400730966E+02  0.00000000000E+00 0.  1.
         11    1    3    3    0    0  0.42789195414E+01 -0.60613264581E+00 -0.14923536400E+02  0.15536682019E+02  0.51100000000E-03 0. -1.
        -11    1    3    3    0    0  0.65412144319E+01 -0.12797037644E+01 -0.49841005226E+01  0.83226429846E+01  0.51100000000E-03 0.  1.
        -12    1    3    3    0    0 -0.55451885512E+01 -0.65355518789E+01 -0.22340186909E+02  0.23927944031E+02  0.00000000000E+00 0.  1.
</event>
<event>
 7    1  0.4432754E-010  0.4778727E+02  0.7816164E-02  0.1312668E+00
        -11   -1    0    0    0    0  0.00000000000E+00  0.00000000000E+00  0.45593999997E+02  0.45594000000E+02  0.51100000000E-03 0. -1.
         11   -1    0    0    0    0 -0.00000000000E+00 -0.00000000000E+00 -0.45593999997E+02  0.45594000000E+02  0.51100000000E-03 0.  1.
    9900012    2    1    2    0    0  0.14690247099E+02 -0.76291217615E+01  0.40120025309E+02  0.47787270864E+02  0.19999999179E+02 0.  0.
        -12    1    1    2    0    0 -0.14690247099E+02  0.76291217615E+01 -0.40120025309E+02  0.43400729136E+02  0.00000000000E+00 0.  1.
         11    1    3    3    0    0  0.94072789093E+01 -0.17669594070E+01  0.10507195113E+02  0.14213380718E+02  0.51100000000E-03 0. -1.
        -11    1    3    3    0    0  0.66665340944E+01 -0.25724181308E+01  0.50423778117E+01  0.87456038173E+01  0.51100000000E-03 0.  1.
         12    1    3    3    0    0 -0.13835659045E+01 -0.32897442237E+01  0.24570452384E+02  0.24828286329E+02  0.00000000000E+00 0. -1.
</event>
<event>
 7    1  0.4432754E-010  0.4778727E+02  0.7816164E-02  0.1312668E+00
        -11   -1    0    0    0    0  0.00000000000E+00  0.00000000000E+00  0.45593999997E+02  0.45594000000E+02  0.51100000000E-03 0.  1.
         11   -1    0    0    0    0 -0.00000000000E+00 -0.00000000000E+00 -0.45593999997E+02  0.45594000000E+02  0.51100000000E-03 0. -1.
    9900012    2    1    2    0    0  0.14394929335E+01  0.96738576290E+01 -0.42284363738E+02  0.47787273301E+02  0.20000010287E+02 0.  0.
        -12    1    1    2    0    0 -0.14394929335E+01 -0.96738576290E+01  0.42284363738E+02  0.43400726699E+02  0.00000000000E+00 0.  1.
         11    1    3    3    0    0  0.14166478202E+01  0.82949065546E+01 -0.65860482317E+01  0.10685897125E+02  0.51100000000E-03 0. -1.
        -11    1    3    3    0    0 -0.37328458221E+01 -0.91668675397E+00 -0.63344907475E+01  0.74094686603E+01  0.51100000000E-03 0.  1.
        -12    1    3    3    0    0  0.37556909353E+01  0.22956378284E+01 -0.29363824759E+02  0.29691907515E+02  0.00000000000E+00 0.  1.
</event>
<event>
 7    1  0.4432754E-010  0.4778727E+02  0.7816164E-02  0.1312668E+00
        -11   -1    0    0    0    0  0.00000000000E+00  0.00000000000E+00  0.45593999997E+02  0.45594000000E+02  0.51100000000E-03 0.  1.
         11   -1    0    0    0    0 -0.00000000000E+00 -0.00000000000E+00 -0.45593999997E+02  0.45594000000E+02  0.51100000000E-03 0. -1.
    9900012    2    1    2    0    0 -0.14719507108E+02  0.54022316570E+01 -0.40469436355E+02  0.47787271028E+02  0.19999999927E+02 0.  0.
        -12    1    1    2    0    0  0.14719507108E+02 -0.54022316570E+01  0.40469436355E+02  0.43400728972E+02  0.00000000000E+00 0.  1.
         11    1    3    3    0    0  0.14425209177E+01  0.23338518409E+01 -0.54815925075E+01  0.61298929593E+01  0.51100000000E-03 0. -1.
        -11    1    3    3    0    0  0.57418401660E+00  0.53823894697E+01 -0.11646292190E+02  0.12842738249E+02  0.51100000000E-03 0.  1.
         12    1    3    3    0    0 -0.16736212042E+02 -0.23140096536E+01 -0.23341551657E+02  0.28814639820E+02  0.00000000000E+00 0. -1.
</event>
<event>
 7    1  0.4432754E-010  0.4778727E+02  0.7816164E-02  0.1312668E+00
        -11   -1    0    0    0    0  0.00000000000E+00  0.00000000000E+00  0.45593999997E+02  0.45594000000E+02  0.51100000000E-03 0.  1.
         11   -1    0    0    0    0 -0.00000000000E+00 -0.00000000000E+00 -0.45593999997E+02  0.45594000000E+02  0.51100000000E-03 0. -1.
    9900012    2    1    2    0    0  0.22978675545E+02  0.16158615801E+02 -0.33083273058E+02  0.47787270160E+02  0.19999995969E+02 0.  0.
        -12    1    1    2    0    0 -0.22978675545E+02 -0.16158615801E+02  0.33083273058E+02  0.43400729840E+02  0.00000000000E+00 0.  1.
         11    1    3    3    0    0  0.53717136712E+00 -0.88246987214E+00  0.81355458600E+00  0.13149819308E+01  0.51100000000E-03 0. -1.
        -11    1    3    3    0    0 -0.18537629930E+01  0.25799452566E+01 -0.57957575772E+01  0.66093389167E+01  0.51100000000E-03 0.  1.
         12    1    3    3    0    0  0.24295267170E+02  0.14461140417E+02 -0.28101070066E+02  0.39862949313E+02  0.00000000000E+00 0. -1.
</event>
<event>
 7    1  0.4432754E-010  0.4778727E+02  0.7816164E-02  0.1312668E+00
        -11   -1    0    0    0    0  0.00000000000E+00  0.00000000000E+00  0.45593999997E+02  0.45594000000E+02  0.51100000000E-03 0. -1.
         11   -1    0    0    0    0 -0.00000000000E+00 -0.00000000000E+00 -0.45593999997E+02  0.45594000000E+02  0.51100000000E-03 0.  1.
    9900012    2    1    2    0    0  0.30344053577E+02  0.27719512932E+02  0.13945992672E+02  0.47787266178E+02  0.19999977813E+02 0.  0.
        -12    1    1    2    0    0 -0.30344053577E+02 -0.27719512932E+02 -0.13945992672E+02  0.43400733822E+02  0.00000000000E+00 0.  1.
         11    1    3    3    0    0  0.12194132844E+02  0.13786727988E+02  0.16035480209E+01  0.18475446164E+02  0.51100000000E-03 0.  1.
        -11    1    3    3    0    0  0.17959511833E+01  0.85015623955E+01  0.11528151828E+01  0.87653286832E+01  0.51100000000E-03 0. -1.
         12    1    3    3    0    0  0.16353969549E+02  0.54312225489E+01  0.11189629469E+02  0.20546491331E+02  0.00000000000E+00 0. -1.
</event>
<event>
 7    1  0.4432754E-010  0.4778727E+02  0.7816164E-02  0.1312668E+00
        -11   -1    0    0    0    0  0.00000000000E+00  0.00000000000E+00  0.45593999997E+02  0.45594000000E+02  0.51100000000E-03 0. -1.
         11   -1    0    0    0    0 -0.00000000000E+00 -0.00000000000E+00 -0.45593999997E+02  0.45594000000E+02  0.51100000000E-03 0.  1.
    9900012    2    1    2    0    0 -0.83499517841E+01 -0.42102926092E+02  0.64222719151E+01  0.47787266632E+02  0.19999979882E+02 0.  0.
        -12    1    1    2    0    0  0.83499517841E+01  0.42102926092E+02 -0.64222719151E+01  0.43400733368E+02  0.00000000000E+00 0.  1.
         11    1    3    3    0    0 -0.28973031404E+01 -0.60639787566E+01  0.30467441223E+01  0.73789466630E+01  0.51100000000E-03 0.  1.
        -11    1    3    3    0    0 -0.33575464660E+01 -0.35860605986E+02 -0.47557372630E+00  0.36020582319E+02  0.51100000000E-03 0. -1.
         12    1    3    3    0    0 -0.20951021777E+01 -0.17834134919E+00  0.38511015192E+01  0.43877376497E+01  0.00000000000E+00 0. -1.
</event>
<event>
 7    1  0.4432754E-010  0.4778727E+02  0.7816164E-02  0.1312668E+00
        -11   -1    0    0    0    0  0.00000000000E+00  0.00000000000E+00  0.45593999997E+02  0.45594000000E+02  0.51100000000E-03 0.  1.
         11   -1    0    0    0    0 -0.00000000000E+00 -0.00000000000E+00 -0.45593999997E+02  0.45594000000E+02  0.51100000000E-03 0. -1.
    9900012    2    1    2    0    0  0.32213580441E+02  0.59736177187E+01 -0.28464449303E+02  0.47787265587E+02  0.19999975117E+02 0.  0.
        -12    1    1    2    0    0 -0.32213580441E+02 -0.59736177187E+01  0.28464449303E+02  0.43400734413E+02  0.00000000000E+00 0.  1.
         11    1    3    3    0    0  0.69035940864E+01  0.62404448137E+00 -0.23882165832E+01  0.73316179342E+01  0.51100000000E-03 0. -1.
        -11    1    3    3    0    0  0.15920261850E+01 -0.41943302675E+01 -0.90273866002E+00  0.45762311039E+01  0.51100000000E-03 0.  1.
         12    1    3    3    0    0  0.23717960169E+02  0.95439035049E+01 -0.25173494060E+02  0.35879416549E+02  0.00000000000E+00 0. -1.
</event>
<event>
 7    1  0.4432754E-010  0.4778727E+02  0.7816164E-02  0.1312668E+00
        -11   -1    0    0    0    0  0.00000000000E+00  0.00000000000E+00  0.45593999997E+02  0.45594000000E+02  0.51100000000E-03 0. -1.
         11   -1    0    0    0    0 -0.00000000000E+00 -0.00000000000E+00 -0.45593999997E+02  0.45594000000E+02  0.51100000000E-03 0.  1.
    9900012    2    1    2    0    0 -0.38060577660E+02 -0.15877655374E+02  0.13524634250E+02  0.47787271394E+02  0.20000001593E+02 0.  0.
        -12    1    1    2    0    0  0.38060577660E+02  0.15877655374E+02 -0.13524634250E+02  0.43400728606E+02  0.00000000000E+00 0.  1.
         11    1    3    3    0    0 -0.18309301430E+02 -0.94551109936E+01  0.24391799166E+01  0.20750403410E+02  0.51100000000E-03 0. -1.
        -11    1    3    3    0    0 -0.37329014835E+01  0.11563069380E+01 -0.25594786515E+01  0.46714591349E+01  0.51100000000E-03 0.  1.
         12    1    3    3    0    0 -0.16018374746E+02 -0.75788513186E+01  0.13644932984E+02  0.22365408849E+02  0.00000000000E+00 0. -1.
</event>
<event>
 7    1  0.4432754E-010  0.4778727E+02  0.7816164E-02  0.1312668E+00
        -11   -1    0    0    0    0  0.00000000000E+00  0.00000000000E+00  0.45593999997E+02  0.45594000000E+02  0.51100000000E-03 0.  1.
         11   -1    0    0    0    0 -0.00000000000E+00 -0.00000000000E+00 -0.45593999997E+02  0.45594000000E+02  0.51100000000E-03 0. -1.
    9900012    2    1    2    0    0 -0.12736799142E+02 -0.16330766338E+02 -0.38140570515E+02  0.47787273038E+02  0.20000009090E+02 0.  0.
        -12    1    1    2    0    0  0.12736799142E+02  0.16330766338E+02  0.38140570515E+02  0.43400726962E+02  0.00000000000E+00 0.  1.
         11    1    3    3    0    0 -0.10985151190E+01  0.18775138456E+01 -0.19838524895E+01  0.29440558195E+01  0.51100000000E-03 0. -1.
        -11    1    3    3    0    0  0.22941556556E+00  0.25634696169E+01 -0.41647120408E+01  0.48957976493E+01  0.51100000000E-03 0.  1.
         12    1    3    3    0    0 -0.11867699589E+02 -0.20771749801E+02 -0.31992005985E+02  0.39947419569E+02  0.00000000000E+00 0. -1.
</event>
<event>
 7    1  0.4432754E-010  0.4778727E+02  0.7816164E-02  0.1312668E+00
        -11   -1    0    0    0    0  0.00000000000E+00  0.00000000000E+00  0.45593999997E+02  0.45594000000E+02  0.51100000000E-03 0.  1.
         11   -1    0    0    0    0 -0.00000000000E+00 -0.00000000000E+00 -0.45593999997E+02  0.45594000000E+02  0.51100000000E-03 0. -1.
    9900012    2    1    2    0    0 -0.62154671811E+01  0.42788862360E+02  0.37556612673E+01  0.47787265376E+02  0.19999974157E+02 0.  0.
        -12    1    1    2    0    0  0.62154671811E+01 -0.42788862360E+02 -0.37556612673E+01  0.43400734624E+02  0.00000000000E+00 0.  1.
         11    1    3    3    0    0 -0.40294519876E+01  0.55809130311E+01  0.55812368758E+00  0.69061259685E+01  0.51100000000E-03 0. -1.
        -11    1    3    3    0    0  0.45598152821E+01  0.21470067802E+01  0.72158399118E+00  0.50913885373E+01  0.51100000000E-03 0.  1.
        -12    1    3    3    0    0 -0.67458304756E+01  0.35060942549E+02  0.24759535886E+01  0.35789750870E+02  0.00000000000E+00 0.  1.
</event>
<event>
 7    1  0.4432754E-010  0.4778728E+02  0.7816164E-02  0.1312668E+00
        -11   -1    0    0    0    0  0.00000000000E+00  0.00000000000E+00  0.45593999997E+02  0.45594000000E+02  0.51100000000E-03 0.  1.
         11   -1    0    0    0    0 -0.00000000000E+00 -0.00000000000E+00 -0.45593999997E+02  0.45594000000E+02  0.51100000000E-03 0. -1.
    9900012    2    1    2    0    0 -0.52872850353E+01  0.39779682347E+02 -0.16530105151E+02  0.47787275502E+02  0.20000020322E+02 0.  0.
        -12    1    1    2    0    0  0.52872850353E+01 -0.39779682347E+02  0.16530105151E+02  0.43400724498E+02  0.00000000000E+00 0.  1.
         11    1    3    3    0    0 -0.54620588399E+01  0.72996811097E+01 -0.16124322974E+01  0.92584755359E+01  0.51100000000E-03 0. -1.
        -11    1    3    3    0    0 -0.68958423195E+01  0.14022215650E+02 -0.49459007476E+01  0.16390152760E+02  0.51100000000E-03 0.  1.
         12    1    3    3    0    0  0.70706161240E+01  0.18457785588E+02 -0.99717721059E+01  0.22138647206E+02  0.00000000000E+00 0. -1.
</event>
<event>
 7    1  0.4432754E-010  0.4778727E+02  0.7816164E-02  0.1312668E+00
        -11   -1    0    0    0    0  0.00000000000E+00  0.00000000000E+00  0.45593999997E+02  0.45594000000E+02  0.51100000000E-03 0.  1.
         11   -1    0    0    0    0 -0.00000000000E+00 -0.00000000000E+00 -0.45593999997E+02  0.45594000000E+02  0.51100000000E-03 0. -1.
    9900012    2    1    2    0    0  0.34447691248E+02  0.93166954245E+00 -0.26383932748E+02  0.47787270194E+02  0.19999996122E+02 0.  0.
        -12    1    1    2    0    0 -0.34447691248E+02 -0.93166954245E+00  0.26383932748E+02  0.43400729806E+02  0.00000000000E+00 0.  1.
         11    1    3    3    0    0  0.38978334023E+01 -0.24188456721E+01 -0.46426135636E+01  0.65266975247E+01  0.51100000000E-03 0. -1.
        -11    1    3    3    0    0  0.92347808812E+01  0.48781085296E+01  0.44879578185E+00  0.10453637581E+02  0.51100000000E-03 0.  1.
        -12    1    3    3    0    0  0.21315076964E+02 -0.15275933150E+01 -0.22190114966E+02  0.30806935089E+02  0.00000000000E+00 0.  1.
</event>
<event>
 7    1  0.4432754E-010  0.4778727E+02  0.7816164E-02  0.1312668E+00
        -11   -1    0    0    0    0  0.00000000000E+00  0.00000000000E+00  0.45593999997E+02  0.45594000000E+02  0.51100000000E-03 0.  1.
         11   -1    0    0    0    0 -0.00000000000E+00 -0.00000000000E+00 -0.45593999997E+02  0.45594000000E+02  0.51100000000E-03 0. -1.
    9900012    2    1    2    0    0  0.39927726274E+02  0.24197833752E+01 -0.16838784678E+02  0.47787270208E+02  0.19999996188E+02 0.  0.
        -12    1    1    2    0    0 -0.39927726274E+02 -0.24197833752E+01  0.16838784678E+02  0.43400729792E+02  0.00000000000E+00 0.  1.
         11    1    3    3    0    0  0.61453718596E+01  0.35228975107E+00 -0.40081429582E+01  0.73454008465E+01  0.51100000000E-03 0. -1.
        -11    1    3    3    0    0  0.93633534097E+01  0.83598466795E+01 -0.76462017172E+01  0.14697748962E+02  0.51100000000E-03 0.  1.
         12    1    3    3    0    0  0.24419001005E+02 -0.62923530553E+01 -0.51844400029E+01  0.25744120400E+02  0.00000000000E+00 0. -1.
</event>
<event>
 7    1  0.4432754E-010  0.4778727E+02  0.7816164E-02  0.1312668E+00
        -11   -1    0    0    0    0  0.00000000000E+00  0.00000000000E+00  0.45593999997E+02  0.45594000000E+02  0.51100000000E-03 0.  1.
         11   -1    0    0    0    0 -0.00000000000E+00 -0.00000000000E+00 -0.45593999997E+02  0.45594000000E+02  0.51100000000E-03 0. -1.
    9900012    2    1    2    0    0 -0.26119816795E+01  0.52881072206E+01 -0.42998100749E+02  0.47787271961E+02  0.20000004179E+02 0.  0.
        -12    1    1    2    0    0  0.26119816795E+01 -0.52881072206E+01  0.42998100749E+02  0.43400728039E+02  0.00000000000E+00 0.  1.
         11    1    3    3    0    0 -0.31720462333E+01 -0.55140726436E+00 -0.15139812230E+02  0.15478366900E+02  0.51100000000E-03 0. -1.
        -11    1    3    3    0    0 -0.23518213542E+01 -0.47920366280E+01 -0.93744129919E+01  0.10787691965E+02  0.51100000000E-03 0.  1.
         12    1    3    3    0    0  0.29118859080E+01  0.10631551113E+02 -0.18483875527E+02  0.21521213096E+02  0.00000000000E+00 0. -1.
</event>
<event>
 7    1  0.4432754E-010  0.4778728E+02  0.7816164E-02  0.1312668E+00
        -11   -1    0    0    0    0  0.00000000000E+00  0.00000000000E+00  0.45593999997E+02  0.45594000000E+02  0.51100000000E-03 0. -1.
         11   -1    0    0    0    0 -0.00000000000E+00 -0.00000000000E+00 -0.45593999997E+02  0.45594000000E+02  0.51100000000E-03 0.  1.
    9900012    2    1    2    0    0 -0.26621676634E+02 -0.31116187828E+02  0.14376767840E+02  0.47787282663E+02  0.20000052975E+02 0.  0.
        -12    1    1    2    0    0  0.26621676634E+02  0.31116187828E+02 -0.14376767840E+02  0.43400717337E+02  0.00000000000E+00 0.  1.
         11    1    3    3    0    0 -0.78731425640E+01 -0.14038611566E+02  0.53726387366E+01  0.16968625041E+02  0.51100000000E-03 0. -1.
        -11    1    3    3    0    0 -0.72298425259E+01 -0.16295087159E+02  0.42081877878E+01  0.18316913856E+02  0.51100000000E-03 0.  1.
        -12    1    3    3    0    0 -0.11518691545E+02 -0.78248910308E+00  0.47959413158E+01  0.12501743766E+02  0.00000000000E+00 0.  1.
</event>
<event>
 7    1  0.4432754E-010  0.4778728E+02  0.7816164E-02  0.1312668E+00
        -11   -1    0    0    0    0  0.00000000000E+00  0.00000000000E+00  0.45593999997E+02  0.45594000000E+02  0.51100000000E-03 0.  1.
         11   -1    0    0    0    0 -0.00000000000E+00 -0.00000000000E+00 -0.45593999997E+02  0.45594000000E+02  0.51100000000E-03 0. -1.
    9900012    2    1    2    0    0 -0.30797169825E+02 -0.98361264907E+01 -0.28955272179E+02  0.47787276037E+02  0.20000022764E+02 0.  0.
        -12    1    1    2    0    0  0.30797169825E+02  0.98361264907E+01  0.28955272179E+02  0.43400723963E+02  0.00000000000E+00 0.  1.
         11    1    3    3    0    0 -0.78605991152E+01 -0.63319766163E+01 -0.91720515645E+01  0.13638529117E+02  0.51100000000E-03 0. -1.
        -11    1    3    3    0    0 -0.28417536734E+01  0.63404889687E+00 -0.11766884059E+02  0.12121763183E+02  0.51100000000E-03 0.  1.
         12    1    3    3    0    0 -0.20094817036E+02 -0.41381987713E+01 -0.80163365554E+01  0.22026983737E+02  0.00000000000E+00 0. -1.
</event>
<event>
 7    1  0.4432754E-010  0.4778727E+02  0.7816164E-02  0.1312668E+00
        -11   -1    0    0    0    0  0.00000000000E+00  0.00000000000E+00  0.45593999997E+02  0.45594000000E+02  0.51100000000E-03 0.  1.
         11   -1    0    0    0    0 -0.00000000000E+00 -0.00000000000E+00 -0.45593999997E+02  0.45594000000E+02  0.51100000000E-03 0. -1.
    9900012    2    1    2    0    0 -0.19780077201E+02  0.37303479253E+02 -0.10041049128E+02  0.47787266296E+02  0.19999978350E+02 0.  0.
        -12    1    1    2    0    0  0.19780077201E+02 -0.37303479253E+02  0.10041049128E+02  0.43400733704E+02  0.00000000000E+00 0.  1.
         11    1    3    3    0    0 -0.67165483195E+01  0.23963383813E+01 -0.90776015880E+00  0.71887751205E+01  0.51100000000E-03 0. -1.
        -11    1    3    3    0    0 -0.32934512219E+01  0.17617996472E+02  0.16534938316E+01  0.17999296174E+02  0.51100000000E-03 0.  1.
         12    1    3    3    0    0 -0.97700776591E+01  0.17289144400E+02 -0.10786782801E+02  0.22599195002E+02  0.00000000000E+00 0. -1.
</event>
<event>
 7    1  0.4432754E-010  0.4778729E+02  0.7816164E-02  0.1312668E+00
        -11   -1    0    0    0    0  0.00000000000E+00  0.00000000000E+00  0.45593999997E+02  0.45594000000E+02  0.51100000000E-03 0.  1.
         11   -1    0    0    0    0 -0.00000000000E+00 -0.00000000000E+00 -0.45593999997E+02  0.45594000000E+02  0.51100000000E-03 0. -1.
    9900012    2    1    2    0    0  0.10010447840E+02  0.10028524671E+02 -0.41022448087E+02  0.47787290097E+02  0.20000086869E+02 0.  0.
        -12    1    1    2    0    0 -0.10010447840E+02 -0.10028524671E+02  0.41022448087E+02  0.43400709903E+02  0.00000000000E+00 0.  1.
         11    1    3    3    0    0  0.26682520860E+01  0.65850070733E+01 -0.13251433493E+02  0.15036035955E+02  0.51100000000E-03 0. -1.
        -11    1    3    3    0    0  0.40765815973E+01  0.82636812675E+01 -0.82075636164E+01  0.12339815493E+02  0.51100000000E-03 0.  1.
        -12    1    3    3    0    0  0.32656141572E+01 -0.48201636701E+01 -0.19563450977E+02  0.20411438650E+02  0.00000000000E+00 0.  1.
</event>
<event>
 7    1  0.4432754E-010  0.4778727E+02  0.7816164E-02  0.1312668E+00
        -11   -1    0    0    0    0  0.00000000000E+00  0.00000000000E+00  0.45593999997E+02  0.45594000000E+02  0.51100000000E-03 0.  1.
         11   -1    0    0    0    0 -0.00000000000E+00 -0.00000000000E+00 -0.45593999997E+02  0.45594000000E+02  0.51100000000E-03 0. -1.
    9900012    2    1    2    0    0  0.32225688561E+02  0.18208229793E+02 -0.22662493101E+02  0.47787271561E+02  0.20000002356E+02 0.  0.
        -12    1    1    2    0    0 -0.32225688561E+02 -0.18208229793E+02  0.22662493101E+02  0.43400728439E+02  0.00000000000E+00 0.  1.
         11    1    3    3    0    0  0.35030706226E+01  0.28399873989E+00  0.33805284081E+01  0.48764876346E+01  0.51100000000E-03 0.  1.
        -11    1    3    3    0    0  0.58844411473E+01  0.47825057322E+01 -0.40950319655E+01  0.86179055317E+01  0.51100000000E-03 0. -1.
        -12    1    3    3    0    0  0.22838176791E+02  0.13141725321E+02 -0.21947989544E+02  0.34292878395E+02  0.00000000000E+00 0.  1.
</event>
<event>
 7    1  0.4432754E-010  0.4778725E+02  0.7816164E-02  0.1312668E+00
        -11   -1    0    0    0    0  0.00000000000E+00  0.00000000000E+00  0.45593999997E+02  0.45594000000E+02  0.51100000000E-03 0.  1.
         11   -1    0    0    0    0 -0.00000000000E+00 -0.00000000000E+00 -0.45593999997E+02  0.45594000000E+02  0.51100000000E-03 0. -1.
    9900012    2    1    2    0    0  0.28197420399E+00 -0.10942917291E+02 -0.41997592962E+02  0.47787253890E+02  0.19999921787E+02 0.  0.
        -12    1    1    2    0    0 -0.28197420399E+00  0.10942917291E+02  0.41997592962E+02  0.43400746110E+02  0.00000000000E+00 0.  1.
         11    1    3    3    0    0  0.49421637549E+00 -0.73304928465E+01 -0.21999389489E+02  0.23193824897E+02  0.51100000000E-03 0. -1.
        -11    1    3    3    0    0 -0.58345928412E+01 -0.54326421897E+01 -0.14365751071E+02  0.16429573301E+02  0.51100000000E-03 0.  1.
        -12    1    3    3    0    0  0.56223506697E+01  0.18202177450E+01 -0.56324524019E+01  0.81638556915E+01  0.00000000000E+00 0.  1.
</event>
<event>
 7    1  0.4432754E-010  0.4778727E+02  0.7816164E-02  0.1312668E+00
        -11   -1    0    0    0    0  0.00000000000E+00  0.00000000000E+00  0.45593999997E+02  0.45594000000E+02  0.51100000000E-03 0.  1.
         11   -1    0    0    0    0 -0.00000000000E+00 -0.00000000000E+00 -0.45593999997E+02  0.45594000000E+02  0.51100000000E-03 0. -1.
    9900012    2    1    2    0    0 -0.87794123065E+01 -0.10797948729E+02 -0.41108996954E+02  0.47787269502E+02  0.19999992969E+02 0.  0.
        -12    1    1    2    0    0  0.87794123065E+01  0.10797948729E+02  0.41108996954E+02  0.43400730498E+02  0.00000000000E+00 0.  1.
         11    1    3    3    0    0 -0.29804541144E+01 -0.61788989367E+01 -0.21555108317E+02  0.22620446362E+02  0.51100000000E-03 0. -1.
        -11    1    3    3    0    0  0.29005509013E+01 -0.34992154798E+00 -0.13337573493E+02  0.13653809270E+02  0.51100000000E-03 0.  1.
         12    1    3    3    0    0 -0.86995090933E+01 -0.42691282438E+01 -0.62163151436E+01  0.11513013871E+02  0.00000000000E+00 0. -1.
</event>
<event>
 7    1  0.4432754E-010  0.4778727E+02  0.7816164E-02  0.1312668E+00
        -11   -1    0    0    0    0  0.00000000000E+00  0.00000000000E+00  0.45593999997E+02  0.45594000000E+02  0.51100000000E-03 0.  1.
         11   -1    0    0    0    0 -0.00000000000E+00 -0.00000000000E+00 -0.45593999997E+02  0.45594000000E+02  0.51100000000E-03 0. -1.
    9900012    2    1    2    0    0  0.96087785210E+01 -0.42187964368E+01 -0.42112897805E+02  0.47787273859E+02  0.20000012834E+02 0.  0.
        -12    1    1    2    0    0 -0.96087785210E+01  0.42187964368E+01  0.42112897805E+02  0.43400726141E+02  0.00000000000E+00 0.  1.
         11    1    3    3    0    0  0.43046195097E+01  0.26568356746E+01 -0.80278484900E+01  0.94886709589E+01  0.51100000000E-03 0. -1.
        -11    1    3    3    0    0  0.79119855233E+01 -0.11311058143E+01 -0.74485370768E+01  0.10925182842E+02  0.51100000000E-03 0.  1.
         12    1    3    3    0    0 -0.26078265121E+01 -0.57445262971E+01 -0.26636512238E+02  0.27373420058E+02  0.00000000000E+00 0. -1.
</event>
<event>
 7    1  0.4432754E-010  0.4778727E+02  0.7816164E-02  0.1312668E+00
        -11   -1    0    0    0    0  0.00000000000E+00  0.00000000000E+00  0.45593999997E+02  0.45594000000E+02  0.51100000000E-03 0.  1.
         11   -1    0    0    0    0 -0.00000000000E+00 -0.00000000000E+00 -0.45593999997E+02  0.45594000000E+02  0.51100000000E-03 0. -1.
    9900012    2    1    2    0    0  0.40694650991E+02  0.94519656910E+01 -0.11757081152E+02  0.47787271528E+02  0.20000002204E+02 0.  0.
        -12    1    1    2    0    0 -0.40694650991E+02 -0.94519656910E+01  0.11757081152E+02  0.43400728472E+02  0.00000000000E+00 0.  1.
         11    1    3    3    0    0  0.89580945356E+01 -0.19027859840E+01 -0.63177951108E+01  0.11125762335E+02  0.51100000000E-03 0. -1.
        -11    1    3    3    0    0 -0.94310553734E+00  0.20784252615E+01 -0.45035748499E+00  0.23263967305E+01  0.51100000000E-03 0.  1.
        -12    1    3    3    0    0  0.32679661992E+02  0.92763264135E+01 -0.49889285565E+01  0.34335112462E+02  0.00000000000E+00 0.  1.
</event>
<event>
 7    1  0.4432754E-010  0.4778727E+02  0.7816164E-02  0.1312668E+00
        -11   -1    0    0    0    0  0.00000000000E+00  0.00000000000E+00  0.45593999997E+02  0.45594000000E+02  0.51100000000E-03 0.  1.
         11   -1    0    0    0    0 -0.00000000000E+00 -0.00000000000E+00 -0.45593999997E+02  0.45594000000E+02  0.51100000000E-03 0. -1.
    9900012    2    1    2    0    0 -0.98195138460E+01  0.28977458486E+01 -0.42175865333E+02  0.47787269594E+02  0.19999993387E+02 0.  0.
        -12    1    1    2    0    0  0.98195138460E+01 -0.28977458486E+01  0.42175865333E+02  0.43400730406E+02  0.00000000000E+00 0.  1.
         11    1    3    3    0    0 -0.31623391582E+01  0.12933985072E+01 -0.16585716758E+02  0.16933967914E+02  0.51100000000E-03 0. -1.
        -11    1    3    3    0    0 -0.54289946029E+01  0.83242811762E+01 -0.11533461332E+02  0.15224597533E+02  0.51100000000E-03 0.  1.
         12    1    3    3    0    0 -0.12281800848E+01 -0.67199338348E+01 -0.14056687243E+02  0.15628704147E+02  0.00000000000E+00 0. -1.
</event>
<event>
 7    1  0.4432754E-010  0.4778727E+02  0.7816164E-02  0.1312668E+00
        -11   -1    0    0    0    0  0.00000000000E+00  0.00000000000E+00  0.45593999997E+02  0.45594000000E+02  0.51100000000E-03 0. -1.
         11   -1    0    0    0    0 -0.00000000000E+00 -0.00000000000E+00 -0.45593999997E+02  0.45594000000E+02  0.51100000000E-03 0.  1.
    9900012    2    1    2    0    0 -0.17999973876E+02  0.37833725756E+02  0.11324029447E+02  0.47787268359E+02  0.19999987755E+02 0.  0.
        -12    1    1    2    0    0  0.17999973876E+02 -0.37833725756E+02 -0.11324029447E+02  0.43400731641E+02  0.00000000000E+00 0.  1.
         11    1    3    3    0    0 -0.10130445916E+02  0.25156631470E+02  0.98550763195E+01  0.28854888163E+02  0.51100000000E-03 0. -1.
        -11    1    3    3    0    0  0.48093111204E-01  0.36276799105E+01  0.52018938056E+01  0.63420875038E+01  0.51100000000E-03 0.  1.
        -12    1    3    3    0    0 -0.79176210711E+01  0.90494143756E+01 -0.37329406785E+01  0.12590292692E+02  0.00000000000E+00 0.  1.
</event>
<event>
 7    1  0.4432754E-010  0.4778722E+02  0.7816164E-02  0.1312668E+00
        -11   -1    0    0    0    0  0.00000000000E+00  0.00000000000E+00  0.45593999997E+02  0.45594000000E+02  0.51100000000E-03 0.  1.
         11   -1    0    0    0    0 -0.00000000000E+00 -0.00000000000E+00 -0.45593999997E+02  0.45594000000E+02  0.51100000000E-03 0. -1.
    9900012    2    1    2    0    0 -0.30057481960E+02  0.72973993336E+01 -0.30445412230E+02  0.47787223686E+02  0.19999784072E+02 0.  0.
        -12    1    1    2    0    0  0.30057481960E+02 -0.72973993336E+01  0.30445412230E+02  0.43400776314E+02  0.00000000000E+00 0.  1.
         11    1    3    3    0    0 -0.76604159183E+00  0.40894684949E+01 -0.54540564184E+01  0.68598326487E+01  0.51100000000E-03 0.  1.
        -11    1    3    3    0    0 -0.84996319989E+01  0.68616522228E+01 -0.11568880293E+02  0.15911159821E+02  0.51100000000E-03 0. -1.
         12    1    3    3    0    0 -0.20791808369E+02 -0.36537213841E+01 -0.13422475519E+02  0.25016231216E+02  0.00000000000E+00 0. -1.
</event>
<event>
 7    1  0.4432754E-010  0.4778727E+02  0.7816164E-02  0.1312668E+00
        -11   -1    0    0    0    0  0.00000000000E+00  0.00000000000E+00  0.45593999997E+02  0.45594000000E+02  0.51100000000E-03 0. -1.
         11   -1    0    0    0    0 -0.00000000000E+00 -0.00000000000E+00 -0.45593999997E+02  0.45594000000E+02  0.51100000000E-03 0.  1.
    9900012    2    1    2    0    0  0.37559451481E+02  0.15415351901E+02  0.15338771553E+02  0.47787269792E+02  0.19999994292E+02 0.  0.
        -12    1    1    2    0    0 -0.37559451481E+02 -0.15415351901E+02 -0.15338771553E+02  0.43400730208E+02  0.00000000000E+00 0.  1.
         11    1    3    3    0    0  0.19303787755E+02  0.11389188618E+02  0.68842775200E+01  0.23446601380E+02  0.51100000000E-03 0. -1.
        -11    1    3    3    0    0  0.20017791757E+02  0.41092799623E+01  0.59622071985E+01  0.21287228180E+02  0.51100000000E-03 0.  1.
         12    1    3    3    0    0 -0.17621280318E+01 -0.83116678389E-01  0.24922868348E+01  0.30534402319E+01  0.00000000000E+00 0. -1.
</event>
<event>
 7    1  0.4432754E-010  0.4778725E+02  0.7816164E-02  0.1312668E+00
        -11   -1    0    0    0    0  0.00000000000E+00  0.00000000000E+00  0.45593999997E+02  0.45594000000E+02  0.51100000000E-03 0. -1.
         11   -1    0    0    0    0 -0.00000000000E+00 -0.00000000000E+00 -0.45593999997E+02  0.45594000000E+02  0.51100000000E-03 0.  1.
    9900012    2    1    2    0    0  0.33599004546E+02  0.25036765107E+02  0.11308970261E+02  0.47787245146E+02  0.19999881919E+02 0.  0.
        -12    1    1    2    0    0 -0.33599004546E+02 -0.25036765107E+02 -0.11308970261E+02  0.43400754854E+02  0.00000000000E+00 0.  1.
         11    1    3    3    0    0  0.45604860851E+01  0.70120715768E+01  0.70763605812E+01  0.10956370771E+02  0.51100000000E-03 0. -1.
        -11    1    3    3    0    0  0.34675524584E+01  0.58275783719E+00  0.47055344951E+01  0.58741452054E+01  0.51100000000E-03 0.  1.
         12    1    3    3    0    0  0.25570966002E+02  0.17441935693E+02 -0.47292481542E+00  0.30956729170E+02  0.00000000000E+00 0. -1.
</event>
<event>
 7    1  0.4432754E-010  0.4778727E+02  0.7816164E-02  0.1312668E+00
        -11   -1    0    0    0    0  0.00000000000E+00  0.00000000000E+00  0.45593999997E+02  0.45594000000E+02  0.51100000000E-03 0.  1.
         11   -1    0    0    0    0 -0.00000000000E+00 -0.00000000000E+00 -0.45593999997E+02  0.45594000000E+02  0.51100000000E-03 0. -1.
    9900012    2    1    2    0    0 -0.21522449782E+02 -0.37479925709E+02  0.39576181867E+01  0.47787269390E+02  0.19999992459E+02 0.  0.
        -12    1    1    2    0    0  0.21522449782E+02  0.37479925709E+02 -0.39576181867E+01  0.43400730610E+02  0.00000000000E+00 0.  1.
         11    1    3    3    0    0 -0.85424658879E+01 -0.85689211540E+01 -0.39811627101E+01  0.12737730959E+02  0.51100000000E-03 0. -1.
        -11    1    3    3    0    0 -0.12497059828E+02 -0.25797087508E+02  0.25124637295E+01  0.28774619068E+02  0.51100000000E-03 0.  1.
        -12    1    3    3    0    0 -0.48292406567E+00 -0.31139170466E+01  0.54263171673E+01  0.62749193641E+01  0.00000000000E+00 0.  1.
</event>
<event>
 7    1  0.4432754E-010  0.4778727E+02  0.7816164E-02  0.1312668E+00
        -11   -1    0    0    0    0  0.00000000000E+00  0.00000000000E+00  0.45593999997E+02  0.45594000000E+02  0.51100000000E-03 0.  1.
         11   -1    0    0    0    0 -0.00000000000E+00 -0.00000000000E+00 -0.45593999997E+02  0.45594000000E+02  0.51100000000E-03 0. -1.
    9900012    2    1    2    0    0  0.31263095082E+02  0.14702170468E+02 -0.26269527874E+02  0.47787273909E+02  0.20000013059E+02 0.  0.
        -12    1    1    2    0    0 -0.31263095082E+02 -0.14702170468E+02  0.26269527874E+02  0.43400726091E+02  0.00000000000E+00 0.  1.
         11    1    3    3    0    0  0.54505664539E+01  0.10944081722E+02 -0.11770542370E+02  0.16971366102E+02  0.51100000000E-03 0. -1.
        -11    1    3    3    0    0  0.31907312145E+01 -0.28977795708E+00  0.67895517531E+00  0.32750140975E+01  0.51100000000E-03 0.  1.
        -12    1    3    3    0    0  0.22621797413E+02  0.40478667021E+01 -0.15177940679E+02  0.27540893709E+02  0.00000000000E+00 0.  1.
</event>
<event>
 7    1  0.4432754E-010  0.4778727E+02  0.7816164E-02  0.1312668E+00
        -11   -1    0    0    0    0  0.00000000000E+00  0.00000000000E+00  0.45593999997E+02  0.45594000000E+02  0.51100000000E-03 0.  1.
         11   -1    0    0    0    0 -0.00000000000E+00 -0.00000000000E+00 -0.45593999997E+02  0.45594000000E+02  0.51100000000E-03 0. -1.
    9900012    2    1    2    0    0  0.31949686207E+02  0.24399254371E+02  0.16355953152E+02  0.47787271134E+02  0.20000000408E+02 0.  0.
        -12    1    1    2    0    0 -0.31949686207E+02 -0.24399254371E+02 -0.16355953152E+02  0.43400728866E+02  0.00000000000E+00 0.  1.
         11    1    3    3    0    0  0.12274540425E+02  0.14864444061E+01  0.30554370445E+00  0.12367991625E+02  0.51100000000E-03 0. -1.
        -11    1    3    3    0    0  0.77453509699E+01  0.44853124511E+01  0.81014383860E+01  0.12072356589E+02  0.51100000000E-03 0.  1.
         12    1    3    3    0    0  0.11929794812E+02  0.18427497514E+02  0.79489710615E+01  0.23346922920E+02  0.00000000000E+00 0. -1.
</event>
<event>
 7    1  0.4432754E-010  0.4778727E+02  0.7816164E-02  0.1312668E+00
        -11   -1    0    0    0    0  0.00000000000E+00  0.00000000000E+00  0.45593999997E+02  0.45594000000E+02  0.51100000000E-03 0.  1.
         11   -1    0    0    0    0 -0.00000000000E+00 -0.00000000000E+00 -0.45593999997E+02  0.45594000000E+02  0.51100000000E-03 0. -1.
    9900012    2    1    2    0    0 -0.12132221037E+02  0.30304356382E+02 -0.28602070125E+02  0.47787271682E+02  0.20000002909E+02 0.  0.
        -12    1    1    2    0    0  0.12132221037E+02 -0.30304356382E+02  0.28602070125E+02  0.43400728318E+02  0.00000000000E+00 0.  1.
         11    1    3    3    0    0 -0.22192642572E+01  0.13059150756E+02 -0.51690227575E+01  0.14219189458E+02  0.51100000000E-03 0. -1.
        -11    1    3    3    0    0 -0.12850242098E+02  0.16165570277E+02 -0.18496458998E+02  0.27723156026E+02  0.51100000000E-03 0.  1.
         12    1    3    3    0    0  0.29372853177E+01  0.10796353493E+01 -0.49365883703E+01  0.58449261982E+01  0.00000000000E+00 0. -1.
</event>
<event>
 7    1  0.4432754E-010  0.4778727E+02  0.7816164E-02  0.1312668E+00
        -11   -1    0    0    0    0  0.00000000000E+00  0.00000000000E+00  0.45593999997E+02  0.45594000000E+02  0.51100000000E-03 0.  1.
         11   -1    0    0    0    0 -0.00000000000E+00 -0.00000000000E+00 -0.45593999997E+02  0.45594000000E+02  0.51100000000E-03 0. -1.
    9900012    2    1    2    0    0  0.33110435115E+02  0.10118518959E+02 -0.26171320539E+02  0.47787270073E+02  0.19999995572E+02 0.  0.
        -12    1    1    2    0    0 -0.33110435115E+02 -0.10118518959E+02  0.26171320539E+02  0.43400729927E+02  0.00000000000E+00 0.  1.
         11    1    3    3    0    0  0.87870775266E+01  0.44464420756E+01 -0.21156205245E+01  0.10072707136E+02  0.51100000000E-03 0. -1.
        -11    1    3    3    0    0  0.96596908931E+01  0.49307392539E+01 -0.17136007699E+01  0.10979901894E+02  0.51100000000E-03 0.  1.
         12    1    3    3    0    0  0.14663666696E+02  0.74133762922E+00 -0.22342099244E+02  0.26734661043E+02  0.00000000000E+00 0. -1.
</event>
<event>
 7    1  0.4432754E-010  0.4778727E+02  0.7816164E-02  0.1312668E+00
        -11   -1    0    0    0    0  0.00000000000E+00  0.00000000000E+00  0.45593999997E+02  0.45594000000E+02  0.51100000000E-03 0.  1.
         11   -1    0    0    0    0 -0.00000000000E+00 -0.00000000000E+00 -0.45593999997E+02  0.45594000000E+02  0.51100000000E-03 0. -1.
    9900012    2    1    2    0    0 -0.35012840465E+02 -0.43845763718E+01 -0.25268547672E+02  0.47787274098E+02  0.20000013921E+02 0.  0.
        -12    1    1    2    0    0  0.35012840465E+02  0.43845763718E+01  0.25268547672E+02  0.43400725902E+02  0.00000000000E+00 0.  1.
         11    1    3    3    0    0 -0.74678302770E+00  0.13913033510E+01 -0.14862155299E+01  0.21684664552E+01  0.51100000000E-03 0. -1.
        -11    1    3    3    0    0 -0.12634494099E+02  0.45305091080E+01 -0.26740945422E+01  0.13686005107E+02  0.51100000000E-03 0.  1.
         12    1    3    3    0    0 -0.21631563339E+02 -0.10306388831E+02 -0.21108237599E+02  0.31932802535E+02  0.00000000000E+00 0. -1.
</event>
<event>
 7    1  0.4432754E-010  0.4778727E+02  0.7816164E-02  0.1312668E+00
        -11   -1    0    0    0    0  0.00000000000E+00  0.00000000000E+00  0.45593999997E+02  0.45594000000E+02  0.51100000000E-03 0.  1.
         11   -1    0    0    0    0 -0.00000000000E+00 -0.00000000000E+00 -0.45593999997E+02  0.45594000000E+02  0.51100000000E-03 0. -1.
    9900012    2    1    2    0    0 -0.16033311184E+01  0.26620075821E+02 -0.34240679845E+02  0.47787271162E+02  0.20000000538E+02 0.  0.
        -12    1    1    2    0    0  0.16033311184E+01 -0.26620075821E+02  0.34240679845E+02  0.43400728838E+02  0.00000000000E+00 0.  1.
         11    1    3    3    0    0 -0.45597296821E+01  0.10089388349E+01 -0.11781928386E+02  0.12673710155E+02  0.51100000000E-03 0. -1.
        -11    1    3    3    0    0  0.20383226412E+01  0.51296107858E+01 -0.91004389549E+01  0.10643573434E+02  0.51100000000E-03 0.  1.
        -12    1    3    3    0    0  0.91807592251E+00  0.20481526200E+02 -0.13358312504E+02  0.24469987573E+02  0.00000000000E+00 0.  1.
</event>
<event>
 7    1  0.4432754E-010  0.4778727E+02  0.7816164E-02  0.1312668E+00
        -11   -1    0    0    0    0  0.00000000000E+00  0.00000000000E+00  0.45593999997E+02  0.45594000000E+02  0.51100000000E-03 0.  1.
         11   -1    0    0    0    0 -0.00000000000E+00 -0.00000000000E+00 -0.45593999997E+02  0.45594000000E+02  0.51100000000E-03 0. -1.
    9900012    2    1    2    0    0  0.14027907804E+02 -0.14650662357E+02 -0.38369248532E+02  0.47787270308E+02  0.19999996643E+02 0.  0.
        -12    1    1    2    0    0 -0.14027907804E+02  0.14650662357E+02  0.38369248532E+02  0.43400729692E+02  0.00000000000E+00 0.  1.
         11    1    3    3    0    0 -0.32048491596E+01 -0.28219908869E+01 -0.31832757774E+01  0.53261558030E+01  0.51100000000E-03 0. -1.
        -11    1    3    3    0    0  0.50469075356E+01 -0.55104024171E+01 -0.42021054302E+01  0.85728350491E+01  0.51100000000E-03 0.  1.
        -12    1    3    3    0    0  0.12185849428E+02 -0.63182690532E+01 -0.30983867324E+02  0.33888279456E+02  0.00000000000E+00 0.  1.
</event>
<event>
 7    1  0.4432754E-010  0.4778727E+02  0.7816164E-02  0.1312668E+00
        -11   -1    0    0    0    0  0.00000000000E+00  0.00000000000E+00  0.45593999997E+02  0.45594000000E+02  0.51100000000E-03 0. -1.
         11   -1    0    0    0    0 -0.00000000000E+00 -0.00000000000E+00 -0.45593999997E+02  0.45594000000E+02  0.51100000000E-03 0.  1.
    9900012    2    1    2    0    0  0.11316638265E+02 -0.40401765536E+02 -0.11101986159E+02  0.47787273546E+02  0.20000011407E+02 0.  0.
        -12    1    1    2    0    0 -0.11316638265E+02  0.40401765536E+02  0.11101986159E+02  0.43400726454E+02  0.00000000000E+00 0.  1.
         11    1    3    3    0    0 -0.17198959520E+01 -0.30775039352E+01  0.44933603924E+00  0.35540083981E+01  0.51100000000E-03 0. -1.
        -11    1    3    3    0    0  0.58340431743E+01 -0.28384411470E+01  0.15078395412E+01  0.66608098793E+01  0.51100000000E-03 0.  1.
         12    1    3    3    0    0  0.72024910428E+01 -0.34485820454E+02 -0.13059161740E+02  0.37572455269E+02  0.00000000000E+00 0. -1.
</event>
<event>
 7    1  0.4432754E-010  0.4778727E+02  0.7816164E-02  0.1312668E+00
        -11   -1    0    0    0    0  0.00000000000E+00  0.00000000000E+00  0.45593999997E+02  0.45594000000E+02  0.51100000000E-03 0.  1.
         11   -1    0    0    0    0 -0.00000000000E+00 -0.00000000000E+00 -0.45593999997E+02  0.45594000000E+02  0.51100000000E-03 0. -1.
    9900012    2    1    2    0    0  0.21028068355E+02  0.28810779205E+01 -0.37856873855E+02  0.47787272278E+02  0.20000005625E+02 0.  0.
        -12    1    1    2    0    0 -0.21028068355E+02 -0.28810779205E+01  0.37856873855E+02  0.43400727722E+02  0.00000000000E+00 0.  1.
         11    1    3    3    0    0  0.80015679431E+01  0.29191594036E+01 -0.16792757803E+02  0.18829320116E+02  0.51100000000E-03 0. -1.
        -11    1    3    3    0    0  0.12171082140E+02  0.55711217097E+01 -0.10677483054E+02  0.17122537259E+02  0.51100000000E-03 0.  1.
        -12    1    3    3    0    0  0.85541827233E+00 -0.56092031928E+01 -0.10386632998E+02  0.11835414903E+02  0.00000000000E+00 0.  1.
</event>
<event>
 7    1  0.4432754E-010  0.4778727E+02  0.7816164E-02  0.1312668E+00
        -11   -1    0    0    0    0  0.00000000000E+00  0.00000000000E+00  0.45593999997E+02  0.45594000000E+02  0.51100000000E-03 0.  1.
         11   -1    0    0    0    0 -0.00000000000E+00 -0.00000000000E+00 -0.45593999997E+02  0.45594000000E+02  0.51100000000E-03 0. -1.
    9900012    2    1    2    0    0  0.12518409435E+01 -0.38712189003E+02 -0.19581171542E+02  0.47787274636E+02  0.20000016378E+02 0.  0.
        -12    1    1    2    0    0 -0.12518409435E+01  0.38712189003E+02  0.19581171542E+02  0.43400725364E+02  0.00000000000E+00 0.  1.
         11    1    3    3    0    0  0.21334855821E+01 -0.31775751718E+01  0.96967352109E+00  0.39482922511E+01  0.51100000000E-03 0.  1.
        -11    1    3    3    0    0  0.53139291058E+01 -0.41981454359E+01 -0.32509415099E+01  0.75120495609E+01  0.51100000000E-03 0. -1.
         12    1    3    3    0    0 -0.61955737445E+01 -0.31336468395E+02 -0.17299903553E+02  0.36326932825E+02  0.00000000000E+00 0. -1.
</event>
<event>
 7    1  0.4432754E-010  0.4778727E+02  0.7816164E-02  0.1312668E+00
        -11   -1    0    0    0    0  0.00000000000E+00  0.00000000000E+00  0.45593999997E+02  0.45594000000E+02  0.51100000000E-03 0.  1.
         11   -1    0    0    0    0 -0.00000000000E+00 -0.00000000000E+00 -0.45593999997E+02  0.45594000000E+02  0.51100000000E-03 0. -1.
    9900012    2    1    2    0    0 -0.16710219683E+02 -0.36871497000E+02 -0.15648789908E+02  0.47787270070E+02  0.19999995558E+02 0.  0.
        -12    1    1    2    0    0  0.16710219683E+02  0.36871497000E+02  0.15648789908E+02  0.43400729930E+02  0.00000000000E+00 0.  1.
         11    1    3    3    0    0 -0.10668938014E+02 -0.12093798398E+02 -0.80648478731E+01  0.18031305264E+02  0.51100000000E-03 0. -1.
        -11    1    3    3    0    0 -0.10182368330E+02 -0.19947179143E+02 -0.63015806982E+01  0.23265435739E+02  0.51100000000E-03 0.  1.
        -12    1    3    3    0    0  0.41410866610E+01 -0.48305194580E+01 -0.12823613368E+01  0.64905290667E+01  0.00000000000E+00 0.  1.
</event>
<event>
 7    1  0.4432754E-010  0.4778727E+02  0.7816164E-02  0.1312668E+00
        -11   -1    0    0    0    0  0.00000000000E+00  0.00000000000E+00  0.45593999997E+02  0.45594000000E+02  0.51100000000E-03 0.  1.
         11   -1    0    0    0    0 -0.00000000000E+00 -0.00000000000E+00 -0.45593999997E+02  0.45594000000E+02  0.51100000000E-03 0. -1.
    9900012    2    1    2    0    0  0.18666070723E+02 -0.32631773401E+02 -0.21687977964E+02  0.47787271668E+02  0.20000002844E+02 0.  0.
        -12    1    1    2    0    0 -0.18666070723E+02  0.32631773401E+02  0.21687977964E+02  0.43400728332E+02  0.00000000000E+00 0.  1.
         11    1    3    3    0    0  0.37733179024E+01 -0.11139472150E+01 -0.33603722066E+01  0.51740610761E+01  0.51100000000E-03 0. -1.
        -11    1    3    3    0    0 -0.24572480469E+01 -0.50918622196E+01  0.72972007029E+00  0.57006684231E+01  0.51100000000E-03 0.  1.
         12    1    3    3    0    0  0.17350000868E+02 -0.26425963967E+02 -0.19057325827E+02  0.36912542169E+02  0.00000000000E+00 0. -1.
</event>
<event>
 7    1  0.4432754E-010  0.4778727E+02  0.7816164E-02  0.1312668E+00
        -11   -1    0    0    0    0  0.00000000000E+00  0.00000000000E+00  0.45593999997E+02  0.45594000000E+02  0.51100000000E-03 0.  1.
         11   -1    0    0    0    0 -0.00000000000E+00 -0.00000000000E+00 -0.45593999997E+02  0.45594000000E+02  0.51100000000E-03 0. -1.
    9900012    2    1    2    0    0 -0.12408316827E+02 -0.23012124373E+02 -0.34642446824E+02  0.47787270553E+02  0.19999997758E+02 0.  0.
        -12    1    1    2    0    0  0.12408316827E+02  0.23012124373E+02  0.34642446824E+02  0.43400729447E+02  0.00000000000E+00 0.  1.
         11    1    3    3    0    0 -0.89188602353E+01 -0.17382640447E+02 -0.15767318841E+02  0.25105987344E+02  0.51100000000E-03 0. -1.
        -11    1    3    3    0    0  0.20937753333E+01 -0.15324311331E+01 -0.20125185894E-01  0.25947342076E+01  0.51100000000E-03 0.  1.
        -12    1    3    3    0    0 -0.55832319249E+01 -0.40970527927E+01 -0.18855002797E+02  0.20086549001E+02  0.00000000000E+00 0.  1.
</event>
<event>
 7    1  0.4432754E-010  0.4778726E+02  0.7816164E-02  0.1312668E+00
        -11   -1    0    0    0    0  0.00000000000E+00  0.00000000000E+00  0.45593999997E+02  0.45594000000E+02  0.51100000000E-03 0.  1.
         11   -1    0    0    0    0 -0.00000000000E+00 -0.00000000000E+00 -0.45593999997E+02  0.45594000000E+02  0.51100000000E-03 0. -1.
    9900012    2    1    2    0    0 -0.28024799592E+01  0.41863579761E+02  0.11100028478E+02  0.47787264562E+02  0.19999970444E+02 0.  0.
        -12    1    1    2    0    0  0.28024799592E+01 -0.41863579761E+02 -0.11100028478E+02  0.43400735438E+02  0.00000000000E+00 0.  1.
         11    1    3    3    0    0 -0.53125664403E+00  0.18811839179E+01 -0.33751123799E+01  0.39003167042E+01  0.51100000000E-03 0. -1.
        -11    1    3    3    0    0 -0.57245682304E+01  0.12898266115E+02  0.43536559928E+01  0.14767879704E+02  0.51100000000E-03 0.  1.
         12    1    3    3    0    0  0.34533449152E+01  0.27084129729E+02  0.10121484865E+02  0.29119068154E+02  0.00000000000E+00 0. -1.
</event>
<event>
 7    1  0.4432754E-010  0.4778727E+02  0.7816164E-02  0.1312668E+00
        -11   -1    0    0    0    0  0.00000000000E+00  0.00000000000E+00  0.45593999997E+02  0.45594000000E+02  0.51100000000E-03 0.  1.
         11   -1    0    0    0    0 -0.00000000000E+00 -0.00000000000E+00 -0.45593999997E+02  0.45594000000E+02  0.51100000000E-03 0. -1.
    9900012    2    1    2    0    0  0.22967171311E+02 -0.28512903846E+02 -0.23305510045E+02  0.47787269105E+02  0.19999991158E+02 0.  0.
        -12    1    1    2    0    0 -0.22967171311E+02  0.28512903846E+02  0.23305510045E+02  0.43400730895E+02  0.00000000000E+00 0.  1.
         11    1    3    3    0    0  0.28920286585E+01 -0.99262251569E+00 -0.63984092992E+01  0.70914576105E+01  0.51100000000E-03 0. -1.
        -11    1    3    3    0    0  0.24411623521E+00  0.81809398319E+00 -0.34960532007E+01  0.35987857320E+01  0.51100000000E-03 0.  1.
         12    1    3    3    0    0  0.19831026417E+02 -0.28338375314E+02 -0.13411047545E+02  0.37097025763E+02  0.00000000000E+00 0. -1.
</event>
<event>
 7    1  0.4432754E-010  0.4778727E+02  0.7816164E-02  0.1312668E+00
        -11   -1    0    0    0    0  0.00000000000E+00  0.00000000000E+00  0.45593999997E+02  0.45594000000E+02  0.51100000000E-03 0.  1.
         11   -1    0    0    0    0 -0.00000000000E+00 -0.00000000000E+00 -0.45593999997E+02  0.45594000000E+02  0.51100000000E-03 0. -1.
    9900012    2    1    2    0    0  0.24049173591E+02 -0.11035862371E+02 -0.34401603829E+02  0.47787270114E+02  0.19999995756E+02 0.  0.
        -12    1    1    2    0    0 -0.24049173591E+02  0.11035862371E+02  0.34401603829E+02  0.43400729886E+02  0.00000000000E+00 0.  1.
         11    1    3    3    0    0  0.89302355717E+01 -0.11556448255E+01 -0.24772477590E+01  0.93392386761E+01  0.51100000000E-03 0. -1.
        -11    1    3    3    0    0  0.51881422029E+01 -0.21299319293E+01 -0.19558628689E+01  0.59395984178E+01  0.51100000000E-03 0.  1.
         12    1    3    3    0    0  0.99307958164E+01 -0.77502856164E+01 -0.29968493201E+02  0.32508433020E+02  0.00000000000E+00 0. -1.
</event>
<event>
 7    1  0.4432754E-010  0.4778726E+02  0.7816164E-02  0.1312668E+00
        -11   -1    0    0    0    0  0.00000000000E+00  0.00000000000E+00  0.45593999997E+02  0.45594000000E+02  0.51100000000E-03 0.  1.
         11   -1    0    0    0    0 -0.00000000000E+00 -0.00000000000E+00 -0.45593999997E+02  0.45594000000E+02  0.51100000000E-03 0. -1.
    9900012    2    1    2    0    0  0.20898887181E+02  0.30053397160E+02 -0.23316386175E+02  0.47787262327E+02  0.19999960255E+02 0.  0.
        -12    1    1    2    0    0 -0.20898887181E+02 -0.30053397160E+02  0.23316386175E+02  0.43400737673E+02  0.00000000000E+00 0.  1.
         11    1    3    3    0    0  0.61002978136E+01  0.99824838679E+01 -0.43222317390E+01  0.12471780348E+02  0.51100000000E-03 0. -1.
        -11    1    3    3    0    0  0.15692964620E+02  0.12815179947E+02 -0.19322524765E+02  0.27997463085E+02  0.51100000000E-03 0.  1.
        -12    1    3    3    0    0 -0.89437525209E+00  0.72557333447E+01  0.32837032875E+00  0.73180188940E+01  0.00000000000E+00 0.  1.
</event>
<event>
 7    1  0.4432754E-010  0.4778729E+02  0.7816164E-02  0.1312668E+00
        -11   -1    0    0    0    0  0.00000000000E+00  0.00000000000E+00  0.45593999997E+02  0.45594000000E+02  0.51100000000E-03 0. -1.
         11   -1    0    0    0    0 -0.00000000000E+00 -0.00000000000E+00 -0.45593999997E+02  0.45594000000E+02  0.51100000000E-03 0.  1.
    9900012    2    1    2    0    0  0.19680498745E+01 -0.36826417763E+02 -0.22881511604E+02  0.47787287576E+02  0.20000075375E+02 0.  0.
        -12    1    1    2    0    0 -0.19680498745E+01  0.36826417763E+02  0.22881511604E+02  0.43400712424E+02  0.00000000000E+00 0.  1.
         11    1    3    3    0    0  0.74928876546E+01 -0.79030170848E+01 -0.69018160520E+01  0.12893258297E+02  0.51100000000E-03 0.  1.
        -11    1    3    3    0    0  0.11911280668E+01 -0.24219809359E+00 -0.18744606030E+01  0.22340655320E+01  0.51100000000E-03 0. -1.
         12    1    3    3    0    0 -0.67159658469E+01 -0.28681202585E+02 -0.14105234949E+02  0.32659963747E+02  0.00000000000E+00 0. -1.
</event>
<event>
 7    1  0.4432754E-010  0.4778726E+02  0.7816164E-02  0.1312668E+00
        -11   -1    0    0    0    0  0.00000000000E+00  0.00000000000E+00  0.45593999997E+02  0.45594000000E+02  0.51100000000E-03 0.  1.
         11   -1    0    0    0    0 -0.00000000000E+00 -0.00000000000E+00 -0.45593999997E+02  0.45594000000E+02  0.51100000000E-03 0. -1.
    9900012    2    1    2    0    0 -0.99671889444E+01 -0.25776248609E+02 -0.33464378290E+02  0.47787257355E+02  0.19999937584E+02 0.  0.
        -12    1    1    2    0    0  0.99671889444E+01  0.25776248609E+02  0.33464378290E+02  0.43400742645E+02  0.00000000000E+00 0.  1.
         11    1    3    3    0    0 -0.21078332724E+01 -0.32720582200E+00  0.36456820115E+00  0.21640090085E+01  0.51100000000E-03 0. -1.
        -11    1    3    3    0    0  0.24807107046E+01  0.47534419368E+00 -0.16052616575E+01  0.29927818084E+01  0.51100000000E-03 0.  1.
         12    1    3    3    0    0 -0.10340066377E+02 -0.25924386980E+02 -0.32223684834E+02  0.42630466538E+02  0.00000000000E+00 0. -1.
</event>
<event>
 7    1  0.4432754E-010  0.4778727E+02  0.7816164E-02  0.1312668E+00
        -11   -1    0    0    0    0  0.00000000000E+00  0.00000000000E+00  0.45593999997E+02  0.45594000000E+02  0.51100000000E-03 0.  1.
         11   -1    0    0    0    0 -0.00000000000E+00 -0.00000000000E+00 -0.45593999997E+02  0.45594000000E+02  0.51100000000E-03 0. -1.
    9900012    2    1    2    0    0 -0.12561724534E+02 -0.16610662948E+02 -0.38077711919E+02  0.47787271989E+02  0.20000004308E+02 0.  0.
        -12    1    1    2    0    0  0.12561724534E+02  0.16610662948E+02  0.38077711919E+02  0.43400728011E+02  0.00000000000E+00 0.  1.
         11    1    3    3    0    0  0.47349910901E+01 -0.62678710203E+01 -0.12116493345E+02  0.14440074757E+02  0.51100000000E-03 0. -1.
        -11    1    3    3    0    0 -0.35610817165E+01  0.26931321094E+00 -0.45446310659E+01  0.57799225240E+01  0.51100000000E-03 0.  1.
         12    1    3    3    0    0 -0.13735633908E+02 -0.10612105139E+02 -0.21416587509E+02  0.27567274708E+02  0.00000000000E+00 0. -1.
</event>
<event>
 7    1  0.4432754E-010  0.4778727E+02  0.7816164E-02  0.1312668E+00
        -11   -1    0    0    0    0  0.00000000000E+00  0.00000000000E+00  0.45593999997E+02  0.45594000000E+02  0.51100000000E-03 0.  1.
         11   -1    0    0    0    0 -0.00000000000E+00 -0.00000000000E+00 -0.45593999997E+02  0.45594000000E+02  0.51100000000E-03 0. -1.
    9900012    2    1    2    0    0  0.22971655440E+02 -0.35987983702E+02 -0.77968765442E+01  0.47787271799E+02  0.20000003439E+02 0.  0.
        -12    1    1    2    0    0 -0.22971655440E+02  0.35987983702E+02  0.77968765442E+01  0.43400728201E+02  0.00000000000E+00 0.  1.
         11    1    3    3    0    0  0.52737204681E+01 -0.82712516174E+01 -0.50885747290E+01  0.11050761237E+02  0.51100000000E-03 0. -1.
        -11    1    3    3    0    0  0.17169544186E+02 -0.12244659085E+02 -0.26578869737E+01  0.21255335497E+02  0.51100000000E-03 0.  1.
         12    1    3    3    0    0  0.52839078630E+00 -0.15472072999E+02 -0.50414841529E-01  0.15481175064E+02  0.00000000000E+00 0. -1.
</event>
<event>
 7    1  0.4432754E-010  0.4778727E+02  0.7816164E-02  0.1312668E+00
        -11   -1    0    0    0    0  0.00000000000E+00  0.00000000000E+00  0.45593999997E+02  0.45594000000E+02  0.51100000000E-03 0. -1.
         11   -1    0    0    0    0 -0.00000000000E+00 -0.00000000000E+00 -0.45593999997E+02  0.45594000000E+02  0.51100000000E-03 0.  1.
    9900012    2    1    2    0    0 -0.87822544655E+01  0.22884331531E+02  0.35816234107E+02  0.47787271335E+02  0.20000001323E+02 0.  0.
        -12    1    1    2    0    0  0.87822544655E+01 -0.22884331531E+02 -0.35816234107E+02  0.43400728665E+02  0.00000000000E+00 0.  1.
         11    1    3    3    0    0 -0.54605017478E+01  0.15108421564E+02  0.24804527628E+02  0.29552429217E+02  0.51100000000E-03 0. -1.
        -11    1    3    3    0    0 -0.75732344409E+01  0.50476400492E+01  0.89931273408E+01  0.12794877475E+02  0.51100000000E-03 0.  1.
         12    1    3    3    0    0  0.42514817232E+01  0.27282699169E+01  0.20185791380E+01  0.54399646432E+01  0.00000000000E+00 0. -1.
</event>
<event>
 7    1  0.4432754E-010  0.4778726E+02  0.7816164E-02  0.1312668E+00
        -11   -1    0    0    0    0  0.00000000000E+00  0.00000000000E+00  0.45593999997E+02  0.45594000000E+02  0.51100000000E-03 0.  1.
         11   -1    0    0    0    0 -0.00000000000E+00 -0.00000000000E+00 -0.45593999997E+02  0.45594000000E+02  0.51100000000E-03 0. -1.
    9900012    2    1    2    0    0 -0.88505830245E+01 -0.34817958113E+02 -0.24351614844E+02  0.47787260692E+02  0.19999952798E+02 0.  0.
        -12    1    1    2    0    0  0.88505830245E+01  0.34817958113E+02  0.24351614844E+02  0.43400739308E+02  0.00000000000E+00 0.  1.
         11    1    3    3    0    0 -0.58554461806E+01 -0.11930822735E+02 -0.14072712493E+02  0.19356446427E+02  0.51100000000E-03 0. -1.
        -11    1    3    3    0    0 -0.10824575143E+01  0.86077226098E+00 -0.33417099944E+01  0.36165825172E+01  0.51100000000E-03 0.  1.
         12    1    3    3    0    0 -0.19126793296E+01 -0.23747907639E+02 -0.69371923558E+01  0.24814231748E+02  0.00000000000E+00 0. -1.
</event>
<event>
 7    1  0.4432754E-010  0.4778728E+02  0.7816164E-02  0.1312668E+00
        -11   -1    0    0    0    0  0.00000000000E+00  0.00000000000E+00  0.45593999997E+02  0.45594000000E+02  0.51100000000E-03 0.  1.
         11   -1    0    0    0    0 -0.00000000000E+00 -0.00000000000E+00 -0.45593999997E+02  0.45594000000E+02  0.51100000000E-03 0. -1.
    9900012    2    1    2    0    0 -0.38025263492E+02  0.11267407815E+02 -0.17628028225E+02  0.47787279711E+02  0.20000039515E+02 0.  0.
        -12    1    1    2    0    0  0.38025263492E+02 -0.11267407815E+02  0.17628028225E+02  0.43400720289E+02  0.00000000000E+00 0.  1.
         11    1    3    3    0    0 -0.74350673830E+01  0.18533267358E+01 -0.11065457539E+01  0.77420598516E+01  0.51100000000E-03 0.  1.
        -11    1    3    3    0    0 -0.25921731614E+02  0.86140472131E+01 -0.52452154192E+01  0.27814569282E+02  0.51100000000E-03 0. -1.
        -12    1    3    3    0    0 -0.46684644943E+01  0.80003386611E+00 -0.11276267052E+02  0.12230650578E+02  0.00000000000E+00 0.  1.
</event>
<event>
 7    1  0.4432754E-010  0.4778727E+02  0.7816164E-02  0.1312668E+00
        -11   -1    0    0    0    0  0.00000000000E+00  0.00000000000E+00  0.45593999997E+02  0.45594000000E+02  0.51100000000E-03 0.  1.
         11   -1    0    0    0    0 -0.00000000000E+00 -0.00000000000E+00 -0.45593999997E+02  0.45594000000E+02  0.51100000000E-03 0. -1.
    9900012    2    1    2    0    0  0.81044728838E+01 -0.35327607303E+02 -0.23872596424E+02  0.47787272143E+02  0.20000005008E+02 0.  0.
        -12    1    1    2    0    0 -0.81044728838E+01  0.35327607303E+02  0.23872596424E+02  0.43400727857E+02  0.00000000000E+00 0.  1.
         11    1    3    3    0    0 -0.98522215125E+00 -0.42256203107E+00 -0.45420832936E+00  0.11642709414E+01  0.51100000000E-03 0. -1.
        -11    1    3    3    0    0  0.83767658816E+01 -0.67146954727E+01 -0.12260144767E+02  0.16296272332E+02  0.51100000000E-03 0.  1.
         12    1    3    3    0    0  0.71292915344E+00 -0.28190349799E+02 -0.11158243328E+02  0.30326728870E+02  0.00000000000E+00 0. -1.
</event>
<event>
 7    1  0.4432754E-010  0.4778725E+02  0.7816164E-02  0.1312668E+00
        -11   -1    0    0    0    0  0.00000000000E+00  0.00000000000E+00  0.45593999997E+02  0.45594000000E+02  0.51100000000E-03 0.  1.
         11   -1    0    0    0    0 -0.00000000000E+00 -0.00000000000E+00 -0.45593999997E+02  0.45594000000E+02  0.51100000000E-03 0. -1.
    9900012    2    1    2    0    0  0.97115670602E+01  0.37564268997E+02 -0.19448287003E+02  0.47787254530E+02  0.19999924702E+02 0.  0.
        -12    1    1    2    0    0 -0.97115670602E+01 -0.37564268997E+02  0.19448287003E+02  0.43400745470E+02  0.00000000000E+00 0.  1.
         11    1    3    3    0    0 -0.20908383445E+01  0.33285242650E+01 -0.12553253932E+01  0.41263205001E+01  0.51100000000E-03 0. -1.
        -11    1    3    3    0    0  0.27552668387E+01  0.12646659380E+02  0.15537450141E+01  0.13036242275E+02  0.51100000000E-03 0.  1.
         12    1    3    3    0    0  0.90471385660E+01  0.21589085352E+02 -0.19746706624E+02  0.30624691754E+02  0.00000000000E+00 0. -1.
</event>
<event>
 7    1  0.4432754E-010  0.4778727E+02  0.7816164E-02  0.1312668E+00
        -11   -1    0    0    0    0  0.00000000000E+00  0.00000000000E+00  0.45593999997E+02  0.45594000000E+02  0.51100000000E-03 0.  1.
         11   -1    0    0    0    0 -0.00000000000E+00 -0.00000000000E+00 -0.45593999997E+02  0.45594000000E+02  0.51100000000E-03 0. -1.
    9900012    2    1    2    0    0 -0.22810488606E+02  0.36473930884E+02  0.57408683876E+01  0.47787267351E+02  0.19999983161E+02 0.  0.
        -12    1    1    2    0    0  0.22810488606E+02 -0.36473930884E+02 -0.57408683876E+01  0.43400732649E+02  0.00000000000E+00 0.  1.
         11    1    3    3    0    0  0.96851076549E+00  0.11174299499E+02  0.10660580782E+01  0.11266741432E+02  0.51100000000E-03 0. -1.
        -11    1    3    3    0    0 -0.47502799531E+01  0.94005155097E+00  0.27056257860E+01  0.55470052917E+01  0.51100000000E-03 0.  1.
        -12    1    3    3    0    0 -0.19028719418E+02  0.24359579834E+02  0.19691845235E+01  0.30973520628E+02  0.00000000000E+00 0.  1.
</event>
<event>
 7    1  0.4432754E-010  0.4778727E+02  0.7816164E-02  0.1312668E+00
        -11   -1    0    0    0    0  0.00000000000E+00  0.00000000000E+00  0.45593999997E+02  0.45594000000E+02  0.51100000000E-03 0.  1.
         11   -1    0    0    0    0 -0.00000000000E+00 -0.00000000000E+00 -0.45593999997E+02  0.45594000000E+02  0.51100000000E-03 0. -1.
    9900012    2    1    2    0    0 -0.30305666286E+02  0.27258665053E+02 -0.14904864284E+02  0.47787271794E+02  0.20000003416E+02 0.  0.
        -12    1    1    2    0    0  0.30305666286E+02 -0.27258665053E+02  0.14904864284E+02  0.43400728206E+02  0.00000000000E+00 0.  1.
         11    1    3    3    0    0 -0.13896271026E+02  0.83341182932E+01  0.11249836620E+01  0.16242828099E+02  0.51100000000E-03 0. -1.
        -11    1    3    3    0    0  0.12184073381E+01 -0.75961420937E-01 -0.43383037366E+00  0.12955676876E+01  0.51100000000E-03 0.  1.
        -12    1    3    3    0    0 -0.17627802598E+02  0.19000508181E+02 -0.15596017573E+02  0.30248876007E+02  0.00000000000E+00 0.  1.
</event>
<event>
 7    1  0.4432754E-010  0.4778727E+02  0.7816164E-02  0.1312668E+00
        -11   -1    0    0    0    0  0.00000000000E+00  0.00000000000E+00  0.45593999997E+02  0.45594000000E+02  0.51100000000E-03 0.  1.
         11   -1    0    0    0    0 -0.00000000000E+00 -0.00000000000E+00 -0.45593999997E+02  0.45594000000E+02  0.51100000000E-03 0. -1.
    9900012    2    1    2    0    0 -0.40954178275E+02  0.55015757491E+00 -0.14355342279E+02  0.47787271395E+02  0.20000001598E+02 0.  0.
        -12    1    1    2    0    0  0.40954178275E+02 -0.55015757491E+00  0.14355342279E+02  0.43400728605E+02  0.00000000000E+00 0.  1.
         11    1    3    3    0    0 -0.49433685979E+01 -0.31462017256E+01 -0.58323266679E+01  0.82674973853E+01  0.51100000000E-03 0.  1.
        -11    1    3    3    0    0 -0.63813459291E+01  0.16976206902E+00 -0.72417626895E+01  0.96536792022E+01  0.51100000000E-03 0. -1.
         12    1    3    3    0    0 -0.29629463747E+02  0.35265972315E+01 -0.12812529218E+01  0.29866094807E+02  0.00000000000E+00 0. -1.
</event>
<event>
 7    1  0.4432754E-010  0.4778727E+02  0.7816164E-02  0.1312668E+00
        -11   -1    0    0    0    0  0.00000000000E+00  0.00000000000E+00  0.45593999997E+02  0.45594000000E+02  0.51100000000E-03 0.  1.
         11   -1    0    0    0    0 -0.00000000000E+00 -0.00000000000E+00 -0.45593999997E+02  0.45594000000E+02  0.51100000000E-03 0. -1.
    9900012    2    1    2    0    0  0.18048393551E+02 -0.69092231819E+00 -0.39463925055E+02  0.47787271156E+02  0.20000000511E+02 0.  0.
        -12    1    1    2    0    0 -0.18048393551E+02  0.69092231819E+00  0.39463925055E+02  0.43400728844E+02  0.00000000000E+00 0.  1.
         11    1    3    3    0    0  0.13280387497E+02 -0.21179238631E+01 -0.18713254727E+02  0.23044309413E+02  0.51100000000E-03 0. -1.
        -11    1    3    3    0    0  0.16650247683E+01 -0.39910989946E+01 -0.16815324563E+02  0.17362497490E+02  0.51100000000E-03 0.  1.
        -12    1    3    3    0    0  0.31029812852E+01  0.54181005395E+01 -0.39353457644E+01  0.73804642536E+01  0.00000000000E+00 0.  1.
</event>
<event>
 7    1  0.4432754E-010  0.4778727E+02  0.7816164E-02  0.1312668E+00
        -11   -1    0    0    0    0  0.00000000000E+00  0.00000000000E+00  0.45593999997E+02  0.45594000000E+02  0.51100000000E-03 0.  1.
         11   -1    0    0    0    0 -0.00000000000E+00 -0.00000000000E+00 -0.45593999997E+02  0.45594000000E+02  0.51100000000E-03 0. -1.
    9900012    2    1    2    0    0  0.11543022630E+02 -0.56049383903E+01 -0.41460419760E+02  0.47787272904E+02  0.20000008477E+02 0.  0.
        -12    1    1    2    0    0 -0.11543022630E+02  0.56049383903E+01  0.41460419760E+02  0.43400727096E+02  0.00000000000E+00 0.  1.
         11    1    3    3    0    0  0.40929099101E+01  0.40131418652E+01 -0.91891709077E+01  0.10830423879E+02  0.51100000000E-03 0. -1.
        -11    1    3    3    0    0  0.17933278202E+01 -0.10995347728E+01  0.86814358378E+00  0.22756702157E+01  0.51100000000E-03 0.  1.
         12    1    3    3    0    0  0.56567848996E+01 -0.85185454827E+01 -0.33139392436E+02  0.34681178809E+02  0.00000000000E+00 0. -1.
</event>
<event>
 7    1  0.4432754E-010  0.4778727E+02  0.7816164E-02  0.1312668E+00
        -11   -1    0    0    0    0  0.00000000000E+00  0.00000000000E+00  0.45593999997E+02  0.45594000000E+02  0.51100000000E-03 0.  1.
         11   -1    0    0    0    0 -0.00000000000E+00 -0.00000000000E+00 -0.45593999997E+02  0.45594000000E+02  0.51100000000E-03 0. -1.
    9900012    2    1    2    0    0  0.15588927301E+02 -0.19757689495E+02 -0.35358763080E+02  0.47787273335E+02  0.20000010441E+02 0.  0.
        -12    1    1    2    0    0 -0.15588927301E+02  0.19757689495E+02  0.35358763080E+02  0.43400726665E+02  0.00000000000E+00 0.  1.
         11    1    3    3    0    0  0.51185571151E+01 -0.14672559332E+01 -0.88750277562E+00  0.53981597190E+01  0.51100000000E-03 0. -1.
        -11    1    3    3    0    0  0.69987380245E+01 -0.46877343146E+01 -0.51312763049E+01  0.98634265708E+01  0.51100000000E-03 0.  1.
         12    1    3    3    0    0  0.34716321617E+01 -0.13602699247E+02 -0.29339983999E+02  0.32525687045E+02  0.00000000000E+00 0. -1.
</event>
<event>
 7    1  0.4432754E-010  0.4778726E+02  0.7816164E-02  0.1312668E+00
        -11   -1    0    0    0    0  0.00000000000E+00  0.00000000000E+00  0.45593999997E+02  0.45594000000E+02  0.51100000000E-03 0.  1.
         11   -1    0    0    0    0 -0.00000000000E+00 -0.00000000000E+00 -0.45593999997E+02  0.45594000000E+02  0.51100000000E-03 0. -1.
    9900012    2    1    2    0    0  0.21374158526E+02 -0.37649475323E+02  0.30473504814E+01  0.47787262797E+02  0.19999962398E+02 0.  0.
        -12    1    1    2    0    0 -0.21374158526E+02  0.37649475323E+02 -0.30473504814E+01  0.43400737203E+02  0.00000000000E+00 0.  1.
         11    1    3    3    0    0  0.11149859959E+02 -0.11129131128E+02 -0.42989794849E+01  0.16329671205E+02  0.51100000000E-03 0. -1.
        -11    1    3    3    0    0  0.11206675007E+02 -0.20640401307E+02  0.22129099528E+01  0.23590521434E+02  0.51100000000E-03 0.  1.
        -12    1    3    3    0    0 -0.98237644094E+00 -0.58799428879E+01  0.51334200135E+01  0.78670701580E+01  0.00000000000E+00 0.  1.
</event>
<event>
 7    1  0.4432754E-010  0.4778727E+02  0.7816164E-02  0.1312668E+00
        -11   -1    0    0    0    0  0.00000000000E+00  0.00000000000E+00  0.45593999997E+02  0.45594000000E+02  0.51100000000E-03 0.  1.
         11   -1    0    0    0    0 -0.00000000000E+00 -0.00000000000E+00 -0.45593999997E+02  0.45594000000E+02  0.51100000000E-03 0. -1.
    9900012    2    1    2    0    0  0.17786259951E+02  0.36573625003E+02 -0.15153951551E+02  0.47787270323E+02  0.19999996710E+02 0.  0.
        -12    1    1    2    0    0 -0.17786259951E+02 -0.36573625003E+02  0.15153951551E+02  0.43400729677E+02  0.00000000000E+00 0.  1.
         11    1    3    3    0    0  0.16694108331E+02  0.16088116884E+02 -0.26942415961E+01  0.23340516187E+02  0.51100000000E-03 0. -1.
        -11    1    3    3    0    0  0.24261158048E+01  0.10899945391E+02 -0.50374123479E+01  0.12250321255E+02  0.51100000000E-03 0.  1.
         12    1    3    3    0    0 -0.13339641846E+01  0.95855627282E+01 -0.74222976066E+01  0.12196432881E+02  0.00000000000E+00 0. -1.
</event>
<event>
 7    1  0.4432754E-010  0.4778729E+02  0.7816164E-02  0.1312668E+00
        -11   -1    0    0    0    0  0.00000000000E+00  0.00000000000E+00  0.45593999997E+02  0.45594000000E+02  0.51100000000E-03 0.  1.
         11   -1    0    0    0    0 -0.00000000000E+00 -0.00000000000E+00 -0.45593999997E+02  0.45594000000E+02  0.51100000000E-03 0. -1.
    9900012    2    1    2    0    0  0.13226522879E+01 -0.42969465376E+02 -0.59579627274E+01  0.47787289364E+02  0.20000083528E+02 0.  0.
        -12    1    1    2    0    0 -0.13226522879E+01  0.42969465376E+02  0.59579627274E+01  0.43400710636E+02  0.00000000000E+00 0.  1.
         11    1    3    3    0    0 -0.33713735069E+01 -0.21701528516E+02  0.21560056197E+01  0.22067416245E+02  0.51100000000E-03 0. -1.
        -11    1    3    3    0    0 -0.35844146866E+01 -0.65954626043E+01 -0.32913559236E+01  0.81964126108E+01  0.51100000000E-03 0.  1.
        -12    1    3    3    0    0  0.82784404814E+01 -0.14672474257E+02 -0.48226124235E+01  0.17523460509E+02  0.00000000000E+00 0.  1.
</event>
<event>
 7    1  0.4432754E-010  0.4778727E+02  0.7816164E-02  0.1312668E+00
        -11   -1    0    0    0    0  0.00000000000E+00  0.00000000000E+00  0.45593999997E+02  0.45594000000E+02  0.51100000000E-03 0.  1.
         11   -1    0    0    0    0 -0.00000000000E+00 -0.00000000000E+00 -0.45593999997E+02  0.45594000000E+02  0.51100000000E-03 0. -1.
    9900012    2    1    2    0    0 -0.62075727051E+01 -0.17698062294E+01 -0.42918027425E+02  0.47787271308E+02  0.20000001201E+02 0.  0.
        -12    1    1    2    0    0  0.62075727051E+01  0.17698062294E+01  0.42918027425E+02  0.43400728692E+02  0.00000000000E+00 0.  1.
         11    1    3    3    0    0 -0.63540590452E+01 -0.20932712408E+01 -0.27406708798E+02  0.28211407945E+02  0.51100000000E-03 0. -1.
        -11    1    3    3    0    0 -0.39327551637E+01  0.10100853899E+01 -0.14839575354E+02  0.15385052246E+02  0.51100000000E-03 0.  1.
        -12    1    3    3    0    0  0.40792415038E+01 -0.68662037847E+00 -0.67174327283E+00  0.41908111166E+01  0.00000000000E+00 0.  1.
</event>
<event>
 7    1  0.4432754E-010  0.4778727E+02  0.7816164E-02  0.1312668E+00
        -11   -1    0    0    0    0  0.00000000000E+00  0.00000000000E+00  0.45593999997E+02  0.45594000000E+02  0.51100000000E-03 0. -1.
         11   -1    0    0    0    0 -0.00000000000E+00 -0.00000000000E+00 -0.45593999997E+02  0.45594000000E+02  0.51100000000E-03 0.  1.
    9900012    2    1    2    0    0 -0.85463677516E+01 -0.42545964625E+02 -0.65091326617E+00  0.47787271945E+02  0.20000004106E+02 0.  0.
        -12    1    1    2    0    0  0.85463677516E+01  0.42545964625E+02  0.65091326617E+00  0.43400728055E+02  0.00000000000E+00 0.  1.
         11    1    3    3    0    0 -0.84501900208E+01 -0.24816819888E+02  0.73783794537E+01  0.27234550563E+02  0.51100000000E-03 0. -1.
        -11    1    3    3    0    0 -0.22486992859E+01 -0.18981943939E+01 -0.12303288492E+01  0.31895924149E+01  0.51100000000E-03 0.  1.
         12    1    3    3    0    0  0.21525215551E+01 -0.15830950344E+02 -0.67989638708E+01  0.17363128968E+02  0.00000000000E+00 0. -1.
</event>
<event>
 7    1  0.4432754E-010  0.4778727E+02  0.7816164E-02  0.1312668E+00
        -11   -1    0    0    0    0  0.00000000000E+00  0.00000000000E+00  0.45593999997E+02  0.45594000000E+02  0.51100000000E-03 0.  1.
         11   -1    0    0    0    0 -0.00000000000E+00 -0.00000000000E+00 -0.45593999997E+02  0.45594000000E+02  0.51100000000E-03 0. -1.
    9900012    2    1    2    0    0 -0.28516438736E+02 -0.28747401559E+02 -0.15621226868E+02  0.47787273008E+02  0.20000008954E+02 0.  0.
        -12    1    1    2    0    0  0.28516438736E+02  0.28747401559E+02  0.15621226868E+02  0.43400726992E+02  0.00000000000E+00 0.  1.
         11    1    3    3    0    0 -0.34792444722E+01 -0.65462481953E+01 -0.77157963168E+01  0.10700094420E+02  0.51100000000E-03 0. -1.
        -11    1    3    3    0    0 -0.47723380474E+01 -0.37400567876E+01 -0.75350319389E+01  0.96716049234E+01  0.51100000000E-03 0.  1.
        -12    1    3    3    0    0 -0.20264856216E+02 -0.18461096576E+02 -0.37039861196E+00  0.27415573665E+02  0.00000000000E+00 0.  1.
</event>
<event>
 7    1  0.4432754E-010  0.4778727E+02  0.7816164E-02  0.1312668E+00
        -11   -1    0    0    0    0  0.00000000000E+00  0.00000000000E+00  0.45593999997E+02  0.45594000000E+02  0.51100000000E-03 0.  1.
         11   -1    0    0    0    0 -0.00000000000E+00 -0.00000000000E+00 -0.45593999997E+02  0.45594000000E+02  0.51100000000E-03 0. -1.
    9900012    2    1    2    0    0  0.33155551465E+02  0.26795028649E+02 -0.81460983227E+01  0.47787273380E+02  0.20000010647E+02 0.  0.
        -12    1    1    2    0    0 -0.33155551465E+02 -0.26795028649E+02  0.81460983227E+01  0.43400726620E+02  0.00000000000E+00 0.  1.
         11    1    3    3    0    0  0.15176194627E+02  0.15142613420E+02 -0.66382746992E+01  0.22442867815E+02  0.51100000000E-03 0. -1.
        -11    1    3    3    0    0  0.16331537420E+02  0.14569876114E+02 -0.19121214048E+01  0.21969447262E+02  0.51100000000E-03 0.  1.
        -12    1    3    3    0    0  0.16478194182E+01 -0.29174608841E+01  0.40429778125E+00  0.33749583022E+01  0.00000000000E+00 0.  1.
</event>
<event>
 7    1  0.4432754E-010  0.4778727E+02  0.7816164E-02  0.1312668E+00
        -11   -1    0    0    0    0  0.00000000000E+00  0.00000000000E+00  0.45593999997E+02  0.45594000000E+02  0.51100000000E-03 0. -1.
         11   -1    0    0    0    0 -0.00000000000E+00 -0.00000000000E+00 -0.45593999997E+02  0.45594000000E+02  0.51100000000E-03 0.  1.
    9900012    2    1    2    0    0 -0.30811932139E+01 -0.38476596997E+02  0.19841406537E+02  0.47787266349E+02  0.19999978590E+02 0.  0.
        -12    1    1    2    0    0  0.30811932139E+01  0.38476596997E+02 -0.19841406537E+02  0.43400733651E+02  0.00000000000E+00 0.  1.
         11    1    3    3    0    0  0.24863416077E+01 -0.63887530276E+01  0.64019512525E+01  0.93799275018E+01  0.51100000000E-03 0.  1.
        -11    1    3    3    0    0 -0.19275820211E+01 -0.14893597596E+02  0.14399571269E+02  0.20805827904E+02  0.51100000000E-03 0. -1.
        -12    1    3    3    0    0 -0.36399528005E+01 -0.17194246374E+02 -0.96011598429E+00  0.17601510942E+02  0.00000000000E+00 0.  1.
</event>
<event>
 7    1  0.4432754E-010  0.4778727E+02  0.7816164E-02  0.1312668E+00
        -11   -1    0    0    0    0  0.00000000000E+00  0.00000000000E+00  0.45593999997E+02  0.45594000000E+02  0.51100000000E-03 0.  1.
         11   -1    0    0    0    0 -0.00000000000E+00 -0.00000000000E+00 -0.45593999997E+02  0.45594000000E+02  0.51100000000E-03 0. -1.
    9900012    2    1    2    0    0 -0.20552217039E+01  0.38832787062E+02 -0.19272097476E+02  0.47787273872E+02  0.20000012893E+02 0.  0.
        -12    1    1    2    0    0  0.20552217039E+01 -0.38832787062E+02  0.19272097476E+02  0.43400726128E+02  0.00000000000E+00 0.  1.
         11    1    3    3    0    0  0.16177728352E+01  0.12726941081E+01 -0.31293097780E+01  0.37455999769E+01  0.51100000000E-03 0. -1.
        -11    1    3    3    0    0  0.48576310803E+01  0.23717547962E+02 -0.62313075825E+01  0.24998957088E+02  0.51100000000E-03 0.  1.
         12    1    3    3    0    0 -0.85306256194E+01  0.13842544993E+02 -0.99114801155E+01  0.19042716807E+02  0.00000000000E+00 0. -1.
</event>
<event>
 7    1  0.4432754E-010  0.4778728E+02  0.7816164E-02  0.1312668E+00
        -11   -1    0    0    0    0  0.00000000000E+00  0.00000000000E+00  0.45593999997E+02  0.45594000000E+02  0.51100000000E-03 0.  1.
         11   -1    0    0    0    0 -0.00000000000E+00 -0.00000000000E+00 -0.45593999997E+02  0.45594000000E+02  0.51100000000E-03 0. -1.
    9900012    2    1    2    0    0 -0.10113607886E+02 -0.22335476706E+02 -0.35811509459E+02  0.47787276574E+02  0.20000025212E+02 0.  0.
        -12    1    1    2    0    0  0.10113607886E+02  0.22335476706E+02  0.35811509459E+02  0.43400723426E+02  0.00000000000E+00 0.  1.
         11    1    3    3    0    0 -0.53406808049E+01 -0.76741625725E+01 -0.84959833329E+00  0.93881553160E+01  0.51100000000E-03 0.  1.
        -11    1    3    3    0    0 -0.16954116667E+01 -0.49036949629E+01 -0.16438084193E+02  0.17237495676E+02  0.51100000000E-03 0. -1.
         12    1    3    3    0    0 -0.30775154146E+01 -0.97576191703E+01 -0.18523826933E+02  0.21161625582E+02  0.00000000000E+00 0. -1.
</event>
<event>
 7    1  0.4432754E-010  0.4778727E+02  0.7816164E-02  0.1312668E+00
        -11   -1    0    0    0    0  0.00000000000E+00  0.00000000000E+00  0.45593999997E+02  0.45594000000E+02  0.51100000000E-03 0.  1.
         11   -1    0    0    0    0 -0.00000000000E+00 -0.00000000000E+00 -0.45593999997E+02  0.45594000000E+02  0.51100000000E-03 0. -1.
    9900012    2    1    2    0    0 -0.36918989846E+01  0.52641958537E+00 -0.43240212929E+02  0.47787271321E+02  0.20000001260E+02 0.  0.
        -12    1    1    2    0    0  0.36918989846E+01 -0.52641958537E+00  0.43240212929E+02  0.43400728679E+02  0.00000000000E+00 0.  1.
         11    1    3    3    0    0 -0.73556514638E+01  0.77576504582E+00 -0.25432232813E+02  0.26485956392E+02  0.51100000000E-03 0. -1.
        -11    1    3    3    0    0 -0.22473769987E+01 -0.18327957243E+01 -0.13523660289E+02  0.13831096537E+02  0.51100000000E-03 0.  1.
        -12    1    3    3    0    0  0.59111294779E+01  0.15834502638E+01 -0.42843198272E+01  0.74702183920E+01  0.00000000000E+00 0.  1.
</event>
<event>
 7    1  0.4432754E-010  0.4778725E+02  0.7816164E-02  0.1312668E+00
        -11   -1    0    0    0    0  0.00000000000E+00  0.00000000000E+00  0.45593999997E+02  0.45594000000E+02  0.51100000000E-03 0. -1.
         11   -1    0    0    0    0 -0.00000000000E+00 -0.00000000000E+00 -0.45593999997E+02  0.45594000000E+02  0.51100000000E-03 0.  1.
    9900012    2    1    2    0    0 -0.16802497613E+02  0.29514041148E+02 -0.27022628323E+02  0.47787251246E+02  0.19999909732E+02 0.  0.
        -12    1    1    2    0    0  0.16802497613E+02 -0.29514041148E+02  0.27022628323E+02  0.43400748754E+02  0.00000000000E+00 0.  1.
         11    1    3    3    0    0 -0.56580283644E+00  0.10147702911E+02 -0.95806716095E+00  0.10208520959E+02  0.51100000000E-03 0. -1.
        -11    1    3    3    0    0 -0.69534843718E+00 -0.59978849871E+00 -0.36914408345E+01  0.38039441884E+01  0.51100000000E-03 0.  1.
        -12    1    3    3    0    0 -0.15541346339E+02  0.19966126736E+02 -0.22373120327E+02  0.33774786099E+02  0.00000000000E+00 0.  1.
</event>
<event>
 7    1  0.4432754E-010  0.4778727E+02  0.7816164E-02  0.1312668E+00
        -11   -1    0    0    0    0  0.00000000000E+00  0.00000000000E+00  0.45593999997E+02  0.45594000000E+02  0.51100000000E-03 0.  1.
         11   -1    0    0    0    0 -0.00000000000E+00 -0.00000000000E+00 -0.45593999997E+02  0.45594000000E+02  0.51100000000E-03 0. -1.
    9900012    2    1    2    0    0  0.23011249913E+01  0.36098212645E+02 -0.23984310380E+02  0.47787271011E+02  0.19999999847E+02 0.  0.
        -12    1    1    2    0    0 -0.23011249913E+01 -0.36098212645E+02  0.23984310380E+02  0.43400728989E+02  0.00000000000E+00 0.  1.
         11    1    3    3    0    0  0.41060330897E+01  0.69217945399E+01 -0.62249648982E+01  0.10174523853E+02  0.51100000000E-03 0. -1.
        -11    1    3    3    0    0  0.34189738917E+01  0.65673870668E+01  0.13821537966E+01  0.75319522526E+01  0.51100000000E-03 0.  1.
         12    1    3    3    0    0 -0.52238819901E+01  0.22609031038E+02 -0.19141499278E+02  0.30080794906E+02  0.00000000000E+00 0. -1.
</event>
<event>
 7    1  0.4432754E-010  0.4778727E+02  0.7816164E-02  0.1312668E+00
        -11   -1    0    0    0    0  0.00000000000E+00  0.00000000000E+00  0.45593999997E+02  0.45594000000E+02  0.51100000000E-03 0. -1.
         11   -1    0    0    0    0 -0.00000000000E+00 -0.00000000000E+00 -0.45593999997E+02  0.45594000000E+02  0.51100000000E-03 0.  1.
    9900012    2    1    2    0    0 -0.15064176193E+01  0.27617452151E+02  0.33445929190E+02  0.47787272625E+02  0.20000007204E+02 0.  0.
        -12    1    1    2    0    0  0.15064176193E+01 -0.27617452151E+02 -0.33445929190E+02  0.43400727375E+02  0.00000000000E+00 0.  1.
         11    1    3    3    0    0 -0.63463167156E+00  0.12527324302E+00  0.38570741760E+01  0.39109426235E+01  0.51100000000E-03 0. -1.
        -11    1    3    3    0    0  0.19078511132E+01  0.28946598440E+01  0.14449790984E+02  0.14859859058E+02  0.51100000000E-03 0.  1.
        -12    1    3    3    0    0 -0.27796370610E+01  0.24597519064E+02  0.15139064030E+02  0.29016470943E+02  0.00000000000E+00 0.  1.
</event>
<event>
 7    1  0.4432754E-010  0.4778727E+02  0.7816164E-02  0.1312668E+00
        -11   -1    0    0    0    0  0.00000000000E+00  0.00000000000E+00  0.45593999997E+02  0.45594000000E+02  0.51100000000E-03 0. -1.
         11   -1    0    0    0    0 -0.00000000000E+00 -0.00000000000E+00 -0.45593999997E+02  0.45594000000E+02  0.51100000000E-03 0.  1.
    9900012    2    1    2    0    0 -0.97336334397E+01  0.36460704846E+01  0.42137705903E+02  0.47787266035E+02  0.19999977159E+02 0.  0.
        -12    1    1    2    0    0  0.97336334397E+01 -0.36460704846E+01 -0.42137705903E+02  0.43400733965E+02  0.00000000000E+00 0.  1.
         11    1    3    3    0    0 -0.39830018844E+01  0.48944861651E+01  0.26867565473E+02  0.27598666155E+02  0.51100000000E-03 0. -1.
        -11    1    3    3    0    0 -0.60199459463E+01  0.44588241797E+01  0.87961004281E+01  0.11553884423E+02  0.51100000000E-03 0.  1.
         12    1    3    3    0    0  0.26931439098E+00 -0.57072398602E+01  0.64740400023E+01  0.86347154565E+01  0.00000000000E+00 0. -1.
</event>
<event>
 7    1  0.4432754E-010  0.4778727E+02  0.7816164E-02  0.1312668E+00
        -11   -1    0    0    0    0  0.00000000000E+00  0.00000000000E+00  0.45593999997E+02  0.45594000000E+02  0.51100000000E-03 0.  1.
         11   -1    0    0    0    0 -0.00000000000E+00 -0.00000000000E+00 -0.45593999997E+02  0.45594000000E+02  0.51100000000E-03 0. -1.
    9900012    2    1    2    0    0  0.38586864551E+02  0.18942908833E+02 -0.59869286215E+01  0.47787271605E+02  0.20000002556E+02 0.  0.
        -12    1    1    2    0    0 -0.38586864551E+02 -0.18942908833E+02  0.59869286215E+01  0.43400728395E+02  0.00000000000E+00 0.  1.
         11    1    3    3    0    0  0.24617578712E+02  0.88835771565E+01 -0.54506255721E+01  0.26732984198E+02  0.51100000000E-03 0.  1.
        -11    1    3    3    0    0  0.13299148994E+02  0.52899663565E+01 -0.42970035078E+01  0.14943739406E+02  0.51100000000E-03 0. -1.
        -12    1    3    3    0    0  0.67013684463E+00  0.47693653197E+01  0.37607004583E+01  0.61105480017E+01  0.00000000000E+00 0.  1.
</event>
<event>
 7    1  0.4432754E-010  0.4778727E+02  0.7816164E-02  0.1312668E+00
        -11   -1    0    0    0    0  0.00000000000E+00  0.00000000000E+00  0.45593999997E+02  0.45594000000E+02  0.51100000000E-03 0.  1.
         11   -1    0    0    0    0 -0.00000000000E+00 -0.00000000000E+00 -0.45593999997E+02  0.45594000000E+02  0.51100000000E-03 0. -1.
    9900012    2    1    2    0    0 -0.37257531699E+01  0.40659879725E+02 -0.14714503970E+02  0.47787266331E+02  0.19999978509E+02 0.  0.
        -12    1    1    2    0    0  0.37257531699E+01 -0.40659879725E+02  0.14714503970E+02  0.43400733669E+02  0.00000000000E+00 0.  1.
         11    1    3    3    0    0 -0.86814899316E+01  0.21888747584E+02 -0.86722770766E+01  0.25093702959E+02  0.51100000000E-03 0. -1.
        -11    1    3    3    0    0 -0.79411059868E+00 -0.97814041253E+00 -0.17108514589E-01  0.12600251077E+01  0.51100000000E-03 0.  1.
        -12    1    3    3    0    0  0.57498473604E+01  0.19749272553E+02 -0.60251183793E+01  0.21433538264E+02  0.00000000000E+00 0.  1.
</event>
<event>
 7    1  0.4432754E-010  0.4778727E+02  0.7816164E-02  0.1312668E+00
        -11   -1    0    0    0    0  0.00000000000E+00  0.00000000000E+00  0.45593999997E+02  0.45594000000E+02  0.51100000000E-03 0. -1.
         11   -1    0    0    0    0 -0.00000000000E+00 -0.00000000000E+00 -0.45593999997E+02  0.45594000000E+02  0.51100000000E-03 0.  1.
    9900012    2    1    2    0    0  0.35259021841E+02  0.20236381015E+02 -0.15195836045E+02  0.47787272231E+02  0.20000005411E+02 0.  0.
        -12    1    1    2    0    0 -0.35259021841E+02 -0.20236381015E+02  0.15195836045E+02  0.43400727769E+02  0.00000000000E+00 0.  1.
         11    1    3    3    0    0  0.57086510967E+01  0.30790742735E+01 -0.35726796017E+01  0.74049601973E+01  0.51100000000E-03 0.  1.
        -11    1    3    3    0    0  0.12300175296E+02  0.16707464907E+02 -0.25989381115E+01  0.20909045303E+02  0.51100000000E-03 0. -1.
        -12    1    3    3    0    0  0.17250195448E+02  0.44984183520E+00 -0.90242183315E+01  0.19473266731E+02  0.00000000000E+00 0.  1.
</event>
<event>
 7    1  0.4432754E-010  0.4778728E+02  0.7816164E-02  0.1312668E+00
        -11   -1    0    0    0    0  0.00000000000E+00  0.00000000000E+00  0.45593999997E+02  0.45594000000E+02  0.51100000000E-03 0. -1.
         11   -1    0    0    0    0 -0.00000000000E+00 -0.00000000000E+00 -0.45593999997E+02  0.45594000000E+02  0.51100000000E-03 0.  1.
    9900012    2    1    2    0    0  0.38932173216E+01  0.35941240093E+02  0.24014433573E+02  0.47787275348E+02  0.20000019620E+02 0.  0.
        -12    1    1    2    0    0 -0.38932173216E+01 -0.35941240093E+02 -0.24014433573E+02  0.43400724652E+02  0.00000000000E+00 0.  1.
         11    1    3    3    0    0  0.13692198473E+00  0.64713725318E+00 -0.10910935735E+01  0.12759387530E+01  0.51100000000E-03 0. -1.
        -11    1    3    3    0    0 -0.47303379396E+00 -0.17774414347E+01  0.10711000825E+01  0.21284535870E+01  0.51100000000E-03 0.  1.
         12    1    3    3    0    0  0.42293291308E+01  0.37071544274E+02  0.24034427064E+02  0.44382883008E+02  0.00000000000E+00 0. -1.
</event>
<event>
 7    1  0.4432754E-010  0.4778727E+02  0.7816164E-02  0.1312668E+00
        -11   -1    0    0    0    0  0.00000000000E+00  0.00000000000E+00  0.45593999997E+02  0.45594000000E+02  0.51100000000E-03 0.  1.
         11   -1    0    0    0    0 -0.00000000000E+00 -0.00000000000E+00 -0.45593999997E+02  0.45594000000E+02  0.51100000000E-03 0. -1.
    9900012    2    1    2    0    0 -0.62730349263E+01 -0.14899843422E+02 -0.40277375358E+02  0.47787271125E+02  0.20000000366E+02 0.  0.
        -12    1    1    2    0    0  0.62730349263E+01  0.14899843422E+02  0.40277375358E+02  0.43400728875E+02  0.00000000000E+00 0.  1.
         11    1    3    3    0    0 -0.15818205903E+01 -0.34236431726E+01 -0.74691109978E+01  0.83672640876E+01  0.51100000000E-03 0. -1.
        -11    1    3    3    0    0 -0.79384070915E+01  0.43567654134E-01 -0.21639107136E+02  0.23049320233E+02  0.51100000000E-03 0.  1.
        -12    1    3    3    0    0  0.32471927556E+01 -0.11519767904E+02 -0.11169157224E+02  0.16370686804E+02  0.00000000000E+00 0.  1.
</event>
<event>
 7    1  0.4432754E-010  0.4778727E+02  0.7816164E-02  0.1312668E+00
        -11   -1    0    0    0    0  0.00000000000E+00  0.00000000000E+00  0.45593999997E+02  0.45594000000E+02  0.51100000000E-03 0.  1.
         11   -1    0    0    0    0 -0.00000000000E+00 -0.00000000000E+00 -0.45593999997E+02  0.45594000000E+02  0.51100000000E-03 0. -1.
    9900012    2    1    2    0    0  0.40125343711E+02 -0.80696665999E+01 -0.14438153773E+02  0.47787274070E+02  0.20000013793E+02 0.  0.
        -12    1    1    2    0    0 -0.40125343711E+02  0.80696665999E+01  0.14438153773E+02  0.43400725930E+02  0.00000000000E+00 0.  1.
         11    1    3    3    0    0  0.18041937946E+02 -0.12749688985E+02 -0.42613974323E+01  0.22499457825E+02  0.51100000000E-03 0. -1.
        -11    1    3    3    0    0  0.47048709252E+00 -0.12300006098E+00 -0.13815805306E+01  0.14646679292E+01  0.51100000000E-03 0.  1.
         12    1    3    3    0    0  0.21612918672E+02  0.48030224462E+01 -0.87951758099E+01  0.23823148316E+02  0.00000000000E+00 0. -1.
</event>
<event>
 7    1  0.4432754E-010  0.4778729E+02  0.7816164E-02  0.1312668E+00
        -11   -1    0    0    0    0  0.00000000000E+00  0.00000000000E+00  0.45593999997E+02  0.45594000000E+02  0.51100000000E-03 0. -1.
         11   -1    0    0    0    0 -0.00000000000E+00 -0.00000000000E+00 -0.45593999997E+02  0.45594000000E+02  0.51100000000E-03 0.  1.
    9900012    2    1    2    0    0 -0.65374527327E+00 -0.42807131734E+02  0.71234853690E+01  0.47787286250E+02  0.20000069329E+02 0.  0.
        -12    1    1    2    0    0  0.65374527327E+00  0.42807131734E+02 -0.71234853690E+01  0.43400713750E+02  0.00000000000E+00 0.  1.
         11    1    3    3    0    0 -0.67942343150E+01 -0.61193883958E+01  0.59893273083E+00  0.91633648264E+01  0.51100000000E-03 0.  1.
        -11    1    3    3    0    0 -0.14196965203E+01 -0.13624436161E+02  0.10159528854E+01  0.13735827585E+02  0.51100000000E-03 0. -1.
        -12    1    3    3    0    0  0.75601855619E+01 -0.23063307178E+02  0.55085997528E+01  0.24888093839E+02  0.00000000000E+00 0.  1.
</event>
<event>
 7    1  0.4432754E-010  0.4778727E+02  0.7816164E-02  0.1312668E+00
        -11   -1    0    0    0    0  0.00000000000E+00  0.00000000000E+00  0.45593999997E+02  0.45594000000E+02  0.51100000000E-03 0.  1.
         11   -1    0    0    0    0 -0.00000000000E+00 -0.00000000000E+00 -0.45593999997E+02  0.45594000000E+02  0.51100000000E-03 0. -1.
    9900012    2    1    2    0    0 -0.10896744557E+02  0.28122837380E+02 -0.31208820496E+02  0.47787268428E+02  0.19999988070E+02 0.  0.
        -12    1    1    2    0    0  0.10896744557E+02 -0.28122837380E+02  0.31208820496E+02  0.43400731572E+02  0.00000000000E+00 0.  1.
         11    1    3    3    0    0 -0.30795467240E+01  0.13903980719E+01  0.46872070261E+00  0.34112335279E+01  0.51100000000E-03 0. -1.
        -11    1    3    3    0    0 -0.28973898879E+01  0.48350495049E+01 -0.16095272310E+02  0.17053749232E+02  0.51100000000E-03 0.  1.
         12    1    3    3    0    0 -0.49198079448E+01  0.21897389803E+02 -0.15582268889E+02  0.27322285668E+02  0.00000000000E+00 0. -1.
</event>
<event>
 7    1  0.4432754E-010  0.4778727E+02  0.7816164E-02  0.1312668E+00
        -11   -1    0    0    0    0  0.00000000000E+00  0.00000000000E+00  0.45593999997E+02  0.45594000000E+02  0.51100000000E-03 0.  1.
         11   -1    0    0    0    0 -0.00000000000E+00 -0.00000000000E+00 -0.45593999997E+02  0.45594000000E+02  0.51100000000E-03 0. -1.
    9900012    2    1    2    0    0  0.12543762130E+02 -0.94214395199E+01 -0.40466202641E+02  0.47787273656E+02  0.20000011908E+02 0.  0.
        -12    1    1    2    0    0 -0.12543762130E+02  0.94214395199E+01  0.40466202641E+02  0.43400726344E+02  0.00000000000E+00 0.  1.
         11    1    3    3    0    0  0.66511922342E+01 -0.81824504926E+01 -0.11071143171E+02  0.15289246730E+02  0.51100000000E-03 0. -1.
        -11    1    3    3    0    0 -0.12728104110E+01 -0.33734253956E+00  0.73947841797E+00  0.15101903599E+01  0.51100000000E-03 0.  1.
         12    1    3    3    0    0  0.71653803066E+01 -0.90164648774E+00 -0.30134537888E+02  0.30987836566E+02  0.00000000000E+00 0. -1.
</event>
<event>
 7    1  0.4432754E-010  0.4778726E+02  0.7816164E-02  0.1312668E+00
        -11   -1    0    0    0    0  0.00000000000E+00  0.00000000000E+00  0.45593999997E+02  0.45594000000E+02  0.51100000000E-03 0.  1.
         11   -1    0    0    0    0 -0.00000000000E+00 -0.00000000000E+00 -0.45593999997E+02  0.45594000000E+02  0.51100000000E-03 0. -1.
    9900012    2    1    2    0    0  0.77800641254E+01 -0.25426601284E+02 -0.34301353268E+02  0.47787259376E+02  0.19999946801E+02 0.  0.
        -12    1    1    2    0    0 -0.77800641254E+01  0.25426601284E+02  0.34301353268E+02  0.43400740624E+02  0.00000000000E+00 0.  1.
         11    1    3    3    0    0 -0.20649003409E+01 -0.53576609327E+01 -0.55514962578E+01  0.79867048931E+01  0.51100000000E-03 0. -1.
        -11    1    3    3    0    0  0.15824601832E+01 -0.11051993963E+02 -0.34267077635E+01  0.11678744673E+02  0.51100000000E-03 0.  1.
         12    1    3    3    0    0  0.82625042832E+01 -0.90169463880E+01 -0.25323149247E+02  0.28121809810E+02  0.00000000000E+00 0. -1.
</event>
<event>
 7    1  0.4432754E-010  0.4778727E+02  0.7816164E-02  0.1312668E+00
        -11   -1    0    0    0    0  0.00000000000E+00  0.00000000000E+00  0.45593999997E+02  0.45594000000E+02  0.51100000000E-03 0.  1.
         11   -1    0    0    0    0 -0.00000000000E+00 -0.00000000000E+00 -0.45593999997E+02  0.45594000000E+02  0.51100000000E-03 0. -1.
    9900012    2    1    2    0    0 -0.38860141580E+02 -0.16562650949E+02  0.99594976051E+01  0.47787267257E+02  0.19999982733E+02 0.  0.
        -12    1    1    2    0    0  0.38860141580E+02  0.16562650949E+02 -0.99594976051E+01  0.43400732743E+02  0.00000000000E+00 0.  1.
         11    1    3    3    0    0 -0.58528202041E+01 -0.43888435990E+01  0.33848916255E+01  0.80607036948E+01  0.51100000000E-03 0. -1.
        -11    1    3    3    0    0 -0.10122274726E+02  0.16384786503E+01  0.79290429292E+01  0.12962051533E+02  0.51100000000E-03 0.  1.
        -12    1    3    3    0    0 -0.22885046650E+02 -0.13812286000E+02 -0.13544369496E+01  0.26764512029E+02  0.00000000000E+00 0.  1.
</event>
<event>
 7    1  0.4432754E-010  0.4778727E+02  0.7816164E-02  0.1312668E+00
        -11   -1    0    0    0    0  0.00000000000E+00  0.00000000000E+00  0.45593999997E+02  0.45594000000E+02  0.51100000000E-03 0. -1.
         11   -1    0    0    0    0 -0.00000000000E+00 -0.00000000000E+00 -0.45593999997E+02  0.45594000000E+02  0.51100000000E-03 0.  1.
    9900012    2    1    2    0    0 -0.34342473754E+02  0.66107263850E+01  0.25700500894E+02  0.47787274740E+02  0.20000016852E+02 0.  0.
        -12    1    1    2    0    0  0.34342473754E+02 -0.66107263850E+01 -0.25700500894E+02  0.43400725260E+02  0.00000000000E+00 0.  1.
         11    1    3    3    0    0 -0.20240143883E+02  0.80622901879E+01  0.10483057593E+02  0.24177643479E+02  0.51100000000E-03 0. -1.
        -11    1    3    3    0    0 -0.16870372974E+01  0.19769159304E+01 -0.10993492054E+01  0.28218540669E+01  0.51100000000E-03 0.  1.
         12    1    3    3    0    0 -0.12415292574E+02 -0.34284797333E+01  0.16316792507E+02  0.20787777194E+02  0.00000000000E+00 0. -1.
</event>
<event>
 7    1  0.4432754E-010  0.4778731E+02  0.7816164E-02  0.1312668E+00
        -11   -1    0    0    0    0  0.00000000000E+00  0.00000000000E+00  0.45593999997E+02  0.45594000000E+02  0.51100000000E-03 0. -1.
         11   -1    0    0    0    0 -0.00000000000E+00 -0.00000000000E+00 -0.45593999997E+02  0.45594000000E+02  0.51100000000E-03 0.  1.
    9900012    2    1    2    0    0 -0.21238492865E+02  0.20774366182E+02  0.31638136220E+02  0.47787314143E+02  0.20000196502E+02 0.  0.
        -12    1    1    2    0    0  0.21238492865E+02 -0.20774366182E+02 -0.31638136220E+02  0.43400685857E+02  0.00000000000E+00 0.  1.
         11    1    3    3    0    0 -0.80398415588E+01  0.11437398593E+02  0.94031654454E+01  0.16848520989E+02  0.51100000000E-03 0. -1.
        -11    1    3    3    0    0 -0.41757353841E+01  0.75379429172E+01  0.22021285103E+01  0.88941958410E+01  0.51100000000E-03 0.  1.
        -12    1    3    3    0    0 -0.90229159216E+01  0.17990246713E+01  0.20032842264E+02  0.22044597312E+02  0.00000000000E+00 0.  1.
</event>
<event>
 7    1  0.4432754E-010  0.4778727E+02  0.7816164E-02  0.1312668E+00
        -11   -1    0    0    0    0  0.00000000000E+00  0.00000000000E+00  0.45593999997E+02  0.45594000000E+02  0.51100000000E-03 0.  1.
         11   -1    0    0    0    0 -0.00000000000E+00 -0.00000000000E+00 -0.45593999997E+02  0.45594000000E+02  0.51100000000E-03 0. -1.
    9900012    2    1    2    0    0 -0.30630033339E+02  0.97875616491E+01 -0.29148384127E+02  0.47787267258E+02  0.19999982735E+02 0.  0.
        -12    1    1    2    0    0  0.30630033339E+02 -0.97875616491E+01  0.29148384127E+02  0.43400732742E+02  0.00000000000E+00 0.  1.
         11    1    3    3    0    0 -0.72010107230E+01 -0.20597268658E+01 -0.25942182151E+01  0.79263483776E+01  0.51100000000E-03 0. -1.
        -11    1    3    3    0    0 -0.76643742302E+01  0.94689810035E+01 -0.52834443519E+01  0.13278517164E+02  0.51100000000E-03 0.  1.
         12    1    3    3    0    0 -0.15764648386E+02  0.23783075114E+01 -0.21270721560E+02  0.26582401716E+02  0.00000000000E+00 0. -1.
</event>
<event>
 7    1  0.4432754E-010  0.4778727E+02  0.7816164E-02  0.1312668E+00
        -11   -1    0    0    0    0  0.00000000000E+00  0.00000000000E+00  0.45593999997E+02  0.45594000000E+02  0.51100000000E-03 0.  1.
         11   -1    0    0    0    0 -0.00000000000E+00 -0.00000000000E+00 -0.45593999997E+02  0.45594000000E+02  0.51100000000E-03 0. -1.
    9900012    2    1    2    0    0 -0.38288728592E+02  0.19279578251E+02 -0.67745268195E+01  0.47787273181E+02  0.20000009743E+02 0.  0.
        -12    1    1    2    0    0  0.38288728592E+02 -0.19279578251E+02  0.67745268195E+01  0.43400726819E+02  0.00000000000E+00 0.  1.
         11    1    3    3    0    0 -0.29497709986E+02  0.13041666380E+02 -0.59850825525E+01  0.32802761618E+02  0.51100000000E-03 0. -1.
        -11    1    3    3    0    0 -0.56977122374E+01 -0.15065460642E+01 -0.26150618922E+01  0.64476472255E+01  0.51100000000E-03 0.  1.
        -12    1    3    3    0    0 -0.30933063692E+01  0.77444579354E+01  0.18256176252E+01  0.85368643377E+01  0.00000000000E+00 0.  1.
</event>
<event>
 7    1  0.4432754E-010  0.4778727E+02  0.7816164E-02  0.1312668E+00
        -11   -1    0    0    0    0  0.00000000000E+00  0.00000000000E+00  0.45593999997E+02  0.45594000000E+02  0.51100000000E-03 0.  1.
         11   -1    0    0    0    0 -0.00000000000E+00 -0.00000000000E+00 -0.45593999997E+02  0.45594000000E+02  0.51100000000E-03 0. -1.
    9900012    2    1    2    0    0  0.17778581392E+02 -0.27617555553E+02 -0.28369277224E+02  0.47787271650E+02  0.20000002762E+02 0.  0.
        -12    1    1    2    0    0 -0.17778581392E+02  0.27617555553E+02  0.28369277224E+02  0.43400728350E+02  0.00000000000E+00 0.  1.
         11    1    3    3    0    0  0.87662860873E+01 -0.11741495588E+02 -0.17272970458E+02  0.22650960225E+02  0.51100000000E-03 0. -1.
        -11    1    3    3    0    0  0.10253829820E+02 -0.15308456110E+02 -0.13173855124E+02  0.22650393231E+02  0.51100000000E-03 0.  1.
        -12    1    3    3    0    0 -0.12415345151E+01 -0.56760385534E+00  0.20775483577E+01  0.24859181940E+01  0.00000000000E+00 0.  1.
</event>
<event>
 7    1  0.4432754E-010  0.4778727E+02  0.7816164E-02  0.1312668E+00
        -11   -1    0    0    0    0  0.00000000000E+00  0.00000000000E+00  0.45593999997E+02  0.45594000000E+02  0.51100000000E-03 0. -1.
         11   -1    0    0    0    0 -0.00000000000E+00 -0.00000000000E+00 -0.45593999997E+02  0.45594000000E+02  0.51100000000E-03 0.  1.
    9900012    2    1    2    0    0  0.42952483743E+02  0.46142029894E+00  0.62044089152E+01  0.47787268919E+02  0.19999990311E+02 0.  0.
        -12    1    1    2    0    0 -0.42952483743E+02 -0.46142029894E+00 -0.62044089152E+01  0.43400731081E+02  0.00000000000E+00 0.  1.
         11    1    3    3    0    0  0.20262046792E+02 -0.82874428798E+00 -0.41643009209E+01  0.20702143843E+02  0.51100000000E-03 0. -1.
        -11    1    3    3    0    0  0.43890504325E+01 -0.31067290449E+01 -0.41392274171E+00  0.53932236515E+01  0.51100000000E-03 0.  1.
        -12    1    3    3    0    0  0.18301386518E+02  0.43968936318E+01  0.10782632578E+02  0.21691901424E+02  0.00000000000E+00 0.  1.
</event>
<event>
 7    1  0.4432754E-010  0.4778727E+02  0.7816164E-02  0.1312668E+00
        -11   -1    0    0    0    0  0.00000000000E+00  0.00000000000E+00  0.45593999997E+02  0.45594000000E+02  0.51100000000E-03 0. -1.
         11   -1    0    0    0    0 -0.00000000000E+00 -0.00000000000E+00 -0.45593999997E+02  0.45594000000E+02  0.51100000000E-03 0.  1.
    9900012    2    1    2    0    0 -0.34260551198E+02  0.22860131127E+02 -0.13684013391E+02  0.47787272056E+02  0.20000004612E+02 0.  0.
        -12    1    1    2    0    0  0.34260551198E+02 -0.22860131127E+02  0.13684013391E+02  0.43400727944E+02  0.00000000000E+00 0.  1.
         11    1    3    3    0    0 -0.15573711120E+01  0.46463443452E+01 -0.29079620432E+01  0.56982597396E+01  0.51100000000E-03 0. -1.
        -11    1    3    3    0    0 -0.21347841362E+01 -0.26982314626E+01 -0.21619425213E+01  0.40634655234E+01  0.51100000000E-03 0.  1.
         12    1    3    3    0    0 -0.30568395950E+02  0.20912018244E+02 -0.86141088270E+01  0.38025546793E+02  0.00000000000E+00 0. -1.
</event>
<event>
 7    1  0.4432754E-010  0.4778727E+02  0.7816164E-02  0.1312668E+00
        -11   -1    0    0    0    0  0.00000000000E+00  0.00000000000E+00  0.45593999997E+02  0.45594000000E+02  0.51100000000E-03 0. -1.
         11   -1    0    0    0    0 -0.00000000000E+00 -0.00000000000E+00 -0.45593999997E+02  0.45594000000E+02  0.51100000000E-03 0.  1.
    9900012    2    1    2    0    0 -0.30575159058E+02 -0.13391376700E+01  0.30773196522E+02  0.47787271144E+02  0.20000000452E+02 0.  0.
        -12    1    1    2    0    0  0.30575159058E+02  0.13391376700E+01 -0.30773196522E+02  0.43400728856E+02  0.00000000000E+00 0.  1.
         11    1    3    3    0    0 -0.18511929804E+02  0.31228300902E-01  0.17988882621E+02  0.25812640672E+02  0.51100000000E-03 0. -1.
        -11    1    3    3    0    0 -0.12974892673E+02  0.29679031418E+01  0.10691995166E+02  0.17072640388E+02  0.51100000000E-03 0.  1.
        -12    1    3    3    0    0  0.91166341940E+00 -0.43382691127E+01  0.20923187350E+01  0.49019900829E+01  0.00000000000E+00 0.  1.
</event>
<event>
 7    1  0.4432754E-010  0.4778727E+02  0.7816164E-02  0.1312668E+00
        -11   -1    0    0    0    0  0.00000000000E+00  0.00000000000E+00  0.45593999997E+02  0.45594000000E+02  0.51100000000E-03 0. -1.
         11   -1    0    0    0    0 -0.00000000000E+00 -0.00000000000E+00 -0.45593999997E+02  0.45594000000E+02  0.51100000000E-03 0.  1.
    9900012    2    1    2    0    0  0.41226174268E+02  0.22850832268E+01 -0.13371768747E+02  0.47787271325E+02  0.20000001278E+02 0.  0.
        -12    1    1    2    0    0 -0.41226174268E+02 -0.22850832268E+01  0.13371768747E+02  0.43400728675E+02  0.00000000000E+00 0.  1.
         11    1    3    3    0    0  0.16192924330E+02  0.29390232975E+01 -0.41795480698E+01  0.16979908087E+02  0.51100000000E-03 0. -1.
        -11    1    3    3    0    0  0.73342609730E+01  0.52188143190E+01  0.17730813758E+01  0.91744877101E+01  0.51100000000E-03 0.  1.
         12    1    3    3    0    0  0.17698988965E+02 -0.58727543896E+01 -0.10965302053E+02  0.21632875528E+02  0.00000000000E+00 0. -1.
</event>
<event>
 7    1  0.4432754E-010  0.4778727E+02  0.7816164E-02  0.1312668E+00
        -11   -1    0    0    0    0  0.00000000000E+00  0.00000000000E+00  0.45593999997E+02  0.45594000000E+02  0.51100000000E-03 0. -1.
         11   -1    0    0    0    0 -0.00000000000E+00 -0.00000000000E+00 -0.45593999997E+02  0.45594000000E+02  0.51100000000E-03 0.  1.
    9900012    2    1    2    0    0 -0.42191205107E+02 -0.10029513123E+02 -0.17129967843E+01  0.47787270975E+02  0.19999999685E+02 0.  0.
        -12    1    1    2    0    0  0.42191205107E+02  0.10029513123E+02  0.17129967843E+01  0.43400729025E+02  0.00000000000E+00 0.  1.
         11    1    3    3    0    0 -0.19095711560E+02 -0.16042801474E+01  0.16509015714E+00  0.19163694054E+02  0.51100000000E-03 0. -1.
        -11    1    3    3    0    0 -0.23998032107E+02 -0.87299566085E+01 -0.44134416161E+01  0.25915172285E+02  0.51100000000E-03 0.  1.
         12    1    3    3    0    0  0.90253856027E+00  0.30472363303E+00  0.25353546746E+01  0.27084046359E+01  0.00000000000E+00 0. -1.
</event>
<event>
 7    1  0.4432754E-010  0.4778727E+02  0.7816164E-02  0.1312668E+00
        -11   -1    0    0    0    0  0.00000000000E+00  0.00000000000E+00  0.45593999997E+02  0.45594000000E+02  0.51100000000E-03 0.  1.
         11   -1    0    0    0    0 -0.00000000000E+00 -0.00000000000E+00 -0.45593999997E+02  0.45594000000E+02  0.51100000000E-03 0. -1.
    9900012    2    1    2    0    0 -0.33534019120E+02  0.27084157981E+02 -0.50538126342E+01  0.47787273346E+02  0.20000010496E+02 0.  0.
        -12    1    1    2    0    0  0.33534019120E+02 -0.27084157981E+02  0.50538126342E+01  0.43400726654E+02  0.00000000000E+00 0.  1.
         11    1    3    3    0    0 -0.37436539637E+01 -0.15191178647E+01  0.16074396390E+01  0.43481635826E+01  0.51100000000E-03 0. -1.
        -11    1    3    3    0    0 -0.20562776020E+01  0.81776783610E+01 -0.48806296970E+00  0.84463546383E+01  0.51100000000E-03 0.  1.
         12    1    3    3    0    0 -0.27734087555E+02  0.20425597485E+02 -0.61731893034E+01  0.34992755126E+02  0.00000000000E+00 0. -1.
</event>
<event>
 7    1  0.4432754E-010  0.4778727E+02  0.7816164E-02  0.1312668E+00
        -11   -1    0    0    0    0  0.00000000000E+00  0.00000000000E+00  0.45593999997E+02  0.45594000000E+02  0.51100000000E-03 0.  1.
         11   -1    0    0    0    0 -0.00000000000E+00 -0.00000000000E+00 -0.45593999997E+02  0.45594000000E+02  0.51100000000E-03 0. -1.
    9900012    2    1    2    0    0 -0.19816093715E+02 -0.26663840532E+01 -0.38520594139E+02  0.47787270203E+02  0.19999996166E+02 0.  0.
        -12    1    1    2    0    0  0.19816093715E+02  0.26663840532E+01  0.38520594139E+02  0.43400729797E+02  0.00000000000E+00 0.  1.
         11    1    3    3    0    0 -0.13950142928E+01  0.12045936236E+01 -0.38110944353E+01  0.42333853747E+01  0.51100000000E-03 0. -1.
        -11    1    3    3    0    0 -0.56151099703E+01  0.71086983241E+01 -0.87464512187E+01  0.12592198419E+02  0.51100000000E-03 0.  1.
         12    1    3    3    0    0 -0.12805969452E+02 -0.10979676001E+02 -0.25963048485E+02  0.30961686410E+02  0.00000000000E+00 0. -1.
</event>
<event>
 7    1  0.4432754E-010  0.4778728E+02  0.7816164E-02  0.1312668E+00
        -11   -1    0    0    0    0  0.00000000000E+00  0.00000000000E+00  0.45593999997E+02  0.45594000000E+02  0.51100000000E-03 0.  1.
         11   -1    0    0    0    0 -0.00000000000E+00 -0.00000000000E+00 -0.45593999997E+02  0.45594000000E+02  0.51100000000E-03 0. -1.
    9900012    2    1    2    0    0 -0.16734194971E+02  0.14454688007E+01 -0.40018748184E+02  0.47787275725E+02  0.20000021341E+02 0.  0.
        -12    1    1    2    0    0  0.16734194971E+02 -0.14454688007E+01  0.40018748184E+02  0.43400724275E+02  0.00000000000E+00 0.  1.
         11    1    3    3    0    0 -0.46697121294E+01  0.66185043510E+01 -0.10601118425E+02  0.13341458816E+02  0.51100000000E-03 0. -1.
        -11    1    3    3    0    0  0.16030793064E+01  0.16749846253E+01 -0.20349617298E+01  0.30848835084E+01  0.51100000000E-03 0.  1.
         12    1    3    3    0    0 -0.13667562148E+02 -0.68480201755E+01 -0.27382668029E+02  0.31360933401E+02  0.00000000000E+00 0. -1.
</event>
<event>
 7    1  0.4432754E-010  0.4778727E+02  0.7816164E-02  0.1312668E+00
        -11   -1    0    0    0    0  0.00000000000E+00  0.00000000000E+00  0.45593999997E+02  0.45594000000E+02  0.51100000000E-03 0. -1.
         11   -1    0    0    0    0 -0.00000000000E+00 -0.00000000000E+00 -0.45593999997E+02  0.45594000000E+02  0.51100000000E-03 0.  1.
    9900012    2    1    2    0    0 -0.82058504253E+01  0.42148298652E+02  0.63093823425E+01  0.47787269983E+02  0.19999995160E+02 0.  0.
        -12    1    1    2    0    0  0.82058504253E+01 -0.42148298652E+02 -0.63093823425E+01  0.43400730017E+02  0.00000000000E+00 0.  1.
         11    1    3    3    0    0  0.16416619998E+01  0.15395819715E+02  0.32209608732E+01  0.15814578971E+02  0.51100000000E-03 0.  1.
        -11    1    3    3    0    0 -0.37921267679E+01  0.24702389717E+02  0.45800486657E+01  0.25407973732E+02  0.51100000000E-03 0. -1.
        -12    1    3    3    0    0 -0.60553856572E+01  0.20500892206E+01 -0.14916271965E+01  0.65647172797E+01  0.00000000000E+00 0.  1.
</event>
<event>
 7    1  0.4432754E-010  0.4778727E+02  0.7816164E-02  0.1312668E+00
        -11   -1    0    0    0    0  0.00000000000E+00  0.00000000000E+00  0.45593999997E+02  0.45594000000E+02  0.51100000000E-03 0.  1.
         11   -1    0    0    0    0 -0.00000000000E+00 -0.00000000000E+00 -0.45593999997E+02  0.45594000000E+02  0.51100000000E-03 0. -1.
    9900012    2    1    2    0    0  0.73718492763E+01  0.25411061706E+02 -0.34402866558E+02  0.47787269059E+02  0.19999990949E+02 0.  0.
        -12    1    1    2    0    0 -0.73718492763E+01 -0.25411061706E+02  0.34402866558E+02  0.43400730941E+02  0.00000000000E+00 0.  1.
         11    1    3    3    0    0  0.65842880139E+00  0.17601193656E+01 -0.10876657602E+02  0.11037809090E+02  0.51100000000E-03 0. -1.
        -11    1    3    3    0    0 -0.20454463146E+00  0.67470377317E+00  0.17566021432E+01  0.18928061280E+01  0.51100000000E-03 0.  1.
        -12    1    3    3    0    0  0.69179651064E+01  0.22976238567E+02 -0.25282811100E+02  0.34856653841E+02  0.00000000000E+00 0.  1.
</event>
<event>
 7    1  0.4432754E-010  0.4778725E+02  0.7816164E-02  0.1312668E+00
        -11   -1    0    0    0    0  0.00000000000E+00  0.00000000000E+00  0.45593999997E+02  0.45594000000E+02  0.51100000000E-03 0.  1.
         11   -1    0    0    0    0 -0.00000000000E+00 -0.00000000000E+00 -0.45593999997E+02  0.45594000000E+02  0.51100000000E-03 0. -1.
    9900012    2    1    2    0    0 -0.27343638501E+02  0.32614770034E+02 -0.84986899024E+01  0.47787245158E+02  0.19999881972E+02 0.  0.
        -12    1    1    2    0    0  0.27343638501E+02 -0.32614770034E+02  0.84986899024E+01  0.43400754842E+02  0.00000000000E+00 0.  1.
         11    1    3    3    0    0 -0.54157742845E+01  0.72355644901E+01 -0.98295181761E+01  0.13353030833E+02  0.51100000000E-03 0. -1.
        -11    1    3    3    0    0 -0.85990407250E+01  0.13293286247E+02 -0.25280127263E+01  0.16032648229E+02  0.51100000000E-03 0.  1.
         12    1    3    3    0    0 -0.13328823492E+02  0.12085919296E+02  0.38588410001E+01  0.18401566096E+02  0.00000000000E+00 0. -1.
</event>
<event>
 7    1  0.4432754E-010  0.4778728E+02  0.7816164E-02  0.1312668E+00
        -11   -1    0    0    0    0  0.00000000000E+00  0.00000000000E+00  0.45593999997E+02  0.45594000000E+02  0.51100000000E-03 0.  1.
         11   -1    0    0    0    0 -0.00000000000E+00 -0.00000000000E+00 -0.45593999997E+02  0.45594000000E+02  0.51100000000E-03 0. -1.
    9900012    2    1    2    0    0 -0.34601927717E+02  0.21832716047E+02  0.14479688503E+02  0.47787282600E+02  0.20000052687E+02 0.  0.
        -12    1    1    2    0    0  0.34601927717E+02 -0.21832716047E+02 -0.14479688503E+02  0.43400717400E+02  0.00000000000E+00 0.  1.
         11    1    3    3    0    0 -0.12387397451E+02  0.60014936421E+01  0.11073360455E+02  0.17665923513E+02  0.51100000000E-03 0.  1.
        -11    1    3    3    0    0 -0.44402995615E+00 -0.17130886488E+01  0.10606617144E+01  0.20632108119E+01  0.51100000000E-03 0. -1.
         12    1    3    3    0    0 -0.21770500310E+02  0.17544311054E+02  0.23456663333E+01  0.28058148275E+02  0.00000000000E+00 0. -1.
</event>
<event>
 7    1  0.4432754E-010  0.4778728E+02  0.7816164E-02  0.1312668E+00
        -11   -1    0    0    0    0  0.00000000000E+00  0.00000000000E+00  0.45593999997E+02  0.45594000000E+02  0.51100000000E-03 0.  1.
         11   -1    0    0    0    0 -0.00000000000E+00 -0.00000000000E+00 -0.45593999997E+02  0.45594000000E+02  0.51100000000E-03 0. -1.
    9900012    2    1    2    0    0 -0.38196162437E+02 -0.69964644315E+00 -0.20595780700E+02  0.47787279814E+02  0.20000039982E+02 0.  0.
        -12    1    1    2    0    0  0.38196162437E+02  0.69964644315E+00  0.20595780700E+02  0.43400720186E+02  0.00000000000E+00 0.  1.
         11    1    3    3    0    0 -0.25206237719E+02  0.30145186516E+01 -0.17605546089E+02  0.30893316364E+02  0.51100000000E-03 0.  1.
        -11    1    3    3    0    0 -0.11397518505E+02 -0.34753899075E+01 -0.61043120178E+01  0.13388218274E+02  0.51100000000E-03 0. -1.
        -12    1    3    3    0    0 -0.15924062134E+01 -0.23877518721E+00  0.31140774069E+01  0.35057451754E+01  0.00000000000E+00 0.  1.
</event>
<event>
 7    1  0.4432754E-010  0.4778728E+02  0.7816164E-02  0.1312668E+00
        -11   -1    0    0    0    0  0.00000000000E+00  0.00000000000E+00  0.45593999997E+02  0.45594000000E+02  0.51100000000E-03 0.  1.
         11   -1    0    0    0    0 -0.00000000000E+00 -0.00000000000E+00 -0.45593999997E+02  0.45594000000E+02  0.51100000000E-03 0. -1.
    9900012    2    1    2    0    0  0.72898275070E+01 -0.25649810773E+02 -0.34242784181E+02  0.47787278275E+02  0.20000032968E+02 0.  0.
        -12    1    1    2    0    0 -0.72898275070E+01  0.25649810773E+02  0.34242784181E+02  0.43400721725E+02  0.00000000000E+00 0.  1.
         11    1    3    3    0    0 -0.57975523859E-01 -0.13829790918E+02 -0.72293949948E+01  0.15605467960E+02  0.51100000000E-03 0. -1.
        -11    1    3    3    0    0 -0.25521945959E+01 -0.87451818902E+00 -0.49481158951E+01  0.56358078827E+01  0.51100000000E-03 0.  1.
         12    1    3    3    0    0  0.98999976268E+01 -0.10945501666E+02 -0.22065273291E+02  0.26546002432E+02  0.00000000000E+00 0. -1.
</event>
<event>
 7    1  0.4432754E-010  0.4778727E+02  0.7816164E-02  0.1312668E+00
        -11   -1    0    0    0    0  0.00000000000E+00  0.00000000000E+00  0.45593999997E+02  0.45594000000E+02  0.51100000000E-03 0.  1.
         11   -1    0    0    0    0 -0.00000000000E+00 -0.00000000000E+00 -0.45593999997E+02  0.45594000000E+02  0.51100000000E-03 0. -1.
    9900012    2    1    2    0    0 -0.14142693149E+02  0.39939367390E+02  0.94050185032E+01  0.47787271779E+02  0.20000003350E+02 0.  0.
        -12    1    1    2    0    0  0.14142693149E+02 -0.39939367390E+02 -0.94050185032E+01  0.43400728221E+02  0.00000000000E+00 0.  1.
         11    1    3    3    0    0 -0.56155326471E+00 -0.35976599347E+00 -0.19527977531E+01  0.20635389420E+01  0.51100000000E-03 0. -1.
        -11    1    3    3    0    0 -0.27507441723E+01  0.89235357526E+01  0.81188269366E+01  0.12373820546E+02  0.51100000000E-03 0.  1.
         12    1    3    3    0    0 -0.10830395711E+02  0.31375597631E+02  0.32389893197E+01  0.33349912291E+02  0.00000000000E+00 0. -1.
</event>
<event>
 7    1  0.4432754E-010  0.4778728E+02  0.7816164E-02  0.1312668E+00
        -11   -1    0    0    0    0  0.00000000000E+00  0.00000000000E+00  0.45593999997E+02  0.45594000000E+02  0.51100000000E-03 0.  1.
         11   -1    0    0    0    0 -0.00000000000E+00 -0.00000000000E+00 -0.45593999997E+02  0.45594000000E+02  0.51100000000E-03 0. -1.
    9900012    2    1    2    0    0  0.19569485317E+02  0.20820391681E+02 -0.32667559200E+02  0.47787275474E+02  0.20000020197E+02 0.  0.
        -12    1    1    2    0    0 -0.19569485317E+02 -0.20820391681E+02  0.32667559200E+02  0.43400724526E+02  0.00000000000E+00 0.  1.
         11    1    3    3    0    0  0.13894023104E+02  0.20737955083E+02 -0.27822962515E+02  0.37379458295E+02  0.51100000000E-03 0. -1.
        -11    1    3    3    0    0  0.30001567512E+01  0.32449736920E+01 -0.57094349809E+00  0.44560937527E+01  0.51100000000E-03 0.  1.
        -12    1    3    3    0    0  0.26753054614E+01 -0.31625370946E+01 -0.42736531865E+01  0.59517234265E+01  0.00000000000E+00 0.  1.
</event>
<event>
 7    1  0.4432754E-010  0.4778727E+02  0.7816164E-02  0.1312668E+00
        -11   -1    0    0    0    0  0.00000000000E+00  0.00000000000E+00  0.45593999997E+02  0.45594000000E+02  0.51100000000E-03 0.  1.
         11   -1    0    0    0    0 -0.00000000000E+00 -0.00000000000E+00 -0.45593999997E+02  0.45594000000E+02  0.51100000000E-03 0. -1.
    9900012    2    1    2    0    0 -0.15161790818E+02  0.40487048875E+02 -0.38134135151E+01  0.47787272471E+02  0.20000006503E+02 0.  0.
        -12    1    1    2    0    0  0.15161790818E+02 -0.40487048875E+02  0.38134135151E+01  0.43400727529E+02  0.00000000000E+00 0.  1.
         11    1    3    3    0    0 -0.17956393607E+00  0.16257401261E+02 -0.35909520913E+01  0.16650233517E+02  0.51100000000E-03 0. -1.
        -11    1    3    3    0    0 -0.41860744576E+01  0.18161236327E+02  0.11706822470E+01  0.18674159190E+02  0.51100000000E-03 0.  1.
         12    1    3    3    0    0 -0.10796152424E+02  0.60684112876E+01 -0.13931436708E+01  0.12462879764E+02  0.00000000000E+00 0. -1.
</event>
<event>
 7    1  0.4432754E-010  0.4778727E+02  0.7816164E-02  0.1312668E+00
        -11   -1    0    0    0    0  0.00000000000E+00  0.00000000000E+00  0.45593999997E+02  0.45594000000E+02  0.51100000000E-03 0.  1.
         11   -1    0    0    0    0 -0.00000000000E+00 -0.00000000000E+00 -0.45593999997E+02  0.45594000000E+02  0.51100000000E-03 0. -1.
    9900012    2    1    2    0    0  0.28951266126E+02  0.31732095351E+02  0.62065934975E+01  0.47787268572E+02  0.19999988726E+02 0.  0.
        -12    1    1    2    0    0 -0.28951266126E+02 -0.31732095351E+02 -0.62065934975E+01  0.43400731428E+02  0.00000000000E+00 0.  1.
         11    1    3    3    0    0  0.84515699263E+01  0.45655485074E+01  0.19937903431E+01  0.98106303358E+01  0.51100000000E-03 0. -1.
        -11    1    3    3    0    0  0.99223026358E+01  0.44101433794E+01  0.67002929183E+01  0.12759129268E+02  0.51100000000E-03 0.  1.
        -12    1    3    3    0    0  0.10577393564E+02  0.22756403464E+02 -0.24874897639E+01  0.25217508968E+02  0.00000000000E+00 0.  1.
</event>
<event>
 7    1  0.4432754E-010  0.4778727E+02  0.7816164E-02  0.1312668E+00
        -11   -1    0    0    0    0  0.00000000000E+00  0.00000000000E+00  0.45593999997E+02  0.45594000000E+02  0.51100000000E-03 0.  1.
         11   -1    0    0    0    0 -0.00000000000E+00 -0.00000000000E+00 -0.45593999997E+02  0.45594000000E+02  0.51100000000E-03 0. -1.
    9900012    2    1    2    0    0  0.33812801468E+02 -0.25682192331E+02 -0.89856932563E+01  0.47787271558E+02  0.20000002339E+02 0.  0.
        -12    1    1    2    0    0 -0.33812801468E+02  0.25682192331E+02  0.89856932563E+01  0.43400728442E+02  0.00000000000E+00 0.  1.
         11    1    3    3    0    0 -0.16237232027E+01 -0.13479288168E+01 -0.38024452782E+00  0.21442889955E+01  0.51100000000E-03 0.  1.
        -11    1    3    3    0    0  0.82749009648E+01 -0.54018496908E+01  0.33612157857E+01  0.10437994917E+02  0.51100000000E-03 0. -1.
         12    1    3    3    0    0  0.27161623706E+02 -0.18932413824E+02 -0.11966664514E+02  0.35204987645E+02  0.00000000000E+00 0. -1.
</event>
<event>
 7    1  0.4432754E-010  0.4778727E+02  0.7816164E-02  0.1312668E+00
        -11   -1    0    0    0    0  0.00000000000E+00  0.00000000000E+00  0.45593999997E+02  0.45594000000E+02  0.51100000000E-03 0. -1.
         11   -1    0    0    0    0 -0.00000000000E+00 -0.00000000000E+00 -0.45593999997E+02  0.45594000000E+02  0.51100000000E-03 0.  1.
    9900012    2    1    2    0    0  0.19424279311E+02  0.37876885415E+02 -0.84653574822E+01  0.47787270135E+02  0.19999995853E+02 0.  0.
        -12    1    1    2    0    0 -0.19424279311E+02 -0.37876885415E+02  0.84653574822E+01  0.43400729865E+02  0.00000000000E+00 0.  1.
         11    1    3    3    0    0  0.68599796811E+01  0.46329653964E+01 -0.34056750565E+01  0.89511067719E+01  0.51100000000E-03 0. -1.
        -11    1    3    3    0    0  0.16884911482E+00  0.10061603450E+01  0.31703611465E+01  0.33304742491E+01  0.51100000000E-03 0.  1.
         12    1    3    3    0    0  0.12395450515E+02  0.32237759674E+02 -0.82300435722E+01  0.35505689114E+02  0.00000000000E+00 0. -1.
</event>
<event>
 7    1  0.4432754E-010  0.4778727E+02  0.7816164E-02  0.1312668E+00
        -11   -1    0    0    0    0  0.00000000000E+00  0.00000000000E+00  0.45593999997E+02  0.45594000000E+02  0.51100000000E-03 0.  1.
         11   -1    0    0    0    0 -0.00000000000E+00 -0.00000000000E+00 -0.45593999997E+02  0.45594000000E+02  0.51100000000E-03 0. -1.
    9900012    2    1    2    0    0  0.23331281199E+02  0.22121720043E+02 -0.29153113951E+02  0.47787271514E+02  0.20000002141E+02 0.  0.
        -12    1    1    2    0    0 -0.23331281199E+02 -0.22121720043E+02  0.29153113951E+02  0.43400728486E+02  0.00000000000E+00 0.  1.
         11    1    3    3    0    0  0.22768143335E+01  0.40510504010E+01 -0.71627551675E+00  0.47019085208E+01  0.51100000000E-03 0. -1.
        -11    1    3    3    0    0  0.96047032384E+01  0.12477631276E+02 -0.51977143282E+01  0.16581852763E+02  0.51100000000E-03 0.  1.
         12    1    3    3    0    0  0.11449763627E+02  0.55930383653E+01 -0.23239124106E+02  0.26503510230E+02  0.00000000000E+00 0. -1.
</event>
<event>
 7    1  0.4432754E-010  0.4778727E+02  0.7816164E-02  0.1312668E+00
        -11   -1    0    0    0    0  0.00000000000E+00  0.00000000000E+00  0.45593999997E+02  0.45594000000E+02  0.51100000000E-03 0. -1.
         11   -1    0    0    0    0 -0.00000000000E+00 -0.00000000000E+00 -0.45593999997E+02  0.45594000000E+02  0.51100000000E-03 0.  1.
    9900012    2    1    2    0    0  0.33913070425E+02 -0.19006350189E+02 -0.19294705958E+02  0.47787269924E+02  0.19999994890E+02 0.  0.
        -12    1    1    2    0    0 -0.33913070425E+02  0.19006350189E+02  0.19294705958E+02  0.43400730076E+02  0.00000000000E+00 0.  1.
         11    1    3    3    0    0  0.94546707280E+01 -0.66356415077E+01 -0.24048602523E+01  0.11798554568E+02  0.51100000000E-03 0. -1.
        -11    1    3    3    0    0  0.17691831220E+02 -0.14325069990E+02 -0.69404581384E+01  0.23798707561E+02  0.51100000000E-03 0.  1.
        -12    1    3    3    0    0  0.67665684767E+01  0.19543613084E+01 -0.99493875673E+01  0.12190007795E+02  0.00000000000E+00 0.  1.
</event>
<event>
 7    1  0.4432754E-010  0.4778727E+02  0.7816164E-02  0.1312668E+00
        -11   -1    0    0    0    0  0.00000000000E+00  0.00000000000E+00  0.45593999997E+02  0.45594000000E+02  0.51100000000E-03 0. -1.
         11   -1    0    0    0    0 -0.00000000000E+00 -0.00000000000E+00 -0.45593999997E+02  0.45594000000E+02  0.51100000000E-03 0.  1.
    9900012    2    1    2    0    0 -0.43269118294E+02  0.33644797057E+01  0.29467268321E+00  0.47787272430E+02  0.20000006316E+02 0.  0.
        -12    1    1    2    0    0  0.43269118294E+02 -0.33644797057E+01 -0.29467268321E+00  0.43400727570E+02  0.00000000000E+00 0.  1.
         11    1    3    3    0    0 -0.25835238238E+02  0.29283052075E+00 -0.19417731658E+01  0.25909762018E+02  0.51100000000E-03 0. -1.
        -11    1    3    3    0    0 -0.18152017914E+02  0.67224963094E+00 -0.49554038589E+00  0.18171219950E+02  0.51100000000E-03 0.  1.
         12    1    3    3    0    0  0.71813785829E+00  0.23993995540E+01  0.27319862349E+01  0.37062904623E+01  0.00000000000E+00 0. -1.
</event>
<event>
 7    1  0.4432754E-010  0.4778727E+02  0.7816164E-02  0.1312668E+00
        -11   -1    0    0    0    0  0.00000000000E+00  0.00000000000E+00  0.45593999997E+02  0.45594000000E+02  0.51100000000E-03 0.  1.
         11   -1    0    0    0    0 -0.00000000000E+00 -0.00000000000E+00 -0.45593999997E+02  0.45594000000E+02  0.51100000000E-03 0. -1.
    9900012    2    1    2    0    0 -0.19592128964E+01  0.32492494640E+02 -0.28705800905E+02  0.47787265804E+02  0.19999976108E+02 0.  0.
        -12    1    1    2    0    0  0.19592128964E+01 -0.32492494640E+02  0.28705800905E+02  0.43400734196E+02  0.00000000000E+00 0.  1.
         11    1    3    3    0    0 -0.45717114353E+01  0.58144354358E+01 -0.71912363408E+01  0.10316108048E+02  0.51100000000E-03 0. -1.
        -11    1    3    3    0    0 -0.12545180353E+00  0.17539434227E+01  0.22966549467E+01  0.28925213725E+01  0.51100000000E-03 0.  1.
         12    1    3    3    0    0  0.27379503425E+01  0.24924115782E+02 -0.23811219511E+02  0.34578636384E+02  0.00000000000E+00 0. -1.
</event>
<event>
 7    1  0.4432754E-010  0.4778728E+02  0.7816164E-02  0.1312668E+00
        -11   -1    0    0    0    0  0.00000000000E+00  0.00000000000E+00  0.45593999997E+02  0.45594000000E+02  0.51100000000E-03 0.  1.
         11   -1    0    0    0    0 -0.00000000000E+00 -0.00000000000E+00 -0.45593999997E+02  0.45594000000E+02  0.51100000000E-03 0. -1.
    9900012    2    1    2    0    0 -0.39368948869E+02 -0.12262784829E+02 -0.13540043832E+02  0.47787276345E+02  0.20000024167E+02 0.  0.
        -12    1    1    2    0    0  0.39368948869E+02  0.12262784829E+02  0.13540043832E+02  0.43400723655E+02  0.00000000000E+00 0.  1.
         11    1    3    3    0    0 -0.89449744345E+01 -0.13698817582E+01 -0.49176326020E+00  0.90626141389E+01  0.51100000000E-03 0. -1.
        -11    1    3    3    0    0 -0.51071717200E+01  0.10810703413E+01 -0.90325225775E+01  0.10432563464E+02  0.51100000000E-03 0.  1.
        -12    1    3    3    0    0 -0.25316802714E+02 -0.11973973412E+02 -0.40157579944E+01  0.28292098742E+02  0.00000000000E+00 0.  1.
</event>
<event>
 7    1  0.4432754E-010  0.4778727E+02  0.7816164E-02  0.1312668E+00
        -11   -1    0    0    0    0  0.00000000000E+00  0.00000000000E+00  0.45593999997E+02  0.45594000000E+02  0.51100000000E-03 0.  1.
         11   -1    0    0    0    0 -0.00000000000E+00 -0.00000000000E+00 -0.45593999997E+02  0.45594000000E+02  0.51100000000E-03 0. -1.
    9900012    2    1    2    0    0 -0.25280865619E+02 -0.82214095236E+01 -0.34306114776E+02  0.47787271296E+02  0.20000001148E+02 0.  0.
        -12    1    1    2    0    0  0.25280865619E+02  0.82214095236E+01  0.34306114776E+02  0.43400728704E+02  0.00000000000E+00 0.  1.
         11    1    3    3    0    0 -0.10942601604E+02 -0.45789135854E+01 -0.46433055839E+01  0.12738416954E+02  0.51100000000E-03 0. -1.
        -11    1    3    3    0    0  0.11924959778E+01 -0.23852666349E+01 -0.21307880898E+01  0.34134735566E+01  0.51100000000E-03 0.  1.
        -12    1    3    3    0    0 -0.15530759992E+02 -0.12572293032E+01 -0.27532021103E+02  0.31635380786E+02  0.00000000000E+00 0.  1.
</event>
<event>
 7    1  0.4432754E-010  0.4778727E+02  0.7816164E-02  0.1312668E+00
        -11   -1    0    0    0    0  0.00000000000E+00  0.00000000000E+00  0.45593999997E+02  0.45594000000E+02  0.51100000000E-03 0. -1.
         11   -1    0    0    0    0 -0.00000000000E+00 -0.00000000000E+00 -0.45593999997E+02  0.45594000000E+02  0.51100000000E-03 0.  1.
    9900012    2    1    2    0    0  0.26278471984E+01  0.43008422831E+02  0.51955069908E+01  0.47787270649E+02  0.19999998197E+02 0.  0.
        -12    1    1    2    0    0 -0.26278471984E+01 -0.43008422831E+02 -0.51955069908E+01  0.43400729351E+02  0.00000000000E+00 0.  1.
         11    1    3    3    0    0  0.58779028713E+01  0.11151811561E+02  0.29519266004E+01  0.12947065851E+02  0.51100000000E-03 0. -1.
        -11    1    3    3    0    0  0.21052513678E+01  0.60608738944E+01  0.52942876820E+01  0.83183987646E+01  0.51100000000E-03 0.  1.
         12    1    3    3    0    0 -0.53553070407E+01  0.25795737376E+02 -0.30507072916E+01  0.26521806033E+02  0.00000000000E+00 0. -1.
</event>
<event>
 7    1  0.4432754E-010  0.4778728E+02  0.7816164E-02  0.1312668E+00
        -11   -1    0    0    0    0  0.00000000000E+00  0.00000000000E+00  0.45593999997E+02  0.45594000000E+02  0.51100000000E-03 0.  1.
         11   -1    0    0    0    0 -0.00000000000E+00 -0.00000000000E+00 -0.45593999997E+02  0.45594000000E+02  0.51100000000E-03 0. -1.
    9900012    2    1    2    0    0 -0.32235085315E+02  0.59059682582E+01 -0.28454202903E+02  0.47787275937E+02  0.20000022309E+02 0.  0.
        -12    1    1    2    0    0  0.32235085315E+02 -0.59059682582E+01  0.28454202903E+02  0.43400724063E+02  0.00000000000E+00 0.  1.
         11    1    3    3    0    0 -0.12325651533E+02  0.59249543769E+01 -0.16078809370E+02  0.21108170955E+02  0.51100000000E-03 0. -1.
        -11    1    3    3    0    0 -0.10371772261E+02  0.30473473161E+01 -0.12671678074E+02  0.16656272421E+02  0.51100000000E-03 0.  1.
        -12    1    3    3    0    0 -0.95376615208E+01 -0.30663334348E+01  0.29628454027E+00  0.10022832561E+02  0.00000000000E+00 0.  1.
</event>
<event>
 7    1  0.4432754E-010  0.4778727E+02  0.7816164E-02  0.1312668E+00
        -11   -1    0    0    0    0  0.00000000000E+00  0.00000000000E+00  0.45593999997E+02  0.45594000000E+02  0.51100000000E-03 0.  1.
         11   -1    0    0    0    0 -0.00000000000E+00 -0.00000000000E+00 -0.45593999997E+02  0.45594000000E+02  0.51100000000E-03 0. -1.
    9900012    2    1    2    0    0  0.26261261469E+02  0.11135940584E+02 -0.32710249776E+02  0.47787268819E+02  0.19999989854E+02 0.  0.
        -12    1    1    2    0    0 -0.26261261469E+02 -0.11135940584E+02  0.32710249776E+02  0.43400731181E+02  0.00000000000E+00 0.  1.
         11    1    3    3    0    0 -0.13315403546E+01  0.19577705320E+01 -0.21811356099E+00  0.23776961451E+01  0.51100000000E-03 0. -1.
        -11    1    3    3    0    0  0.57216266305E+01 -0.31460354657E+01 -0.81303023718E+01  0.10427673152E+02  0.51100000000E-03 0.  1.
         12    1    3    3    0    0  0.21871175193E+02  0.12324205517E+02 -0.24361833843E+02  0.34981899522E+02  0.00000000000E+00 0. -1.
</event>
<event>
 7    1  0.4432754E-010  0.4778724E+02  0.7816164E-02  0.1312668E+00
        -11   -1    0    0    0    0  0.00000000000E+00  0.00000000000E+00  0.45593999997E+02  0.45594000000E+02  0.51100000000E-03 0. -1.
         11   -1    0    0    0    0 -0.00000000000E+00 -0.00000000000E+00 -0.45593999997E+02  0.45594000000E+02  0.51100000000E-03 0.  1.
    9900012    2    1    2    0    0 -0.58424439617E+00  0.14473779839E+02  0.40912029604E+02  0.47787241819E+02  0.19999866748E+02 0.  0.
        -12    1    1    2    0    0  0.58424439617E+00 -0.14473779839E+02 -0.40912029604E+02  0.43400758181E+02  0.00000000000E+00 0.  1.
         11    1    3    3    0    0 -0.33163687517E+01  0.15232007339E+01  0.10487237523E+02  0.11104080029E+02  0.51100000000E-03 0. -1.
        -11    1    3    3    0    0 -0.48552268135E+01  0.19478523080E+00  0.36769361615E+01  0.60935234876E+01  0.51100000000E-03 0.  1.
         12    1    3    3    0    0  0.75873511690E+01  0.12755793874E+02  0.26747855920E+02  0.30589638302E+02  0.00000000000E+00 0. -1.
</event>
<event>
 7    1  0.4432754E-010  0.4778727E+02  0.7816164E-02  0.1312668E+00
        -11   -1    0    0    0    0  0.00000000000E+00  0.00000000000E+00  0.45593999997E+02  0.45594000000E+02  0.51100000000E-03 0.  1.
         11   -1    0    0    0    0 -0.00000000000E+00 -0.00000000000E+00 -0.45593999997E+02  0.45594000000E+02  0.51100000000E-03 0. -1.
    9900012    2    1    2    0    0 -0.96739364546E+01  0.40778628408E+02 -0.11275699043E+02  0.47787274542E+02  0.20000015945E+02 0.  0.
        -12    1    1    2    0    0  0.96739364546E+01 -0.40778628408E+02  0.11275699043E+02  0.43400725458E+02  0.00000000000E+00 0.  1.
         11    1    3    3    0    0 -0.33093855669E+01  0.43664662236E+01 -0.44501426879E+01  0.70584580693E+01  0.51100000000E-03 0. -1.
        -11    1    3    3    0    0 -0.10812107886E+02  0.32344333479E+02 -0.62786975852E+01  0.34676788040E+02  0.51100000000E-03 0.  1.
         12    1    3    3    0    0  0.44475569983E+01  0.40678287052E+01 -0.54685877031E+00  0.60520284321E+01  0.00000000000E+00 0. -1.
</event>
<event>
 7    1  0.5297296E-010  0.4778727E+02  0.7816164E-02  0.1312668E+00
        -11   -1    0    0    0    0  0.00000000000E+00  0.00000000000E+00  0.45593999997E+02  0.45594000000E+02  0.51100000000E-03 0. -1.
         11   -1    0    0    0    0 -0.00000000000E+00 -0.00000000000E+00 -0.45593999997E+02  0.45594000000E+02  0.51100000000E-03 0.  1.
    9900012    2    1    2    0    0  0.20628618727E+02 -0.69343949434E+01  0.37549933716E+02  0.47787271136E+02  0.20000000420E+02 0.  0.
        -12    1    1    2    0    0 -0.20628618727E+02  0.69343949434E+01 -0.37549933716E+02  0.43400728864E+02  0.00000000000E+00 0.  1.
         11    1    3    3    0    0  0.10107531358E+02 -0.18730979817E+01  0.18348706556E+02  0.21032016516E+02  0.51100000000E-03 0. -1.
        -11    1    3    3    0    0  0.10728220105E+02 -0.69233883425E+00  0.49267157942E+01  0.11825674123E+02  0.51100000000E-03 0.  1.
        -12    1    3    3    0    0 -0.20713273614E+00 -0.43689581275E+01  0.14274511366E+02  0.14929580497E+02  0.00000000000E+00 0.  1.
</event>
<event>
 7    1  0.4432754E-010  0.4778727E+02  0.7816164E-02  0.1312668E+00
        -11   -1    0    0    0    0  0.00000000000E+00  0.00000000000E+00  0.45593999997E+02  0.45594000000E+02  0.51100000000E-03 0.  1.
         11   -1    0    0    0    0 -0.00000000000E+00 -0.00000000000E+00 -0.45593999997E+02  0.45594000000E+02  0.51100000000E-03 0. -1.
    9900012    2    1    2    0    0  0.41700426560E+02  0.98765605474E+01 -0.68666691366E+01  0.47787272258E+02  0.20000005533E+02 0.  0.
        -12    1    1    2    0    0 -0.41700426560E+02 -0.98765605474E+01  0.68666691366E+01  0.43400727742E+02  0.00000000000E+00 0.  1.
         11    1    3    3    0    0  0.18777134655E+02  0.48891796809E+01 -0.91319106018E+00  0.19424695158E+02  0.51100000000E-03 0. -1.
        -11    1    3    3    0    0  0.90617583452E+01  0.94557979315E+01 -0.38244500078E+01  0.13643826331E+02  0.51100000000E-03 0.  1.
        -12    1    3    3    0    0  0.13861533559E+02 -0.44684170649E+01 -0.21290280686E+01  0.14718750769E+02  0.00000000000E+00 0.  1.
</event>
<event>
 7    1  0.4432754E-010  0.4778727E+02  0.7816164E-02  0.1312668E+00
        -11   -1    0    0    0    0  0.00000000000E+00  0.00000000000E+00  0.45593999997E+02  0.45594000000E+02  0.51100000000E-03 0.  1.
         11   -1    0    0    0    0 -0.00000000000E+00 -0.00000000000E+00 -0.45593999997E+02  0.45594000000E+02  0.51100000000E-03 0. -1.
    9900012    2    1    2    0    0 -0.38220967118E+02  0.56179471377E+01 -0.19779273038E+02  0.47787270751E+02  0.19999998662E+02 0.  0.
        -12    1    1    2    0    0  0.38220967118E+02 -0.56179471377E+01  0.19779273038E+02  0.43400729249E+02  0.00000000000E+00 0.  1.
         11    1    3    3    0    0 -0.25280749717E+02  0.55705494132E+00 -0.21645710832E+02  0.33286084392E+02  0.51100000000E-03 0. -1.
        -11    1    3    3    0    0 -0.63579622566E+01  0.17441169458E+01 -0.84671887735E+00  0.66469963965E+01  0.51100000000E-03 0.  1.
        -12    1    3    3    0    0 -0.65822551436E+01  0.33167752505E+01  0.27131566716E+01  0.78541899622E+01  0.00000000000E+00 0.  1.
</event>
<event>
 7    1  0.4432754E-010  0.4778726E+02  0.7816164E-02  0.1312668E+00
        -11   -1    0    0    0    0  0.00000000000E+00  0.00000000000E+00  0.45593999997E+02  0.45594000000E+02  0.51100000000E-03 0. -1.
         11   -1    0    0    0    0 -0.00000000000E+00 -0.00000000000E+00 -0.45593999997E+02  0.45594000000E+02  0.51100000000E-03 0.  1.
    9900012    2    1    2    0    0 -0.36871785158E+02  0.12676780697E+02  0.19062909708E+02  0.47787264567E+02  0.19999970469E+02 0.  0.
        -12    1    1    2    0    0  0.36871785158E+02 -0.12676780697E+02 -0.19062909708E+02  0.43400735433E+02  0.00000000000E+00 0.  1.
         11    1    3    3    0    0 -0.14643584623E+02  0.12660493910E+02  0.13554837882E+02  0.23631680155E+02  0.51100000000E-03 0. -1.
        -11    1    3    3    0    0 -0.62727758390E+01  0.34512745724E+01  0.10452839038E+01  0.72354427371E+01  0.51100000000E-03 0.  1.
         12    1    3    3    0    0 -0.15955424695E+02 -0.34349877850E+01  0.44627879217E+01  0.16920141676E+02  0.00000000000E+00 0. -1.
</event>
<event>
 7    1  0.4432754E-010  0.4778730E+02  0.7816164E-02  0.1312668E+00
        -11   -1    0    0    0    0  0.00000000000E+00  0.00000000000E+00  0.45593999997E+02  0.45594000000E+02  0.51100000000E-03 0.  1.
         11   -1    0    0    0    0 -0.00000000000E+00 -0.00000000000E+00 -0.45593999997E+02  0.45594000000E+02  0.51100000000E-03 0. -1.
    9900012    2    1    2    0    0  0.20190116828E+02  0.24509830589E+01 -0.38340218750E+02  0.47787302894E+02  0.20000145214E+02 0.  0.
        -12    1    1    2    0    0 -0.20190116828E+02 -0.24509830589E+01  0.38340218750E+02  0.43400697106E+02  0.00000000000E+00 0.  1.
         11    1    3    3    0    0  0.27274835910E+01  0.30743612579E+01 -0.72039336516E+01  0.82938244617E+01  0.51100000000E-03 0. -1.
        -11    1    3    3    0    0  0.10084930399E+02 -0.12342671553E+00 -0.31790570219E+01  0.10574850312E+02  0.51100000000E-03 0.  1.
         12    1    3    3    0    0  0.73777028382E+01 -0.49995148347E+00 -0.27957228076E+02  0.28918628120E+02  0.00000000000E+00 0. -1.
</event>
<event>
 7    1  0.4432754E-010  0.4778728E+02  0.7816164E-02  0.1312668E+00
        -11   -1    0    0    0    0  0.00000000000E+00  0.00000000000E+00  0.45593999997E+02  0.45594000000E+02  0.51100000000E-03 0.  1.
         11   -1    0    0    0    0 -0.00000000000E+00 -0.00000000000E+00 -0.45593999997E+02  0.45594000000E+02  0.51100000000E-03 0. -1.
    9900012    2    1    2    0    0  0.22381740041E+02 -0.24893083519E+02 -0.27622716076E+02  0.47787281829E+02  0.20000049169E+02 0.  0.
        -12    1    1    2    0    0 -0.22381740041E+02  0.24893083519E+02  0.27622716076E+02  0.43400718171E+02  0.00000000000E+00 0.  1.
         11    1    3    3    0    0  0.41954448665E+01 -0.39795228161E+01 -0.32949120030E+01  0.66554342338E+01  0.51100000000E-03 0. -1.
        -11    1    3    3    0    0  0.60592178480E+01 -0.19053095959E+02 -0.19556788645E+02  0.27967884598E+02  0.51100000000E-03 0.  1.
         12    1    3    3    0    0  0.12127077327E+02 -0.18604647443E+01 -0.47710154281E+01  0.13163962996E+02  0.00000000000E+00 0. -1.
</event>
<event>
 7    1  0.4432754E-010  0.4778727E+02  0.7816164E-02  0.1312668E+00
        -11   -1    0    0    0    0  0.00000000000E+00  0.00000000000E+00  0.45593999997E+02  0.45594000000E+02  0.51100000000E-03 0.  1.
         11   -1    0    0    0    0 -0.00000000000E+00 -0.00000000000E+00 -0.45593999997E+02  0.45594000000E+02  0.51100000000E-03 0. -1.
    9900012    2    1    2    0    0  0.20358977853E+02  0.14766952044E+02 -0.35370498125E+02  0.47787274321E+02  0.20000014937E+02 0.  0.
        -12    1    1    2    0    0 -0.20358977853E+02 -0.14766952044E+02  0.35370498125E+02  0.43400725679E+02  0.00000000000E+00 0.  1.
         11    1    3    3    0    0  0.87059160624E+01  0.24794489171E+01 -0.49301781254E+01  0.10307632998E+02  0.51100000000E-03 0. -1.
        -11    1    3    3    0    0  0.20141420339E+01  0.29581978115E+01  0.63311935892E+00  0.36343559001E+01  0.51100000000E-03 0.  1.
        -12    1    3    3    0    0  0.96389197571E+01  0.93293053150E+01 -0.31073439358E+02  0.33845285422E+02  0.00000000000E+00 0.  1.
</event>
<event>
 7    1  0.4432754E-010  0.4778727E+02  0.7816164E-02  0.1312668E+00
        -11   -1    0    0    0    0  0.00000000000E+00  0.00000000000E+00  0.45593999997E+02  0.45594000000E+02  0.51100000000E-03 0. -1.
         11   -1    0    0    0    0 -0.00000000000E+00 -0.00000000000E+00 -0.45593999997E+02  0.45594000000E+02  0.51100000000E-03 0.  1.
    9900012    2    1    2    0    0  0.13898943355E+02 -0.31129306326E+02 -0.26859060840E+02  0.47787268579E+02  0.19999988758E+02 0.  0.
        -12    1    1    2    0    0 -0.13898943355E+02  0.31129306326E+02  0.26859060840E+02  0.43400731421E+02  0.00000000000E+00 0.  1.
         11    1    3    3    0    0  0.64111206847E+01 -0.12998067286E+02 -0.16684736324E+02  0.22100512394E+02  0.51100000000E-03 0. -1.
        -11    1    3    3    0    0  0.44236012012E+01 -0.15556109438E+02 -0.13030924688E+02  0.20769347292E+02  0.51100000000E-03 0.  1.
        -12    1    3    3    0    0  0.30642214686E+01 -0.25751296020E+01  0.28566001727E+01  0.49174088931E+01  0.00000000000E+00 0.  1.
</event>
<event>
 7    1  0.4432754E-010  0.4778728E+02  0.7816164E-02  0.1312668E+00
        -11   -1    0    0    0    0  0.00000000000E+00  0.00000000000E+00  0.45593999997E+02  0.45594000000E+02  0.51100000000E-03 0.  1.
         11   -1    0    0    0    0 -0.00000000000E+00 -0.00000000000E+00 -0.45593999997E+02  0.45594000000E+02  0.51100000000E-03 0. -1.
    9900012    2    1    2    0    0 -0.19754486279E+02  0.37557641180E+02  0.90998049758E+01  0.47787278926E+02  0.20000035935E+02 0.  0.
        -12    1    1    2    0    0  0.19754486279E+02 -0.37557641180E+02 -0.90998049758E+01  0.43400721074E+02  0.00000000000E+00 0.  1.
         11    1    3    3    0    0 -0.17582863463E+02  0.24866077323E+02  0.12088853701E+02  0.32766129968E+02  0.51100000000E-03 0. -1.
        -11    1    3    3    0    0 -0.13439208263E+01 -0.50021787932E+00 -0.73922862093E+00  0.16133196612E+01  0.51100000000E-03 0.  1.
        -12    1    3    3    0    0 -0.82770198885E+00  0.13191781736E+02 -0.22498201038E+01  0.13407829297E+02  0.00000000000E+00 0.  1.
</event>
<event>
 7    1  0.4432754E-010  0.4778727E+02  0.7816164E-02  0.1312668E+00
        -11   -1    0    0    0    0  0.00000000000E+00  0.00000000000E+00  0.45593999997E+02  0.45594000000E+02  0.51100000000E-03 0.  1.
         11   -1    0    0    0    0 -0.00000000000E+00 -0.00000000000E+00 -0.45593999997E+02  0.45594000000E+02  0.51100000000E-03 0. -1.
    9900012    2    1    2    0    0 -0.26357284162E+01  0.20486787674E+02 -0.38170246062E+02  0.47787271689E+02  0.20000002938E+02 0.  0.
        -12    1    1    2    0    0  0.26357284162E+01 -0.20486787674E+02  0.38170246062E+02  0.43400728311E+02  0.00000000000E+00 0.  1.
         11    1    3    3    0    0  0.28606274690E+01  0.70632323256E+01 -0.79235245180E+01  0.10993392627E+02  0.51100000000E-03 0. -1.
        -11    1    3    3    0    0  0.99248456312E+00  0.55359067282E+01 -0.24369167165E+02  0.25009750049E+02  0.51100000000E-03 0.  1.
         12    1    3    3    0    0 -0.64888404484E+01  0.78876486200E+01 -0.58775543792E+01  0.11784129013E+02  0.00000000000E+00 0. -1.
</event>
<event>
 7    1  0.4432754E-010  0.4778727E+02  0.7816164E-02  0.1312668E+00
        -11   -1    0    0    0    0  0.00000000000E+00  0.00000000000E+00  0.45593999997E+02  0.45594000000E+02  0.51100000000E-03 0.  1.
         11   -1    0    0    0    0 -0.00000000000E+00 -0.00000000000E+00 -0.45593999997E+02  0.45594000000E+02  0.51100000000E-03 0. -1.
    9900012    2    1    2    0    0 -0.15877214229E+02  0.28218468149E+02 -0.28900782483E+02  0.47787272996E+02  0.20000008898E+02 0.  0.
        -12    1    1    2    0    0  0.15877214229E+02 -0.28218468149E+02  0.28900782483E+02  0.43400727004E+02  0.00000000000E+00 0.  1.
         11    1    3    3    0    0 -0.16208131826E+02  0.18921393165E+02 -0.13442641039E+02  0.28309490546E+02  0.51100000000E-03 0.  1.
        -11    1    3    3    0    0 -0.31975515760E+01  0.63994942843E+01 -0.10806058279E+02  0.12959504580E+02  0.51100000000E-03 0. -1.
        -12    1    3    3    0    0  0.35284691731E+01  0.28975806993E+01 -0.46520831649E+01  0.65182778698E+01  0.00000000000E+00 0.  1.
</event>
<event>
 7    1  0.4432754E-010  0.4778727E+02  0.7816164E-02  0.1312668E+00
        -11   -1    0    0    0    0  0.00000000000E+00  0.00000000000E+00  0.45593999997E+02  0.45594000000E+02  0.51100000000E-03 0.  1.
         11   -1    0    0    0    0 -0.00000000000E+00 -0.00000000000E+00 -0.45593999997E+02  0.45594000000E+02  0.51100000000E-03 0. -1.
    9900012    2    1    2    0    0  0.37025990341E+02 -0.19569952766E+02 -0.11389300049E+02  0.47787272268E+02  0.20000005580E+02 0.  0.
        -12    1    1    2    0    0 -0.37025990341E+02  0.19569952766E+02  0.11389300049E+02  0.43400727732E+02  0.00000000000E+00 0.  1.
         11    1    3    3    0    0 -0.15761009773E+01 -0.28302535151E+01 -0.15066206777E+01  0.35727210048E+01  0.51100000000E-03 0. -1.
        -11    1    3    3    0    0  0.10480393877E+02 -0.79801631326E+01 -0.61057640062E+01  0.14519022481E+02  0.51100000000E-03 0.  1.
        -12    1    3    3    0    0  0.28121697441E+02 -0.87595361183E+01 -0.37769153654E+01  0.29695528782E+02  0.00000000000E+00 0.  1.
</event>
<event>
 7    1  0.4432754E-010  0.4778727E+02  0.7816164E-02  0.1312668E+00
        -11   -1    0    0    0    0  0.00000000000E+00  0.00000000000E+00  0.45593999997E+02  0.45594000000E+02  0.51100000000E-03 0. -1.
         11   -1    0    0    0    0 -0.00000000000E+00 -0.00000000000E+00 -0.45593999997E+02  0.45594000000E+02  0.51100000000E-03 0.  1.
    9900012    2    1    2    0    0 -0.26054906581E+02  0.47395418266E+01  0.34384618216E+02  0.47787269781E+02  0.19999994240E+02 0.  0.
        -12    1    1    2    0    0  0.26054906581E+02 -0.47395418266E+01 -0.34384618216E+02  0.43400730219E+02  0.00000000000E+00 0.  1.
         11    1    3    3    0    0 -0.16243763380E+02  0.76970872953E+01  0.11467924134E+02  0.21321779611E+02  0.51100000000E-03 0. -1.
        -11    1    3    3    0    0 -0.71116828543E+01 -0.26336438283E+01  0.70072051698E+01  0.10325358947E+02  0.51100000000E-03 0.  1.
         12    1    3    3    0    0 -0.26994603463E+01 -0.32390164043E+00  0.15909488913E+02  0.16140131223E+02  0.00000000000E+00 0. -1.
</event>
<event>
 7    1  0.4432754E-010  0.4778727E+02  0.7816164E-02  0.1312668E+00
        -11   -1    0    0    0    0  0.00000000000E+00  0.00000000000E+00  0.45593999997E+02  0.45594000000E+02  0.51100000000E-03 0. -1.
         11   -1    0    0    0    0 -0.00000000000E+00 -0.00000000000E+00 -0.45593999997E+02  0.45594000000E+02  0.51100000000E-03 0.  1.
    9900012    2    1    2    0    0 -0.17443271847E+02  0.13809126211E+02  0.37264775233E+02  0.47787272211E+02  0.20000005317E+02 0.  0.
        -12    1    1    2    0    0  0.17443271847E+02 -0.13809126211E+02 -0.37264775233E+02  0.43400727789E+02  0.00000000000E+00 0.  1.
         11    1    3    3    0    0 -0.30221155811E+01 -0.57866539701E+00  0.41513615601E+01  0.51673822474E+01  0.51100000000E-03 0. -1.
        -11    1    3    3    0    0 -0.67275331955E+01 -0.31623606320E+01  0.68475412210E+01  0.10106881255E+02  0.51100000000E-03 0.  1.
         12    1    3    3    0    0 -0.76936230710E+01  0.17550152240E+02  0.26265872452E+02  0.32513008709E+02  0.00000000000E+00 0. -1.
</event>
<event>
 7    1  0.4432754E-010  0.4778727E+02  0.7816164E-02  0.1312668E+00
        -11   -1    0    0    0    0  0.00000000000E+00  0.00000000000E+00  0.45593999997E+02  0.45594000000E+02  0.51100000000E-03 0.  1.
         11   -1    0    0    0    0 -0.00000000000E+00 -0.00000000000E+00 -0.45593999997E+02  0.45594000000E+02  0.51100000000E-03 0. -1.
    9900012    2    1    2    0    0  0.15584091014E+02 -0.34407392192E+02  0.21375008302E+02  0.47787268323E+02  0.19999987591E+02 0.  0.
        -12    1    1    2    0    0 -0.15584091014E+02  0.34407392192E+02 -0.21375008302E+02  0.43400731677E+02  0.00000000000E+00 0.  1.
         11    1    3    3    0    0  0.15578769767E+01 -0.13731790496E+02  0.75434165918E+01  0.15744592248E+02  0.51100000000E-03 0. -1.
        -11    1    3    3    0    0  0.17664148979E+01 -0.15372862532E+02  0.62925871262E+01  0.16704543604E+02  0.51100000000E-03 0.  1.
        -12    1    3    3    0    0  0.12259799140E+02 -0.53027391639E+01  0.75390045842E+01  0.15338132471E+02  0.00000000000E+00 0.  1.
</event>
<event>
 7    1  0.4432754E-010  0.4778727E+02  0.7816164E-02  0.1312668E+00
        -11   -1    0    0    0    0  0.00000000000E+00  0.00000000000E+00  0.45593999997E+02  0.45594000000E+02  0.51100000000E-03 0.  1.
         11   -1    0    0    0    0 -0.00000000000E+00 -0.00000000000E+00 -0.45593999997E+02  0.45594000000E+02  0.51100000000E-03 0. -1.
    9900012    2    1    2    0    0 -0.36003148991E+02 -0.16087284483E+02  0.18127218380E+02  0.47787268375E+02  0.19999987831E+02 0.  0.
        -12    1    1    2    0    0  0.36003148991E+02  0.16087284483E+02 -0.18127218380E+02  0.43400731625E+02  0.00000000000E+00 0.  1.
         11    1    3    3    0    0 -0.23771620432E+02 -0.46414092078E+01  0.13250181607E+02  0.27607968601E+02  0.51100000000E-03 0. -1.
        -11    1    3    3    0    0 -0.92876225748E+01 -0.28458757430E+01  0.53263047192E+01  0.11078287957E+02  0.51100000000E-03 0.  1.
        -12    1    3    3    0    0 -0.29439059845E+01 -0.85999995326E+01 -0.44926794608E+00  0.91010118171E+01  0.00000000000E+00 0.  1.
</event>
<event>
 7    1  0.4432754E-010  0.4778727E+02  0.7816164E-02  0.1312668E+00
        -11   -1    0    0    0    0  0.00000000000E+00  0.00000000000E+00  0.45593999997E+02  0.45594000000E+02  0.51100000000E-03 0.  1.
         11   -1    0    0    0    0 -0.00000000000E+00 -0.00000000000E+00 -0.45593999997E+02  0.45594000000E+02  0.51100000000E-03 0. -1.
    9900012    2    1    2    0    0  0.90960151123E+01 -0.38772081717E+02 -0.17251419242E+02  0.47787271003E+02  0.19999999812E+02 0.  0.
        -12    1    1    2    0    0 -0.90960151123E+01  0.38772081717E+02  0.17251419242E+02  0.43400728997E+02  0.00000000000E+00 0.  1.
         11    1    3    3    0    0  0.56209774416E+01 -0.65987764453E+01 -0.56915989919E+00  0.86869546578E+01  0.51100000000E-03 0.  1.
        -11    1    3    3    0    0  0.46198533829E+01 -0.10637699565E+02  0.37568329396E+00  0.11603656127E+02  0.51100000000E-03 0. -1.
        -12    1    3    3    0    0 -0.11448157122E+01 -0.21535605707E+02 -0.17057942637E+02  0.27496660218E+02  0.00000000000E+00 0.  1.
</event>
<event>
 7    1  0.4432754E-010  0.4778727E+02  0.7816164E-02  0.1312668E+00
        -11   -1    0    0    0    0  0.00000000000E+00  0.00000000000E+00  0.45593999997E+02  0.45594000000E+02  0.51100000000E-03 0.  1.
         11   -1    0    0    0    0 -0.00000000000E+00 -0.00000000000E+00 -0.45593999997E+02  0.45594000000E+02  0.51100000000E-03 0. -1.
    9900012    2    1    2    0    0  0.17723500401E+01 -0.43222278229E+02  0.35094896853E+01  0.47787273303E+02  0.20000010297E+02 0.  0.
        -12    1    1    2    0    0 -0.17723500401E+01  0.43222278229E+02 -0.35094896853E+01  0.43400726697E+02  0.00000000000E+00 0.  1.
         11    1    3    3    0    0 -0.47996364104E+00 -0.12915702196E+02  0.67011517061E+01  0.14558542604E+02  0.51100000000E-03 0. -1.
        -11    1    3    3    0    0 -0.18083090462E+01 -0.12666367792E+02  0.44968676906E+01  0.13562030598E+02  0.51100000000E-03 0.  1.
        -12    1    3    3    0    0  0.40606227273E+01 -0.17640208242E+02 -0.76885297115E+01  0.19666700101E+02  0.00000000000E+00 0.  1.
</event>
<event>
 7    1  0.4432754E-010  0.4778727E+02  0.7816164E-02  0.1312668E+00
        -11   -1    0    0    0    0  0.00000000000E+00  0.00000000000E+00  0.45593999997E+02  0.45594000000E+02  0.51100000000E-03 0.  1.
         11   -1    0    0    0    0 -0.00000000000E+00 -0.00000000000E+00 -0.45593999997E+02  0.45594000000E+02  0.51100000000E-03 0. -1.
    9900012    2    1    2    0    0  0.30152218864E+02 -0.28668879496E+01 -0.31084523963E+02  0.47787274442E+02  0.20000015493E+02 0.  0.
        -12    1    1    2    0    0 -0.30152218864E+02  0.28668879496E+01  0.31084523963E+02  0.43400725558E+02  0.00000000000E+00 0.  1.
         11    1    3    3    0    0  0.28648833701E+02 -0.94809594643E+00 -0.27967448023E+02  0.40047880188E+02  0.51100000000E-03 0. -1.
        -11    1    3    3    0    0  0.67625833845E+00 -0.16128342849E+01 -0.51953171168E+01  0.54817770819E+01  0.51100000000E-03 0.  1.
        -12    1    3    3    0    0  0.82712682454E+00 -0.30595771832E+00  0.20782411770E+01  0.22576171728E+01  0.00000000000E+00 0.  1.
</event>
<event>
 7    1  0.4432754E-010  0.4778727E+02  0.7816164E-02  0.1312668E+00
        -11   -1    0    0    0    0  0.00000000000E+00  0.00000000000E+00  0.45593999997E+02  0.45594000000E+02  0.51100000000E-03 0.  1.
         11   -1    0    0    0    0 -0.00000000000E+00 -0.00000000000E+00 -0.45593999997E+02  0.45594000000E+02  0.51100000000E-03 0. -1.
    9900012    2    1    2    0    0  0.65501792873E+01  0.36568588108E+02 -0.22437838333E+02  0.47787273347E+02  0.20000010500E+02 0.  0.
        -12    1    1    2    0    0 -0.65501792873E+01 -0.36568588108E+02  0.22437838333E+02  0.43400726653E+02  0.00000000000E+00 0.  1.
         11    1    3    3    0    0 -0.24366609501E+01  0.13367498846E+02 -0.47031205904E+01  0.14378688589E+02  0.51100000000E-03 0. -1.
        -11    1    3    3    0    0 -0.30856062032E+01  0.70007656159E+01 -0.23161973696E+01  0.79935258407E+01  0.51100000000E-03 0.  1.
        -12    1    3    3    0    0  0.12072446441E+02  0.16200323646E+02 -0.15418520373E+02  0.25415058918E+02  0.00000000000E+00 0.  1.
</event>
<event>
 7    1  0.4432754E-010  0.4778727E+02  0.7816164E-02  0.1312668E+00
        -11   -1    0    0    0    0  0.00000000000E+00  0.00000000000E+00  0.45593999997E+02  0.45594000000E+02  0.51100000000E-03 0.  1.
         11   -1    0    0    0    0 -0.00000000000E+00 -0.00000000000E+00 -0.45593999997E+02  0.45594000000E+02  0.51100000000E-03 0. -1.
    9900012    2    1    2    0    0 -0.39707282771E+00 -0.42867562243E+02 -0.67703632358E+01  0.47787269846E+02  0.19999994537E+02 0.  0.
        -12    1    1    2    0    0  0.39707282771E+00  0.42867562243E+02  0.67703632358E+01  0.43400730154E+02  0.00000000000E+00 0.  1.
         11    1    3    3    0    0 -0.41739546746E+01 -0.25760802608E+01 -0.40393962522E+01  0.63541175217E+01  0.51100000000E-03 0. -1.
        -11    1    3    3    0    0 -0.37942921064E+00 -0.88713385184E+01  0.26923248603E+01  0.92786435996E+01  0.51100000000E-03 0.  1.
         12    1    3    3    0    0  0.41563110576E+01 -0.31420143464E+02 -0.54232918439E+01  0.32154508725E+02  0.00000000000E+00 0. -1.
</event>
<event>
 7    1  0.4432754E-010  0.4778727E+02  0.7816164E-02  0.1312668E+00
        -11   -1    0    0    0    0  0.00000000000E+00  0.00000000000E+00  0.45593999997E+02  0.45594000000E+02  0.51100000000E-03 0.  1.
         11   -1    0    0    0    0 -0.00000000000E+00 -0.00000000000E+00 -0.45593999997E+02  0.45594000000E+02  0.51100000000E-03 0. -1.
    9900012    2    1    2    0    0  0.10252587391E+02 -0.34565571120E+02 -0.24160479911E+02  0.47787273686E+02  0.20000012044E+02 0.  0.
        -12    1    1    2    0    0 -0.10252587391E+02  0.34565571120E+02  0.24160479911E+02  0.43400726314E+02  0.00000000000E+00 0.  1.
         11    1    3    3    0    0  0.52554410130E+01 -0.99676605449E+01 -0.59511010361E+01  0.12743214696E+02  0.51100000000E-03 0. -1.
        -11    1    3    3    0    0 -0.15053151585E+01 -0.32244661519E+01  0.26829050986E+01  0.44565834134E+01  0.51100000000E-03 0.  1.
        -12    1    3    3    0    0  0.65024615369E+01 -0.21373444423E+02 -0.20892283974E+02  0.30587475577E+02  0.00000000000E+00 0.  1.
</event>
<event>
 7    1  0.4432754E-010  0.4778727E+02  0.7816164E-02  0.1312668E+00
        -11   -1    0    0    0    0  0.00000000000E+00  0.00000000000E+00  0.45593999997E+02  0.45594000000E+02  0.51100000000E-03 0.  1.
         11   -1    0    0    0    0 -0.00000000000E+00 -0.00000000000E+00 -0.45593999997E+02  0.45594000000E+02  0.51100000000E-03 0. -1.
    9900012    2    1    2    0    0  0.22061794898E+02  0.19800399678E+02 -0.31699284926E+02  0.47787270900E+02  0.19999999343E+02 0.  0.
        -12    1    1    2    0    0 -0.22061794898E+02 -0.19800399678E+02  0.31699284926E+02  0.43400729100E+02  0.00000000000E+00 0.  1.
         11    1    3    3    0    0  0.12888274386E+02  0.18989903132E+02 -0.22868252644E+02  0.32398781102E+02  0.51100000000E-03 0. -1.
        -11    1    3    3    0    0  0.29355615653E+01  0.35622814124E+01 -0.69012601644E+01  0.83026961092E+01  0.51100000000E-03 0.  1.
        -12    1    3    3    0    0  0.62379589473E+01 -0.27517848666E+01 -0.19297721175E+01  0.70857936892E+01  0.00000000000E+00 0.  1.
</event>
<event>
 7    1  0.4432754E-010  0.4778726E+02  0.7816164E-02  0.1312668E+00
        -11   -1    0    0    0    0  0.00000000000E+00  0.00000000000E+00  0.45593999997E+02  0.45594000000E+02  0.51100000000E-03 0.  1.
         11   -1    0    0    0    0 -0.00000000000E+00 -0.00000000000E+00 -0.45593999997E+02  0.45594000000E+02  0.51100000000E-03 0. -1.
    9900012    2    1    2    0    0 -0.62972689182E+01 -0.41923270758E+02 -0.92955693388E+01  0.47787264566E+02  0.19999970463E+02 0.  0.
        -12    1    1    2    0    0  0.62972689182E+01  0.41923270758E+02  0.92955693388E+01  0.43400735434E+02  0.00000000000E+00 0.  1.
         11    1    3    3    0    0 -0.22390524839E+01 -0.90319512179E+01 -0.12136963558E+01  0.93841652763E+01  0.51100000000E-03 0. -1.
        -11    1    3    3    0    0 -0.84816235449E+01 -0.12854424199E+02 -0.90467608632E+01  0.17861076166E+02  0.51100000000E-03 0.  1.
         12    1    3    3    0    0  0.44234071106E+01 -0.20036895341E+02  0.96488788024E+00  0.20542023124E+02  0.00000000000E+00 0. -1.
</event>
<event>
 7    1  0.4432754E-010  0.4778728E+02  0.7816164E-02  0.1312668E+00
        -11   -1    0    0    0    0  0.00000000000E+00  0.00000000000E+00  0.45593999997E+02  0.45594000000E+02  0.51100000000E-03 0.  1.
         11   -1    0    0    0    0 -0.00000000000E+00 -0.00000000000E+00 -0.45593999997E+02  0.45594000000E+02  0.51100000000E-03 0. -1.
    9900012    2    1    2    0    0  0.75734671838E+01  0.42573793763E+02  0.37063432583E+01  0.47787282254E+02  0.20000051107E+02 0.  0.
        -12    1    1    2    0    0 -0.75734671838E+01 -0.42573793763E+02 -0.37063432583E+01  0.43400717746E+02  0.00000000000E+00 0.  1.
         11    1    3    3    0    0 -0.45854673127E+01  0.94290909724E+01 -0.79057004674E+00  0.10514716749E+02  0.51100000000E-03 0. -1.
        -11    1    3    3    0    0  0.33231084234E+01  0.21764990908E+02  0.59086891078E+01  0.22796282286E+02  0.51100000000E-03 0.  1.
         12    1    3    3    0    0  0.88358260732E+01  0.11379711883E+02 -0.14117758028E+01  0.14476283219E+02  0.00000000000E+00 0. -1.
</event>
<event>
 7    1  0.4432754E-010  0.4778727E+02  0.7816164E-02  0.1312668E+00
        -11   -1    0    0    0    0  0.00000000000E+00  0.00000000000E+00  0.45593999997E+02  0.45594000000E+02  0.51100000000E-03 0.  1.
         11   -1    0    0    0    0 -0.00000000000E+00 -0.00000000000E+00 -0.45593999997E+02  0.45594000000E+02  0.51100000000E-03 0. -1.
    9900012    2    1    2    0    0 -0.24034977016E+02  0.14780321541E+02 -0.32977040980E+02  0.47787271241E+02  0.20000000895E+02 0.  0.
        -12    1    1    2    0    0  0.24034977016E+02 -0.14780321541E+02  0.32977040980E+02  0.43400728759E+02  0.00000000000E+00 0.  1.
         11    1    3    3    0    0 -0.11994130129E+02  0.14859655448E+02 -0.97456977926E+01  0.21439382998E+02  0.51100000000E-03 0. -1.
        -11    1    3    3    0    0 -0.36782993604E+01  0.20244091787E+00 -0.10364240303E+02  0.10999470252E+02  0.51100000000E-03 0.  1.
         12    1    3    3    0    0 -0.83625475265E+01 -0.28177482490E+00 -0.12867102884E+02  0.15348417991E+02  0.00000000000E+00 0. -1.
</event>
<event>
 7    1  0.4432754E-010  0.4778727E+02  0.7816164E-02  0.1312668E+00
        -11   -1    0    0    0    0  0.00000000000E+00  0.00000000000E+00  0.45593999997E+02  0.45594000000E+02  0.51100000000E-03 0. -1.
         11   -1    0    0    0    0 -0.00000000000E+00 -0.00000000000E+00 -0.45593999997E+02  0.45594000000E+02  0.51100000000E-03 0.  1.
    9900012    2    1    2    0    0  0.19444954340E+02 -0.22685293930E+02 -0.31478481627E+02  0.47787267109E+02  0.19999982057E+02 0.  0.
        -12    1    1    2    0    0 -0.19444954340E+02  0.22685293930E+02  0.31478481627E+02  0.43400732891E+02  0.00000000000E+00 0.  1.
         11    1    3    3    0    0 -0.56236016197E+00 -0.18714486328E+01 -0.10090658914E+02  0.10278130498E+02  0.51100000000E-03 0. -1.
        -11    1    3    3    0    0  0.42224015843E+00 -0.97018682808E+00  0.12193523911E+01  0.16144255163E+01  0.51100000000E-03 0.  1.
         12    1    3    3    0    0  0.19585074343E+02 -0.19843658469E+02 -0.22607175103E+02  0.35894711095E+02  0.00000000000E+00 0. -1.
</event>
<event>
 7    1  0.4432754E-010  0.4778727E+02  0.7816164E-02  0.1312668E+00
        -11   -1    0    0    0    0  0.00000000000E+00  0.00000000000E+00  0.45593999997E+02  0.45594000000E+02  0.51100000000E-03 0.  1.
         11   -1    0    0    0    0 -0.00000000000E+00 -0.00000000000E+00 -0.45593999997E+02  0.45594000000E+02  0.51100000000E-03 0. -1.
    9900012    2    1    2    0    0 -0.16780594066E+02  0.36805729943E+02 -0.15728103847E+02  0.47787270231E+02  0.19999996293E+02 0.  0.
        -12    1    1    2    0    0  0.16780594066E+02 -0.36805729943E+02  0.15728103847E+02  0.43400729769E+02  0.00000000000E+00 0.  1.
         11    1    3    3    0    0 -0.15441246893E+02  0.26606746454E+02 -0.15067767039E+02  0.34254761221E+02  0.51100000000E-03 0. -1.
        -11    1    3    3    0    0 -0.20459385066E+00  0.10101759052E+01 -0.36582224630E+01  0.38006454522E+01  0.51100000000E-03 0.  1.
        -12    1    3    3    0    0 -0.11347533224E+01  0.91888075835E+01  0.29978856558E+01  0.97318635581E+01  0.00000000000E+00 0.  1.
</event>
<event>
 7    1  0.4432754E-010  0.4778724E+02  0.7816164E-02  0.1312668E+00
        -11   -1    0    0    0    0  0.00000000000E+00  0.00000000000E+00  0.45593999997E+02  0.45594000000E+02  0.51100000000E-03 0. -1.
         11   -1    0    0    0    0 -0.00000000000E+00 -0.00000000000E+00 -0.45593999997E+02  0.45594000000E+02  0.51100000000E-03 0.  1.
    9900012    2    1    2    0    0  0.12961459853E+02  0.11190640102E+02  0.39879768305E+02  0.47787242086E+02  0.19999867968E+02 0.  0.
        -12    1    1    2    0    0 -0.12961459853E+02 -0.11190640102E+02 -0.39879768305E+02  0.43400757914E+02  0.00000000000E+00 0.  1.
         11    1    3    3    0    0  0.34912981193E+01  0.58406807402E+01  0.63264001931E+01  0.92911815035E+01  0.51100000000E-03 0. -1.
        -11    1    3    3    0    0  0.94907855477E+01 -0.20254646217E+01  0.10528489913E+02  0.14318750551E+02  0.51100000000E-03 0.  1.
         12    1    3    3    0    0 -0.20623814129E-01  0.73754239838E+01  0.23024878199E+02  0.24177310032E+02  0.00000000000E+00 0. -1.
</event>
<event>
 7    1  0.4432754E-010  0.4778728E+02  0.7816164E-02  0.1312668E+00
        -11   -1    0    0    0    0  0.00000000000E+00  0.00000000000E+00  0.45593999997E+02  0.45594000000E+02  0.51100000000E-03 0. -1.
         11   -1    0    0    0    0 -0.00000000000E+00 -0.00000000000E+00 -0.45593999997E+02  0.45594000000E+02  0.51100000000E-03 0.  1.
    9900012    2    1    2    0    0  0.40524642518E+02  0.15217082200E+02  0.31331255005E+01  0.47787277457E+02  0.20000029237E+02 0.  0.
        -12    1    1    2    0    0 -0.40524642518E+02 -0.15217082200E+02 -0.31331255005E+01  0.43400722543E+02  0.00000000000E+00 0.  1.
         11    1    3    3    0    0  0.11004453837E+02  0.23609530050E+01 -0.38847189374E+01  0.11906432917E+02  0.51100000000E-03 0.  1.
        -11    1    3    3    0    0  0.16387698661E+02  0.13348179538E+02  0.33753627134E+00  0.21138696634E+02  0.51100000000E-03 0. -1.
        -12    1    3    3    0    0  0.13132490020E+02 -0.49205034350E+00  0.66803081666E+01  0.14742147906E+02  0.00000000000E+00 0.  1.
</event>
<event>
 7    1  0.4432754E-010  0.4778728E+02  0.7816164E-02  0.1312668E+00
        -11   -1    0    0    0    0  0.00000000000E+00  0.00000000000E+00  0.45593999997E+02  0.45594000000E+02  0.51100000000E-03 0. -1.
         11   -1    0    0    0    0 -0.00000000000E+00 -0.00000000000E+00 -0.45593999997E+02  0.45594000000E+02  0.51100000000E-03 0.  1.
    9900012    2    1    2    0    0 -0.12812254559E+01 -0.11504281677E+02  0.41828612628E+02  0.47787275698E+02  0.20000021217E+02 0.  0.
        -12    1    1    2    0    0  0.12812254559E+01  0.11504281677E+02 -0.41828612628E+02  0.43400724302E+02  0.00000000000E+00 0.  1.
         11    1    3    3    0    0  0.78158340475E+00 -0.12206138741E+02  0.20135394129E+02  0.23559176398E+02  0.51100000000E-03 0. -1.
        -11    1    3    3    0    0 -0.36755569512E+01 -0.38082714301E+01  0.70118107589E+01  0.87851090242E+01  0.51100000000E-03 0.  1.
         12    1    3    3    0    0  0.16127480906E+01  0.45101284932E+01  0.14681407740E+02  0.15442990276E+02  0.00000000000E+00 0. -1.
</event>
<event>
 7    1  0.4432754E-010  0.4778727E+02  0.7816164E-02  0.1312668E+00
        -11   -1    0    0    0    0  0.00000000000E+00  0.00000000000E+00  0.45593999997E+02  0.45594000000E+02  0.51100000000E-03 0.  1.
         11   -1    0    0    0    0 -0.00000000000E+00 -0.00000000000E+00 -0.45593999997E+02  0.45594000000E+02  0.51100000000E-03 0. -1.
    9900012    2    1    2    0    0 -0.18761480516E+02 -0.29233643356E+01 -0.39026711616E+02  0.47787269248E+02  0.19999991811E+02 0.  0.
        -12    1    1    2    0    0  0.18761480516E+02  0.29233643356E+01  0.39026711616E+02  0.43400730752E+02  0.00000000000E+00 0.  1.
         11    1    3    3    0    0  0.79174073322E-01 -0.50682464097E+01 -0.58044764816E+01  0.77061882724E+01  0.51100000000E-03 0. -1.
        -11    1    3    3    0    0 -0.83323266182E+01 -0.26545372196E+01 -0.23177532999E+02  0.24772409469E+02  0.51100000000E-03 0.  1.
        -12    1    3    3    0    0 -0.10508327971E+02  0.47994192937E+01 -0.10044702135E+02  0.15308671507E+02  0.00000000000E+00 0.  1.
</event>
<event>
 7    1  0.4432754E-010  0.4778727E+02  0.7816164E-02  0.1312668E+00
        -11   -1    0    0    0    0  0.00000000000E+00  0.00000000000E+00  0.45593999997E+02  0.45594000000E+02  0.51100000000E-03 0.  1.
         11   -1    0    0    0    0 -0.00000000000E+00 -0.00000000000E+00 -0.45593999997E+02  0.45594000000E+02  0.51100000000E-03 0. -1.
    9900012    2    1    2    0    0 -0.29202033752E+02 -0.28863946707E+02 -0.14061900316E+02  0.47787271490E+02  0.20000002029E+02 0.  0.
        -12    1    1    2    0    0  0.29202033752E+02  0.28863946707E+02  0.14061900316E+02  0.43400728510E+02  0.00000000000E+00 0.  1.
         11    1    3    3    0    0 -0.22360652388E+02 -0.30397141336E+02 -0.86666244226E+01  0.38718152794E+02  0.51100000000E-03 0. -1.
        -11    1    3    3    0    0 -0.62018638464E+01  0.16026785990E+01 -0.40515860826E+01  0.75793828183E+01  0.51100000000E-03 0.  1.
         12    1    3    3    0    0 -0.63951751717E+00 -0.69483969829E-01 -0.13436898104E+01  0.14897358771E+01  0.00000000000E+00 0. -1.
</event>
<event>
 7    1  0.4432754E-010  0.4778727E+02  0.7816164E-02  0.1312668E+00
        -11   -1    0    0    0    0  0.00000000000E+00  0.00000000000E+00  0.45593999997E+02  0.45594000000E+02  0.51100000000E-03 0.  1.
         11   -1    0    0    0    0 -0.00000000000E+00 -0.00000000000E+00 -0.45593999997E+02  0.45594000000E+02  0.51100000000E-03 0. -1.
    9900012    2    1    2    0    0  0.25330802058E+02 -0.21039282908E+00 -0.35241014954E+02  0.47787274971E+02  0.20000017902E+02 0.  0.
        -12    1    1    2    0    0 -0.25330802058E+02  0.21039282908E+00  0.35241014954E+02  0.43400725029E+02  0.00000000000E+00 0.  1.
         11    1    3    3    0    0 -0.60895672524E+00 -0.24107034341E+00  0.52468428216E+00  0.83918833450E+00  0.51100000000E-03 0. -1.
        -11    1    3    3    0    0  0.17845372677E+02 -0.64051183314E+01 -0.16734811768E+02  0.25289064673E+02  0.51100000000E-03 0.  1.
         12    1    3    3    0    0  0.80943861063E+01  0.64357958457E+01 -0.19030887468E+02  0.21659021964E+02  0.00000000000E+00 0. -1.
</event>
<event>
 7    1  0.4432754E-010  0.4778728E+02  0.7816164E-02  0.1312668E+00
        -11   -1    0    0    0    0  0.00000000000E+00  0.00000000000E+00  0.45593999997E+02  0.45594000000E+02  0.51100000000E-03 0.  1.
         11   -1    0    0    0    0 -0.00000000000E+00 -0.00000000000E+00 -0.45593999997E+02  0.45594000000E+02  0.51100000000E-03 0. -1.
    9900012    2    1    2    0    0  0.28833824157E+02 -0.21208302935E+02 -0.24544667805E+02  0.47787282879E+02  0.20000053961E+02 0.  0.
        -12    1    1    2    0    0 -0.28833824157E+02  0.21208302935E+02  0.24544667805E+02  0.43400717121E+02  0.00000000000E+00 0.  1.
         11    1    3    3    0    0  0.15414255332E+02 -0.10337831655E+02 -0.18682494432E+02  0.26334495044E+02  0.51100000000E-03 0. -1.
        -11    1    3    3    0    0  0.65107459317E+01 -0.21997709017E+01 -0.75825779437E+01  0.10233488806E+02  0.51100000000E-03 0.  1.
        -12    1    3    3    0    0  0.69088228937E+01 -0.86707003781E+01  0.17204045708E+01  0.11219299029E+02  0.00000000000E+00 0.  1.
</event>
<event>
 7    1  0.4432754E-010  0.4778729E+02  0.7816164E-02  0.1312668E+00
        -11   -1    0    0    0    0  0.00000000000E+00  0.00000000000E+00  0.45593999997E+02  0.45594000000E+02  0.51100000000E-03 0. -1.
         11   -1    0    0    0    0 -0.00000000000E+00 -0.00000000000E+00 -0.45593999997E+02  0.45594000000E+02  0.51100000000E-03 0.  1.
    9900012    2    1    2    0    0  0.19774735976E+02  0.92091546549E+01  0.37520297806E+02  0.47787291944E+02  0.20000095287E+02 0.  0.
        -12    1    1    2    0    0 -0.19774735976E+02 -0.92091546549E+01 -0.37520297806E+02  0.43400708056E+02  0.00000000000E+00 0.  1.
         11    1    3    3    0    0  0.24522657464E+00  0.42398621713E+01  0.16812140676E+01  0.45676085983E+01  0.51100000000E-03 0. -1.
        -11    1    3    3    0    0  0.20948265225E+01 -0.17034474219E+01  0.15003143509E+02  0.15244157789E+02  0.51100000000E-03 0.  1.
         12    1    3    3    0    0  0.17434682879E+02  0.66727399054E+01  0.20835940229E+02  0.27975525556E+02  0.00000000000E+00 0. -1.
</event>
<event>
 7    1  0.4432754E-010  0.4778727E+02  0.7816164E-02  0.1312668E+00
        -11   -1    0    0    0    0  0.00000000000E+00  0.00000000000E+00  0.45593999997E+02  0.45594000000E+02  0.51100000000E-03 0. -1.
         11   -1    0    0    0    0 -0.00000000000E+00 -0.00000000000E+00 -0.45593999997E+02  0.45594000000E+02  0.51100000000E-03 0.  1.
    9900012    2    1    2    0    0  0.11210834097E+02  0.18522948010E+02  0.37614368438E+02  0.47787272850E+02  0.20000008234E+02 0.  0.
        -12    1    1    2    0    0 -0.11210834097E+02 -0.18522948010E+02 -0.37614368438E+02  0.43400727150E+02  0.00000000000E+00 0.  1.
         11    1    3    3    0    0  0.16461805015E+01  0.97784920408E-02 -0.81843295051E-01  0.16482428366E+01  0.51100000000E-03 0. -1.
        -11    1    3    3    0    0  0.46415138635E+01 -0.22226252025E+01  0.55402156881E+01  0.75615940031E+01  0.51100000000E-03 0.  1.
         12    1    3    3    0    0  0.49231397319E+01  0.20735794721E+02  0.32155996045E+02  0.38577436011E+02  0.00000000000E+00 0. -1.
</event>
<event>
 7    1  0.4432754E-010  0.4778727E+02  0.7816164E-02  0.1312668E+00
        -11   -1    0    0    0    0  0.00000000000E+00  0.00000000000E+00  0.45593999997E+02  0.45594000000E+02  0.51100000000E-03 0. -1.
         11   -1    0    0    0    0 -0.00000000000E+00 -0.00000000000E+00 -0.45593999997E+02  0.45594000000E+02  0.51100000000E-03 0.  1.
    9900012    2    1    2    0    0  0.15039035625E+02 -0.14658413925E+02  0.37981331040E+02  0.47787271908E+02  0.20000003936E+02 0.  0.
        -12    1    1    2    0    0 -0.15039035625E+02  0.14658413925E+02 -0.37981331040E+02  0.43400728092E+02  0.00000000000E+00 0.  1.
         11    1    3    3    0    0  0.48658991116E+00 -0.26672048305E+01  0.13244127248E+02  0.13518789079E+02  0.51100000000E-03 0. -1.
        -11    1    3    3    0    0 -0.45450506280E+00 -0.28240620502E+01  0.12552478757E+02  0.12874262096E+02  0.51100000000E-03 0.  1.
         12    1    3    3    0    0  0.15006950777E+02 -0.91671470446E+01  0.12184725036E+02  0.21394220733E+02  0.00000000000E+00 0. -1.
</event>
<event>
 7    1  0.4432754E-010  0.4778727E+02  0.7816164E-02  0.1312668E+00
        -11   -1    0    0    0    0  0.00000000000E+00  0.00000000000E+00  0.45593999997E+02  0.45594000000E+02  0.51100000000E-03 0.  1.
         11   -1    0    0    0    0 -0.00000000000E+00 -0.00000000000E+00 -0.45593999997E+02  0.45594000000E+02  0.51100000000E-03 0. -1.
    9900012    2    1    2    0    0 -0.21501255881E+02 -0.15325344867E+02 -0.34444926032E+02  0.47787272712E+02  0.20000007604E+02 0.  0.
        -12    1    1    2    0    0  0.21501255881E+02  0.15325344867E+02  0.34444926032E+02  0.43400727288E+02  0.00000000000E+00 0.  1.
         11    1    3    3    0    0 -0.14836894958E+02 -0.15591198659E+02 -0.17015118478E+02  0.27435983393E+02  0.51100000000E-03 0.  1.
        -11    1    3    3    0    0 -0.84642192638E+01 -0.54907636145E+00 -0.14852148521E+02  0.17103532049E+02  0.51100000000E-03 0. -1.
        -12    1    3    3    0    0  0.17998583406E+01  0.81493015311E+00 -0.25776590322E+01  0.32477572703E+01  0.00000000000E+00 0.  1.
</event>
<event>
 7    1  0.4432754E-010  0.4778727E+02  0.7816164E-02  0.1312668E+00
        -11   -1    0    0    0    0  0.00000000000E+00  0.00000000000E+00  0.45593999997E+02  0.45594000000E+02  0.51100000000E-03 0.  1.
         11   -1    0    0    0    0 -0.00000000000E+00 -0.00000000000E+00 -0.45593999997E+02  0.45594000000E+02  0.51100000000E-03 0. -1.
    9900012    2    1    2    0    0  0.40604744034E+02  0.14877277610E+02 -0.36803314669E+01  0.47787268821E+02  0.19999989862E+02 0.  0.
        -12    1    1    2    0    0 -0.40604744034E+02 -0.14877277610E+02  0.36803314669E+01  0.43400731179E+02  0.00000000000E+00 0.  1.
         11    1    3    3    0    0  0.19217139159E+02  0.35513170829E+01 -0.10434227122E+01  0.19570360797E+02  0.51100000000E-03 0. -1.
        -11    1    3    3    0    0  0.16188523196E+02  0.73820260426E+00 -0.39376910540E+00  0.16210128955E+02  0.51100000000E-03 0.  1.
        -12    1    3    3    0    0  0.51990816785E+01  0.10587757923E+02 -0.22431396493E+01  0.12006779069E+02  0.00000000000E+00 0.  1.
</event>
<event>
 7    1  0.4432754E-010  0.4778727E+02  0.7816164E-02  0.1312668E+00
        -11   -1    0    0    0    0  0.00000000000E+00  0.00000000000E+00  0.45593999997E+02  0.45594000000E+02  0.51100000000E-03 0.  1.
         11   -1    0    0    0    0 -0.00000000000E+00 -0.00000000000E+00 -0.45593999997E+02  0.45594000000E+02  0.51100000000E-03 0. -1.
    9900012    2    1    2    0    0  0.30752259890E+02 -0.24310432400E+02 -0.18625905804E+02  0.47787274443E+02  0.20000015496E+02 0.  0.
        -12    1    1    2    0    0 -0.30752259890E+02  0.24310432400E+02  0.18625905804E+02  0.43400725557E+02  0.00000000000E+00 0.  1.
         11    1    3    3    0    0  0.37734577210E+01 -0.41224312435E+01 -0.24912581708E+00  0.55942368973E+01  0.51100000000E-03 0. -1.
        -11    1    3    3    0    0  0.87866908611E+01  0.11187127115E+01 -0.32330994306E+00  0.88635198426E+01  0.51100000000E-03 0.  1.
        -12    1    3    3    0    0  0.18192111308E+02 -0.21306713868E+02 -0.18053470044E+02  0.33329517703E+02  0.00000000000E+00 0.  1.
</event>
<event>
 7    1  0.4432754E-010  0.4778727E+02  0.7816164E-02  0.1312668E+00
        -11   -1    0    0    0    0  0.00000000000E+00  0.00000000000E+00  0.45593999997E+02  0.45594000000E+02  0.51100000000E-03 0.  1.
         11   -1    0    0    0    0 -0.00000000000E+00 -0.00000000000E+00 -0.45593999997E+02  0.45594000000E+02  0.51100000000E-03 0. -1.
    9900012    2    1    2    0    0 -0.63292852745E+01 -0.78540711833E+01 -0.42212287749E+02  0.47787268171E+02  0.19999986900E+02 0.  0.
        -12    1    1    2    0    0  0.63292852745E+01  0.78540711833E+01  0.42212287749E+02  0.43400731829E+02  0.00000000000E+00 0.  1.
         11    1    3    3    0    0 -0.36988101019E+01 -0.97210168194E+01 -0.15670254619E+02  0.18807877186E+02  0.51100000000E-03 0. -1.
        -11    1    3    3    0    0 -0.11462606767E+01  0.64299722841E+01 -0.18446758719E+02  0.19568887669E+02  0.51100000000E-03 0.  1.
        -12    1    3    3    0    0 -0.14842144960E+01 -0.45630266480E+01 -0.80952744115E+01  0.94105033158E+01  0.00000000000E+00 0.  1.
</event>
<event>
 7    1  0.4432754E-010  0.4778727E+02  0.7816164E-02  0.1312668E+00
        -11   -1    0    0    0    0  0.00000000000E+00  0.00000000000E+00  0.45593999997E+02  0.45594000000E+02  0.51100000000E-03 0.  1.
         11   -1    0    0    0    0 -0.00000000000E+00 -0.00000000000E+00 -0.45593999997E+02  0.45594000000E+02  0.51100000000E-03 0. -1.
    9900012    2    1    2    0    0 -0.21231801071E+00  0.30885491153E+02 -0.30490398544E+02  0.47787273669E+02  0.20000011966E+02 0.  0.
        -12    1    1    2    0    0  0.21231801071E+00 -0.30885491153E+02  0.30490398544E+02  0.43400726331E+02  0.00000000000E+00 0.  1.
         11    1    3    3    0    0 -0.27448865435E+01  0.13974101979E+02 -0.16002431566E+02  0.21421665308E+02  0.51100000000E-03 0. -1.
        -11    1    3    3    0    0 -0.41127927764E+01  0.10201641580E+02 -0.28207020351E+01  0.11355391476E+02  0.51100000000E-03 0.  1.
        -12    1    3    3    0    0  0.66453613091E+01  0.67097475949E+01 -0.11667264942E+02  0.15010216885E+02  0.00000000000E+00 0.  1.
</event>
<event>
 7    1  0.4432754E-010  0.4778727E+02  0.7816164E-02  0.1312668E+00
        -11   -1    0    0    0    0  0.00000000000E+00  0.00000000000E+00  0.45593999997E+02  0.45594000000E+02  0.51100000000E-03 0. -1.
         11   -1    0    0    0    0 -0.00000000000E+00 -0.00000000000E+00 -0.45593999997E+02  0.45594000000E+02  0.51100000000E-03 0.  1.
    9900012    2    1    2    0    0  0.18607219036E+02  0.23718794035E+02  0.31222006909E+02  0.47787268368E+02  0.19999987799E+02 0.  0.
        -12    1    1    2    0    0 -0.18607219036E+02 -0.23718794035E+02 -0.31222006909E+02  0.43400731632E+02  0.00000000000E+00 0.  1.
         11    1    3    3    0    0  0.18225055601E+02  0.19124797717E+02  0.21837630237E+02  0.34275248124E+02  0.51100000000E-03 0. -1.
        -11    1    3    3    0    0  0.13302554420E+01  0.26883278206E+01 -0.80266609165E+00  0.31049893925E+01  0.51100000000E-03 0.  1.
         12    1    3    3    0    0 -0.94809200632E+00  0.19056684975E+01  0.10187042764E+02  0.10407030852E+02  0.00000000000E+00 0. -1.
</event>
<event>
 7    1  0.4432754E-010  0.4778729E+02  0.7816164E-02  0.1312668E+00
        -11   -1    0    0    0    0  0.00000000000E+00  0.00000000000E+00  0.45593999997E+02  0.45594000000E+02  0.51100000000E-03 0. -1.
         11   -1    0    0    0    0 -0.00000000000E+00 -0.00000000000E+00 -0.45593999997E+02  0.45594000000E+02  0.51100000000E-03 0.  1.
    9900012    2    1    2    0    0  0.37991711421E+00 -0.26707003248E+02  0.34208376116E+02  0.47787293139E+02  0.20000100740E+02 0.  0.
        -12    1    1    2    0    0 -0.37991711421E+00  0.26707003248E+02 -0.34208376116E+02  0.43400706861E+02  0.00000000000E+00 0.  1.
         11    1    3    3    0    0  0.43162490019E+01 -0.94187003737E+01  0.25768603033E+02  0.27773419392E+02  0.51100000000E-03 0. -1.
        -11    1    3    3    0    0  0.17758480044E+00 -0.64935439956E+01  0.40543444598E+01  0.76573728683E+01  0.51100000000E-03 0.  1.
         12    1    3    3    0    0 -0.41139166881E+01 -0.10794758879E+02  0.43854286227E+01  0.12356500879E+02  0.00000000000E+00 0. -1.
</event>
<event>
 7    1  0.4432754E-010  0.4778724E+02  0.7816164E-02  0.1312668E+00
        -11   -1    0    0    0    0  0.00000000000E+00  0.00000000000E+00  0.45593999997E+02  0.45594000000E+02  0.51100000000E-03 0.  1.
         11   -1    0    0    0    0 -0.00000000000E+00 -0.00000000000E+00 -0.45593999997E+02  0.45594000000E+02  0.51100000000E-03 0. -1.
    9900012    2    1    2    0    0  0.32543125389E+02  0.34235064676E+01 -0.28510528047E+02  0.47787244061E+02  0.19999876970E+02 0.  0.
        -12    1    1    2    0    0 -0.32543125389E+02 -0.34235064676E+01  0.28510528047E+02  0.43400755939E+02  0.00000000000E+00 0.  1.
         11    1    3    3    0    0  0.72667511881E+01 -0.16153531699E+01 -0.47481365555E+01  0.88294869446E+01  0.51100000000E-03 0. -1.
        -11    1    3    3    0    0  0.61639856646E+00 -0.10008386070E+01 -0.10019207320E+02  0.10087920533E+02  0.51100000000E-03 0.  1.
         12    1    3    3    0    0  0.24659975634E+02  0.60396982445E+01 -0.13743184172E+02  0.28869836583E+02  0.00000000000E+00 0. -1.
</event>
<event>
 7    1  0.4432754E-010  0.4778727E+02  0.7816164E-02  0.1312668E+00
        -11   -1    0    0    0    0  0.00000000000E+00  0.00000000000E+00  0.45593999997E+02  0.45594000000E+02  0.51100000000E-03 0.  1.
         11   -1    0    0    0    0 -0.00000000000E+00 -0.00000000000E+00 -0.45593999997E+02  0.45594000000E+02  0.51100000000E-03 0. -1.
    9900012    2    1    2    0    0 -0.31319332003E+02 -0.14036753206E+02 -0.26564867735E+02  0.47787271948E+02  0.20000004120E+02 0.  0.
        -12    1    1    2    0    0  0.31319332003E+02  0.14036753206E+02  0.26564867735E+02  0.43400728052E+02  0.00000000000E+00 0.  1.
         11    1    3    3    0    0 -0.11168615998E+02 -0.48582389408E+01 -0.85243952139E+01  0.14866263248E+02  0.51100000000E-03 0. -1.
        -11    1    3    3    0    0 -0.63105795965E+01 -0.58206848106E+01 -0.16495459310E+02  0.18595805028E+02  0.51100000000E-03 0.  1.
        -12    1    3    3    0    0 -0.13840136408E+02 -0.33578294550E+01 -0.15450132105E+01  0.14325203673E+02  0.00000000000E+00 0.  1.
</event>
<event>
 7    1  0.4432754E-010  0.4778727E+02  0.7816164E-02  0.1312668E+00
        -11   -1    0    0    0    0  0.00000000000E+00  0.00000000000E+00  0.45593999997E+02  0.45594000000E+02  0.51100000000E-03 0. -1.
         11   -1    0    0    0    0 -0.00000000000E+00 -0.00000000000E+00 -0.45593999997E+02  0.45594000000E+02  0.51100000000E-03 0.  1.
    9900012    2    1    2    0    0 -0.38053728347E+02 -0.37410796597E+01 -0.20531472610E+02  0.47787270909E+02  0.19999999381E+02 0.  0.
        -12    1    1    2    0    0  0.38053728347E+02  0.37410796597E+01  0.20531472610E+02  0.43400729091E+02  0.00000000000E+00 0.  1.
         11    1    3    3    0    0 -0.34665386443E+01 -0.26341974906E+01 -0.18642451753E+01  0.47361690138E+01  0.51100000000E-03 0. -1.
        -11    1    3    3    0    0 -0.22283604539E+02 -0.13019034185E+01 -0.20860735831E+02  0.30551993117E+02  0.51100000000E-03 0.  1.
         12    1    3    3    0    0 -0.12303585164E+02  0.19502124941E+00  0.21935083956E+01  0.12499108778E+02  0.00000000000E+00 0. -1.
</event>
<event>
 7    1  0.4432754E-010  0.4778727E+02  0.7816164E-02  0.1312668E+00
        -11   -1    0    0    0    0  0.00000000000E+00  0.00000000000E+00  0.45593999997E+02  0.45594000000E+02  0.51100000000E-03 0.  1.
         11   -1    0    0    0    0 -0.00000000000E+00 -0.00000000000E+00 -0.45593999997E+02  0.45594000000E+02  0.51100000000E-03 0. -1.
    9900012    2    1    2    0    0  0.21517710941E+02 -0.85477884042E+01 -0.36708947300E+02  0.47787269792E+02  0.19999994288E+02 0.  0.
        -12    1    1    2    0    0 -0.21517710941E+02  0.85477884042E+01  0.36708947300E+02  0.43400730208E+02  0.00000000000E+00 0.  1.
         11    1    3    3    0    0  0.56805712945E+01 -0.16852680669E+01 -0.15254835363E+02  0.16365177081E+02  0.51100000000E-03 0. -1.
        -11    1    3    3    0    0 -0.12357353538E+01 -0.34111408137E+01 -0.98383035160E+01  0.10485949640E+02  0.51100000000E-03 0.  1.
        -12    1    3    3    0    0  0.17072875001E+02 -0.34513795236E+01 -0.11615808421E+02  0.20936143071E+02  0.00000000000E+00 0.  1.
</event>
<event>
 7    1  0.4432754E-010  0.4778727E+02  0.7816164E-02  0.1312668E+00
        -11   -1    0    0    0    0  0.00000000000E+00  0.00000000000E+00  0.45593999997E+02  0.45594000000E+02  0.51100000000E-03 0.  1.
         11   -1    0    0    0    0 -0.00000000000E+00 -0.00000000000E+00 -0.45593999997E+02  0.45594000000E+02  0.51100000000E-03 0. -1.
    9900012    2    1    2    0    0  0.22321590680E+00  0.23690032092E+02 -0.36364214585E+02  0.47787267884E+02  0.19999985590E+02 0.  0.
        -12    1    1    2    0    0 -0.22321590680E+00 -0.23690032092E+02  0.36364214585E+02  0.43400732116E+02  0.00000000000E+00 0.  1.
         11    1    3    3    0    0 -0.28778052357E+01  0.12317318292E+01  0.10080879195E+00  0.31319465109E+01  0.51100000000E-03 0. -1.
        -11    1    3    3    0    0 -0.20902005006E+01  0.35299660631E+01 -0.11631873434E+01  0.42641064242E+01  0.51100000000E-03 0.  1.
         12    1    3    3    0    0  0.51912216431E+01  0.18928334199E+02 -0.35301836033E+02  0.40391214949E+02  0.00000000000E+00 0. -1.
</event>
<event>
 7    1  0.4432754E-010  0.4778727E+02  0.7816164E-02  0.1312668E+00
        -11   -1    0    0    0    0  0.00000000000E+00  0.00000000000E+00  0.45593999997E+02  0.45594000000E+02  0.51100000000E-03 0. -1.
         11   -1    0    0    0    0 -0.00000000000E+00 -0.00000000000E+00 -0.45593999997E+02  0.45594000000E+02  0.51100000000E-03 0.  1.
    9900012    2    1    2    0    0  0.31373359382E+02  0.20617206361E+02  0.21777655848E+02  0.47787272227E+02  0.20000005391E+02 0.  0.
        -12    1    1    2    0    0 -0.31373359382E+02 -0.20617206361E+02 -0.21777655848E+02  0.43400727773E+02  0.00000000000E+00 0.  1.
         11    1    3    3    0    0 -0.11446819184E+01  0.27863593642E+00  0.18018703156E+00  0.11918063210E+01  0.51100000000E-03 0. -1.
        -11    1    3    3    0    0  0.11055012663E+02  0.32037463242E+01 -0.23299634535E+00  0.11512236231E+02  0.51100000000E-03 0.  1.
         12    1    3    3    0    0  0.21463028637E+02  0.17134824100E+02  0.21830465162E+02  0.35083229675E+02  0.00000000000E+00 0. -1.
</event>
<event>
 7    1  0.4432754E-010  0.4778727E+02  0.7816164E-02  0.1312668E+00
        -11   -1    0    0    0    0  0.00000000000E+00  0.00000000000E+00  0.45593999997E+02  0.45594000000E+02  0.51100000000E-03 0. -1.
         11   -1    0    0    0    0 -0.00000000000E+00 -0.00000000000E+00 -0.45593999997E+02  0.45594000000E+02  0.51100000000E-03 0.  1.
    9900012    2    1    2    0    0 -0.48172881716E+01  0.14548690152E+02  0.40604833529E+02  0.47787272398E+02  0.20000006173E+02 0.  0.
        -12    1    1    2    0    0  0.48172881716E+01 -0.14548690152E+02 -0.40604833529E+02  0.43400727602E+02  0.00000000000E+00 0.  1.
         11    1    3    3    0    0 -0.57375204651E+01 -0.18691940285E+00  0.12276224632E+02  0.13552113172E+02  0.51100000000E-03 0. -1.
        -11    1    3    3    0    0  0.65517845260E+01  0.64588178841E+01  0.14177012213E+02  0.16900588288E+02  0.51100000000E-03 0.  1.
         12    1    3    3    0    0 -0.56315522326E+01  0.82767916712E+01  0.14151596684E+02  0.17334570939E+02  0.00000000000E+00 0. -1.
</event>
<event>
 7    1  0.4432754E-010  0.4778727E+02  0.7816164E-02  0.1312668E+00
        -11   -1    0    0    0    0  0.00000000000E+00  0.00000000000E+00  0.45593999997E+02  0.45594000000E+02  0.51100000000E-03 0.  1.
         11   -1    0    0    0    0 -0.00000000000E+00 -0.00000000000E+00 -0.45593999997E+02  0.45594000000E+02  0.51100000000E-03 0. -1.
    9900012    2    1    2    0    0 -0.37820193871E+02 -0.37452654438E+01 -0.20957800126E+02  0.47787268856E+02  0.19999990021E+02 0.  0.
        -12    1    1    2    0    0  0.37820193871E+02  0.37452654438E+01  0.20957800126E+02  0.43400731144E+02  0.00000000000E+00 0.  1.
         11    1    3    3    0    0 -0.10471979101E+02 -0.29410320215E+01 -0.91362843492E+01  0.14205059226E+02  0.51100000000E-03 0. -1.
        -11    1    3    3    0    0 -0.71174335762E+01 -0.62625309937E+01 -0.77299501414E+01  0.12232304959E+02  0.51100000000E-03 0.  1.
         12    1    3    3    0    0 -0.20230781194E+02  0.54582975714E+01 -0.40915656358E+01  0.21349904671E+02  0.00000000000E+00 0. -1.
</event>
<event>
 7    1  0.4432754E-010  0.4778728E+02  0.7816164E-02  0.1312668E+00
        -11   -1    0    0    0    0  0.00000000000E+00  0.00000000000E+00  0.45593999997E+02  0.45594000000E+02  0.51100000000E-03 0.  1.
         11   -1    0    0    0    0 -0.00000000000E+00 -0.00000000000E+00 -0.45593999997E+02  0.45594000000E+02  0.51100000000E-03 0. -1.
    9900012    2    1    2    0    0 -0.23608151632E+02  0.22611996068E+02 -0.28547777152E+02  0.47787276849E+02  0.20000026467E+02 0.  0.
        -12    1    1    2    0    0  0.23608151632E+02 -0.22611996068E+02  0.28547777152E+02  0.43400723151E+02  0.00000000000E+00 0.  1.
         11    1    3    3    0    0 -0.66646768718E+01  0.49715937182E+01 -0.53871362534E+01  0.99073659051E+01  0.51100000000E-03 0. -1.
        -11    1    3    3    0    0  0.26778928126E+01 -0.10133005748E+01 -0.28019931095E+01  0.40061270096E+01  0.51100000000E-03 0.  1.
        -12    1    3    3    0    0 -0.19621367573E+02  0.18653702925E+02 -0.20358647789E+02  0.33873783935E+02  0.00000000000E+00 0.  1.
</event>
<event>
 7    1  0.4432754E-010  0.4778727E+02  0.7816164E-02  0.1312668E+00
        -11   -1    0    0    0    0  0.00000000000E+00  0.00000000000E+00  0.45593999997E+02  0.45594000000E+02  0.51100000000E-03 0.  1.
         11   -1    0    0    0    0 -0.00000000000E+00 -0.00000000000E+00 -0.45593999997E+02  0.45594000000E+02  0.51100000000E-03 0. -1.
    9900012    2    1    2    0    0 -0.74658922191E+01 -0.42386355324E+02  0.55929237977E+01  0.47787268890E+02  0.19999990177E+02 0.  0.
        -12    1    1    2    0    0  0.74658922191E+01  0.42386355324E+02 -0.55929237977E+01  0.43400731110E+02  0.00000000000E+00 0.  1.
         11    1    3    3    0    0 -0.13591679834E+02 -0.19928688614E+02  0.28134604777E+01  0.24285838480E+02  0.51100000000E-03 0. -1.
        -11    1    3    3    0    0  0.52701529620E+00 -0.26066291151E+01 -0.17648618141E+00  0.26652219606E+01  0.51100000000E-03 0.  1.
         12    1    3    3    0    0  0.55987723184E+01 -0.19851037595E+02  0.29559495014E+01  0.20836208449E+02  0.00000000000E+00 0. -1.
</event>
<event>
 7    1  0.4432754E-010  0.4778729E+02  0.7816164E-02  0.1312668E+00
        -11   -1    0    0    0    0  0.00000000000E+00  0.00000000000E+00  0.45593999997E+02  0.45594000000E+02  0.51100000000E-03 0.  1.
         11   -1    0    0    0    0 -0.00000000000E+00 -0.00000000000E+00 -0.45593999997E+02  0.45594000000E+02  0.51100000000E-03 0. -1.
    9900012    2    1    2    0    0  0.17397912092E+02 -0.76230421066E+01 -0.39023365964E+02  0.47787294853E+02  0.20000108553E+02 0.  0.
        -12    1    1    2    0    0 -0.17397912092E+02  0.76230421066E+01  0.39023365964E+02  0.43400705147E+02  0.00000000000E+00 0.  1.
         11    1    3    3    0    0 -0.24712055062E+01 -0.19500681454E+01 -0.75381288344E+01  0.81690274213E+01  0.51100000000E-03 0. -1.
        -11    1    3    3    0    0  0.70137648674E+01  0.76733381023E+00 -0.20024452487E+02  0.21231118587E+02  0.51100000000E-03 0.  1.
        -12    1    3    3    0    0  0.12855352731E+02 -0.64403077715E+01 -0.11460784643E+02  0.18387148845E+02  0.00000000000E+00 0.  1.
</event>
<event>
 7    1  0.4432754E-010  0.4778727E+02  0.7816164E-02  0.1312668E+00
        -11   -1    0    0    0    0  0.00000000000E+00  0.00000000000E+00  0.45593999997E+02  0.45594000000E+02  0.51100000000E-03 0.  1.
         11   -1    0    0    0    0 -0.00000000000E+00 -0.00000000000E+00 -0.45593999997E+02  0.45594000000E+02  0.51100000000E-03 0. -1.
    9900012    2    1    2    0    0 -0.31366327680E+02 -0.39759710989E+01 -0.29731608629E+02  0.47787269476E+02  0.19999992849E+02 0.  0.
        -12    1    1    2    0    0  0.31366327680E+02  0.39759710989E+01  0.29731608629E+02  0.43400730524E+02  0.00000000000E+00 0.  1.
         11    1    3    3    0    0 -0.91051629178E+01 -0.20605254969E+01 -0.17824826163E+02  0.20121485658E+02  0.51100000000E-03 0. -1.
        -11    1    3    3    0    0  0.15654711343E+00  0.68206143438E+00 -0.35219029465E+01  0.35907541582E+01  0.51100000000E-03 0.  1.
        -12    1    3    3    0    0 -0.22417711876E+02 -0.25975070364E+01 -0.83848795201E+01  0.24075029660E+02  0.00000000000E+00 0.  1.
</event>
<event>
 7    1  0.4432754E-010  0.4778727E+02  0.7816164E-02  0.1312668E+00
        -11   -1    0    0    0    0  0.00000000000E+00  0.00000000000E+00  0.45593999997E+02  0.45594000000E+02  0.51100000000E-03 0.  1.
         11   -1    0    0    0    0 -0.00000000000E+00 -0.00000000000E+00 -0.45593999997E+02  0.45594000000E+02  0.51100000000E-03 0. -1.
    9900012    2    1    2    0    0 -0.42424537609E+02  0.91499543639E+01  0.24591224364E+00  0.47787268105E+02  0.19999986596E+02 0.  0.
        -12    1    1    2    0    0  0.42424537609E+02 -0.91499543639E+01 -0.24591224364E+00  0.43400731895E+02  0.00000000000E+00 0.  1.
         11    1    3    3    0    0 -0.11077287813E+02  0.75980752998E+01  0.17336292304E+00  0.13433804692E+02  0.51100000000E-03 0. -1.
        -11    1    3    3    0    0 -0.16198931062E+02  0.77327740539E+01  0.89265400754E+00  0.17972144935E+02  0.51100000000E-03 0.  1.
         12    1    3    3    0    0 -0.15148318735E+02 -0.61808949897E+01 -0.82010468694E+00  0.16381318478E+02  0.00000000000E+00 0. -1.
</event>
<event>
 7    1  0.4432754E-010  0.4778727E+02  0.7816164E-02  0.1312668E+00
        -11   -1    0    0    0    0  0.00000000000E+00  0.00000000000E+00  0.45593999997E+02  0.45594000000E+02  0.51100000000E-03 0. -1.
         11   -1    0    0    0    0 -0.00000000000E+00 -0.00000000000E+00 -0.45593999997E+02  0.45594000000E+02  0.51100000000E-03 0.  1.
    9900012    2    1    2    0    0 -0.11121236064E+02 -0.33708049598E+02  0.24974163263E+02  0.47787270398E+02  0.19999997054E+02 0.  0.
        -12    1    1    2    0    0  0.11121236064E+02  0.33708049598E+02 -0.24974163263E+02  0.43400729602E+02  0.00000000000E+00 0.  1.
         11    1    3    3    0    0 -0.48371382098E+01 -0.13721227958E+02  0.16729411121E+02  0.22170773543E+02  0.51100000000E-03 0. -1.
        -11    1    3    3    0    0 -0.10245840212E+01 -0.17568249318E+02  0.90213417706E+01  0.19775686186E+02  0.51100000000E-03 0.  1.
         12    1    3    3    0    0 -0.52595138326E+01 -0.24185723212E+01 -0.77658962870E+00  0.58408106698E+01  0.00000000000E+00 0. -1.
</event>
<event>
 7    1  0.4432754E-010  0.4778727E+02  0.7816164E-02  0.1312668E+00
        -11   -1    0    0    0    0  0.00000000000E+00  0.00000000000E+00  0.45593999997E+02  0.45594000000E+02  0.51100000000E-03 0. -1.
         11   -1    0    0    0    0 -0.00000000000E+00 -0.00000000000E+00 -0.45593999997E+02  0.45594000000E+02  0.51100000000E-03 0.  1.
    9900012    2    1    2    0    0 -0.72280610177E+01  0.41173574955E+02 -0.11666847029E+02  0.47787268897E+02  0.19999990210E+02 0.  0.
        -12    1    1    2    0    0  0.72280610177E+01 -0.41173574955E+02  0.11666847029E+02  0.43400731103E+02  0.00000000000E+00 0.  1.
         11    1    3    3    0    0 -0.35449523833E+01  0.89802590751E+01 -0.56505900865E+01  0.11186639757E+02  0.51100000000E-03 0.  1.
        -11    1    3    3    0    0 -0.15108509108E+01  0.33372170653E+02 -0.45181081727E+01  0.33710499052E+02  0.51100000000E-03 0. -1.
        -12    1    3    3    0    0 -0.21722577236E+01 -0.11788547735E+01 -0.14981487702E+01  0.28901300892E+01  0.00000000000E+00 0.  1.
</event>
<event>
 7    1  0.4432754E-010  0.4778727E+02  0.7816164E-02  0.1312668E+00
        -11   -1    0    0    0    0  0.00000000000E+00  0.00000000000E+00  0.45593999997E+02  0.45594000000E+02  0.51100000000E-03 0.  1.
         11   -1    0    0    0    0 -0.00000000000E+00 -0.00000000000E+00 -0.45593999997E+02  0.45594000000E+02  0.51100000000E-03 0. -1.
    9900012    2    1    2    0    0  0.18475327025E+02 -0.36716458414E+02 -0.13935100910E+02  0.47787273456E+02  0.20000010997E+02 0.  0.
        -12    1    1    2    0    0 -0.18475327025E+02  0.36716458414E+02  0.13935100910E+02  0.43400726544E+02  0.00000000000E+00 0.  1.
         11    1    3    3    0    0  0.57338844281E+01 -0.14227777501E+02 -0.11101796327E+02  0.18935600471E+02  0.51100000000E-03 0. -1.
        -11    1    3    3    0    0  0.55255855071E+01 -0.20081932553E+02 -0.38381674541E+01  0.21178943314E+02  0.51100000000E-03 0.  1.
        -12    1    3    3    0    0  0.72158570899E+01 -0.24067483601E+01  0.10048628709E+01  0.76727296708E+01  0.00000000000E+00 0.  1.
</event>
<event>
 7    1  0.4432754E-010  0.4778728E+02  0.7816164E-02  0.1312668E+00
        -11   -1    0    0    0    0  0.00000000000E+00  0.00000000000E+00  0.45593999997E+02  0.45594000000E+02  0.51100000000E-03 0.  1.
         11   -1    0    0    0    0 -0.00000000000E+00 -0.00000000000E+00 -0.45593999997E+02  0.45594000000E+02  0.51100000000E-03 0. -1.
    9900012    2    1    2    0    0 -0.11378927389E+02 -0.73493588819E+01 -0.41232628440E+02  0.47787277511E+02  0.20000029485E+02 0.  0.
        -12    1    1    2    0    0  0.11378927389E+02  0.73493588819E+01  0.41232628440E+02  0.43400722489E+02  0.00000000000E+00 0.  1.
         11    1    3    3    0    0 -0.63980425647E+01 -0.50977444780E+01 -0.85173191773E+01  0.11809600910E+02  0.51100000000E-03 0. -1.
        -11    1    3    3    0    0 -0.87207339031E+00  0.91691463397E-01  0.13367367961E+01  0.15986822216E+01  0.51100000000E-03 0.  1.
        -12    1    3    3    0    0 -0.41088114339E+01 -0.23433058673E+01 -0.34052046059E+02  0.34378994380E+02  0.00000000000E+00 0.  1.
</event>
<event>
 7    1  0.4432754E-010  0.4778727E+02  0.7816164E-02  0.1312668E+00
        -11   -1    0    0    0    0  0.00000000000E+00  0.00000000000E+00  0.45593999997E+02  0.45594000000E+02  0.51100000000E-03 0.  1.
         11   -1    0    0    0    0 -0.00000000000E+00 -0.00000000000E+00 -0.45593999997E+02  0.45594000000E+02  0.51100000000E-03 0. -1.
    9900012    2    1    2    0    0 -0.26695080624E+02 -0.10288351035E+02 -0.32636571518E+02  0.47787270778E+02  0.19999998785E+02 0.  0.
        -12    1    1    2    0    0  0.26695080624E+02  0.10288351035E+02  0.32636571518E+02  0.43400729222E+02  0.00000000000E+00 0.  1.
         11    1    3    3    0    0 -0.12183203324E+02 -0.69814139478E+01 -0.78667417486E+01  0.16095223203E+02  0.51100000000E-03 0. -1.
        -11    1    3    3    0    0 -0.99521773353E+01 -0.78975164765E+01 -0.19833098685E+02  0.23553522113E+02  0.51100000000E-03 0.  1.
         12    1    3    3    0    0 -0.45596999646E+01  0.45905793898E+01 -0.49367310848E+01  0.81385254625E+01  0.00000000000E+00 0. -1.
</event>
<event>
 7    1  0.4432754E-010  0.4778727E+02  0.7816164E-02  0.1312668E+00
        -11   -1    0    0    0    0  0.00000000000E+00  0.00000000000E+00  0.45593999997E+02  0.45594000000E+02  0.51100000000E-03 0.  1.
         11   -1    0    0    0    0 -0.00000000000E+00 -0.00000000000E+00 -0.45593999997E+02  0.45594000000E+02  0.51100000000E-03 0. -1.
    9900012    2    1    2    0    0  0.12655279831E+02 -0.85596506358E+01 -0.40622650268E+02  0.47787269114E+02  0.19999991199E+02 0.  0.
        -12    1    1    2    0    0 -0.12655279831E+02  0.85596506358E+01  0.40622650268E+02  0.43400730886E+02  0.00000000000E+00 0.  1.
         11    1    3    3    0    0  0.57714412681E+01 -0.74984991236E+01 -0.27813044055E+02  0.29378605196E+02  0.51100000000E-03 0. -1.
        -11    1    3    3    0    0  0.65658617741E+01  0.13896895033E+01 -0.14103606182E+02  0.15619010384E+02  0.51100000000E-03 0.  1.
         12    1    3    3    0    0  0.31797678897E+00 -0.24508410156E+01  0.12939999689E+01  0.27896535343E+01  0.00000000000E+00 0. -1.
</event>
<event>
 7    1  0.4432754E-010  0.4778728E+02  0.7816164E-02  0.1312668E+00
        -11   -1    0    0    0    0  0.00000000000E+00  0.00000000000E+00  0.45593999997E+02  0.45594000000E+02  0.51100000000E-03 0. -1.
         11   -1    0    0    0    0 -0.00000000000E+00 -0.00000000000E+00 -0.45593999997E+02  0.45594000000E+02  0.51100000000E-03 0.  1.
    9900012    2    1    2    0    0 -0.77803118116E+01  0.28057895119E+02  0.32184528469E+02  0.47787278771E+02  0.20000035230E+02 0.  0.
        -12    1    1    2    0    0  0.77803118116E+01 -0.28057895119E+02 -0.32184528469E+02  0.43400721229E+02  0.00000000000E+00 0.  1.
         11    1    3    3    0    0 -0.21593559930E+01  0.16559118374E+02  0.26153891605E+02  0.31030521523E+02  0.51100000000E-03 0. -1.
        -11    1    3    3    0    0 -0.47648049425E-01  0.78841462927E+01  0.63243989857E+01  0.10107425780E+02  0.51100000000E-03 0.  1.
        -12    1    3    3    0    0 -0.55733077692E+01  0.36146304517E+01 -0.29376212185E+00  0.66493314684E+01  0.00000000000E+00 0.  1.
</event>
<event>
 7    1  0.4432754E-010  0.4778727E+02  0.7816164E-02  0.1312668E+00
        -11   -1    0    0    0    0  0.00000000000E+00  0.00000000000E+00  0.45593999997E+02  0.45594000000E+02  0.51100000000E-03 0.  1.
         11   -1    0    0    0    0 -0.00000000000E+00 -0.00000000000E+00 -0.45593999997E+02  0.45594000000E+02  0.51100000000E-03 0. -1.
    9900012    2    1    2    0    0  0.21344497268E+02  0.19272159750E+01 -0.37740181935E+02  0.47787273537E+02  0.20000011363E+02 0.  0.
        -12    1    1    2    0    0 -0.21344497268E+02 -0.19272159750E+01  0.37740181935E+02  0.43400726463E+02  0.00000000000E+00 0.  1.
         11    1    3    3    0    0  0.38000055833E+01 -0.44311394635E+01 -0.12636752930E+02  0.13919862221E+02  0.51100000000E-03 0.  1.
        -11    1    3    3    0    0  0.10771363260E+02  0.19778125243E+01 -0.46813317613E+01  0.11910032585E+02  0.51100000000E-03 0. -1.
         12    1    3    3    0    0  0.67731284252E+01  0.43805429141E+01 -0.20422097244E+02  0.21957378730E+02  0.00000000000E+00 0. -1.
</event>
<event>
 7    1  0.4432754E-010  0.4778727E+02  0.7816164E-02  0.1312668E+00
        -11   -1    0    0    0    0  0.00000000000E+00  0.00000000000E+00  0.45593999997E+02  0.45594000000E+02  0.51100000000E-03 0.  1.
         11   -1    0    0    0    0 -0.00000000000E+00 -0.00000000000E+00 -0.45593999997E+02  0.45594000000E+02  0.51100000000E-03 0. -1.
    9900012    2    1    2    0    0  0.35266642986E+02  0.58898250075E+01 -0.24600755831E+02  0.47787270356E+02  0.19999996862E+02 0.  0.
        -12    1    1    2    0    0 -0.35266642986E+02 -0.58898250075E+01  0.24600755831E+02  0.43400729644E+02  0.00000000000E+00 0.  1.
         11    1    3    3    0    0  0.54928978601E+01  0.12275608778E+01 -0.78049657154E+01  0.96226983061E+01  0.51100000000E-03 0. -1.
        -11    1    3    3    0    0  0.28182572686E+02  0.90088854107E+01 -0.13771444241E+02  0.32635411692E+02  0.51100000000E-03 0.  1.
        -12    1    3    3    0    0  0.15911724398E+01 -0.43466212811E+01 -0.30243458746E+01  0.55291603579E+01  0.00000000000E+00 0.  1.
</event>
<event>
 7    1  0.4432754E-010  0.4778725E+02  0.7816164E-02  0.1312668E+00
        -11   -1    0    0    0    0  0.00000000000E+00  0.00000000000E+00  0.45593999997E+02  0.45594000000E+02  0.51100000000E-03 0. -1.
         11   -1    0    0    0    0 -0.00000000000E+00 -0.00000000000E+00 -0.45593999997E+02  0.45594000000E+02  0.51100000000E-03 0.  1.
    9900012    2    1    2    0    0 -0.37792378952E+02 -0.21327212101E+02  0.71472432402E+00  0.47787254457E+02  0.19999924369E+02 0.  0.
        -12    1    1    2    0    0  0.37792378952E+02  0.21327212101E+02 -0.71472432402E+00  0.43400745543E+02  0.00000000000E+00 0.  1.
         11    1    3    3    0    0 -0.77552129276E+01 -0.42322729843E+01  0.23551076950E+01  0.91434126388E+01  0.51100000000E-03 0. -1.
        -11    1    3    3    0    0 -0.20644386357E+02 -0.19245529327E+02 -0.45278972780E+01  0.28584662691E+02  0.51100000000E-03 0.  1.
         12    1    3    3    0    0 -0.93927796674E+01  0.21505902108E+01  0.28875139070E+01  0.10059179126E+02  0.00000000000E+00 0. -1.
</event>
<event>
 7    1  0.4432754E-010  0.4778727E+02  0.7816164E-02  0.1312668E+00
        -11   -1    0    0    0    0  0.00000000000E+00  0.00000000000E+00  0.45593999997E+02  0.45594000000E+02  0.51100000000E-03 0.  1.
         11   -1    0    0    0    0 -0.00000000000E+00 -0.00000000000E+00 -0.45593999997E+02  0.45594000000E+02  0.51100000000E-03 0. -1.
    9900012    2    1    2    0    0  0.11722115596E+01 -0.43245436933E+02 -0.34758230608E+01  0.47787271418E+02  0.20000001703E+02 0.  0.
        -12    1    1    2    0    0 -0.11722115596E+01  0.43245436933E+02  0.34758230608E+01  0.43400728582E+02  0.00000000000E+00 0.  1.
         11    1    3    3    0    0 -0.84587311185E-01 -0.21143102332E+02 -0.41302956155E+01  0.21542917012E+02  0.51100000000E-03 0. -1.
        -11    1    3    3    0    0  0.59896545992E+01 -0.17350070759E+02 -0.30123904797E+01  0.18600414356E+02  0.51100000000E-03 0.  1.
         12    1    3    3    0    0 -0.47328557284E+01 -0.47522638420E+01  0.36668630344E+01  0.76439400497E+01  0.00000000000E+00 0. -1.
</event>
<event>
 7    1  0.4432754E-010  0.4778727E+02  0.7816164E-02  0.1312668E+00
        -11   -1    0    0    0    0  0.00000000000E+00  0.00000000000E+00  0.45593999997E+02  0.45594000000E+02  0.51100000000E-03 0.  1.
         11   -1    0    0    0    0 -0.00000000000E+00 -0.00000000000E+00 -0.45593999997E+02  0.45594000000E+02  0.51100000000E-03 0. -1.
    9900012    2    1    2    0    0 -0.24067304512E+02 -0.28293710746E+02 -0.22446688123E+02  0.47787273947E+02  0.20000013232E+02 0.  0.
        -12    1    1    2    0    0  0.24067304512E+02  0.28293710746E+02  0.22446688123E+02  0.43400726053E+02  0.00000000000E+00 0.  1.
         11    1    3    3    0    0 -0.17755936584E+00 -0.12753783454E+01 -0.53494212270E+01  0.55022200044E+01  0.51100000000E-03 0.  1.
        -11    1    3    3    0    0 -0.94775021555E+00 -0.94877162082E+01 -0.21584285980E+01  0.97761855339E+01  0.51100000000E-03 0. -1.
        -12    1    3    3    0    0 -0.22941994930E+02 -0.17530616193E+02 -0.14938838298E+02  0.32508868408E+02  0.00000000000E+00 0.  1.
</event>
<event>
 7    1  0.4432754E-010  0.4778727E+02  0.7816164E-02  0.1312668E+00
        -11   -1    0    0    0    0  0.00000000000E+00  0.00000000000E+00  0.45593999997E+02  0.45594000000E+02  0.51100000000E-03 0.  1.
         11   -1    0    0    0    0 -0.00000000000E+00 -0.00000000000E+00 -0.45593999997E+02  0.45594000000E+02  0.51100000000E-03 0. -1.
    9900012    2    1    2    0    0 -0.36149102307E+02  0.11503364431E+02 -0.21084076703E+02  0.47787270959E+02  0.19999999612E+02 0.  0.
        -12    1    1    2    0    0  0.36149102307E+02 -0.11503364431E+02  0.21084076703E+02  0.43400729041E+02  0.00000000000E+00 0.  1.
         11    1    3    3    0    0 -0.24815681820E+02  0.60554249798E+01 -0.12339741447E+02  0.28368212054E+02  0.51100000000E-03 0. -1.
        -11    1    3    3    0    0 -0.67594475816E+01 -0.32269187608E+01 -0.44572767587E+01  0.87161030663E+01  0.51100000000E-03 0.  1.
         12    1    3    3    0    0 -0.45739729052E+01  0.86748582118E+01 -0.42870584977E+01  0.10702955839E+02  0.00000000000E+00 0. -1.
</event>
<event>
 7    1  0.4432754E-010  0.4778727E+02  0.7816164E-02  0.1312668E+00
        -11   -1    0    0    0    0  0.00000000000E+00  0.00000000000E+00  0.45593999997E+02  0.45594000000E+02  0.51100000000E-03 0.  1.
         11   -1    0    0    0    0 -0.00000000000E+00 -0.00000000000E+00 -0.45593999997E+02  0.45594000000E+02  0.51100000000E-03 0. -1.
    9900012    2    1    2    0    0 -0.11795289662E+02 -0.18227839756E+02 -0.37579787619E+02  0.47787269155E+02  0.19999991386E+02 0.  0.
        -12    1    1    2    0    0  0.11795289662E+02  0.18227839756E+02  0.37579787619E+02  0.43400730845E+02  0.00000000000E+00 0.  1.
         11    1    3    3    0    0 -0.35406314598E+01  0.14633213704E+01 -0.27080360388E+01  0.46915711671E+01  0.51100000000E-03 0. -1.
        -11    1    3    3    0    0 -0.86024148303E+01 -0.44244949763E+01 -0.10023074061E+02  0.13929813732E+02  0.51100000000E-03 0.  1.
         12    1    3    3    0    0  0.34775662810E+00 -0.15266666150E+02 -0.24848677519E+02  0.29165884256E+02  0.00000000000E+00 0. -1.
</event>
<event>
 7    1  0.4432754E-010  0.4778727E+02  0.7816164E-02  0.1312668E+00
        -11   -1    0    0    0    0  0.00000000000E+00  0.00000000000E+00  0.45593999997E+02  0.45594000000E+02  0.51100000000E-03 0.  1.
         11   -1    0    0    0    0 -0.00000000000E+00 -0.00000000000E+00 -0.45593999997E+02  0.45594000000E+02  0.51100000000E-03 0. -1.
    9900012    2    1    2    0    0 -0.37402311719E+01  0.43166787260E+02  0.25025159287E+01  0.47787269159E+02  0.19999991405E+02 0.  0.
        -12    1    1    2    0    0  0.37402311719E+01 -0.43166787260E+02 -0.25025159287E+01  0.43400730841E+02  0.00000000000E+00 0.  1.
         11    1    3    3    0    0 -0.46038170633E+01  0.15170547479E+02  0.49948825116E+01  0.16621958186E+02  0.51100000000E-03 0. -1.
        -11    1    3    3    0    0 -0.30452373234E+01  0.62968346302E+01  0.41560335514E+01  0.81361054478E+01  0.51100000000E-03 0.  1.
        -12    1    3    3    0    0  0.39088232148E+01  0.21699405150E+02 -0.66484001342E+01  0.23029205525E+02  0.00000000000E+00 0.  1.
</event>
<event>
 7    1  0.4432754E-010  0.4778727E+02  0.7816164E-02  0.1312668E+00
        -11   -1    0    0    0    0  0.00000000000E+00  0.00000000000E+00  0.45593999997E+02  0.45594000000E+02  0.51100000000E-03 0.  1.
         11   -1    0    0    0    0 -0.00000000000E+00 -0.00000000000E+00 -0.45593999997E+02  0.45594000000E+02  0.51100000000E-03 0. -1.
    9900012    2    1    2    0    0 -0.36547204722E+01 -0.88134191082E+01 -0.42338987847E+02  0.47787271550E+02  0.20000002305E+02 0.  0.
        -12    1    1    2    0    0  0.36547204722E+01  0.88134191082E+01  0.42338987847E+02  0.43400728450E+02  0.00000000000E+00 0.  1.
         11    1    3    3    0    0  0.12456161337E+01 -0.36233139604E+01 -0.56434310692E+01  0.68211639844E+01  0.51100000000E-03 0. -1.
        -11    1    3    3    0    0 -0.15463181732E+01  0.60377838236E+01 -0.16193274486E+02  0.17351313271E+02  0.51100000000E-03 0.  1.
        -12    1    3    3    0    0 -0.33540184327E+01 -0.11227888971E+02 -0.20502282292E+02  0.23614794295E+02  0.00000000000E+00 0.  1.
</event>
<event>
 7    1  0.4432754E-010  0.4778728E+02  0.7816164E-02  0.1312668E+00
        -11   -1    0    0    0    0  0.00000000000E+00  0.00000000000E+00  0.45593999997E+02  0.45594000000E+02  0.51100000000E-03 0.  1.
         11   -1    0    0    0    0 -0.00000000000E+00 -0.00000000000E+00 -0.45593999997E+02  0.45594000000E+02  0.51100000000E-03 0. -1.
    9900012    2    1    2    0    0  0.24511228083E+02 -0.33451832645E+02 -0.12798329145E+02  0.47787278366E+02  0.20000033382E+02 0.  0.
        -12    1    1    2    0    0 -0.24511228083E+02  0.33451832645E+02  0.12798329145E+02  0.43400721634E+02  0.00000000000E+00 0.  1.
         11    1    3    3    0    0  0.78335072555E+00 -0.29258246481E+01  0.16822900865E+01  0.34647061097E+01  0.51100000000E-03 0. -1.
        -11    1    3    3    0    0  0.49757198618E+01 -0.67732747851E+01  0.35190246450E+01  0.91114529121E+01  0.51100000000E-03 0.  1.
         12    1    3    3    0    0  0.18752157495E+02 -0.23752733212E+02 -0.17999643877E+02  0.35211119344E+02  0.00000000000E+00 0. -1.
</event>
<event>
 7    1  0.4432754E-010  0.4778727E+02  0.7816164E-02  0.1312668E+00
        -11   -1    0    0    0    0  0.00000000000E+00  0.00000000000E+00  0.45593999997E+02  0.45594000000E+02  0.51100000000E-03 0.  1.
         11   -1    0    0    0    0 -0.00000000000E+00 -0.00000000000E+00 -0.45593999997E+02  0.45594000000E+02  0.51100000000E-03 0. -1.
    9900012    2    1    2    0    0  0.25412126364E+02 -0.32412558971E+02  0.13684783556E+02  0.47787269057E+02  0.19999990939E+02 0.  0.
        -12    1    1    2    0    0 -0.25412126364E+02  0.32412558971E+02 -0.13684783556E+02  0.43400730943E+02  0.00000000000E+00 0.  1.
         11    1    3    3    0    0 -0.11536940248E+01  0.64174254111E+00  0.52417619599E+00  0.14204239992E+01  0.51100000000E-03 0. -1.
        -11    1    3    3    0    0  0.59958360170E+01 -0.91552426022E+00  0.20241885835E+00  0.60687072650E+01  0.51100000000E-03 0.  1.
        -12    1    3    3    0    0  0.20569984372E+02 -0.32138777252E+02  0.12958188501E+02  0.40298137793E+02  0.00000000000E+00 0.  1.
</event>
<event>
 7    1  0.4432754E-010  0.4778727E+02  0.7816164E-02  0.1312668E+00
        -11   -1    0    0    0    0  0.00000000000E+00  0.00000000000E+00  0.45593999997E+02  0.45594000000E+02  0.51100000000E-03 0.  1.
         11   -1    0    0    0    0 -0.00000000000E+00 -0.00000000000E+00 -0.45593999997E+02  0.45594000000E+02  0.51100000000E-03 0. -1.
    9900012    2    1    2    0    0 -0.48470084273E+01  0.85123085558E+01 -0.42280851759E+02  0.47787270592E+02  0.19999997939E+02 0.  0.
        -12    1    1    2    0    0  0.48470084273E+01 -0.85123085558E+01  0.42280851759E+02  0.43400729408E+02  0.00000000000E+00 0.  1.
         11    1    3    3    0    0  0.22682577212E+01  0.16890755640E+01  0.30901925906E+00  0.28449011431E+01  0.51100000000E-03 0. -1.
        -11    1    3    3    0    0 -0.42065171497E+01  0.92861954715E+00 -0.42794708955E+01  0.60721488948E+01  0.51100000000E-03 0.  1.
         12    1    3    3    0    0 -0.29087489988E+01  0.58946134447E+01 -0.38310400123E+02  0.38870220554E+02  0.00000000000E+00 0. -1.
</event>
<event>
 7    1  0.4432754E-010  0.4778726E+02  0.7816164E-02  0.1312668E+00
        -11   -1    0    0    0    0  0.00000000000E+00  0.00000000000E+00  0.45593999997E+02  0.45594000000E+02  0.51100000000E-03 0.  1.
         11   -1    0    0    0    0 -0.00000000000E+00 -0.00000000000E+00 -0.45593999997E+02  0.45594000000E+02  0.51100000000E-03 0. -1.
    9900012    2    1    2    0    0  0.30146209941E+02  0.84325431269E+01 -0.30061976551E+02  0.47787260472E+02  0.19999951796E+02 0.  0.
        -12    1    1    2    0    0 -0.30146209941E+02 -0.84325431269E+01  0.30061976551E+02  0.43400739528E+02  0.00000000000E+00 0.  1.
         11    1    3    3    0    0  0.59402780737E+01 -0.10307374297E+01 -0.10164204925E+02  0.11817799510E+02  0.51100000000E-03 0. -1.
        -11    1    3    3    0    0  0.10456537783E+01 -0.32137920297E+01 -0.10835582258E+01  0.35490773060E+01  0.51100000000E-03 0.  1.
         12    1    3    3    0    0  0.23160278089E+02  0.12677072586E+02 -0.18814213401E+02  0.32420383656E+02  0.00000000000E+00 0. -1.
</event>
<event>
 7    1  0.4432754E-010  0.4778727E+02  0.7816164E-02  0.1312668E+00
        -11   -1    0    0    0    0  0.00000000000E+00  0.00000000000E+00  0.45593999997E+02  0.45594000000E+02  0.51100000000E-03 0.  1.
         11   -1    0    0    0    0 -0.00000000000E+00 -0.00000000000E+00 -0.45593999997E+02  0.45594000000E+02  0.51100000000E-03 0. -1.
    9900012    2    1    2    0    0  0.12572554580E+02 -0.33619967216E+02 -0.24397787140E+02  0.47787270264E+02  0.19999996441E+02 0.  0.
        -12    1    1    2    0    0 -0.12572554580E+02  0.33619967216E+02  0.24397787140E+02  0.43400729736E+02  0.00000000000E+00 0.  1.
         11    1    3    3    0    0  0.52683712714E+01 -0.18196442778E+02 -0.18538999010E+02  0.26505862562E+02  0.51100000000E-03 0. -1.
        -11    1    3    3    0    0 -0.23687941912E+01 -0.78878288833E+00 -0.22724237960E+01  0.33759849726E+01  0.51100000000E-03 0.  1.
         12    1    3    3    0    0  0.96729775000E+01 -0.14634741550E+02 -0.35863643338E+01  0.17905422729E+02  0.00000000000E+00 0. -1.
</event>
<event>
 7    1  0.4432754E-010  0.4778727E+02  0.7816164E-02  0.1312668E+00
        -11   -1    0    0    0    0  0.00000000000E+00  0.00000000000E+00  0.45593999997E+02  0.45594000000E+02  0.51100000000E-03 0.  1.
         11   -1    0    0    0    0 -0.00000000000E+00 -0.00000000000E+00 -0.45593999997E+02  0.45594000000E+02  0.51100000000E-03 0. -1.
    9900012    2    1    2    0    0  0.11086223887E+02  0.27384141178E+02 -0.31793519331E+02  0.47787269366E+02  0.19999992348E+02 0.  0.
        -12    1    1    2    0    0 -0.11086223887E+02 -0.27384141178E+02  0.31793519331E+02  0.43400730634E+02  0.00000000000E+00 0.  1.
         11    1    3    3    0    0  0.19154857135E+01  0.34729985297E+01 -0.11581481976E+02  0.12241794367E+02  0.51100000000E-03 0. -1.
        -11    1    3    3    0    0 -0.37619044637E+01  0.56487396282E+01 -0.36550825030E+01  0.77084248032E+01  0.51100000000E-03 0.  1.
         12    1    3    3    0    0  0.12932642637E+02  0.18262403020E+02 -0.16556954852E+02  0.27837050196E+02  0.00000000000E+00 0. -1.
</event>
<event>
 7    1  0.4432754E-010  0.4778727E+02  0.7816164E-02  0.1312668E+00
        -11   -1    0    0    0    0  0.00000000000E+00  0.00000000000E+00  0.45593999997E+02  0.45594000000E+02  0.51100000000E-03 0. -1.
         11   -1    0    0    0    0 -0.00000000000E+00 -0.00000000000E+00 -0.45593999997E+02  0.45594000000E+02  0.51100000000E-03 0.  1.
    9900012    2    1    2    0    0  0.39183234803E+01 -0.32633485263E+02  0.28342995582E+02  0.47787273994E+02  0.20000013448E+02 0.  0.
        -12    1    1    2    0    0 -0.39183234803E+01  0.32633485263E+02 -0.28342995582E+02  0.43400726006E+02  0.00000000000E+00 0.  1.
         11    1    3    3    0    0 -0.23720410955E+01 -0.33088370937E+01  0.21492949692E+01  0.46037431507E+01  0.51100000000E-03 0. -1.
        -11    1    3    3    0    0 -0.29034221564E+01 -0.23284832046E+01  0.93466619588E+01  0.10060406765E+02  0.51100000000E-03 0.  1.
         12    1    3    3    0    0  0.91937867322E+01 -0.26996164964E+02  0.16847038654E+02  0.33123124078E+02  0.00000000000E+00 0. -1.
</event>
<event>
 7    1  0.4432754E-010  0.4778726E+02  0.7816164E-02  0.1312668E+00
        -11   -1    0    0    0    0  0.00000000000E+00  0.00000000000E+00  0.45593999997E+02  0.45594000000E+02  0.51100000000E-03 0. -1.
         11   -1    0    0    0    0 -0.00000000000E+00 -0.00000000000E+00 -0.45593999997E+02  0.45594000000E+02  0.51100000000E-03 0.  1.
    9900012    2    1    2    0    0  0.13553471147E+02 -0.33071046278E+02  0.24621811565E+02  0.47787259375E+02  0.19999946795E+02 0.  0.
        -12    1    1    2    0    0 -0.13553471147E+02  0.33071046278E+02 -0.24621811565E+02  0.43400740625E+02  0.00000000000E+00 0.  1.
         11    1    3    3    0    0  0.56797472412E+01 -0.30564188189E+01  0.26657600277E+01  0.69790759780E+01  0.51100000000E-03 0. -1.
        -11    1    3    3    0    0  0.60033750084E+01 -0.11450123995E+02  0.13326874539E+01  0.12996996080E+02  0.51100000000E-03 0.  1.
         12    1    3    3    0    0  0.18703488971E+01 -0.18564503464E+02  0.20623364083E+02  0.27811187317E+02  0.00000000000E+00 0. -1.
</event>
<event>
 7    1  0.4432754E-010  0.4778727E+02  0.7816164E-02  0.1312668E+00
        -11   -1    0    0    0    0  0.00000000000E+00  0.00000000000E+00  0.45593999997E+02  0.45594000000E+02  0.51100000000E-03 0.  1.
         11   -1    0    0    0    0 -0.00000000000E+00 -0.00000000000E+00 -0.45593999997E+02  0.45594000000E+02  0.51100000000E-03 0. -1.
    9900012    2    1    2    0    0 -0.26082518259E+02 -0.10733844444E+02 -0.32986514833E+02  0.47787270327E+02  0.19999996731E+02 0.  0.
        -12    1    1    2    0    0  0.26082518259E+02  0.10733844444E+02  0.32986514833E+02  0.43400729673E+02  0.00000000000E+00 0.  1.
         11    1    3    3    0    0 -0.18175635505E+02 -0.10874100062E+02 -0.19425885995E+02  0.28739603775E+02  0.51100000000E-03 0. -1.
        -11    1    3    3    0    0 -0.39328224715E+01 -0.53065425994E+01 -0.60871471670E+01  0.89821961594E+01  0.51100000000E-03 0.  1.
         12    1    3    3    0    0 -0.39740602825E+01  0.54467982175E+01 -0.74734816711E+01  0.10065470393E+02  0.00000000000E+00 0. -1.
</event>
<event>
 7    1  0.4432754E-010  0.4778727E+02  0.7816164E-02  0.1312668E+00
        -11   -1    0    0    0    0  0.00000000000E+00  0.00000000000E+00  0.45593999997E+02  0.45594000000E+02  0.51100000000E-03 0. -1.
         11   -1    0    0    0    0 -0.00000000000E+00 -0.00000000000E+00 -0.45593999997E+02  0.45594000000E+02  0.51100000000E-03 0.  1.
    9900012    2    1    2    0    0 -0.29140399482E+02 -0.16337433115E+02  0.27704675782E+02  0.47787266562E+02  0.19999979565E+02 0.  0.
        -12    1    1    2    0    0  0.29140399482E+02  0.16337433115E+02 -0.27704675782E+02  0.43400733438E+02  0.00000000000E+00 0.  1.
         11    1    3    3    0    0 -0.63645253917E-01 -0.17552430611E+01  0.98091475915E+01  0.99651545726E+01  0.51100000000E-03 0. -1.
        -11    1    3    3    0    0 -0.58432155857E+01 -0.62496539487E+01  0.57899860444E+01  0.10330792879E+02  0.51100000000E-03 0.  1.
        -12    1    3    3    0    0 -0.23233538642E+02 -0.83325361052E+01  0.12105542146E+02  0.27491319110E+02  0.00000000000E+00 0.  1.
</event>
<event>
 7    1  0.4432754E-010  0.4778727E+02  0.7816164E-02  0.1312668E+00
        -11   -1    0    0    0    0  0.00000000000E+00  0.00000000000E+00  0.45593999997E+02  0.45594000000E+02  0.51100000000E-03 0.  1.
         11   -1    0    0    0    0 -0.00000000000E+00 -0.00000000000E+00 -0.45593999997E+02  0.45594000000E+02  0.51100000000E-03 0. -1.
    9900012    2    1    2    0    0  0.13738857843E+01 -0.38531724792E+02 -0.19925908045E+02  0.47787272022E+02  0.20000004458E+02 0.  0.
        -12    1    1    2    0    0 -0.13738857843E+01  0.38531724792E+02  0.19925908045E+02  0.43400727978E+02  0.00000000000E+00 0.  1.
         11    1    3    3    0    0 -0.74713967641E+01 -0.15154693998E+02 -0.99779629889E+01  0.19622595788E+02  0.51100000000E-03 0. -1.
        -11    1    3    3    0    0 -0.19116866366E+00  0.56096933299E+00  0.21915825576E+00  0.63187233894E+00  0.51100000000E-03 0.  1.
        -12    1    3    3    0    0  0.90364512121E+01 -0.23938000127E+02 -0.10167103312E+02  0.27532803896E+02  0.00000000000E+00 0.  1.
</event>
<event>
 7    1  0.4432754E-010  0.4778727E+02  0.7816164E-02  0.1312668E+00
        -11   -1    0    0    0    0  0.00000000000E+00  0.00000000000E+00  0.45593999997E+02  0.45594000000E+02  0.51100000000E-03 0.  1.
         11   -1    0    0    0    0 -0.00000000000E+00 -0.00000000000E+00 -0.45593999997E+02  0.45594000000E+02  0.51100000000E-03 0. -1.
    9900012    2    1    2    0    0  0.18061996040E+02  0.39354121873E+02 -0.29394885038E+01  0.47787271872E+02  0.20000003772E+02 0.  0.
        -12    1    1    2    0    0 -0.18061996040E+02 -0.39354121873E+02  0.29394885038E+01  0.43400728128E+02  0.00000000000E+00 0.  1.
         11    1    3    3    0    0  0.45255787213E+01  0.82625178408E+01 -0.29771452843E+01  0.98799523347E+01  0.51100000000E-03 0. -1.
        -11    1    3    3    0    0  0.12332550551E+02  0.10934987559E+02  0.47878007514E+01  0.17163589144E+02  0.51100000000E-03 0.  1.
         12    1    3    3    0    0  0.12038667679E+01  0.20156616474E+02 -0.47501439709E+01  0.20743730393E+02  0.00000000000E+00 0. -1.
</event>
<event>
 7    1  0.4432754E-010  0.4778729E+02  0.7816164E-02  0.1312668E+00
        -11   -1    0    0    0    0  0.00000000000E+00  0.00000000000E+00  0.45593999997E+02  0.45594000000E+02  0.51100000000E-03 0.  1.
         11   -1    0    0    0    0 -0.00000000000E+00 -0.00000000000E+00 -0.45593999997E+02  0.45594000000E+02  0.51100000000E-03 0. -1.
    9900012    2    1    2    0    0 -0.61302505331E+01 -0.12807941157E+02 -0.41012174072E+02  0.47787288596E+02  0.20000080022E+02 0.  0.
        -12    1    1    2    0    0  0.61302505331E+01  0.12807941157E+02  0.41012174072E+02  0.43400711404E+02  0.00000000000E+00 0.  1.
         11    1    3    3    0    0 -0.57503031318E+01 -0.10615404912E+01 -0.21322774840E+02  0.22110033502E+02  0.51100000000E-03 0. -1.
        -11    1    3    3    0    0 -0.39023952364E+01 -0.35703874360E+01 -0.14356030687E+02  0.15299410851E+02  0.51100000000E-03 0.  1.
        -12    1    3    3    0    0  0.35224478351E+01 -0.81760132299E+01 -0.53333685443E+01  0.10377844242E+02  0.00000000000E+00 0.  1.
</event>
<event>
 7    1  0.4432754E-010  0.4778727E+02  0.7816164E-02  0.1312668E+00
        -11   -1    0    0    0    0  0.00000000000E+00  0.00000000000E+00  0.45593999997E+02  0.45594000000E+02  0.51100000000E-03 0.  1.
         11   -1    0    0    0    0 -0.00000000000E+00 -0.00000000000E+00 -0.45593999997E+02  0.45594000000E+02  0.51100000000E-03 0. -1.
    9900012    2    1    2    0    0  0.24688080846E+02  0.26911006478E+02 -0.23450366468E+02  0.47787270824E+02  0.19999998997E+02 0.  0.
        -12    1    1    2    0    0 -0.24688080846E+02 -0.26911006478E+02  0.23450366468E+02  0.43400729176E+02  0.00000000000E+00 0.  1.
         11    1    3    3    0    0  0.68955785892E+00  0.94457303649E+01 -0.63297834665E+01  0.11391377053E+02  0.51100000000E-03 0. -1.
        -11    1    3    3    0    0 -0.59974516894E+00 -0.76000462165E+00 -0.20631428044E+01  0.22790041213E+01  0.51100000000E-03 0.  1.
         12    1    3    3    0    0  0.24598268156E+02  0.18225280735E+02 -0.15057440197E+02  0.34116889650E+02  0.00000000000E+00 0. -1.
</event>
<event>
 7    1  0.4432754E-010  0.4778721E+02  0.7816164E-02  0.1312668E+00
        -11   -1    0    0    0    0  0.00000000000E+00  0.00000000000E+00  0.45593999997E+02  0.45594000000E+02  0.51100000000E-03 0.  1.
         11   -1    0    0    0    0 -0.00000000000E+00 -0.00000000000E+00 -0.45593999997E+02  0.45594000000E+02  0.51100000000E-03 0. -1.
    9900012    2    1    2    0    0  0.23623797170E+02 -0.21597212259E+02 -0.29310491529E+02  0.47787213327E+02  0.19999736843E+02 0.  0.
        -12    1    1    2    0    0 -0.23623797170E+02  0.21597212259E+02  0.29310491529E+02  0.43400786673E+02  0.00000000000E+00 0.  1.
         11    1    3    3    0    0 -0.14427583067E+01 -0.14861028746E+01 -0.49759125254E+01  0.53897828348E+01  0.51100000000E-03 0. -1.
        -11    1    3    3    0    0  0.15508305758E+01 -0.61121299323E+01 -0.91130516123E+01  0.11082008741E+02  0.51100000000E-03 0.  1.
         12    1    3    3    0    0  0.23515724901E+02 -0.13998979453E+02 -0.15221527392E+02  0.31315421752E+02  0.00000000000E+00 0. -1.
</event>
<event>
 7    1  0.4432754E-010  0.4778727E+02  0.7816164E-02  0.1312668E+00
        -11   -1    0    0    0    0  0.00000000000E+00  0.00000000000E+00  0.45593999997E+02  0.45594000000E+02  0.51100000000E-03 0.  1.
         11   -1    0    0    0    0 -0.00000000000E+00 -0.00000000000E+00 -0.45593999997E+02  0.45594000000E+02  0.51100000000E-03 0. -1.
    9900012    2    1    2    0    0  0.13098914427E+02 -0.11342529116E+02 -0.39791820937E+02  0.47787267985E+02  0.19999986051E+02 0.  0.
        -12    1    1    2    0    0 -0.13098914427E+02  0.11342529116E+02  0.39791820937E+02  0.43400732015E+02  0.00000000000E+00 0.  1.
         11    1    3    3    0    0  0.66384881997E+00 -0.93353517193E+01 -0.18573766813E+02  0.20798420634E+02  0.51100000000E-03 0. -1.
        -11    1    3    3    0    0 -0.14719222064E+01  0.16488022127E+01 -0.38639120290E+01  0.44513953034E+01  0.51100000000E-03 0.  1.
         12    1    3    3    0    0  0.13906987813E+02 -0.36559796097E+01 -0.17354142095E+02  0.22537452048E+02  0.00000000000E+00 0. -1.
</event>
<event>
 7    1  0.4432754E-010  0.4778727E+02  0.7816164E-02  0.1312668E+00
        -11   -1    0    0    0    0  0.00000000000E+00  0.00000000000E+00  0.45593999997E+02  0.45594000000E+02  0.51100000000E-03 0.  1.
         11   -1    0    0    0    0 -0.00000000000E+00 -0.00000000000E+00 -0.45593999997E+02  0.45594000000E+02  0.51100000000E-03 0. -1.
    9900012    2    1    2    0    0 -0.26534539283E+02 -0.31163430967E+02 -0.14435441497E+02  0.47787272174E+02  0.20000005151E+02 0.  0.
        -12    1    1    2    0    0  0.26534539283E+02  0.31163430967E+02  0.14435441497E+02  0.43400727826E+02  0.00000000000E+00 0.  1.
         11    1    3    3    0    0 -0.80526239967E+00 -0.52355290806E+01 -0.36519310120E+01  0.64339577760E+01  0.51100000000E-03 0. -1.
        -11    1    3    3    0    0 -0.86220860741E+01 -0.61194354074E+01  0.39873603918E+01  0.11299862881E+02  0.51100000000E-03 0.  1.
         12    1    3    3    0    0 -0.17107190809E+02 -0.19808466479E+02 -0.14770870877E+02  0.30053451517E+02  0.00000000000E+00 0. -1.
</event>
<event>
 7    1  0.4432754E-010  0.4778727E+02  0.7816164E-02  0.1312668E+00
        -11   -1    0    0    0    0  0.00000000000E+00  0.00000000000E+00  0.45593999997E+02  0.45594000000E+02  0.51100000000E-03 0.  1.
         11   -1    0    0    0    0 -0.00000000000E+00 -0.00000000000E+00 -0.45593999997E+02  0.45594000000E+02  0.51100000000E-03 0. -1.
    9900012    2    1    2    0    0  0.17624785538E+02  0.22658421229E+02 -0.32551284515E+02  0.47787271418E+02  0.20000001704E+02 0.  0.
        -12    1    1    2    0    0 -0.17624785538E+02 -0.22658421229E+02  0.32551284515E+02  0.43400728582E+02  0.00000000000E+00 0.  1.
         11    1    3    3    0    0  0.71422598820E+01  0.62835720332E+01 -0.16733547548E+02  0.19248552349E+02  0.51100000000E-03 0. -1.
        -11    1    3    3    0    0  0.28939281600E+01  0.36013659726E+01 -0.12484319392E+02  0.13311757510E+02  0.51100000000E-03 0.  1.
        -12    1    3    3    0    0  0.75885974963E+01  0.12773483223E+02 -0.33334175754E+01  0.15226961560E+02  0.00000000000E+00 0.  1.
</event>
<event>
 7    1  0.4432754E-010  0.4778728E+02  0.7816164E-02  0.1312668E+00
        -11   -1    0    0    0    0  0.00000000000E+00  0.00000000000E+00  0.45593999997E+02  0.45594000000E+02  0.51100000000E-03 0.  1.
         11   -1    0    0    0    0 -0.00000000000E+00 -0.00000000000E+00 -0.45593999997E+02  0.45594000000E+02  0.51100000000E-03 0. -1.
    9900012    2    1    2    0    0 -0.34439645063E+02 -0.23331899288E+02  0.12375627672E+02  0.47787276080E+02  0.20000022961E+02 0.  0.
        -12    1    1    2    0    0  0.34439645063E+02  0.23331899288E+02 -0.12375627672E+02  0.43400723920E+02  0.00000000000E+00 0.  1.
         11    1    3    3    0    0 -0.99694455771E+01 -0.27252492234E+01 -0.99916966089E+00  0.10383408338E+02  0.51100000000E-03 0. -1.
        -11    1    3    3    0    0 -0.11878987294E+02 -0.16192407790E+02  0.25922404613E+01  0.20249052324E+02  0.51100000000E-03 0.  1.
         12    1    3    3    0    0 -0.12591212192E+02 -0.44142422747E+01  0.10782556872E+02  0.17154815418E+02  0.00000000000E+00 0. -1.
</event>
<event>
 7    1  0.4432754E-010  0.4778726E+02  0.7816164E-02  0.1312668E+00
        -11   -1    0    0    0    0  0.00000000000E+00  0.00000000000E+00  0.45593999997E+02  0.45594000000E+02  0.51100000000E-03 0. -1.
         11   -1    0    0    0    0 -0.00000000000E+00 -0.00000000000E+00 -0.45593999997E+02  0.45594000000E+02  0.51100000000E-03 0.  1.
    9900012    2    1    2    0    0  0.23696695267E+02  0.28268386430E+01  0.36250519050E+02  0.47787256750E+02  0.19999934824E+02 0.  0.
        -12    1    1    2    0    0 -0.23696695267E+02 -0.28268386430E+01 -0.36250519050E+02  0.43400743250E+02  0.00000000000E+00 0.  1.
         11    1    3    3    0    0  0.22960161957E+02  0.34515801163E+01  0.24618269528E+02  0.33839941448E+02  0.51100000000E-03 0. -1.
        -11    1    3    3    0    0  0.27035571537E+01  0.14729621783E+01  0.10350909166E+02  0.10799081428E+02  0.51100000000E-03 0.  1.
         12    1    3    3    0    0 -0.19670238439E+01 -0.20977036517E+01  0.12813403558E+01  0.31482338731E+01  0.00000000000E+00 0. -1.
</event>
<event>
 7    1  0.4432754E-010  0.4778727E+02  0.7816164E-02  0.1312668E+00
        -11   -1    0    0    0    0  0.00000000000E+00  0.00000000000E+00  0.45593999997E+02  0.45594000000E+02  0.51100000000E-03 0.  1.
         11   -1    0    0    0    0 -0.00000000000E+00 -0.00000000000E+00 -0.45593999997E+02  0.45594000000E+02  0.51100000000E-03 0. -1.
    9900012    2    1    2    0    0 -0.37614230717E+02  0.10045044626E+01 -0.21628312892E+02  0.47787270741E+02  0.19999998615E+02 0.  0.
        -12    1    1    2    0    0  0.37614230717E+02 -0.10045044626E+01  0.21628312892E+02  0.43400729259E+02  0.00000000000E+00 0.  1.
         11    1    3    3    0    0 -0.12846147969E+02 -0.33350926554E+01 -0.40233241014E+01  0.13868435303E+02  0.51100000000E-03 0. -1.
        -11    1    3    3    0    0  0.15297303447E+01 -0.12400257424E+01 -0.42380461772E+00  0.20142863214E+01  0.51100000000E-03 0.  1.
         12    1    3    3    0    0 -0.26297813093E+02  0.55796228604E+01 -0.17181184173E+02  0.31904549116E+02  0.00000000000E+00 0. -1.
</event>
<event>
 7    1  0.4432754E-010  0.4778727E+02  0.7816164E-02  0.1312668E+00
        -11   -1    0    0    0    0  0.00000000000E+00  0.00000000000E+00  0.45593999997E+02  0.45594000000E+02  0.51100000000E-03 0.  1.
         11   -1    0    0    0    0 -0.00000000000E+00 -0.00000000000E+00 -0.45593999997E+02  0.45594000000E+02  0.51100000000E-03 0. -1.
    9900012    2    1    2    0    0  0.11086457911E+02  0.21587675661E+02 -0.35981746911E+02  0.47787269589E+02  0.19999993364E+02 0.  0.
        -12    1    1    2    0    0 -0.11086457911E+02 -0.21587675661E+02  0.35981746911E+02  0.43400730411E+02  0.00000000000E+00 0.  1.
         11    1    3    3    0    0 -0.18693488744E+01 -0.67201399784E+00 -0.58850668860E+01  0.62112865448E+01  0.51100000000E-03 0. -1.
        -11    1    3    3    0    0  0.13121681210E+02  0.10239435006E+02 -0.16741166564E+02  0.23607016016E+02  0.51100000000E-03 0.  1.
         12    1    3    3    0    0 -0.16587442394E+00  0.12020254653E+02 -0.13355513461E+02  0.17968967028E+02  0.00000000000E+00 0. -1.
</event>
<event>
 7    1  0.4432754E-010  0.4778727E+02  0.7816164E-02  0.1312668E+00
        -11   -1    0    0    0    0  0.00000000000E+00  0.00000000000E+00  0.45593999997E+02  0.45594000000E+02  0.51100000000E-03 0.  1.
         11   -1    0    0    0    0 -0.00000000000E+00 -0.00000000000E+00 -0.45593999997E+02  0.45594000000E+02  0.51100000000E-03 0. -1.
    9900012    2    1    2    0    0 -0.14261156959E+02 -0.12925132161E+02 -0.38899661873E+02  0.47787270363E+02  0.19999996893E+02 0.  0.
        -12    1    1    2    0    0  0.14261156959E+02  0.12925132161E+02  0.38899661873E+02  0.43400729637E+02  0.00000000000E+00 0.  1.
         11    1    3    3    0    0 -0.86325999290E+01 -0.83318213542E+01 -0.23519908367E+02  0.26403164933E+02  0.51100000000E-03 0. -1.
        -11    1    3    3    0    0  0.14187486562E+01 -0.37946911899E+01  0.41264332118E+00  0.40721988837E+01  0.51100000000E-03 0.  1.
         12    1    3    3    0    0 -0.70473056866E+01 -0.79861961688E+00 -0.15792396827E+02  0.17311906547E+02  0.00000000000E+00 0. -1.
</event>
<event>
 7    1  0.4432754E-010  0.4778727E+02  0.7816164E-02  0.1312668E+00
        -11   -1    0    0    0    0  0.00000000000E+00  0.00000000000E+00  0.45593999997E+02  0.45594000000E+02  0.51100000000E-03 0.  1.
         11   -1    0    0    0    0 -0.00000000000E+00 -0.00000000000E+00 -0.45593999997E+02  0.45594000000E+02  0.51100000000E-03 0. -1.
    9900012    2    1    2    0    0 -0.17913662351E+02 -0.35399493164E+02 -0.17595450945E+02  0.47787270639E+02  0.19999998152E+02 0.  0.
        -12    1    1    2    0    0  0.17913662351E+02  0.35399493164E+02  0.17595450945E+02  0.43400729361E+02  0.00000000000E+00 0.  1.
         11    1    3    3    0    0 -0.31562915406E+01 -0.64643072474E+00 -0.11157251608E+01  0.34095295668E+01  0.51100000000E-03 0. -1.
        -11    1    3    3    0    0 -0.16154993637E+02 -0.17439950543E+02 -0.83126880096E+01  0.25184052028E+02  0.51100000000E-03 0.  1.
         12    1    3    3    0    0  0.13976228272E+01 -0.17313111897E+02 -0.81670377747E+01  0.19193689044E+02  0.00000000000E+00 0. -1.
</event>
<event>
 7    1  0.4432754E-010  0.4778727E+02  0.7816164E-02  0.1312668E+00
        -11   -1    0    0    0    0  0.00000000000E+00  0.00000000000E+00  0.45593999997E+02  0.45594000000E+02  0.51100000000E-03 0.  1.
         11   -1    0    0    0    0 -0.00000000000E+00 -0.00000000000E+00 -0.45593999997E+02  0.45594000000E+02  0.51100000000E-03 0. -1.
    9900012    2    1    2    0    0 -0.27827453370E+02 -0.31766191153E+02 -0.10008261214E+02  0.47787270122E+02  0.19999995795E+02 0.  0.
        -12    1    1    2    0    0  0.27827453370E+02  0.31766191153E+02  0.10008261214E+02  0.43400729878E+02  0.00000000000E+00 0.  1.
         11    1    3    3    0    0 -0.26193390249E+01 -0.89667131493E+01 -0.34157009303E+01  0.99463508251E+01  0.51100000000E-03 0.  1.
        -11    1    3    3    0    0 -0.10441691363E+01 -0.92574660147E+01  0.20793908174E+00  0.93184872765E+01  0.51100000000E-03 0. -1.
         12    1    3    3    0    0 -0.24163945209E+02 -0.13542011989E+02 -0.68004993653E+01  0.28522432021E+02  0.00000000000E+00 0. -1.
</event>
<event>
 7    1  0.4432754E-010  0.4778727E+02  0.7816164E-02  0.1312668E+00
        -11   -1    0    0    0    0  0.00000000000E+00  0.00000000000E+00  0.45593999997E+02  0.45594000000E+02  0.51100000000E-03 0.  1.
         11   -1    0    0    0    0 -0.00000000000E+00 -0.00000000000E+00 -0.45593999997E+02  0.45594000000E+02  0.51100000000E-03 0. -1.
    9900012    2    1    2    0    0  0.10248449519E+02  0.81768447192E+01 -0.41373077924E+02  0.47787273232E+02  0.20000009975E+02 0.  0.
        -12    1    1    2    0    0 -0.10248449519E+02 -0.81768447192E+01  0.41373077924E+02  0.43400726768E+02  0.00000000000E+00 0.  1.
         11    1    3    3    0    0  0.49747567113E+01 -0.28948671607E+01 -0.58673119947E+01  0.82191125140E+01  0.51100000000E-03 0. -1.
        -11    1    3    3    0    0  0.24688571494E+01  0.45048310350E+01 -0.23444055649E+01  0.56466800858E+01  0.51100000000E-03 0.  1.
         12    1    3    3    0    0  0.28048356581E+01  0.65668808449E+01 -0.33161360364E+02  0.33921480632E+02  0.00000000000E+00 0. -1.
</event>
<event>
 7    1  0.4432754E-010  0.4778724E+02  0.7816164E-02  0.1312668E+00
        -11   -1    0    0    0    0  0.00000000000E+00  0.00000000000E+00  0.45593999997E+02  0.45594000000E+02  0.51100000000E-03 0.  1.
         11   -1    0    0    0    0 -0.00000000000E+00 -0.00000000000E+00 -0.45593999997E+02  0.45594000000E+02  0.51100000000E-03 0. -1.
    9900012    2    1    2    0    0 -0.31918187972E+02 -0.24220310292E+02 -0.16680276017E+02  0.47787242379E+02  0.19999869301E+02 0.  0.
        -12    1    1    2    0    0  0.31918187972E+02  0.24220310292E+02  0.16680276017E+02  0.43400757621E+02  0.00000000000E+00 0.  1.
         11    1    3    3    0    0 -0.31898481199E+01  0.16155043005E+01 -0.42655377254E+00  0.36009628650E+01  0.51100000000E-03 0. -1.
        -11    1    3    3    0    0 -0.31832667911E+01 -0.69756986457E+01 -0.86038627726E+01  0.11524756567E+02  0.51100000000E-03 0.  1.
         12    1    3    3    0    0 -0.25545073061E+02 -0.18860115947E+02 -0.76498594721E+01  0.32661522947E+02  0.00000000000E+00 0. -1.
</event>
<event>
 7    1  0.4432754E-010  0.4778726E+02  0.7816164E-02  0.1312668E+00
        -11   -1    0    0    0    0  0.00000000000E+00  0.00000000000E+00  0.45593999997E+02  0.45594000000E+02  0.51100000000E-03 0.  1.
         11   -1    0    0    0    0 -0.00000000000E+00 -0.00000000000E+00 -0.45593999997E+02  0.45594000000E+02  0.51100000000E-03 0. -1.
    9900012    2    1    2    0    0 -0.25200092928E+02  0.28457573231E+02 -0.20946273856E+02  0.47787256386E+02  0.19999933168E+02 0.  0.
        -12    1    1    2    0    0  0.25200092928E+02 -0.28457573231E+02  0.20946273856E+02  0.43400743614E+02  0.00000000000E+00 0.  1.
         11    1    3    3    0    0 -0.14920332442E+01  0.82943495353E+01 -0.18841534334E+01  0.86355330952E+01  0.51100000000E-03 0.  1.
        -11    1    3    3    0    0 -0.14429224267E+02  0.19551726406E+02 -0.10359669800E+02  0.26415814904E+02  0.51100000000E-03 0. -1.
         12    1    3    3    0    0 -0.92788354168E+01  0.61149728975E+00 -0.87024506219E+01  0.12735908387E+02  0.00000000000E+00 0. -1.
</event>
<event>
 7    1  0.4432754E-010  0.4778727E+02  0.7816164E-02  0.1312668E+00
        -11   -1    0    0    0    0  0.00000000000E+00  0.00000000000E+00  0.45593999997E+02  0.45594000000E+02  0.51100000000E-03 0. -1.
         11   -1    0    0    0    0 -0.00000000000E+00 -0.00000000000E+00 -0.45593999997E+02  0.45594000000E+02  0.51100000000E-03 0.  1.
    9900012    2    1    2    0    0 -0.34406181266E+01  0.35717461869E+02  0.24414095905E+02  0.47787274034E+02  0.20000013632E+02 0.  0.
        -12    1    1    2    0    0  0.34406181266E+01 -0.35717461869E+02 -0.24414095905E+02  0.43400725966E+02  0.00000000000E+00 0.  1.
         11    1    3    3    0    0  0.22098713070E+01  0.19673549905E+01  0.95034329879E+00  0.31075986708E+01  0.51100000000E-03 0. -1.
        -11    1    3    3    0    0 -0.29477528324E+01  0.13347422665E+02  0.19350978188E+02  0.23691840275E+02  0.51100000000E-03 0.  1.
         12    1    3    3    0    0 -0.27027366012E+01  0.20402684214E+02  0.41127744187E+01  0.20987835088E+02  0.00000000000E+00 0. -1.
</event>
<event>
 7    1  0.4432754E-010  0.4778728E+02  0.7816164E-02  0.1312668E+00
        -11   -1    0    0    0    0  0.00000000000E+00  0.00000000000E+00  0.45593999997E+02  0.45594000000E+02  0.51100000000E-03 0.  1.
         11   -1    0    0    0    0 -0.00000000000E+00 -0.00000000000E+00 -0.45593999997E+02  0.45594000000E+02  0.51100000000E-03 0. -1.
    9900012    2    1    2    0    0  0.30128980821E+02  0.10388394915E+02 -0.29460960125E+02  0.47787281046E+02  0.20000045602E+02 0.  0.
        -12    1    1    2    0    0 -0.30128980821E+02 -0.10388394915E+02  0.29460960125E+02  0.43400718954E+02  0.00000000000E+00 0.  1.
         11    1    3    3    0    0  0.24633152358E+02  0.10409085076E+02 -0.21409803736E+02  0.34256691952E+02  0.51100000000E-03 0. -1.
        -11    1    3    3    0    0  0.81247769593E+01 -0.67778875369E+00 -0.63102320476E+01  0.10309724875E+02  0.51100000000E-03 0.  1.
        -12    1    3    3    0    0 -0.26289484965E+01  0.65709859293E+00 -0.17409243416E+01  0.32208642197E+01  0.00000000000E+00 0.  1.
</event>
<event>
 7    1  0.4432754E-010  0.4778727E+02  0.7816164E-02  0.1312668E+00
        -11   -1    0    0    0    0  0.00000000000E+00  0.00000000000E+00  0.45593999997E+02  0.45594000000E+02  0.51100000000E-03 0. -1.
         11   -1    0    0    0    0 -0.00000000000E+00 -0.00000000000E+00 -0.45593999997E+02  0.45594000000E+02  0.51100000000E-03 0.  1.
    9900012    2    1    2    0    0 -0.23778767608E+02 -0.23631949661E+02  0.27563098394E+02  0.47787271586E+02  0.20000002469E+02 0.  0.
        -12    1    1    2    0    0  0.23778767608E+02  0.23631949661E+02 -0.27563098394E+02  0.43400728414E+02  0.00000000000E+00 0.  1.
         11    1    3    3    0    0 -0.41987847226E+01 -0.11728933645E+02  0.77720597418E+01  0.14683412086E+02  0.51100000000E-03 0. -1.
        -11    1    3    3    0    0 -0.11782060817E+01 -0.65982295281E+01  0.20785377631E+01  0.70174868700E+01  0.51100000000E-03 0.  1.
         12    1    3    3    0    0 -0.18401776804E+02 -0.53047864881E+01  0.17712500889E+02  0.26086372630E+02  0.00000000000E+00 0. -1.
</event>
<event>
 7    1  0.4432754E-010  0.4778727E+02  0.7816164E-02  0.1312668E+00
        -11   -1    0    0    0    0  0.00000000000E+00  0.00000000000E+00  0.45593999997E+02  0.45594000000E+02  0.51100000000E-03 0.  1.
         11   -1    0    0    0    0 -0.00000000000E+00 -0.00000000000E+00 -0.45593999997E+02  0.45594000000E+02  0.51100000000E-03 0. -1.
    9900012    2    1    2    0    0 -0.23149675867E+02 -0.21146759561E+02 -0.30008833437E+02  0.47787274004E+02  0.20000013495E+02 0.  0.
        -12    1    1    2    0    0  0.23149675867E+02  0.21146759561E+02  0.30008833437E+02  0.43400725996E+02  0.00000000000E+00 0.  1.
         11    1    3    3    0    0 -0.72019881637E+01 -0.11844884443E+02 -0.84563489475E+01  0.16238219076E+02  0.51100000000E-03 0. -1.
        -11    1    3    3    0    0 -0.59805223066E+00 -0.16851777910E-01  0.19172210706E+01  0.20084041794E+01  0.51100000000E-03 0.  1.
         12    1    3    3    0    0 -0.15349635473E+02 -0.92850233404E+01 -0.23469705560E+02  0.29540650749E+02  0.00000000000E+00 0. -1.
</event>
<event>
 7    1  0.4432754E-010  0.4778727E+02  0.7816164E-02  0.1312668E+00
        -11   -1    0    0    0    0  0.00000000000E+00  0.00000000000E+00  0.45593999997E+02  0.45594000000E+02  0.51100000000E-03 0.  1.
         11   -1    0    0    0    0 -0.00000000000E+00 -0.00000000000E+00 -0.45593999997E+02  0.45594000000E+02  0.51100000000E-03 0. -1.
    9900012    2    1    2    0    0 -0.22310647393E+01 -0.41974208712E+02 -0.10807931578E+02  0.47787271528E+02  0.20000002206E+02 0.  0.
        -12    1    1    2    0    0  0.22310647393E+01  0.41974208712E+02  0.10807931578E+02  0.43400728472E+02  0.00000000000E+00 0.  1.
         11    1    3    3    0    0 -0.96079421619E+01 -0.28592902051E+02 -0.11666787382E+02  0.32341622229E+02  0.51100000000E-03 0. -1.
        -11    1    3    3    0    0  0.97487715636E+00 -0.22693367511E+01 -0.59129250303E+00  0.25396656956E+01  0.51100000000E-03 0.  1.
         12    1    3    3    0    0  0.64020002662E+01 -0.11111969909E+02  0.14501483067E+01  0.12905983604E+02  0.00000000000E+00 0. -1.
</event>
<event>
 7    1  0.4432754E-010  0.4778728E+02  0.7816164E-02  0.1312668E+00
        -11   -1    0    0    0    0  0.00000000000E+00  0.00000000000E+00  0.45593999997E+02  0.45594000000E+02  0.51100000000E-03 0.  1.
         11   -1    0    0    0    0 -0.00000000000E+00 -0.00000000000E+00 -0.45593999997E+02  0.45594000000E+02  0.51100000000E-03 0. -1.
    9900012    2    1    2    0    0 -0.46616166753E+01  0.23186309303E+02 -0.36390758102E+02  0.47787275531E+02  0.20000020458E+02 0.  0.
        -12    1    1    2    0    0  0.46616166753E+01 -0.23186309303E+02  0.36390758102E+02  0.43400724469E+02  0.00000000000E+00 0.  1.
         11    1    3    3    0    0 -0.35108185117E+01  0.93628261571E+01 -0.17590885788E+02  0.20234317961E+02  0.51100000000E-03 0. -1.
        -11    1    3    3    0    0  0.21417670931E+01  0.91676387645E+01 -0.19648677860E+02  0.21787687089E+02  0.51100000000E-03 0.  1.
        -12    1    3    3    0    0 -0.32925652566E+01  0.46558443816E+01  0.84880554520E+00  0.57652704818E+01  0.00000000000E+00 0.  1.
</event>
<event>
 7    1  0.4432754E-010  0.4778727E+02  0.7816164E-02  0.1312668E+00
        -11   -1    0    0    0    0  0.00000000000E+00  0.00000000000E+00  0.45593999997E+02  0.45594000000E+02  0.51100000000E-03 0. -1.
         11   -1    0    0    0    0 -0.00000000000E+00 -0.00000000000E+00 -0.45593999997E+02  0.45594000000E+02  0.51100000000E-03 0.  1.
    9900012    2    1    2    0    0  0.23821198303E+02  0.74611250951E+01  0.35503598534E+02  0.47787269763E+02  0.19999994156E+02 0.  0.
        -12    1    1    2    0    0 -0.23821198303E+02 -0.74611250951E+01 -0.35503598534E+02  0.43400730237E+02  0.00000000000E+00 0.  1.
         11    1    3    3    0    0  0.59093670515E+01  0.20964308144E+01  0.12519115480E+02  0.14001567547E+02  0.51100000000E-03 0. -1.
        -11    1    3    3    0    0 -0.29942129257E+01  0.92304768441E+00  0.47560107069E+01  0.56953460103E+01  0.51100000000E-03 0.  1.
        -12    1    3    3    0    0  0.20906044177E+02  0.44416465963E+01  0.18228472347E+02  0.28090356205E+02  0.00000000000E+00 0.  1.
</event>
<event>
 7    1  0.4432754E-010  0.4778728E+02  0.7816164E-02  0.1312668E+00
        -11   -1    0    0    0    0  0.00000000000E+00  0.00000000000E+00  0.45593999997E+02  0.45594000000E+02  0.51100000000E-03 0.  1.
         11   -1    0    0    0    0 -0.00000000000E+00 -0.00000000000E+00 -0.45593999997E+02  0.45594000000E+02  0.51100000000E-03 0. -1.
    9900012    2    1    2    0    0  0.39892967834E+02  0.12025145416E+02 -0.12147822586E+02  0.47787278825E+02  0.20000035476E+02 0.  0.
        -12    1    1    2    0    0 -0.39892967834E+02 -0.12025145416E+02  0.12147822586E+02  0.43400721175E+02  0.00000000000E+00 0.  1.
         11    1    3    3    0    0  0.18900802286E+02  0.77047156534E+01 -0.11152200722E+02  0.23258859636E+02  0.51100000000E-03 0. -1.
        -11    1    3    3    0    0  0.18894064114E+02  0.32715091362E+01 -0.50636804471E+01  0.19832531122E+02  0.51100000000E-03 0.  1.
        -12    1    3    3    0    0  0.20981014345E+01  0.10489206264E+01  0.40680585829E+01  0.46958880676E+01  0.00000000000E+00 0.  1.
</event>
<event>
 7    1  0.4432754E-010  0.4778728E+02  0.7816164E-02  0.1312668E+00
        -11   -1    0    0    0    0  0.00000000000E+00  0.00000000000E+00  0.45593999997E+02  0.45594000000E+02  0.51100000000E-03 0. -1.
         11   -1    0    0    0    0 -0.00000000000E+00 -0.00000000000E+00 -0.45593999997E+02  0.45594000000E+02  0.51100000000E-03 0.  1.
    9900012    2    1    2    0    0  0.70261134511E+01  0.42802835381E+02  0.14743632542E+01  0.47787277266E+02  0.20000028365E+02 0.  0.
        -12    1    1    2    0    0 -0.70261134511E+01 -0.42802835381E+02 -0.14743632542E+01  0.43400722734E+02  0.00000000000E+00 0.  1.
         11    1    3    3    0    0 -0.36458148734E+00  0.47120009168E+01  0.25523931156E+01  0.53712738879E+01  0.51100000000E-03 0. -1.
        -11    1    3    3    0    0 -0.19998828116E+01 -0.68521796360E+00 -0.13679758647E+01  0.25180177015E+01  0.51100000000E-03 0.  1.
         12    1    3    3    0    0  0.93905777501E+01  0.38776052428E+02  0.28994600325E+00  0.39897985676E+02  0.00000000000E+00 0. -1.
</event>
<event>
 7    1  0.4432754E-010  0.4778727E+02  0.7816164E-02  0.1312668E+00
        -11   -1    0    0    0    0  0.00000000000E+00  0.00000000000E+00  0.45593999997E+02  0.45594000000E+02  0.51100000000E-03 0. -1.
         11   -1    0    0    0    0 -0.00000000000E+00 -0.00000000000E+00 -0.45593999997E+02  0.45594000000E+02  0.51100000000E-03 0.  1.
    9900012    2    1    2    0    0  0.52786726997E+01  0.26540694553E+02  0.33931554959E+02  0.47787271034E+02  0.19999999954E+02 0.  0.
        -12    1    1    2    0    0 -0.52786726997E+01 -0.26540694553E+02 -0.33931554959E+02  0.43400728966E+02  0.00000000000E+00 0.  1.
         11    1    3    3    0    0  0.20698235222E+01  0.60707141026E+01  0.43366872156E+01  0.77423895146E+01  0.51100000000E-03 0. -1.
        -11    1    3    3    0    0 -0.59583976752E+01  0.14444622034E+02  0.20618580361E+02  0.25870358810E+02  0.51100000000E-03 0.  1.
         12    1    3    3    0    0  0.91672468527E+01  0.60253584167E+01  0.89762873817E+01  0.14174522710E+02  0.00000000000E+00 0. -1.
</event>
<event>
 7    1  0.4432754E-010  0.4778727E+02  0.7816164E-02  0.1312668E+00
        -11   -1    0    0    0    0  0.00000000000E+00  0.00000000000E+00  0.45593999997E+02  0.45594000000E+02  0.51100000000E-03 0. -1.
         11   -1    0    0    0    0 -0.00000000000E+00 -0.00000000000E+00 -0.45593999997E+02  0.45594000000E+02  0.51100000000E-03 0.  1.
    9900012    2    1    2    0    0  0.26964882839E+02  0.33122352581E+02  0.77089628629E+01  0.47787271257E+02  0.20000000970E+02 0.  0.
        -12    1    1    2    0    0 -0.26964882839E+02 -0.33122352581E+02 -0.77089628629E+01  0.43400728743E+02  0.00000000000E+00 0.  1.
         11    1    3    3    0    0  0.14682021318E+02  0.18717555141E+02  0.80186491757E+01  0.25103931072E+02  0.51100000000E-03 0. -1.
        -11    1    3    3    0    0  0.11956769672E+02  0.10591019144E+02  0.44445367497E+01  0.16579744711E+02  0.51100000000E-03 0.  1.
        -12    1    3    3    0    0  0.32609184960E+00  0.38137782959E+01 -0.47542230624E+01  0.61035954741E+01  0.00000000000E+00 0.  1.
</event>
<event>
 7    1  0.4432754E-010  0.4778727E+02  0.7816164E-02  0.1312668E+00
        -11   -1    0    0    0    0  0.00000000000E+00  0.00000000000E+00  0.45593999997E+02  0.45594000000E+02  0.51100000000E-03 0.  1.
         11   -1    0    0    0    0 -0.00000000000E+00 -0.00000000000E+00 -0.45593999997E+02  0.45594000000E+02  0.51100000000E-03 0. -1.
    9900012    2    1    2    0    0  0.15400384870E+02  0.24938032459E+02 -0.32008527404E+02  0.47787272545E+02  0.20000006841E+02 0.  0.
        -12    1    1    2    0    0 -0.15400384870E+02 -0.24938032459E+02  0.32008527404E+02  0.43400727455E+02  0.00000000000E+00 0.  1.
         11    1    3    3    0    0 -0.17575460364E+01  0.99317696605E+01 -0.13477967816E+02  0.16834032000E+02  0.51100000000E-03 0. -1.
        -11    1    3    3    0    0  0.47562626041E+01  0.10771291985E+01 -0.84422586050E+01  0.97495626510E+01  0.51100000000E-03 0.  1.
        -12    1    3    3    0    0  0.12401668302E+02  0.13929133600E+02 -0.10088300983E+02  0.21203677894E+02  0.00000000000E+00 0.  1.
</event>
<event>
 7    1  0.4432754E-010  0.4778730E+02  0.7816164E-02  0.1312668E+00
        -11   -1    0    0    0    0  0.00000000000E+00  0.00000000000E+00  0.45593999997E+02  0.45594000000E+02  0.51100000000E-03 0. -1.
         11   -1    0    0    0    0 -0.00000000000E+00 -0.00000000000E+00 -0.45593999997E+02  0.45594000000E+02  0.51100000000E-03 0.  1.
    9900012    2    1    2    0    0 -0.43366093283E+02  0.32104844656E+00  0.17028548306E+01  0.47787299161E+02  0.20000128193E+02 0.  0.
        -12    1    1    2    0    0  0.43366093283E+02 -0.32104844656E+00 -0.17028548306E+01  0.43400700839E+02  0.00000000000E+00 0.  1.
         11    1    3    3    0    0 -0.42123987348E+01  0.58428361593E+00 -0.16322971992E+01  0.45552261033E+01  0.51100000000E-03 0. -1.
        -11    1    3    3    0    0 -0.32610931624E+02 -0.62822641100E+01 -0.12399440615E+01  0.33233675170E+02  0.51100000000E-03 0.  1.
         12    1    3    3    0    0 -0.65427629243E+01  0.60190289406E+01  0.45750960913E+01  0.99983978874E+01  0.00000000000E+00 0. -1.
</event>
<event>
 7    1  0.4432754E-010  0.4778727E+02  0.7816164E-02  0.1312668E+00
        -11   -1    0    0    0    0  0.00000000000E+00  0.00000000000E+00  0.45593999997E+02  0.45594000000E+02  0.51100000000E-03 0.  1.
         11   -1    0    0    0    0 -0.00000000000E+00 -0.00000000000E+00 -0.45593999997E+02  0.45594000000E+02  0.51100000000E-03 0. -1.
    9900012    2    1    2    0    0  0.24525482318E+02  0.77410594002E+01 -0.34959982583E+02  0.47787266530E+02  0.19999979416E+02 0.  0.
        -12    1    1    2    0    0 -0.24525482318E+02 -0.77410594002E+01  0.34959982583E+02  0.43400733470E+02  0.00000000000E+00 0.  1.
         11    1    3    3    0    0  0.59289823878E+01  0.47213285530E+01 -0.80383079552E+01  0.11047993958E+02  0.51100000000E-03 0. -1.
        -11    1    3    3    0    0  0.82816653491E+01  0.50124220951E+01 -0.22708495642E+01  0.99431943669E+01  0.51100000000E-03 0.  1.
         12    1    3    3    0    0  0.10314834581E+02 -0.19926912479E+01 -0.24650825063E+02  0.26796078205E+02  0.00000000000E+00 0. -1.
</event>
<event>
 7    1  0.4432754E-010  0.4778727E+02  0.7816164E-02  0.1312668E+00
        -11   -1    0    0    0    0  0.00000000000E+00  0.00000000000E+00  0.45593999997E+02  0.45594000000E+02  0.51100000000E-03 0.  1.
         11   -1    0    0    0    0 -0.00000000000E+00 -0.00000000000E+00 -0.45593999997E+02  0.45594000000E+02  0.51100000000E-03 0. -1.
    9900012    2    1    2    0    0 -0.71995228106E+01 -0.35133927610E+02  0.24441706564E+02  0.47787273995E+02  0.20000013451E+02 0.  0.
        -12    1    1    2    0    0  0.71995228106E+01  0.35133927610E+02 -0.24441706564E+02  0.43400726005E+02  0.00000000000E+00 0.  1.
         11    1    3    3    0    0 -0.89068529373E+00 -0.44789878224E+01  0.47092190585E+01  0.65598320564E+01  0.51100000000E-03 0. -1.
        -11    1    3    3    0    0 -0.31785880526E+01 -0.22903415601E+02  0.22655038598E+02  0.32371602406E+02  0.51100000000E-03 0.  1.
        -12    1    3    3    0    0 -0.31302494643E+01 -0.77515241871E+01 -0.29225510927E+01  0.88558395323E+01  0.00000000000E+00 0.  1.
</event>
<event>
 7    1  0.4432754E-010  0.4778727E+02  0.7816164E-02  0.1312668E+00
        -11   -1    0    0    0    0  0.00000000000E+00  0.00000000000E+00  0.45593999997E+02  0.45594000000E+02  0.51100000000E-03 0.  1.
         11   -1    0    0    0    0 -0.00000000000E+00 -0.00000000000E+00 -0.45593999997E+02  0.45594000000E+02  0.51100000000E-03 0. -1.
    9900012    2    1    2    0    0 -0.12861055150E+02  0.12740889936E+02 -0.39444725024E+02  0.47787270189E+02  0.19999996098E+02 0.  0.
        -12    1    1    2    0    0  0.12861055150E+02 -0.12740889936E+02  0.39444725024E+02  0.43400729811E+02  0.00000000000E+00 0.  1.
         11    1    3    3    0    0 -0.64915862580E+01  0.22820608348E+01 -0.12926808793E+02  0.14644141478E+02  0.51100000000E-03 0. -1.
        -11    1    3    3    0    0 -0.63082257302E+01  0.13279857061E+02 -0.13966153451E+02  0.20278110314E+02  0.51100000000E-03 0.  1.
        -12    1    3    3    0    0 -0.61243161355E-01 -0.28210279589E+01 -0.12551762780E+02  0.12865018397E+02  0.00000000000E+00 0.  1.
</event>
<event>
 7    1  0.4432754E-010  0.4778727E+02  0.7816164E-02  0.1312668E+00
        -11   -1    0    0    0    0  0.00000000000E+00  0.00000000000E+00  0.45593999997E+02  0.45594000000E+02  0.51100000000E-03 0. -1.
         11   -1    0    0    0    0 -0.00000000000E+00 -0.00000000000E+00 -0.45593999997E+02  0.45594000000E+02  0.51100000000E-03 0.  1.
    9900012    2    1    2    0    0 -0.99080689919E+00  0.10963829562E+02  0.41981375265E+02  0.47787272747E+02  0.20000007761E+02 0.  0.
        -12    1    1    2    0    0  0.99080689919E+00 -0.10963829562E+02 -0.41981375265E+02  0.43400727253E+02  0.00000000000E+00 0.  1.
         11    1    3    3    0    0 -0.13041469525E+01 -0.13405539552E+01  0.15420124988E+01  0.24239816394E+01  0.51100000000E-03 0. -1.
        -11    1    3    3    0    0  0.43691271535E+01 -0.65127545373E+00  0.25168889346E+01  0.50841087686E+01  0.51100000000E-03 0.  1.
         12    1    3    3    0    0 -0.40557871003E+01  0.12955658971E+02  0.37922473832E+02  0.40279182339E+02  0.00000000000E+00 0. -1.
</event>
<event>
 7    1  0.4432754E-010  0.4778727E+02  0.7816164E-02  0.1312668E+00
        -11   -1    0    0    0    0  0.00000000000E+00  0.00000000000E+00  0.45593999997E+02  0.45594000000E+02  0.51100000000E-03 0. -1.
         11   -1    0    0    0    0 -0.00000000000E+00 -0.00000000000E+00 -0.45593999997E+02  0.45594000000E+02  0.51100000000E-03 0.  1.
    9900012    2    1    2    0    0  0.33233183652E+02 -0.16418473134E+02  0.22574597563E+02  0.47787271771E+02  0.20000003312E+02 0.  0.
        -12    1    1    2    0    0 -0.33233183652E+02  0.16418473134E+02 -0.22574597563E+02  0.43400728229E+02  0.00000000000E+00 0.  1.
         11    1    3    3    0    0  0.12935248887E+02 -0.53356586855E+01  0.54810973191E+01  0.15027719237E+02  0.51100000000E-03 0. -1.
        -11    1    3    3    0    0  0.12812781183E+02 -0.14293017359E+02  0.87353267808E+01  0.21089420122E+02  0.51100000000E-03 0.  1.
         12    1    3    3    0    0  0.74851535826E+01  0.32102029106E+01  0.83581734628E+01  0.11670132412E+02  0.00000000000E+00 0. -1.
</event>
<event>
 7    1  0.4432754E-010  0.4778727E+02  0.7816164E-02  0.1312668E+00
        -11   -1    0    0    0    0  0.00000000000E+00  0.00000000000E+00  0.45593999997E+02  0.45594000000E+02  0.51100000000E-03 0.  1.
         11   -1    0    0    0    0 -0.00000000000E+00 -0.00000000000E+00 -0.45593999997E+02  0.45594000000E+02  0.51100000000E-03 0. -1.
    9900012    2    1    2    0    0  0.35838118330E+02  0.11432231103E+02 -0.21646176917E+02  0.47787267188E+02  0.19999982418E+02 0.  0.
        -12    1    1    2    0    0 -0.35838118330E+02 -0.11432231103E+02  0.21646176917E+02  0.43400732812E+02  0.00000000000E+00 0.  1.
         11    1    3    3    0    0  0.33799042698E+00  0.18593068887E+01  0.19125509531E+01  0.26887006238E+01  0.51100000000E-03 0. -1.
        -11    1    3    3    0    0  0.14832586198E+02  0.14584829133E+01 -0.38104986356E+01  0.15383519943E+02  0.51100000000E-03 0.  1.
         12    1    3    3    0    0  0.20667541705E+02  0.81144413012E+01 -0.19748229235E+02  0.29715046621E+02  0.00000000000E+00 0. -1.
</event>
<event>
 7    1  0.4432754E-010  0.4778727E+02  0.7816164E-02  0.1312668E+00
        -11   -1    0    0    0    0  0.00000000000E+00  0.00000000000E+00  0.45593999997E+02  0.45594000000E+02  0.51100000000E-03 0.  1.
         11   -1    0    0    0    0 -0.00000000000E+00 -0.00000000000E+00 -0.45593999997E+02  0.45594000000E+02  0.51100000000E-03 0. -1.
    9900012    2    1    2    0    0 -0.84344872750E+01 -0.11578351699E+01 -0.42557516023E+02  0.47787270421E+02  0.19999997160E+02 0.  0.
        -12    1    1    2    0    0  0.84344872750E+01  0.11578351699E+01  0.42557516023E+02  0.43400729579E+02  0.00000000000E+00 0.  1.
         11    1    3    3    0    0 -0.79196197006E+01 -0.49304088842E+00 -0.89066938411E+01  0.11928648748E+02  0.51100000000E-03 0. -1.
        -11    1    3    3    0    0 -0.52109303834E+01 -0.38975698152E+01 -0.20939094499E+02  0.21926936052E+02  0.51100000000E-03 0.  1.
        -12    1    3    3    0    0  0.46960628090E+01  0.32327755337E+01 -0.12711727683E+02  0.13931685621E+02  0.00000000000E+00 0.  1.
</event>
<event>
 7    1  0.4432754E-010  0.4778726E+02  0.7816164E-02  0.1312668E+00
        -11   -1    0    0    0    0  0.00000000000E+00  0.00000000000E+00  0.45593999997E+02  0.45594000000E+02  0.51100000000E-03 0. -1.
         11   -1    0    0    0    0 -0.00000000000E+00 -0.00000000000E+00 -0.45593999997E+02  0.45594000000E+02  0.51100000000E-03 0.  1.
    9900012    2    1    2    0    0 -0.26472859429E+02 -0.34015029146E+02  0.50783376960E+01  0.47787262588E+02  0.19999961443E+02 0.  0.
        -12    1    1    2    0    0  0.26472859429E+02  0.34015029146E+02 -0.50783376960E+01  0.43400737412E+02  0.00000000000E+00 0.  1.
         11    1    3    3    0    0 -0.80547874827E+01 -0.50520115774E+01 -0.24944772601E+01  0.98297934583E+01  0.51100000000E-03 0. -1.
        -11    1    3    3    0    0 -0.85020323584E+01 -0.12468348024E+02 -0.38533075131E+01  0.15575372731E+02  0.51100000000E-03 0.  1.
         12    1    3    3    0    0 -0.99160395876E+01 -0.16494669545E+02  0.11426122469E+02  0.22382096398E+02  0.00000000000E+00 0. -1.
</event>
<event>
 7    1  0.4432754E-010  0.4778727E+02  0.7816164E-02  0.1312668E+00
        -11   -1    0    0    0    0  0.00000000000E+00  0.00000000000E+00  0.45593999997E+02  0.45594000000E+02  0.51100000000E-03 0. -1.
         11   -1    0    0    0    0 -0.00000000000E+00 -0.00000000000E+00 -0.45593999997E+02  0.45594000000E+02  0.51100000000E-03 0.  1.
    9900012    2    1    2    0    0  0.35635582441E+02  0.62547171185E+00  0.24765658621E+02  0.47787265010E+02  0.19999972487E+02 0.  0.
        -12    1    1    2    0    0 -0.35635582441E+02 -0.62547171185E+00 -0.24765658621E+02  0.43400734990E+02  0.00000000000E+00 0.  1.
         11    1    3    3    0    0  0.24242437105E+02 -0.33149458092E+00  0.86138118114E+01  0.25729426725E+02  0.51100000000E-03 0. -1.
        -11    1    3    3    0    0  0.42378478543E+01 -0.20946221388E+01  0.72738936485E+00  0.47828748562E+01  0.51100000000E-03 0.  1.
        -12    1    3    3    0    0  0.71552974815E+01  0.30515884316E+01  0.15424457444E+02  0.17274963429E+02  0.00000000000E+00 0.  1.
</event>
<event>
 7    1  0.4432754E-010  0.4778726E+02  0.7816164E-02  0.1312668E+00
        -11   -1    0    0    0    0  0.00000000000E+00  0.00000000000E+00  0.45593999997E+02  0.45594000000E+02  0.51100000000E-03 0.  1.
         11   -1    0    0    0    0 -0.00000000000E+00 -0.00000000000E+00 -0.45593999997E+02  0.45594000000E+02  0.51100000000E-03 0. -1.
    9900012    2    1    2    0    0 -0.89696789386E+01  0.67350302061E+01 -0.41926222757E+02  0.47787263523E+02  0.19999965706E+02 0.  0.
        -12    1    1    2    0    0  0.89696789386E+01 -0.67350302061E+01  0.41926222757E+02  0.43400736477E+02  0.00000000000E+00 0.  1.
         11    1    3    3    0    0 -0.31766789652E+01  0.23581056207E+01 -0.14635351247E+01  0.42182800628E+01  0.51100000000E-03 0.  1.
        -11    1    3    3    0    0 -0.75193993396E+01  0.70106300525E+01 -0.16787549898E+02  0.19685327836E+02  0.51100000000E-03 0. -1.
         12    1    3    3    0    0  0.17263993662E+01 -0.26337054671E+01 -0.23675137733E+02  0.23883655624E+02  0.00000000000E+00 0. -1.
</event>
<event>
 7    1  0.4432754E-010  0.4778727E+02  0.7816164E-02  0.1312668E+00
        -11   -1    0    0    0    0  0.00000000000E+00  0.00000000000E+00  0.45593999997E+02  0.45594000000E+02  0.51100000000E-03 0.  1.
         11   -1    0    0    0    0 -0.00000000000E+00 -0.00000000000E+00 -0.45593999997E+02  0.45594000000E+02  0.51100000000E-03 0. -1.
    9900012    2    1    2    0    0 -0.62356562109E+01  0.20351031135E+02 -0.37822949651E+02  0.47787269627E+02  0.19999993537E+02 0.  0.
        -12    1    1    2    0    0  0.62356562109E+01 -0.20351031135E+02  0.37822949651E+02  0.43400730373E+02  0.00000000000E+00 0.  1.
         11    1    3    3    0    0 -0.36003488113E+01  0.24897833172E+00 -0.81789433748E+01  0.89397772211E+01  0.51100000000E-03 0. -1.
        -11    1    3    3    0    0  0.56101759906E+01  0.36220645046E+01 -0.76976938803E+01  0.10190579829E+02  0.51100000000E-03 0.  1.
         12    1    3    3    0    0 -0.82454833902E+01  0.16479988298E+02 -0.21946312396E+02  0.28656912577E+02  0.00000000000E+00 0. -1.
</event>
<event>
 7    1  0.4432754E-010  0.4778727E+02  0.7816164E-02  0.1312668E+00
        -11   -1    0    0    0    0  0.00000000000E+00  0.00000000000E+00  0.45593999997E+02  0.45594000000E+02  0.51100000000E-03 0.  1.
         11   -1    0    0    0    0 -0.00000000000E+00 -0.00000000000E+00 -0.45593999997E+02  0.45594000000E+02  0.51100000000E-03 0. -1.
    9900012    2    1    2    0    0 -0.25546548400E+02 -0.95396686112E+01 -0.33763763515E+02  0.47787272598E+02  0.20000007083E+02 0.  0.
        -12    1    1    2    0    0  0.25546548400E+02  0.95396686112E+01  0.33763763515E+02  0.43400727402E+02  0.00000000000E+00 0.  1.
         11    1    3    3    0    0 -0.71400127505E+01 -0.54350210408E+01 -0.11252758477E+02  0.14392491424E+02  0.51100000000E-03 0. -1.
        -11    1    3    3    0    0  0.27138274357E+01 -0.15273146020E+01 -0.13752538632E+01  0.34042433365E+01  0.51100000000E-03 0.  1.
        -12    1    3    3    0    0 -0.21120363085E+02 -0.25773329685E+01 -0.21135751175E+02  0.29990537837E+02  0.00000000000E+00 0.  1.
</event>
<event>
 7    1  0.4432754E-010  0.4778727E+02  0.7816164E-02  0.1312668E+00
        -11   -1    0    0    0    0  0.00000000000E+00  0.00000000000E+00  0.45593999997E+02  0.45594000000E+02  0.51100000000E-03 0.  1.
         11   -1    0    0    0    0 -0.00000000000E+00 -0.00000000000E+00 -0.45593999997E+02  0.45594000000E+02  0.51100000000E-03 0. -1.
    9900012    2    1    2    0    0 -0.51443470104E+01 -0.22799781524E+02 -0.36569511597E+02  0.47787268184E+02  0.19999986960E+02 0.  0.
        -12    1    1    2    0    0  0.51443470104E+01  0.22799781524E+02  0.36569511597E+02  0.43400731816E+02  0.00000000000E+00 0.  1.
         11    1    3    3    0    0 -0.10375249457E+01 -0.13845414304E+02 -0.18561579695E+02  0.23179823043E+02  0.51100000000E-03 0. -1.
        -11    1    3    3    0    0  0.15646523556E+01 -0.10284505348E+02 -0.83972165602E+01  0.13369084990E+02  0.51100000000E-03 0.  1.
         12    1    3    3    0    0 -0.56714744203E+01  0.13301381272E+01 -0.96107153412E+01  0.11238360152E+02  0.00000000000E+00 0. -1.
</event>
<event>
 7    1  0.4432754E-010  0.4778727E+02  0.7816164E-02  0.1312668E+00
        -11   -1    0    0    0    0  0.00000000000E+00  0.00000000000E+00  0.45593999997E+02  0.45594000000E+02  0.51100000000E-03 0.  1.
         11   -1    0    0    0    0 -0.00000000000E+00 -0.00000000000E+00 -0.45593999997E+02  0.45594000000E+02  0.51100000000E-03 0. -1.
    9900012    2    1    2    0    0 -0.24096770510E+02  0.11153353497E+02 -0.34330336852E+02  0.47787266462E+02  0.19999979109E+02 0.  0.
        -12    1    1    2    0    0  0.24096770510E+02 -0.11153353497E+02  0.34330336852E+02  0.43400733538E+02  0.00000000000E+00 0.  1.
         11    1    3    3    0    0 -0.26709503076E+01 -0.35767801119E+01 -0.23073238800E+00  0.44699629988E+01  0.51100000000E-03 0. -1.
        -11    1    3    3    0    0 -0.55503809306E+01  0.86041004524E+00 -0.77960885417E+01  0.96086435428E+01  0.51100000000E-03 0.  1.
         12    1    3    3    0    0 -0.15875439272E+02  0.13869723564E+02 -0.26303515922E+02  0.33708659921E+02  0.00000000000E+00 0. -1.
</event>
<event>
 7    1  0.4432754E-010  0.4778727E+02  0.7816164E-02  0.1312668E+00
        -11   -1    0    0    0    0  0.00000000000E+00  0.00000000000E+00  0.45593999997E+02  0.45594000000E+02  0.51100000000E-03 0. -1.
         11   -1    0    0    0    0 -0.00000000000E+00 -0.00000000000E+00 -0.45593999997E+02  0.45594000000E+02  0.51100000000E-03 0.  1.
    9900012    2    1    2    0    0 -0.52640756212E+01 -0.42926469439E+02 -0.36374816598E+01  0.47787267938E+02  0.19999985838E+02 0.  0.
        -12    1    1    2    0    0  0.52640756212E+01  0.42926469439E+02  0.36374816598E+01  0.43400732062E+02  0.00000000000E+00 0.  1.
         11    1    3    3    0    0  0.13694584574E+01 -0.14019361308E+01  0.20084580153E+01  0.28061976484E+01  0.51100000000E-03 0.  1.
        -11    1    3    3    0    0  0.42481347686E+01 -0.63216289839E+01  0.46855956822E+00  0.76308053541E+01  0.51100000000E-03 0. -1.
         12    1    3    3    0    0 -0.10881668847E+02 -0.35202904324E+02 -0.61144992433E+01  0.37350264936E+02  0.00000000000E+00 0. -1.
</event>
<event>
 7    1  0.4432754E-010  0.4778725E+02  0.7816164E-02  0.1312668E+00
        -11   -1    0    0    0    0  0.00000000000E+00  0.00000000000E+00  0.45593999997E+02  0.45594000000E+02  0.51100000000E-03 0.  1.
         11   -1    0    0    0    0 -0.00000000000E+00 -0.00000000000E+00 -0.45593999997E+02  0.45594000000E+02  0.51100000000E-03 0. -1.
    9900012    2    1    2    0    0 -0.30140210500E+02 -0.16783687726E+02 -0.26334395773E+02  0.47787252733E+02  0.19999916508E+02 0.  0.
        -12    1    1    2    0    0  0.30140210500E+02  0.16783687726E+02  0.26334395773E+02  0.43400747267E+02  0.00000000000E+00 0.  1.
         11    1    3    3    0    0 -0.25153320209E+01 -0.42545029275E+01 -0.67472332582E+01  0.83637818741E+01  0.51100000000E-03 0. -1.
        -11    1    3    3    0    0 -0.37550104101E+01  0.24129644743E+01 -0.76077519303E+01  0.88204529605E+01  0.51100000000E-03 0.  1.
         12    1    3    3    0    0 -0.23869868069E+02 -0.14942149273E+02 -0.11979410584E+02  0.30603017898E+02  0.00000000000E+00 0. -1.
</event>
<event>
 7    1  0.4432754E-010  0.4778727E+02  0.7816164E-02  0.1312668E+00
        -11   -1    0    0    0    0  0.00000000000E+00  0.00000000000E+00  0.45593999997E+02  0.45594000000E+02  0.51100000000E-03 0.  1.
         11   -1    0    0    0    0 -0.00000000000E+00 -0.00000000000E+00 -0.45593999997E+02  0.45594000000E+02  0.51100000000E-03 0. -1.
    9900012    2    1    2    0    0  0.18451631535E+02  0.32471445869E+02 -0.22108045477E+02  0.47787272149E+02  0.20000005036E+02 0.  0.
        -12    1    1    2    0    0 -0.18451631535E+02 -0.32471445869E+02  0.22108045477E+02  0.43400727851E+02  0.00000000000E+00 0.  1.
         11    1    3    3    0    0  0.28052737865E+01  0.13510262148E+02 -0.11785512388E+02  0.18146488554E+02  0.51100000000E-03 0. -1.
        -11    1    3    3    0    0  0.12808044177E+01  0.11483936375E+02 -0.35659911888E+01  0.12092871787E+02  0.51100000000E-03 0.  1.
        -12    1    3    3    0    0  0.14365553331E+02  0.74772473459E+01 -0.67565419007E+01  0.17547911809E+02  0.00000000000E+00 0.  1.
</event>
<event>
 7    1  0.4432754E-010  0.4778727E+02  0.7816164E-02  0.1312668E+00
        -11   -1    0    0    0    0  0.00000000000E+00  0.00000000000E+00  0.45593999997E+02  0.45594000000E+02  0.51100000000E-03 0. -1.
         11   -1    0    0    0    0 -0.00000000000E+00 -0.00000000000E+00 -0.45593999997E+02  0.45594000000E+02  0.51100000000E-03 0.  1.
    9900012    2    1    2    0    0 -0.38964826288E+02  0.13154496401E+02  0.13868116586E+02  0.47787272807E+02  0.20000008037E+02 0.  0.
        -12    1    1    2    0    0  0.38964826288E+02 -0.13154496401E+02 -0.13868116586E+02  0.43400727193E+02  0.00000000000E+00 0.  1.
         11    1    3    3    0    0  0.63901848731E+00 -0.54096097641E+00  0.39282945779E+00  0.92482357731E+00  0.51100000000E-03 0. -1.
        -11    1    3    3    0    0 -0.14939834349E+02  0.10669675673E+02 -0.47623060721E+00  0.18364842096E+02  0.51100000000E-03 0.  1.
         12    1    3    3    0    0 -0.24664010427E+02  0.30257817037E+01  0.13951517735E+02  0.28497607134E+02  0.00000000000E+00 0. -1.
</event>
<event>
 7    1  0.4432754E-010  0.4778727E+02  0.7816164E-02  0.1312668E+00
        -11   -1    0    0    0    0  0.00000000000E+00  0.00000000000E+00  0.45593999997E+02  0.45594000000E+02  0.51100000000E-03 0.  1.
         11   -1    0    0    0    0 -0.00000000000E+00 -0.00000000000E+00 -0.45593999997E+02  0.45594000000E+02  0.51100000000E-03 0. -1.
    9900012    2    1    2    0    0 -0.26614771691E+02 -0.31262523023E+02 -0.14068828321E+02  0.47787270188E+02  0.19999996095E+02 0.  0.
        -12    1    1    2    0    0  0.26614771691E+02  0.31262523023E+02  0.14068828321E+02  0.43400729812E+02  0.00000000000E+00 0.  1.
         11    1    3    3    0    0 -0.44895389316E+00 -0.27411317896E+00 -0.24026494738E+01  0.24595573562E+01  0.51100000000E-03 0. -1.
        -11    1    3    3    0    0 -0.81164847510E+01 -0.29509391176E+00 -0.11683738227E+01  0.82054556718E+01  0.51100000000E-03 0.  1.
         12    1    3    3    0    0 -0.18049333046E+02 -0.30693315932E+02 -0.10497805024E+02  0.37122257160E+02  0.00000000000E+00 0. -1.
</event>
<event>
 7    1  0.4432754E-010  0.4778728E+02  0.7816164E-02  0.1312668E+00
        -11   -1    0    0    0    0  0.00000000000E+00  0.00000000000E+00  0.45593999997E+02  0.45594000000E+02  0.51100000000E-03 0.  1.
         11   -1    0    0    0    0 -0.00000000000E+00 -0.00000000000E+00 -0.45593999997E+02  0.45594000000E+02  0.51100000000E-03 0. -1.
    9900012    2    1    2    0    0  0.29731807102E+02  0.26304105866E+01 -0.31507510828E+02  0.47787278209E+02  0.20000032667E+02 0.  0.
        -12    1    1    2    0    0 -0.29731807102E+02 -0.26304105866E+01  0.31507510828E+02  0.43400721791E+02  0.00000000000E+00 0.  1.
         11    1    3    3    0    0  0.13439673205E+02  0.90214510764E+00 -0.12249463834E+02  0.18206813179E+02  0.51100000000E-03 0. -1.
        -11    1    3    3    0    0  0.78305219153E+01  0.79576735115E+01 -0.13766801377E+02  0.17724741510E+02  0.51100000000E-03 0.  1.
        -12    1    3    3    0    0  0.84616119820E+01 -0.62294080325E+01 -0.54912456165E+01  0.11855723520E+02  0.00000000000E+00 0.  1.
</event>
<event>
 7    1  0.4432754E-010  0.4778727E+02  0.7816164E-02  0.1312668E+00
        -11   -1    0    0    0    0  0.00000000000E+00  0.00000000000E+00  0.45593999997E+02  0.45594000000E+02  0.51100000000E-03 0. -1.
         11   -1    0    0    0    0 -0.00000000000E+00 -0.00000000000E+00 -0.45593999997E+02  0.45594000000E+02  0.51100000000E-03 0.  1.
    9900012    2    1    2    0    0 -0.16342940343E+02 -0.22126718360E+02  0.33569925984E+02  0.47787270801E+02  0.19999998890E+02 0.  0.
        -12    1    1    2    0    0  0.16342940343E+02  0.22126718360E+02 -0.33569925984E+02  0.43400729199E+02  0.00000000000E+00 0.  1.
         11    1    3    3    0    0 -0.11666327385E+02 -0.52384876160E+01  0.12090220166E+02  0.17598817320E+02  0.51100000000E-03 0. -1.
        -11    1    3    3    0    0 -0.55215393373E+01 -0.95912442645E+01  0.19753768524E+02  0.22642675071E+02  0.51100000000E-03 0.  1.
        -12    1    3    3    0    0  0.84492637861E+00 -0.72969864799E+01  0.17259372936E+01  0.75457784101E+01  0.00000000000E+00 0.  1.
</event>
<event>
 7    1  0.4432754E-010  0.4778727E+02  0.7816164E-02  0.1312668E+00
        -11   -1    0    0    0    0  0.00000000000E+00  0.00000000000E+00  0.45593999997E+02  0.45594000000E+02  0.51100000000E-03 0.  1.
         11   -1    0    0    0    0 -0.00000000000E+00 -0.00000000000E+00 -0.45593999997E+02  0.45594000000E+02  0.51100000000E-03 0. -1.
    9900012    2    1    2    0    0 -0.20633654315E+01  0.84735848197E+01 -0.42515455642E+02  0.47787273220E+02  0.20000009918E+02 0.  0.
        -12    1    1    2    0    0  0.20633654315E+01 -0.84735848197E+01  0.42515455642E+02  0.43400726780E+02  0.00000000000E+00 0.  1.
         11    1    3    3    0    0 -0.42207104267E+01 -0.46889843267E+00 -0.97955148185E+01  0.10676440093E+02  0.51100000000E-03 0. -1.
        -11    1    3    3    0    0  0.41828602713E+01 -0.30242593726E+01 -0.12562020665E+02  0.13581120287E+02  0.51100000000E-03 0.  1.
         12    1    3    3    0    0 -0.20255152761E+01  0.11966742625E+02 -0.20157920158E+02  0.23529712839E+02  0.00000000000E+00 0. -1.
</event>
<event>
 7    1  0.4432754E-010  0.4778727E+02  0.7816164E-02  0.1312668E+00
        -11   -1    0    0    0    0  0.00000000000E+00  0.00000000000E+00  0.45593999997E+02  0.45594000000E+02  0.51100000000E-03 0.  1.
         11   -1    0    0    0    0 -0.00000000000E+00 -0.00000000000E+00 -0.45593999997E+02  0.45594000000E+02  0.51100000000E-03 0. -1.
    9900012    2    1    2    0    0  0.13755815260E+01 -0.29570971977E+02 -0.31737808113E+02  0.47787273370E+02  0.20000010602E+02 0.  0.
        -12    1    1    2    0    0 -0.13755815260E+01  0.29570971977E+02  0.31737808113E+02  0.43400726630E+02  0.00000000000E+00 0.  1.
         11    1    3    3    0    0  0.12571862924E+01 -0.18085661257E+02 -0.16656031778E+02  0.24618997854E+02  0.51100000000E-03 0. -1.
        -11    1    3    3    0    0 -0.16980721645E+01 -0.13039458675E+02 -0.73264000555E+01  0.15052809361E+02  0.51100000000E-03 0.  1.
        -12    1    3    3    0    0  0.18164673981E+01  0.15541479551E+01 -0.77553762802E+01  0.81154661556E+01  0.00000000000E+00 0.  1.
</event>
<event>
 7    1  0.4432754E-010  0.4778727E+02  0.7816164E-02  0.1312668E+00
        -11   -1    0    0    0    0  0.00000000000E+00  0.00000000000E+00  0.45593999997E+02  0.45594000000E+02  0.51100000000E-03 0. -1.
         11   -1    0    0    0    0 -0.00000000000E+00 -0.00000000000E+00 -0.45593999997E+02  0.45594000000E+02  0.51100000000E-03 0.  1.
    9900012    2    1    2    0    0 -0.39447573018E+02 -0.40295799162E+01 -0.17642992637E+02  0.47787265899E+02  0.19999976540E+02 0.  0.
        -12    1    1    2    0    0  0.39447573018E+02  0.40295799162E+01  0.17642992637E+02  0.43400734101E+02  0.00000000000E+00 0.  1.
         11    1    3    3    0    0  0.57006432899E+00  0.19528292238E+01  0.27702556556E+00  0.20531095299E+01  0.51100000000E-03 0. -1.
        -11    1    3    3    0    0 -0.13541568824E+02 -0.45544172263E+01 -0.10883872781E+01  0.14328342180E+02  0.51100000000E-03 0.  1.
         12    1    3    3    0    0 -0.26476068523E+02 -0.14279919138E+01 -0.16831630924E+02  0.31405814189E+02  0.00000000000E+00 0. -1.
</event>
<event>
 7    1  0.4432754E-010  0.4778727E+02  0.7816164E-02  0.1312668E+00
        -11   -1    0    0    0    0  0.00000000000E+00  0.00000000000E+00  0.45593999997E+02  0.45594000000E+02  0.51100000000E-03 0. -1.
         11   -1    0    0    0    0 -0.00000000000E+00 -0.00000000000E+00 -0.45593999997E+02  0.45594000000E+02  0.51100000000E-03 0.  1.
    9900012    2    1    2    0    0 -0.37330488242E+02 -0.16419473138E+02  0.14847853866E+02  0.47787271724E+02  0.20000003097E+02 0.  0.
        -12    1    1    2    0    0  0.37330488242E+02  0.16419473138E+02 -0.14847853866E+02  0.43400728276E+02  0.00000000000E+00 0.  1.
         11    1    3    3    0    0 -0.13003572640E+02 -0.65943959523E+01  0.14526081283E+01  0.14652270473E+02  0.51100000000E-03 0. -1.
        -11    1    3    3    0    0 -0.21051955353E+01 -0.33106441716E+01 -0.28490267307E+01  0.48486252326E+01  0.51100000000E-03 0.  1.
        -12    1    3    3    0    0 -0.22221720067E+02 -0.65144330140E+01  0.16244272469E+02  0.28286376018E+02  0.00000000000E+00 0.  1.
</event>
<event>
 7    1  0.4432754E-010  0.4778727E+02  0.7816164E-02  0.1312668E+00
        -11   -1    0    0    0    0  0.00000000000E+00  0.00000000000E+00  0.45593999997E+02  0.45594000000E+02  0.51100000000E-03 0.  1.
         11   -1    0    0    0    0 -0.00000000000E+00 -0.00000000000E+00 -0.45593999997E+02  0.45594000000E+02  0.51100000000E-03 0. -1.
    9900012    2    1    2    0    0  0.27098052400E+02  0.18024574946E+02 -0.28712949164E+02  0.47787271947E+02  0.20000004113E+02 0.  0.
        -12    1    1    2    0    0 -0.27098052400E+02 -0.18024574946E+02  0.28712949164E+02  0.43400728053E+02  0.00000000000E+00 0.  1.
         11    1    3    3    0    0  0.53547456016E+01  0.83861386789E+01 -0.13906198695E+02  0.17099210064E+02  0.51100000000E-03 0. -1.
        -11    1    3    3    0    0  0.33622801877E+01  0.65850843162E+01 -0.92260412834E+00  0.74511383124E+01  0.51100000000E-03 0.  1.
         12    1    3    3    0    0  0.18381026610E+02  0.30533519511E+01 -0.13884146341E+02  0.23236923570E+02  0.00000000000E+00 0. -1.
</event>
<event>
 7    1  0.4432754E-010  0.4778727E+02  0.7816164E-02  0.1312668E+00
        -11   -1    0    0    0    0  0.00000000000E+00  0.00000000000E+00  0.45593999997E+02  0.45594000000E+02  0.51100000000E-03 0.  1.
         11   -1    0    0    0    0 -0.00000000000E+00 -0.00000000000E+00 -0.45593999997E+02  0.45594000000E+02  0.51100000000E-03 0. -1.
    9900012    2    1    2    0    0  0.92944850229E+01 -0.14471320097E+02 -0.39847417267E+02  0.47787271664E+02  0.20000002826E+02 0.  0.
        -12    1    1    2    0    0 -0.92944850229E+01  0.14471320097E+02  0.39847417267E+02  0.43400728336E+02  0.00000000000E+00 0.  1.
         11    1    3    3    0    0  0.22049963969E+01 -0.22038545474E+00  0.56948151804E+00  0.22879878320E+01  0.51100000000E-03 0. -1.
        -11    1    3    3    0    0  0.93474084650E+00 -0.35152927459E+01 -0.45568237624E+00  0.36658791890E+01  0.51100000000E-03 0.  1.
         12    1    3    3    0    0  0.61547477796E+01 -0.10735641896E+02 -0.39961216409E+02  0.41833404643E+02  0.00000000000E+00 0. -1.
</event>
<event>
 7    1  0.4432754E-010  0.4778727E+02  0.7816164E-02  0.1312668E+00
        -11   -1    0    0    0    0  0.00000000000E+00  0.00000000000E+00  0.45593999997E+02  0.45594000000E+02  0.51100000000E-03 0.  1.
         11   -1    0    0    0    0 -0.00000000000E+00 -0.00000000000E+00 -0.45593999997E+02  0.45594000000E+02  0.51100000000E-03 0. -1.
    9900012    2    1    2    0    0  0.26058012721E+02 -0.30202608079E+02 -0.17099876792E+02  0.47787270190E+02  0.19999996105E+02 0.  0.
        -12    1    1    2    0    0 -0.26058012721E+02  0.30202608079E+02  0.17099876792E+02  0.43400729810E+02  0.00000000000E+00 0.  1.
         11    1    3    3    0    0  0.21170102893E+01 -0.27416695107E+01 -0.42451078925E+00  0.34897985532E+01  0.51100000000E-03 0. -1.
        -11    1    3    3    0    0  0.92282181644E+01 -0.18132894063E+02 -0.17529362450E+02  0.26855919380E+02  0.51100000000E-03 0.  1.
        -12    1    3    3    0    0  0.14712784267E+02 -0.93280445051E+01  0.85399644765E+00  0.17441552257E+02  0.00000000000E+00 0.  1.
</event>
<event>
 7    1  0.4432754E-010  0.4778727E+02  0.7816164E-02  0.1312668E+00
        -11   -1    0    0    0    0  0.00000000000E+00  0.00000000000E+00  0.45593999997E+02  0.45594000000E+02  0.51100000000E-03 0. -1.
         11   -1    0    0    0    0 -0.00000000000E+00 -0.00000000000E+00 -0.45593999997E+02  0.45594000000E+02  0.51100000000E-03 0.  1.
    9900012    2    1    2    0    0  0.16560447941E+02 -0.23982775024E+01  0.40045263635E+02  0.47787270622E+02  0.19999998072E+02 0.  0.
        -12    1    1    2    0    0 -0.16560447941E+02  0.23982775024E+01 -0.40045263635E+02  0.43400729378E+02  0.00000000000E+00 0.  1.
         11    1    3    3    0    0 -0.45986953529E+00 -0.17863680635E+01  0.74007949319E+01  0.76272115962E+01  0.51100000000E-03 0. -1.
        -11    1    3    3    0    0  0.94029447107E+01 -0.61118328182E+01  0.79726636156E+01  0.13759841388E+02  0.51100000000E-03 0.  1.
        -12    1    3    3    0    0  0.76173727652E+01  0.54999233793E+01  0.24671805088E+02  0.26400217637E+02  0.00000000000E+00 0.  1.
</event>
<event>
 7    1  0.4432754E-010  0.4778727E+02  0.7816164E-02  0.1312668E+00
        -11   -1    0    0    0    0  0.00000000000E+00  0.00000000000E+00  0.45593999997E+02  0.45594000000E+02  0.51100000000E-03 0.  1.
         11   -1    0    0    0    0 -0.00000000000E+00 -0.00000000000E+00 -0.45593999997E+02  0.45594000000E+02  0.51100000000E-03 0. -1.
    9900012    2    1    2    0    0  0.35522733999E+01 -0.68237303366E+01 -0.42713479612E+02  0.47787270944E+02  0.19999999541E+02 0.  0.
        -12    1    1    2    0    0 -0.35522733999E+01  0.68237303366E+01  0.42713479612E+02  0.43400729056E+02  0.00000000000E+00 0.  1.
         11    1    3    3    0    0 -0.51063928476E+01 -0.37476545512E+01 -0.15297747703E+02  0.16557211347E+02  0.51100000000E-03 0. -1.
        -11    1    3    3    0    0  0.10985458575E+01  0.36933025360E+01 -0.33259916924E+01  0.50901382715E+01  0.51100000000E-03 0.  1.
         12    1    3    3    0    0  0.75601203900E+01 -0.67693783214E+01 -0.24089740217E+02  0.26139921325E+02  0.00000000000E+00 0. -1.
</event>
<event>
 7    1  0.4432754E-010  0.4778727E+02  0.7816164E-02  0.1312668E+00
        -11   -1    0    0    0    0  0.00000000000E+00  0.00000000000E+00  0.45593999997E+02  0.45594000000E+02  0.51100000000E-03 0. -1.
         11   -1    0    0    0    0 -0.00000000000E+00 -0.00000000000E+00 -0.45593999997E+02  0.45594000000E+02  0.51100000000E-03 0.  1.
    9900012    2    1    2    0    0  0.28160658160E+02  0.31553399690E+02 -0.97459551810E+01  0.47787270255E+02  0.19999996401E+02 0.  0.
        -12    1    1    2    0    0 -0.28160658160E+02 -0.31553399690E+02  0.97459551810E+01  0.43400729745E+02  0.00000000000E+00 0.  1.
         11    1    3    3    0    0  0.87683874299E+01  0.23098399788E+02 -0.31140258951E+01  0.24902165537E+02  0.51100000000E-03 0.  1.
        -11    1    3    3    0    0  0.30188236628E+01  0.11179296069E+00  0.69819095027E+00  0.31005265420E+01  0.51100000000E-03 0. -1.
        -12    1    3    3    0    0  0.16373447068E+02  0.83432069414E+01 -0.73301202362E+01  0.19784578176E+02  0.00000000000E+00 0.  1.
</event>
<event>
 7    1  0.4432754E-010  0.4778727E+02  0.7816164E-02  0.1312668E+00
        -11   -1    0    0    0    0  0.00000000000E+00  0.00000000000E+00  0.45593999997E+02  0.45594000000E+02  0.51100000000E-03 0.  1.
         11   -1    0    0    0    0 -0.00000000000E+00 -0.00000000000E+00 -0.45593999997E+02  0.45594000000E+02  0.51100000000E-03 0. -1.
    9900012    2    1    2    0    0 -0.62829050781E+00  0.23022852881E+02 -0.36785551595E+02  0.47787270630E+02  0.19999998109E+02 0.  0.
        -12    1    1    2    0    0  0.62829050781E+00 -0.23022852881E+02  0.36785551595E+02  0.43400729370E+02  0.00000000000E+00 0.  1.
         11    1    3    3    0    0  0.86123297199E+00  0.14279747305E+02 -0.16443107160E+02  0.21795152642E+02  0.51100000000E-03 0. -1.
        -11    1    3    3    0    0 -0.80472616130E+00  0.11944430185E+02 -0.11653548695E+02  0.16706950472E+02  0.51100000000E-03 0.  1.
         12    1    3    3    0    0 -0.68479731850E+00 -0.32013246091E+01 -0.86888957394E+01  0.92851675155E+01  0.00000000000E+00 0. -1.
</event>
<event>
 7    1  0.4432754E-010  0.4778727E+02  0.7816164E-02  0.1312668E+00
        -11   -1    0    0    0    0  0.00000000000E+00  0.00000000000E+00  0.45593999997E+02  0.45594000000E+02  0.51100000000E-03 0.  1.
         11   -1    0    0    0    0 -0.00000000000E+00 -0.00000000000E+00 -0.45593999997E+02  0.45594000000E+02  0.51100000000E-03 0. -1.
    9900012    2    1    2    0    0  0.30016889493E+01 -0.25686660011E+02 -0.34854106465E+02  0.47787269862E+02  0.19999994608E+02 0.  0.
        -12    1    1    2    0    0 -0.30016889493E+01  0.25686660011E+02  0.34854106465E+02  0.43400730138E+02  0.00000000000E+00 0.  1.
         11    1    3    3    0    0 -0.85160262540E+00 -0.14387333075E+01 -0.46144936044E+01  0.49080273071E+01  0.51100000000E-03 0. -1.
        -11    1    3    3    0    0 -0.22780512985E+01 -0.15802045629E+02 -0.70567863022E+01  0.17455440325E+02  0.51100000000E-03 0.  1.
         12    1    3    3    0    0  0.61313428732E+01 -0.84458810744E+01 -0.23182826559E+02  0.25423802229E+02  0.00000000000E+00 0. -1.
</event>
<event>
 7    1  0.4432754E-010  0.4778727E+02  0.7816164E-02  0.1312668E+00
        -11   -1    0    0    0    0  0.00000000000E+00  0.00000000000E+00  0.45593999997E+02  0.45594000000E+02  0.51100000000E-03 0.  1.
         11   -1    0    0    0    0 -0.00000000000E+00 -0.00000000000E+00 -0.45593999997E+02  0.45594000000E+02  0.51100000000E-03 0. -1.
    9900012    2    1    2    0    0 -0.25798435652E+02 -0.72550278259E+01 -0.34138379338E+02  0.47787266657E+02  0.19999979998E+02 0.  0.
        -12    1    1    2    0    0  0.25798435652E+02  0.72550278259E+01  0.34138379338E+02  0.43400733343E+02  0.00000000000E+00 0.  1.
         11    1    3    3    0    0  0.27499792464E+00 -0.24086055525E+01 -0.88958015949E+00  0.25823163415E+01  0.51100000000E-03 0.  1.
        -11    1    3    3    0    0 -0.85838112429E+01 -0.92088433409E+01 -0.13043642904E+02  0.18127913051E+02  0.51100000000E-03 0. -1.
        -12    1    3    3    0    0 -0.17489622334E+02  0.43624210674E+01 -0.20205156275E+02  0.27077037265E+02  0.00000000000E+00 0.  1.
</event>
<event>
 7    1  0.4432754E-010  0.4778727E+02  0.7816164E-02  0.1312668E+00
        -11   -1    0    0    0    0  0.00000000000E+00  0.00000000000E+00  0.45593999997E+02  0.45594000000E+02  0.51100000000E-03 0. -1.
         11   -1    0    0    0    0 -0.00000000000E+00 -0.00000000000E+00 -0.45593999997E+02  0.45594000000E+02  0.51100000000E-03 0.  1.
    9900012    2    1    2    0    0 -0.23730475300E+02 -0.14202048704E+02  0.33448314079E+02  0.47787270052E+02  0.19999995473E+02 0.  0.
        -12    1    1    2    0    0  0.23730475300E+02  0.14202048704E+02 -0.33448314079E+02  0.43400729948E+02  0.00000000000E+00 0.  1.
         11    1    3    3    0    0 -0.48951250226E+01 -0.82165682808E+00  0.54595693536E+00  0.49935396430E+01  0.51100000000E-03 0. -1.
        -11    1    3    3    0    0 -0.91864991554E+01 -0.28827260312E+00  0.49114902409E+01  0.10421017439E+02  0.51100000000E-03 0.  1.
         12    1    3    3    0    0 -0.96488511218E+01 -0.13092119273E+02  0.27990866902E+02  0.32372712969E+02  0.00000000000E+00 0. -1.
</event>
<event>
 7    1  0.4432754E-010  0.4778727E+02  0.7816164E-02  0.1312668E+00
        -11   -1    0    0    0    0  0.00000000000E+00  0.00000000000E+00  0.45593999997E+02  0.45594000000E+02  0.51100000000E-03 0.  1.
         11   -1    0    0    0    0 -0.00000000000E+00 -0.00000000000E+00 -0.45593999997E+02  0.45594000000E+02  0.51100000000E-03 0. -1.
    9900012    2    1    2    0    0  0.13299632451E+02 -0.37665926577E+02 -0.16971183359E+02  0.47787270595E+02  0.19999997952E+02 0.  0.
        -12    1    1    2    0    0 -0.13299632451E+02  0.37665926577E+02  0.16971183359E+02  0.43400729405E+02  0.00000000000E+00 0.  1.
         11    1    3    3    0    0  0.83337968950E+01 -0.29684595654E+02 -0.12611098475E+02  0.33311667548E+02  0.51100000000E-03 0. -1.
        -11    1    3    3    0    0  0.73134509396E+01 -0.86346060218E+01 -0.31014970630E+01  0.11732956579E+02  0.51100000000E-03 0.  1.
        -12    1    3    3    0    0 -0.23476153835E+01  0.65327509877E+00 -0.12585878211E+01  0.27426464678E+01  0.00000000000E+00 0.  1.
</event>
<event>
 7    1  0.4432754E-010  0.4778726E+02  0.7816164E-02  0.1312668E+00
        -11   -1    0    0    0    0  0.00000000000E+00  0.00000000000E+00  0.45593999997E+02  0.45594000000E+02  0.51100000000E-03 0.  1.
         11   -1    0    0    0    0 -0.00000000000E+00 -0.00000000000E+00 -0.45593999997E+02  0.45594000000E+02  0.51100000000E-03 0. -1.
    9900012    2    1    2    0    0  0.21169684129E+02 -0.50305281280E+01 -0.37552126728E+02  0.47787263127E+02  0.19999963899E+02 0.  0.
        -12    1    1    2    0    0 -0.21169684129E+02  0.50305281280E+01  0.37552126728E+02  0.43400736873E+02  0.00000000000E+00 0.  1.
         11    1    3    3    0    0  0.12689147848E+02 -0.13909269931E+01 -0.20269295221E+02  0.23953986725E+02  0.51100000000E-03 0. -1.
        -11    1    3    3    0    0  0.33172885159E+01  0.51015043072E+01 -0.81988034262E+01  0.10210295156E+02  0.51100000000E-03 0.  1.
        -12    1    3    3    0    0  0.51632477647E+01 -0.87411054422E+01 -0.90840280806E+01  0.13622981245E+02  0.00000000000E+00 0.  1.
</event>
<event>
 7    1  0.4432754E-010  0.4778726E+02  0.7816164E-02  0.1312668E+00
        -11   -1    0    0    0    0  0.00000000000E+00  0.00000000000E+00  0.45593999997E+02  0.45594000000E+02  0.51100000000E-03 0.  1.
         11   -1    0    0    0    0 -0.00000000000E+00 -0.00000000000E+00 -0.45593999997E+02  0.45594000000E+02  0.51100000000E-03 0. -1.
    9900012    2    1    2    0    0 -0.59466010189E+01 -0.40661233333E+02 -0.13961584733E+02  0.47787264890E+02  0.19999971940E+02 0.  0.
        -12    1    1    2    0    0  0.59466010189E+01  0.40661233333E+02  0.13961584733E+02  0.43400735110E+02  0.00000000000E+00 0.  1.
         11    1    3    3    0    0 -0.17034325696E+01 -0.22567521650E+02 -0.87148029938E+01  0.24251649581E+02  0.51100000000E-03 0.  1.
        -11    1    3    3    0    0 -0.35772856846E+01 -0.19304385779E+02 -0.73965410554E+01  0.20980112083E+02  0.51100000000E-03 0. -1.
        -12    1    3    3    0    0 -0.66588276475E+00  0.12106740954E+01  0.21497593161E+01  0.25555032262E+01  0.00000000000E+00 0.  1.
</event>
<event>
 7    1  0.4432754E-010  0.4778730E+02  0.7816164E-02  0.1312668E+00
        -11   -1    0    0    0    0  0.00000000000E+00  0.00000000000E+00  0.45593999997E+02  0.45594000000E+02  0.51100000000E-03 0.  1.
         11   -1    0    0    0    0 -0.00000000000E+00 -0.00000000000E+00 -0.45593999997E+02  0.45594000000E+02  0.51100000000E-03 0. -1.
    9900012    2    1    2    0    0  0.20020297791E+02  0.37893205801E+02  0.68493233628E+01  0.47787301848E+02  0.20000140447E+02 0.  0.
        -12    1    1    2    0    0 -0.20020297791E+02 -0.37893205801E+02 -0.68493233628E+01  0.43400698152E+02  0.00000000000E+00 0.  1.
         11    1    3    3    0    0  0.36950719501E+01  0.74395341566E+01  0.42348640595E+01  0.93238564472E+01  0.51100000000E-03 0. -1.
        -11    1    3    3    0    0  0.35860818679E+01 -0.13802229715E+01 -0.10406551309E+01  0.39809498837E+01  0.51100000000E-03 0.  1.
        -12    1    3    3    0    0  0.12739143973E+02  0.31833894616E+02  0.36551144342E+01  0.34482495517E+02  0.00000000000E+00 0.  1.
</event>
<event>
 7    1  0.4432754E-010  0.4778728E+02  0.7816164E-02  0.1312668E+00
        -11   -1    0    0    0    0  0.00000000000E+00  0.00000000000E+00  0.45593999997E+02  0.45594000000E+02  0.51100000000E-03 0.  1.
         11   -1    0    0    0    0 -0.00000000000E+00 -0.00000000000E+00 -0.45593999997E+02  0.45594000000E+02  0.51100000000E-03 0. -1.
    9900012    2    1    2    0    0  0.36178171320E+02  0.23484110877E+01 -0.23858908169E+02  0.47787278650E+02  0.20000034675E+02 0.  0.
        -12    1    1    2    0    0 -0.36178171320E+02 -0.23484110877E+01  0.23858908169E+02  0.43400721350E+02  0.00000000000E+00 0.  1.
         11    1    3    3    0    0  0.81932119926E+01 -0.66935347297E+01 -0.48431226326E+01  0.11635633504E+02  0.51100000000E-03 0. -1.
        -11    1    3    3    0    0  0.16546250163E+02  0.77974956812E+00 -0.11490773938E+02  0.20159967506E+02  0.51100000000E-03 0.  1.
        -12    1    3    3    0    0  0.11438709164E+02  0.82621962492E+01 -0.75250115982E+01  0.15991677640E+02  0.00000000000E+00 0.  1.
</event>
<event>
 7    1  0.4432754E-010  0.4778727E+02  0.7816164E-02  0.1312668E+00
        -11   -1    0    0    0    0  0.00000000000E+00  0.00000000000E+00  0.45593999997E+02  0.45594000000E+02  0.51100000000E-03 0.  1.
         11   -1    0    0    0    0 -0.00000000000E+00 -0.00000000000E+00 -0.45593999997E+02  0.45594000000E+02  0.51100000000E-03 0. -1.
    9900012    2    1    2    0    0 -0.12714558369E+02  0.18557988330E+02 -0.37115553033E+02  0.47787271869E+02  0.20000003761E+02 0.  0.
        -12    1    1    2    0    0  0.12714558369E+02 -0.18557988330E+02  0.37115553033E+02  0.43400728131E+02  0.00000000000E+00 0.  1.
         11    1    3    3    0    0 -0.62637513673E+01  0.39984427221E+01 -0.79746549511E+01  0.10900332437E+02  0.51100000000E-03 0. -1.
        -11    1    3    3    0    0 -0.74553703588E+01 -0.51701359163E+00 -0.87328081959E+01  0.11493989277E+02  0.51100000000E-03 0.  1.
        -12    1    3    3    0    0  0.10045633567E+01  0.15076559199E+02 -0.20408089885E+02  0.25392950155E+02  0.00000000000E+00 0.  1.
</event>
<event>
 7    1  0.4432754E-010  0.4778728E+02  0.7816164E-02  0.1312668E+00
        -11   -1    0    0    0    0  0.00000000000E+00  0.00000000000E+00  0.45593999997E+02  0.45594000000E+02  0.51100000000E-03 0.  1.
         11   -1    0    0    0    0 -0.00000000000E+00 -0.00000000000E+00 -0.45593999997E+02  0.45594000000E+02  0.51100000000E-03 0. -1.
    9900012    2    1    2    0    0 -0.46119738417E+01  0.24858613385E+02 -0.35276078451E+02  0.47787277967E+02  0.20000031561E+02 0.  0.
        -12    1    1    2    0    0  0.46119738417E+01 -0.24858613385E+02  0.35276078451E+02  0.43400722033E+02  0.00000000000E+00 0.  1.
         11    1    3    3    0    0  0.22407155916E+01 -0.22136467589E+00 -0.19356583486E+01  0.29692730063E+01  0.51100000000E-03 0.  1.
        -11    1    3    3    0    0 -0.72196832639E+01  0.76852524571E+01 -0.20964013803E+02  0.23466503931E+02  0.51100000000E-03 0. -1.
        -12    1    3    3    0    0  0.36699383062E+00  0.17394725604E+02 -0.12376406299E+02  0.21351501029E+02  0.00000000000E+00 0.  1.
</event>
<event>
 7    1  0.4432754E-010  0.4778727E+02  0.7816164E-02  0.1312668E+00
        -11   -1    0    0    0    0  0.00000000000E+00  0.00000000000E+00  0.45593999997E+02  0.45594000000E+02  0.51100000000E-03 0.  1.
         11   -1    0    0    0    0 -0.00000000000E+00 -0.00000000000E+00 -0.45593999997E+02  0.45594000000E+02  0.51100000000E-03 0. -1.
    9900012    2    1    2    0    0  0.17633817785E+02  0.19716576000E+02 -0.34408263170E+02  0.47787268748E+02  0.19999989530E+02 0.  0.
        -12    1    1    2    0    0 -0.17633817785E+02 -0.19716576000E+02  0.34408263170E+02  0.43400731252E+02  0.00000000000E+00 0.  1.
         11    1    3    3    0    0  0.63638693872E+01  0.10560856712E+02 -0.21462444962E+02  0.24752112477E+02  0.51100000000E-03 0. -1.
        -11    1    3    3    0    0  0.15909616947E+01 -0.18421249665E+01 -0.66642553677E+01  0.70948490733E+01  0.51100000000E-03 0.  1.
        -12    1    3    3    0    0  0.96789867028E+01  0.10997844254E+02 -0.62815628402E+01  0.15940307197E+02  0.00000000000E+00 0.  1.
</event>
<event>
 7    1  0.4432754E-010  0.4778725E+02  0.7816164E-02  0.1312668E+00
        -11   -1    0    0    0    0  0.00000000000E+00  0.00000000000E+00  0.45593999997E+02  0.45594000000E+02  0.51100000000E-03 0. -1.
         11   -1    0    0    0    0 -0.00000000000E+00 -0.00000000000E+00 -0.45593999997E+02  0.45594000000E+02  0.51100000000E-03 0.  1.
    9900012    2    1    2    0    0  0.12373437327E+02 -0.33371028414E+02 -0.24837415997E+02  0.47787254360E+02  0.19999923931E+02 0.  0.
        -12    1    1    2    0    0 -0.12373437327E+02  0.33371028414E+02  0.24837415997E+02  0.43400745640E+02  0.00000000000E+00 0.  1.
         11    1    3    3    0    0  0.77756027614E+01 -0.30593834809E+02 -0.23101841615E+02  0.39116976019E+02  0.51100000000E-03 0. -1.
        -11    1    3    3    0    0  0.76038462422E+00 -0.24609185161E+01 -0.35724052097E+01  0.44041326005E+01  0.51100000000E-03 0.  1.
        -12    1    3    3    0    0  0.38374499416E+01 -0.31627508874E+00  0.18368308285E+01  0.42661457404E+01  0.00000000000E+00 0.  1.
</event>
<event>
 7    1  0.4432754E-010  0.4778727E+02  0.7816164E-02  0.1312668E+00
        -11   -1    0    0    0    0  0.00000000000E+00  0.00000000000E+00  0.45593999997E+02  0.45594000000E+02  0.51100000000E-03 0.  1.
         11   -1    0    0    0    0 -0.00000000000E+00 -0.00000000000E+00 -0.45593999997E+02  0.45594000000E+02  0.51100000000E-03 0. -1.
    9900012    2    1    2    0    0 -0.15851821964E+02 -0.37408692758E+02 -0.15262138427E+02  0.47787269329E+02  0.19999992180E+02 0.  0.
        -12    1    1    2    0    0  0.15851821964E+02  0.37408692758E+02  0.15262138427E+02  0.43400730671E+02  0.00000000000E+00 0.  1.
         11    1    3    3    0    0 -0.14186943742E+02 -0.13906244425E+02 -0.67473944718E+01  0.20980475189E+02  0.51100000000E-03 0. -1.
        -11    1    3    3    0    0 -0.12226925659E+01 -0.13087089171E+02 -0.96703944460E+01  0.16318192580E+02  0.51100000000E-03 0.  1.
        -12    1    3    3    0    0 -0.44218565545E+00 -0.10415359161E+02  0.11556504913E+01  0.10488601559E+02  0.00000000000E+00 0.  1.
</event>
<event>
 7    1  0.4432754E-010  0.4778727E+02  0.7816164E-02  0.1312668E+00
        -11   -1    0    0    0    0  0.00000000000E+00  0.00000000000E+00  0.45593999997E+02  0.45594000000E+02  0.51100000000E-03 0.  1.
         11   -1    0    0    0    0 -0.00000000000E+00 -0.00000000000E+00 -0.45593999997E+02  0.45594000000E+02  0.51100000000E-03 0. -1.
    9900012    2    1    2    0    0  0.25669596445E+02 -0.44136114358E+01 -0.34716207535E+02  0.47787271744E+02  0.20000003188E+02 0.  0.
        -12    1    1    2    0    0 -0.25669596445E+02  0.44136114358E+01  0.34716207535E+02  0.43400728256E+02  0.00000000000E+00 0.  1.
         11    1    3    3    0    0  0.39558483602E+01 -0.80446771439E+01 -0.64146158381E+01  0.11023287314E+02  0.51100000000E-03 0. -1.
        -11    1    3    3    0    0 -0.48177338711E+00  0.57376416101E+00 -0.11588052326E+00  0.75811573377E+00  0.51100000000E-03 0.  1.
        -12    1    3    3    0    0  0.22195521472E+02  0.30573015471E+01 -0.28185711174E+02  0.36005868696E+02  0.00000000000E+00 0.  1.
</event>
<event>
 7    1  0.4432754E-010  0.4778727E+02  0.7816164E-02  0.1312668E+00
        -11   -1    0    0    0    0  0.00000000000E+00  0.00000000000E+00  0.45593999997E+02  0.45594000000E+02  0.51100000000E-03 0. -1.
         11   -1    0    0    0    0 -0.00000000000E+00 -0.00000000000E+00 -0.45593999997E+02  0.45594000000E+02  0.51100000000E-03 0.  1.
    9900012    2    1    2    0    0  0.15972786976E+02 -0.21766287736E+02  0.33981199675E+02  0.47787272622E+02  0.20000007192E+02 0.  0.
        -12    1    1    2    0    0 -0.15972786976E+02  0.21766287736E+02 -0.33981199675E+02  0.43400727378E+02  0.00000000000E+00 0.  1.
         11    1    3    3    0    0  0.39577864976E+01 -0.38250895785E+01  0.11747724381E+01  0.56280969063E+01  0.51100000000E-03 0. -1.
        -11    1    3    3    0    0  0.77344244445E+01 -0.11513673739E+01  0.46477702228E+01  0.90966332576E+01  0.51100000000E-03 0.  1.
         12    1    3    3    0    0  0.42805760335E+01 -0.16789830784E+02  0.28158657014E+02  0.33062542458E+02  0.00000000000E+00 0. -1.
</event>
<event>
 7    1  0.4432754E-010  0.4778727E+02  0.7816164E-02  0.1312668E+00
        -11   -1    0    0    0    0  0.00000000000E+00  0.00000000000E+00  0.45593999997E+02  0.45594000000E+02  0.51100000000E-03 0.  1.
         11   -1    0    0    0    0 -0.00000000000E+00 -0.00000000000E+00 -0.45593999997E+02  0.45594000000E+02  0.51100000000E-03 0. -1.
    9900012    2    1    2    0    0  0.91884275081E+01 -0.24896068774E+02 -0.34342135627E+02  0.47787265907E+02  0.19999976574E+02 0.  0.
        -12    1    1    2    0    0 -0.91884275081E+01  0.24896068774E+02  0.34342135627E+02  0.43400734093E+02  0.00000000000E+00 0.  1.
         11    1    3    3    0    0 -0.34191995958E+01 -0.62575184755E+01 -0.64761896885E+01  0.96326785730E+01  0.51100000000E-03 0. -1.
        -11    1    3    3    0    0  0.15091422119E+01 -0.39128961206E+01 -0.15240035809E+02  0.15806547946E+02  0.51100000000E-03 0.  1.
        -12    1    3    3    0    0  0.11098484892E+02 -0.14725654178E+02 -0.12625910129E+02  0.22348039387E+02  0.00000000000E+00 0.  1.
</event>
<event>
 7    1  0.4432754E-010  0.4778727E+02  0.7816164E-02  0.1312668E+00
        -11   -1    0    0    0    0  0.00000000000E+00  0.00000000000E+00  0.45593999997E+02  0.45594000000E+02  0.51100000000E-03 0.  1.
         11   -1    0    0    0    0 -0.00000000000E+00 -0.00000000000E+00 -0.45593999997E+02  0.45594000000E+02  0.51100000000E-03 0. -1.
    9900012    2    1    2    0    0  0.31160062726E+02  0.19182838159E+02 -0.23338652453E+02  0.47787268587E+02  0.19999988794E+02 0.  0.
        -12    1    1    2    0    0 -0.31160062726E+02 -0.19182838159E+02  0.23338652453E+02  0.43400731413E+02  0.00000000000E+00 0.  1.
         11    1    3    3    0    0  0.23257454177E+02  0.79995521450E+01 -0.97293417467E+01  0.26449236292E+02  0.51100000000E-03 0. -1.
        -11    1    3    3    0    0  0.89652677639E+01  0.58896649223E+01 -0.70222391900E+01  0.12820921280E+02  0.51100000000E-03 0.  1.
        -12    1    3    3    0    0 -0.10626592157E+01  0.52936210918E+01 -0.65870715162E+01  0.85171110144E+01  0.00000000000E+00 0.  1.
</event>
<event>
 7    1  0.4432754E-010  0.4778728E+02  0.7816164E-02  0.1312668E+00
        -11   -1    0    0    0    0  0.00000000000E+00  0.00000000000E+00  0.45593999997E+02  0.45594000000E+02  0.51100000000E-03 0.  1.
         11   -1    0    0    0    0 -0.00000000000E+00 -0.00000000000E+00 -0.45593999997E+02  0.45594000000E+02  0.51100000000E-03 0. -1.
    9900012    2    1    2    0    0 -0.14475018895E+02  0.32542396038E+01 -0.40786100705E+02  0.47787282746E+02  0.20000053353E+02 0.  0.
        -12    1    1    2    0    0  0.14475018895E+02 -0.32542396038E+01  0.40786100705E+02  0.43400717254E+02  0.00000000000E+00 0.  1.
         11    1    3    3    0    0 -0.43969228983E+01  0.10220313051E+02 -0.12301289972E+02  0.16586424119E+02  0.51100000000E-03 0. -1.
        -11    1    3    3    0    0 -0.18652414293E+01 -0.19965592123E+01 -0.35331391021E+01  0.44663683742E+01  0.51100000000E-03 0.  1.
         12    1    3    3    0    0 -0.82128545672E+01 -0.49695142351E+01 -0.24951671631E+02  0.26734490253E+02  0.00000000000E+00 0. -1.
</event>
<event>
 7    1  0.4432754E-010  0.4778727E+02  0.7816164E-02  0.1312668E+00
        -11   -1    0    0    0    0  0.00000000000E+00  0.00000000000E+00  0.45593999997E+02  0.45594000000E+02  0.51100000000E-03 0.  1.
         11   -1    0    0    0    0 -0.00000000000E+00 -0.00000000000E+00 -0.45593999997E+02  0.45594000000E+02  0.51100000000E-03 0. -1.
    9900012    2    1    2    0    0  0.40600732900E+01 -0.25776030490E+02 -0.34680482029E+02  0.47787265252E+02  0.19999973589E+02 0.  0.
        -12    1    1    2    0    0 -0.40600732900E+01  0.25776030490E+02  0.34680482029E+02  0.43400734748E+02  0.00000000000E+00 0.  1.
         11    1    3    3    0    0  0.49155307811E-01 -0.68997513590E+01 -0.17664918712E+02  0.18964660251E+02  0.51100000000E-03 0. -1.
        -11    1    3    3    0    0  0.24996684342E+01 -0.14722253164E+01 -0.92693257467E+01  0.97126819016E+01  0.51100000000E-03 0.  1.
         12    1    3    3    0    0  0.15112495480E+01 -0.17404053814E+02 -0.77462375700E+01  0.19109923099E+02  0.00000000000E+00 0. -1.
</event>
<event>
 7    1  0.4432754E-010  0.4778727E+02  0.7816164E-02  0.1312668E+00
        -11   -1    0    0    0    0  0.00000000000E+00  0.00000000000E+00  0.45593999997E+02  0.45594000000E+02  0.51100000000E-03 0.  1.
         11   -1    0    0    0    0 -0.00000000000E+00 -0.00000000000E+00 -0.45593999997E+02  0.45594000000E+02  0.51100000000E-03 0. -1.
    9900012    2    1    2    0    0 -0.15072918490E+02 -0.27631608317E+01 -0.40605367388E+02  0.47787265095E+02  0.19999972873E+02 0.  0.
        -12    1    1    2    0    0  0.15072918490E+02  0.27631608317E+01  0.40605367388E+02  0.43400734905E+02  0.00000000000E+00 0.  1.
         11    1    3    3    0    0  0.27506282178E+01  0.63281668172E+00 -0.18874718204E+02  0.19084585405E+02  0.51100000000E-03 0. -1.
        -11    1    3    3    0    0 -0.33866651616E+00  0.71027604815E+00 -0.10376195477E+01  0.13022448543E+01  0.51100000000E-03 0.  1.
        -12    1    3    3    0    0 -0.17484880192E+02 -0.41062535616E+01 -0.20693029637E+02  0.27400434836E+02  0.00000000000E+00 0.  1.
</event>
<event>
 7    1  0.4432754E-010  0.4778727E+02  0.7816164E-02  0.1312668E+00
        -11   -1    0    0    0    0  0.00000000000E+00  0.00000000000E+00  0.45593999997E+02  0.45594000000E+02  0.51100000000E-03 0.  1.
         11   -1    0    0    0    0 -0.00000000000E+00 -0.00000000000E+00 -0.45593999997E+02  0.45594000000E+02  0.51100000000E-03 0. -1.
    9900012    2    1    2    0    0 -0.18385430318E+00  0.31935696813E+02 -0.29388794165E+02  0.47787265492E+02  0.19999974685E+02 0.  0.
        -12    1    1    2    0    0  0.18385430318E+00 -0.31935696813E+02  0.29388794165E+02  0.43400734508E+02  0.00000000000E+00 0.  1.
         11    1    3    3    0    0  0.14453851323E+01  0.29181845066E+02 -0.23464764490E+02  0.37473515881E+02  0.51100000000E-03 0. -1.
        -11    1    3    3    0    0 -0.16958443583E+00  0.46625890859E+01 -0.63434756176E+01  0.78745272262E+01  0.51100000000E-03 0.  1.
        -12    1    3    3    0    0 -0.14596549997E+01 -0.19087373384E+01  0.41944594287E+00  0.24392223851E+01  0.00000000000E+00 0.  1.
</event>
<event>
 7    1  0.4432754E-010  0.4778728E+02  0.7816164E-02  0.1312668E+00
        -11   -1    0    0    0    0  0.00000000000E+00  0.00000000000E+00  0.45593999997E+02  0.45594000000E+02  0.51100000000E-03 0.  1.
         11   -1    0    0    0    0 -0.00000000000E+00 -0.00000000000E+00 -0.45593999997E+02  0.45594000000E+02  0.51100000000E-03 0. -1.
    9900012    2    1    2    0    0  0.20454304182E+02 -0.36630879638E+01 -0.38102828267E+02  0.47787282322E+02  0.20000051418E+02 0.  0.
        -12    1    1    2    0    0 -0.20454304182E+02  0.36630879638E+01  0.38102828267E+02  0.43400717678E+02  0.00000000000E+00 0.  1.
         11    1    3    3    0    0  0.61857459548E+01  0.26972870653E+01 -0.15590279885E+01  0.69259930018E+01  0.51100000000E-03 0. -1.
        -11    1    3    3    0    0  0.10865925607E+02 -0.41128029657E+01 -0.15201715986E+02  0.19133103688E+02  0.51100000000E-03 0.  1.
        -12    1    3    3    0    0  0.34026326207E+01 -0.22475720634E+01 -0.21342084292E+02  0.21728185632E+02  0.00000000000E+00 0.  1.
</event>
<event>
 7    1  0.4432754E-010  0.4778727E+02  0.7816164E-02  0.1312668E+00
        -11   -1    0    0    0    0  0.00000000000E+00  0.00000000000E+00  0.45593999997E+02  0.45594000000E+02  0.51100000000E-03 0. -1.
         11   -1    0    0    0    0 -0.00000000000E+00 -0.00000000000E+00 -0.45593999997E+02  0.45594000000E+02  0.51100000000E-03 0.  1.
    9900012    2    1    2    0    0  0.13638824516E+02 -0.25073791839E+02  0.32694199974E+02  0.47787270936E+02  0.19999999504E+02 0.  0.
        -12    1    1    2    0    0 -0.13638824516E+02  0.25073791839E+02 -0.32694199974E+02  0.43400729064E+02  0.00000000000E+00 0.  1.
         11    1    3    3    0    0  0.78312634976E+01 -0.80269048472E+00  0.28483284101E+01  0.83717366762E+01  0.51100000000E-03 0.  1.
        -11    1    3    3    0    0  0.33133140390E+00 -0.23359695086E+01  0.65082663858E+01  0.69227209718E+01  0.51100000000E-03 0. -1.
        -12    1    3    3    0    0  0.54762296146E+01 -0.21935131846E+02  0.23337605178E+02  0.32492813288E+02  0.00000000000E+00 0.  1.
</event>
<event>
 7    1  0.4432754E-010  0.4778727E+02  0.7816164E-02  0.1312668E+00
        -11   -1    0    0    0    0  0.00000000000E+00  0.00000000000E+00  0.45593999997E+02  0.45594000000E+02  0.51100000000E-03 0. -1.
         11   -1    0    0    0    0 -0.00000000000E+00 -0.00000000000E+00 -0.45593999997E+02  0.45594000000E+02  0.51100000000E-03 0.  1.
    9900012    2    1    2    0    0  0.23016737322E+02 -0.30936528054E+00  0.36793441767E+02  0.47787271194E+02  0.20000000684E+02 0.  0.
        -12    1    1    2    0    0 -0.23016737322E+02  0.30936528054E+00 -0.36793441767E+02  0.43400728806E+02  0.00000000000E+00 0.  1.
         11    1    3    3    0    0  0.16962697107E+01  0.14254541528E+01 -0.91178455369E+00  0.23959553015E+01  0.51100000000E-03 0. -1.
        -11    1    3    3    0    0  0.14989351134E+02  0.42124686648E+01  0.17652039180E+02  0.23537630024E+02  0.51100000000E-03 0.  1.
         12    1    3    3    0    0  0.63311164769E+01 -0.59472880981E+01  0.20053187140E+02  0.21853685869E+02  0.00000000000E+00 0. -1.
</event>
<event>
 7    1  0.4432754E-010  0.4778728E+02  0.7816164E-02  0.1312668E+00
        -11   -1    0    0    0    0  0.00000000000E+00  0.00000000000E+00  0.45593999997E+02  0.45594000000E+02  0.51100000000E-03 0. -1.
         11   -1    0    0    0    0 -0.00000000000E+00 -0.00000000000E+00 -0.45593999997E+02  0.45594000000E+02  0.51100000000E-03 0.  1.
    9900012    2    1    2    0    0 -0.18108209075E+02  0.16844492936E+02  0.35664810606E+02  0.47787275424E+02  0.20000019967E+02 0.  0.
        -12    1    1    2    0    0  0.18108209075E+02 -0.16844492936E+02 -0.35664810606E+02  0.43400724576E+02  0.00000000000E+00 0.  1.
         11    1    3    3    0    0 -0.27950530326E+01  0.10529367642E+02  0.21578097212E+02  0.24172177890E+02  0.51100000000E-03 0. -1.
        -11    1    3    3    0    0 -0.93863196773E+01  0.79245574306E+01  0.11880409187E+02  0.17089345519E+02  0.51100000000E-03 0.  1.
         12    1    3    3    0    0 -0.59268363650E+01 -0.16094321370E+01  0.22063042073E+01  0.65257520146E+01  0.00000000000E+00 0. -1.
</event>
<event>
 7    1  0.4432754E-010  0.4778727E+02  0.7816164E-02  0.1312668E+00
        -11   -1    0    0    0    0  0.00000000000E+00  0.00000000000E+00  0.45593999997E+02  0.45594000000E+02  0.51100000000E-03 0.  1.
         11   -1    0    0    0    0 -0.00000000000E+00 -0.00000000000E+00 -0.45593999997E+02  0.45594000000E+02  0.51100000000E-03 0. -1.
    9900012    2    1    2    0    0  0.17962911974E+02 -0.10815591694E+01 -0.39494140942E+02  0.47787272523E+02  0.20000006742E+02 0.  0.
        -12    1    1    2    0    0 -0.17962911974E+02  0.10815591694E+01  0.39494140942E+02  0.43400727477E+02  0.00000000000E+00 0.  1.
         11    1    3    3    0    0  0.94316262458E+01  0.41297045472E+01 -0.23305760236E+02  0.25478785170E+02  0.51100000000E-03 0. -1.
        -11    1    3    3    0    0  0.10191542807E+02 -0.43751937190E+00 -0.96285816317E+01  0.14027421448E+02  0.51100000000E-03 0.  1.
        -12    1    3    3    0    0 -0.16602570790E+01 -0.47737443446E+01 -0.65597990742E+01  0.82810659055E+01  0.00000000000E+00 0.  1.
</event>
<event>
 7    1  0.4432754E-010  0.4778727E+02  0.7816164E-02  0.1312668E+00
        -11   -1    0    0    0    0  0.00000000000E+00  0.00000000000E+00  0.45593999997E+02  0.45594000000E+02  0.51100000000E-03 0. -1.
         11   -1    0    0    0    0 -0.00000000000E+00 -0.00000000000E+00 -0.45593999997E+02  0.45594000000E+02  0.51100000000E-03 0.  1.
    9900012    2    1    2    0    0  0.66263669112E+00 -0.44211888574E+01  0.43169865478E+02  0.47787270931E+02  0.19999999484E+02 0.  0.
        -12    1    1    2    0    0 -0.66263669112E+00  0.44211888574E+01 -0.43169865478E+02  0.43400729069E+02  0.00000000000E+00 0.  1.
         11    1    3    3    0    0  0.82021891687E+01  0.23181772577E+01  0.20291132016E+02  0.22008632209E+02  0.51100000000E-03 0. -1.
        -11    1    3    3    0    0  0.62096263896E+00 -0.26883478827E+01  0.57463899117E+01  0.63744651710E+01  0.51100000000E-03 0.  1.
        -12    1    3    3    0    0 -0.81605151165E+01 -0.40510182325E+01  0.17132343550E+02  0.19404173551E+02  0.00000000000E+00 0.  1.
</event>
<event>
 7    1  0.4432754E-010  0.4778727E+02  0.7816164E-02  0.1312668E+00
        -11   -1    0    0    0    0  0.00000000000E+00  0.00000000000E+00  0.45593999997E+02  0.45594000000E+02  0.51100000000E-03 0. -1.
         11   -1    0    0    0    0 -0.00000000000E+00 -0.00000000000E+00 -0.45593999997E+02  0.45594000000E+02  0.51100000000E-03 0.  1.
    9900012    2    1    2    0    0 -0.21985064749E+02 -0.14535444421E+02  0.34481891552E+02  0.47787273491E+02  0.20000011153E+02 0.  0.
        -12    1    1    2    0    0  0.21985064749E+02  0.14535444421E+02 -0.34481891552E+02  0.43400726509E+02  0.00000000000E+00 0.  1.
         11    1    3    3    0    0 -0.63143938181E+01 -0.10218789229E+02  0.20191376416E+02  0.23494401555E+02  0.51100000000E-03 0. -1.
        -11    1    3    3    0    0 -0.23841392061E+01 -0.23122160861E+01  0.94401859541E+01  0.10007375984E+02  0.51100000000E-03 0.  1.
        -12    1    3    3    0    0 -0.13286531725E+02 -0.20044391061E+01  0.48503291822E+01  0.14285495951E+02  0.00000000000E+00 0.  1.
</event>
<event>
 7    1  0.4432754E-010  0.4778727E+02  0.7816164E-02  0.1312668E+00
        -11   -1    0    0    0    0  0.00000000000E+00  0.00000000000E+00  0.45593999997E+02  0.45594000000E+02  0.51100000000E-03 0.  1.
         11   -1    0    0    0    0 -0.00000000000E+00 -0.00000000000E+00 -0.45593999997E+02  0.45594000000E+02  0.51100000000E-03 0. -1.
    9900012    2    1    2    0    0  0.24385658047E+02 -0.29921120240E+01 -0.35777230247E+02  0.47787271240E+02  0.20000000892E+02 0.  0.
        -12    1    1    2    0    0 -0.24385658047E+02  0.29921120240E+01  0.35777230247E+02  0.43400728760E+02  0.00000000000E+00 0.  1.
         11    1    3    3    0    0  0.57287887018E+01 -0.23803398025E+01 -0.95981474730E+01  0.11428450146E+02  0.51100000000E-03 0. -1.
        -11    1    3    3    0    0  0.80551601935E+01  0.63596417532E+01 -0.44284462475E+01  0.11177736148E+02  0.51100000000E-03 0.  1.
        -12    1    3    3    0    0  0.10601709152E+02 -0.69714139747E+01 -0.21750636526E+02  0.25181084946E+02  0.00000000000E+00 0.  1.
</event>
<event>
 7    1  0.4432754E-010  0.4778726E+02  0.7816164E-02  0.1312668E+00
        -11   -1    0    0    0    0  0.00000000000E+00  0.00000000000E+00  0.45593999997E+02  0.45594000000E+02  0.51100000000E-03 0.  1.
         11   -1    0    0    0    0 -0.00000000000E+00 -0.00000000000E+00 -0.45593999997E+02  0.45594000000E+02  0.51100000000E-03 0. -1.
    9900012    2    1    2    0    0  0.28650223130E+02  0.62482767622E+01 -0.31996064442E+02  0.47787258213E+02  0.19999941496E+02 0.  0.
        -12    1    1    2    0    0 -0.28650223130E+02 -0.62482767622E+01  0.31996064442E+02  0.43400741787E+02  0.00000000000E+00 0.  1.
         11    1    3    3    0    0  0.92433513830E+01 -0.61890479664E+01 -0.10528320578E+02  0.15316311370E+02  0.51100000000E-03 0. -1.
        -11    1    3    3    0    0  0.10664551408E+02  0.23115697135E+01 -0.84093656876E+01  0.13776554098E+02  0.51100000000E-03 0.  1.
         12    1    3    3    0    0  0.87423203383E+01  0.10125755015E+02 -0.13058378176E+02  0.18694392745E+02  0.00000000000E+00 0. -1.
</event>
<event>
 7    1  0.4432754E-010  0.4778727E+02  0.7816164E-02  0.1312668E+00
        -11   -1    0    0    0    0  0.00000000000E+00  0.00000000000E+00  0.45593999997E+02  0.45594000000E+02  0.51100000000E-03 0.  1.
         11   -1    0    0    0    0 -0.00000000000E+00 -0.00000000000E+00 -0.45593999997E+02  0.45594000000E+02  0.51100000000E-03 0. -1.
    9900012    2    1    2    0    0  0.15730514112E+02  0.26647533677E+02 -0.30431612559E+02  0.47787272261E+02  0.20000005549E+02 0.  0.
        -12    1    1    2    0    0 -0.15730514112E+02 -0.26647533677E+02  0.30431612559E+02  0.43400727739E+02  0.00000000000E+00 0.  1.
         11    1    3    3    0    0  0.12400236341E+02  0.84771923217E+01 -0.77702200810E+01  0.16911681505E+02  0.51100000000E-03 0.  1.
        -11    1    3    3    0    0  0.82811903658E+00 -0.10184526481E+01 -0.30681449778E+01  0.33371456068E+01  0.51100000000E-03 0. -1.
        -12    1    3    3    0    0  0.25021587343E+01  0.19188794003E+02 -0.19593247501E+02  0.27538445149E+02  0.00000000000E+00 0.  1.
</event>
<event>
 7    1  0.4432754E-010  0.4778727E+02  0.7816164E-02  0.1312668E+00
        -11   -1    0    0    0    0  0.00000000000E+00  0.00000000000E+00  0.45593999997E+02  0.45594000000E+02  0.51100000000E-03 0.  1.
         11   -1    0    0    0    0 -0.00000000000E+00 -0.00000000000E+00 -0.45593999997E+02  0.45594000000E+02  0.51100000000E-03 0. -1.
    9900012    2    1    2    0    0 -0.42975158987E+02  0.33683308704E+01  0.50411661821E+01  0.47787270752E+02  0.19999998667E+02 0.  0.
        -12    1    1    2    0    0  0.42975158987E+02 -0.33683308704E+01 -0.50411661821E+01  0.43400729248E+02  0.00000000000E+00 0.  1.
         11    1    3    3    0    0 -0.14409819241E+02  0.55173951258E+01 -0.39982349865E+01  0.15939586657E+02  0.51100000000E-03 0. -1.
        -11    1    3    3    0    0 -0.16331236039E+02 -0.22837787012E+01 -0.24008471443E+00  0.16491893665E+02  0.51100000000E-03 0.  1.
        -12    1    3    3    0    0 -0.12234103707E+02  0.13471444578E+00  0.92794858830E+01  0.15355790431E+02  0.00000000000E+00 0.  1.
</event>
<event>
 7    1  0.4432754E-010  0.4778728E+02  0.7816164E-02  0.1312668E+00
        -11   -1    0    0    0    0  0.00000000000E+00  0.00000000000E+00  0.45593999997E+02  0.45594000000E+02  0.51100000000E-03 0.  1.
         11   -1    0    0    0    0 -0.00000000000E+00 -0.00000000000E+00 -0.45593999997E+02  0.45594000000E+02  0.51100000000E-03 0. -1.
    9900012    2    1    2    0    0  0.14674894605E+02 -0.11575664882E+02 -0.39169813706E+02  0.47787275872E+02  0.20000022009E+02 0.  0.
        -12    1    1    2    0    0 -0.14674894605E+02  0.11575664882E+02  0.39169813706E+02  0.43400724128E+02  0.00000000000E+00 0.  1.
         11    1    3    3    0    0  0.10460885016E+02 -0.53365955089E+01 -0.22716547417E+02  0.25572463584E+02  0.51100000000E-03 0. -1.
        -11    1    3    3    0    0  0.30502329215E+01  0.29714495048E+01 -0.10111989195E+02  0.10972044421E+02  0.51100000000E-03 0.  1.
        -12    1    3    3    0    0  0.11637766669E+01 -0.92105188775E+01 -0.63412770946E+01  0.11242767867E+02  0.00000000000E+00 0.  1.
</event>
<event>
 7    1  0.4432754E-010  0.4778727E+02  0.7816164E-02  0.1312668E+00
        -11   -1    0    0    0    0  0.00000000000E+00  0.00000000000E+00  0.45593999997E+02  0.45594000000E+02  0.51100000000E-03 0.  1.
         11   -1    0    0    0    0 -0.00000000000E+00 -0.00000000000E+00 -0.45593999997E+02  0.45594000000E+02  0.51100000000E-03 0. -1.
    9900012    2    1    2    0    0  0.31241018052E+02  0.29150276991E+02 -0.76081114266E+01  0.47787271699E+02  0.20000002985E+02 0.  0.
        -12    1    1    2    0    0 -0.31241018052E+02 -0.29150276991E+02  0.76081114266E+01  0.43400728301E+02  0.00000000000E+00 0.  1.
         11    1    3    3    0    0  0.80109625742E+01  0.17031795781E+01  0.64165434778E-01  0.81902661438E+01  0.51100000000E-03 0. -1.
        -11    1    3    3    0    0  0.12641682940E+02  0.13230300094E+02  0.35176887566E+01  0.18634031302E+02  0.51100000000E-03 0.  1.
        -12    1    3    3    0    0  0.10588372538E+02  0.14216797319E+02 -0.11189965618E+02  0.20962974253E+02  0.00000000000E+00 0.  1.
</event>
<event>
 7    1  0.4432754E-010  0.4778727E+02  0.7816164E-02  0.1312668E+00
        -11   -1    0    0    0    0  0.00000000000E+00  0.00000000000E+00  0.45593999997E+02  0.45594000000E+02  0.51100000000E-03 0.  1.
         11   -1    0    0    0    0 -0.00000000000E+00 -0.00000000000E+00 -0.45593999997E+02  0.45594000000E+02  0.51100000000E-03 0. -1.
    9900012    2    1    2    0    0 -0.87364668393E+01  0.17876609162E+02 -0.38571031612E+02  0.47787268583E+02  0.19999988776E+02 0.  0.
        -12    1    1    2    0    0  0.87364668393E+01 -0.17876609162E+02  0.38571031612E+02  0.43400731417E+02  0.00000000000E+00 0.  1.
         11    1    3    3    0    0 -0.27548999810E+01  0.12552956278E+02 -0.19382822219E+02  0.23256396596E+02  0.51100000000E-03 0. -1.
        -11    1    3    3    0    0 -0.31910594531E+01  0.44389277207E+01 -0.36248210699E+00  0.54788989115E+01  0.51100000000E-03 0.  1.
        -12    1    3    3    0    0 -0.27905074051E+01  0.88472516274E+00 -0.18825727286E+02  0.19051973075E+02  0.00000000000E+00 0.  1.
</event>
<event>
 7    1  0.4432754E-010  0.4778727E+02  0.7816164E-02  0.1312668E+00
        -11   -1    0    0    0    0  0.00000000000E+00  0.00000000000E+00  0.45593999997E+02  0.45594000000E+02  0.51100000000E-03 0.  1.
         11   -1    0    0    0    0 -0.00000000000E+00 -0.00000000000E+00 -0.45593999997E+02  0.45594000000E+02  0.51100000000E-03 0. -1.
    9900012    2    1    2    0    0  0.21709007510E+02 -0.29150274782E+02 -0.23719277982E+02  0.47787266424E+02  0.19999978934E+02 0.  0.
        -12    1    1    2    0    0 -0.21709007510E+02  0.29150274782E+02  0.23719277982E+02  0.43400733576E+02  0.00000000000E+00 0.  1.
         11    1    3    3    0    0  0.14460871355E+02 -0.12311538743E+02 -0.13420519405E+02  0.23255131217E+02  0.51100000000E-03 0. -1.
        -11    1    3    3    0    0  0.30889189299E+01 -0.12863009515E+02 -0.12662095098E+02  0.18311938359E+02  0.51100000000E-03 0.  1.
         12    1    3    3    0    0  0.41592172252E+01 -0.39757265242E+01  0.23633365207E+01  0.62201968483E+01  0.00000000000E+00 0. -1.
</event>
<event>
 7    1  0.4432754E-010  0.4778727E+02  0.7816164E-02  0.1312668E+00
        -11   -1    0    0    0    0  0.00000000000E+00  0.00000000000E+00  0.45593999997E+02  0.45594000000E+02  0.51100000000E-03 0. -1.
         11   -1    0    0    0    0 -0.00000000000E+00 -0.00000000000E+00 -0.45593999997E+02  0.45594000000E+02  0.51100000000E-03 0.  1.
    9900012    2    1    2    0    0  0.34275435576E+02 -0.26594095820E+02 -0.12538189201E+01  0.47787268689E+02  0.19999989262E+02 0.  0.
        -12    1    1    2    0    0 -0.34275435576E+02  0.26594095820E+02  0.12538189201E+01  0.43400731311E+02  0.00000000000E+00 0.  1.
         11    1    3    3    0    0  0.12060629314E+01 -0.50902163216E+01  0.35210100895E+01  0.63057435966E+01  0.51100000000E-03 0.  1.
        -11    1    3    3    0    0  0.70383533506E+01 -0.72336377510E+01 -0.60518939948E+01  0.11768149990E+02  0.51100000000E-03 0. -1.
         12    1    3    3    0    0  0.26031019294E+02 -0.14270241747E+02  0.12770649853E+01  0.29713375103E+02  0.00000000000E+00 0. -1.
</event>
<event>
 7    1  0.4432754E-010  0.4778727E+02  0.7816164E-02  0.1312668E+00
        -11   -1    0    0    0    0  0.00000000000E+00  0.00000000000E+00  0.45593999997E+02  0.45594000000E+02  0.51100000000E-03 0.  1.
         11   -1    0    0    0    0 -0.00000000000E+00 -0.00000000000E+00 -0.45593999997E+02  0.45594000000E+02  0.51100000000E-03 0. -1.
    9900012    2    1    2    0    0  0.62878812417E+01  0.17822584622E+02 -0.39069698646E+02  0.47787270451E+02  0.19999997294E+02 0.  0.
        -12    1    1    2    0    0 -0.62878812417E+01 -0.17822584622E+02  0.39069698646E+02  0.43400729549E+02  0.00000000000E+00 0.  1.
         11    1    3    3    0    0  0.59611578738E+01  0.88123148271E+01 -0.24383296839E+02  0.26603335520E+02  0.51100000000E-03 0. -1.
        -11    1    3    3    0    0  0.40230863225E+01  0.69386708601E+01 -0.14921071745E+02  0.16940152276E+02  0.51100000000E-03 0.  1.
        -12    1    3    3    0    0 -0.36963629545E+01  0.20715989348E+01  0.23466993821E+00  0.42437826544E+01  0.00000000000E+00 0.  1.
</event>
<event>
 7    1  0.4432754E-010  0.4778729E+02  0.7816164E-02  0.1312668E+00
        -11   -1    0    0    0    0  0.00000000000E+00  0.00000000000E+00  0.45593999997E+02  0.45594000000E+02  0.51100000000E-03 0. -1.
         11   -1    0    0    0    0 -0.00000000000E+00 -0.00000000000E+00 -0.45593999997E+02  0.45594000000E+02  0.51100000000E-03 0.  1.
    9900012    2    1    2    0    0  0.19439373140E+02 -0.38787292254E+02 -0.11306505809E+01  0.47787289877E+02  0.20000085865E+02 0.  0.
        -12    1    1    2    0    0 -0.19439373140E+02  0.38787292254E+02  0.11306505809E+01  0.43400710123E+02  0.00000000000E+00 0.  1.
         11    1    3    3    0    0  0.93418814160E+01 -0.32185722601E+01 -0.19697018764E+01  0.10075201314E+02  0.51100000000E-03 0.  1.
        -11    1    3    3    0    0  0.44677342572E+01 -0.57762172263E+01 -0.81193303027E+00  0.73474192983E+01  0.51100000000E-03 0. -1.
        -12    1    3    3    0    0  0.56297574668E+01 -0.29792502767E+02  0.16509843257E+01  0.30364669264E+02  0.00000000000E+00 0.  1.
</event>
<event>
 7    1  0.4432754E-010  0.4778727E+02  0.7816164E-02  0.1312668E+00
        -11   -1    0    0    0    0  0.00000000000E+00  0.00000000000E+00  0.45593999997E+02  0.45594000000E+02  0.51100000000E-03 0.  1.
         11   -1    0    0    0    0 -0.00000000000E+00 -0.00000000000E+00 -0.45593999997E+02  0.45594000000E+02  0.51100000000E-03 0. -1.
    9900012    2    1    2    0    0 -0.24336394955E+01  0.18627792969E+01 -0.43292385629E+02  0.47787271880E+02  0.20000003811E+02 0.  0.
        -12    1    1    2    0    0  0.24336394955E+01 -0.18627792969E+01  0.43292385629E+02  0.43400728120E+02  0.00000000000E+00 0.  1.
         11    1    3    3    0    0 -0.19890870970E+01  0.30428779043E+01 -0.18043908694E+01  0.40584972700E+01  0.51100000000E-03 0.  1.
        -11    1    3    3    0    0 -0.48242647836E+01  0.12488977912E+01 -0.56131691887E+01  0.75060605511E+01  0.51100000000E-03 0. -1.
         12    1    3    3    0    0  0.43797123851E+01 -0.24289963986E+01 -0.35874825571E+02  0.36222714059E+02  0.00000000000E+00 0. -1.
</event>
<event>
 7    1  0.4432754E-010  0.4778727E+02  0.7816164E-02  0.1312668E+00
        -11   -1    0    0    0    0  0.00000000000E+00  0.00000000000E+00  0.45593999997E+02  0.45594000000E+02  0.51100000000E-03 0.  1.
         11   -1    0    0    0    0 -0.00000000000E+00 -0.00000000000E+00 -0.45593999997E+02  0.45594000000E+02  0.51100000000E-03 0. -1.
    9900012    2    1    2    0    0 -0.49371339296E+01 -0.27143557821E+02 -0.33503362232E+02  0.47787270704E+02  0.19999998446E+02 0.  0.
        -12    1    1    2    0    0  0.49371339296E+01  0.27143557821E+02  0.33503362232E+02  0.43400729296E+02  0.00000000000E+00 0.  1.
         11    1    3    3    0    0  0.15547490670E+01 -0.96456866168E+01 -0.14206059677E+02  0.17241480411E+02  0.51100000000E-03 0. -1.
        -11    1    3    3    0    0  0.15978911814E+00 -0.12878392577E+02 -0.18311977400E+02  0.22387653840E+02  0.51100000000E-03 0.  1.
        -12    1    3    3    0    0 -0.66516721147E+01 -0.46194786276E+01 -0.98532515546E+00  0.81581364523E+01  0.00000000000E+00 0.  1.
</event>
<event>
 7    1  0.4432754E-010  0.4778727E+02  0.7816164E-02  0.1312668E+00
        -11   -1    0    0    0    0  0.00000000000E+00  0.00000000000E+00  0.45593999997E+02  0.45594000000E+02  0.51100000000E-03 0.  1.
         11   -1    0    0    0    0 -0.00000000000E+00 -0.00000000000E+00 -0.45593999997E+02  0.45594000000E+02  0.51100000000E-03 0. -1.
    9900012    2    1    2    0    0  0.19888562681E+00 -0.35414415018E+02 -0.25087904269E+02  0.47787270891E+02  0.19999999302E+02 0.  0.
        -12    1    1    2    0    0 -0.19888562681E+00  0.35414415018E+02  0.25087904269E+02  0.43400729109E+02  0.00000000000E+00 0.  1.
         11    1    3    3    0    0  0.47940220379E+01 -0.11175156558E+02 -0.10477595724E+02  0.16051379499E+02  0.51100000000E-03 0. -1.
        -11    1    3    3    0    0 -0.42247072804E+00 -0.27101777020E+01 -0.85572766704E+01  0.89861298103E+01  0.51100000000E-03 0.  1.
        -12    1    3    3    0    0 -0.41726656830E+01 -0.21529080758E+02 -0.60530318751E+01  0.22749761582E+02  0.00000000000E+00 0.  1.
</event>
<event>
 7    1  0.4432754E-010  0.4778727E+02  0.7816164E-02  0.1312668E+00
        -11   -1    0    0    0    0  0.00000000000E+00  0.00000000000E+00  0.45593999997E+02  0.45594000000E+02  0.51100000000E-03 0.  1.
         11   -1    0    0    0    0 -0.00000000000E+00 -0.00000000000E+00 -0.45593999997E+02  0.45594000000E+02  0.51100000000E-03 0. -1.
    9900012    2    1    2    0    0  0.16296015801E+02 -0.39956831744E+02  0.46383913351E+01  0.47787271801E+02  0.20000003451E+02 0.  0.
        -12    1    1    2    0    0 -0.16296015801E+02  0.39956831744E+02 -0.46383913351E+01  0.43400728199E+02  0.00000000000E+00 0.  1.
         11    1    3    3    0    0  0.69084620338E+01 -0.89752773666E+01  0.19492012511E+01  0.11492686251E+02  0.51100000000E-03 0.  1.
        -11    1    3    3    0    0  0.11073853200E+02 -0.25248958883E+02  0.75567439019E+01  0.28587489013E+02  0.51100000000E-03 0. -1.
        -12    1    3    3    0    0 -0.16862994330E+01 -0.57325954941E+01 -0.48675538180E+01  0.77070965381E+01  0.00000000000E+00 0.  1.
</event>
<event>
 7    1  0.4432754E-010  0.4778727E+02  0.7816164E-02  0.1312668E+00
        -11   -1    0    0    0    0  0.00000000000E+00  0.00000000000E+00  0.45593999997E+02  0.45594000000E+02  0.51100000000E-03 0.  1.
         11   -1    0    0    0    0 -0.00000000000E+00 -0.00000000000E+00 -0.45593999997E+02  0.45594000000E+02  0.51100000000E-03 0. -1.
    9900012    2    1    2    0    0  0.63509011960E+01  0.24099805339E+02 -0.35531518676E+02  0.47787269790E+02  0.19999994279E+02 0.  0.
        -12    1    1    2    0    0 -0.63509011960E+01 -0.24099805339E+02  0.35531518676E+02  0.43400730210E+02  0.00000000000E+00 0.  1.
         11    1    3    3    0    0 -0.65661914749E+00  0.10643989971E+02 -0.22076485135E+02  0.24517276916E+02  0.51100000000E-03 0. -1.
        -11    1    3    3    0    0  0.44415096020E+01  0.96264469952E+01 -0.15035185073E+02  0.18397072586E+02  0.51100000000E-03 0.  1.
        -12    1    3    3    0    0  0.25660107415E+01  0.38293683726E+01  0.15801515324E+01  0.48729202871E+01  0.00000000000E+00 0.  1.
</event>
<event>
 7    1  0.4432754E-010  0.4778727E+02  0.7816164E-02  0.1312668E+00
        -11   -1    0    0    0    0  0.00000000000E+00  0.00000000000E+00  0.45593999997E+02  0.45594000000E+02  0.51100000000E-03 0. -1.
         11   -1    0    0    0    0 -0.00000000000E+00 -0.00000000000E+00 -0.45593999997E+02  0.45594000000E+02  0.51100000000E-03 0.  1.
    9900012    2    1    2    0    0  0.21520869490E+02 -0.37379330313E+02  0.48229765372E+01  0.47787271194E+02  0.20000000681E+02 0.  0.
        -12    1    1    2    0    0 -0.21520869490E+02  0.37379330313E+02 -0.48229765372E+01  0.43400728806E+02  0.00000000000E+00 0.  1.
         11    1    3    3    0    0 -0.57155825297E+00  0.67310076370E+00  0.22395894127E+00  0.91098921131E+00  0.51100000000E-03 0. -1.
        -11    1    3    3    0    0  0.31886956176E+01 -0.14235403800E+02 -0.42730966743E+01  0.15201113662E+02  0.51100000000E-03 0.  1.
         12    1    3    3    0    0  0.18903732125E+02 -0.23817027276E+02  0.88721142702E+01  0.31675168321E+02  0.00000000000E+00 0. -1.
</event>
<event>
 7    1  0.4432754E-010  0.4778727E+02  0.7816164E-02  0.1312668E+00
        -11   -1    0    0    0    0  0.00000000000E+00  0.00000000000E+00  0.45593999997E+02  0.45594000000E+02  0.51100000000E-03 0.  1.
         11   -1    0    0    0    0 -0.00000000000E+00 -0.00000000000E+00 -0.45593999997E+02  0.45594000000E+02  0.51100000000E-03 0. -1.
    9900012    2    1    2    0    0  0.25530530212E+02 -0.33942975343E+02 -0.89269032124E+01  0.47787272484E+02  0.20000006562E+02 0.  0.
        -12    1    1    2    0    0 -0.25530530212E+02  0.33942975343E+02  0.89269032124E+01  0.43400727516E+02  0.00000000000E+00 0.  1.
         11    1    3    3    0    0  0.12534636252E+01  0.14390398002E+01 -0.14637459381E+01  0.24051110242E+01  0.51100000000E-03 0. -1.
        -11    1    3    3    0    0  0.11064965241E+02 -0.63845887068E+01 -0.61827576003E+00  0.12789788658E+02  0.51100000000E-03 0.  1.
         12    1    3    3    0    0  0.13212101345E+02 -0.28997426436E+02 -0.68448815143E+01  0.32592372801E+02  0.00000000000E+00 0. -1.
</event>
<event>
 7    1  0.4432754E-010  0.4778727E+02  0.7816164E-02  0.1312668E+00
        -11   -1    0    0    0    0  0.00000000000E+00  0.00000000000E+00  0.45593999997E+02  0.45594000000E+02  0.51100000000E-03 0.  1.
         11   -1    0    0    0    0 -0.00000000000E+00 -0.00000000000E+00 -0.45593999997E+02  0.45594000000E+02  0.51100000000E-03 0. -1.
    9900012    2    1    2    0    0  0.21737725987E+02  0.84303999696E+01 -0.36606324501E+02  0.47787269958E+02  0.19999995046E+02 0.  0.
        -12    1    1    2    0    0 -0.21737725987E+02 -0.84303999696E+01  0.36606324501E+02  0.43400730042E+02  0.00000000000E+00 0.  1.
         11    1    3    3    0    0  0.15238882191E+02  0.48521095927E+01 -0.27020392475E+02  0.31398536713E+02  0.51100000000E-03 0. -1.
        -11    1    3    3    0    0  0.86940155239E+01  0.24226731332E-01 -0.44445822930E+01  0.97642616149E+01  0.51100000000E-03 0.  1.
        -12    1    3    3    0    0 -0.21951717273E+01  0.35540636456E+01 -0.51413497326E+01  0.66244716304E+01  0.00000000000E+00 0.  1.
</event>
<event>
 7    1  0.4432754E-010  0.4778727E+02  0.7816164E-02  0.1312668E+00
        -11   -1    0    0    0    0  0.00000000000E+00  0.00000000000E+00  0.45593999997E+02  0.45594000000E+02  0.51100000000E-03 0. -1.
         11   -1    0    0    0    0 -0.00000000000E+00 -0.00000000000E+00 -0.45593999997E+02  0.45594000000E+02  0.51100000000E-03 0.  1.
    9900012    2    1    2    0    0  0.44995297904E+01  0.27284483992E+02  0.33450476134E+02  0.47787272027E+02  0.20000004478E+02 0.  0.
        -12    1    1    2    0    0 -0.44995297904E+01 -0.27284483992E+02 -0.33450476134E+02  0.43400727973E+02  0.00000000000E+00 0.  1.
         11    1    3    3    0    0 -0.45831739454E+00  0.43349493946E+01  0.12051082702E+02  0.12815242317E+02  0.51100000000E-03 0. -1.
        -11    1    3    3    0    0  0.84591533987E+01  0.15926228531E+02  0.20123314286E+02  0.27021284380E+02  0.51100000000E-03 0.  1.
        -12    1    3    3    0    0 -0.35013062138E+01  0.70233060666E+01  0.12760791458E+01  0.79507453294E+01  0.00000000000E+00 0.  1.
</event>
<event>
 7    1  0.4432754E-010  0.4778727E+02  0.7816164E-02  0.1312668E+00
        -11   -1    0    0    0    0  0.00000000000E+00  0.00000000000E+00  0.45593999997E+02  0.45594000000E+02  0.51100000000E-03 0.  1.
         11   -1    0    0    0    0 -0.00000000000E+00 -0.00000000000E+00 -0.45593999997E+02  0.45594000000E+02  0.51100000000E-03 0. -1.
    9900012    2    1    2    0    0 -0.39085852346E+01  0.37380743346E+02 -0.21703132642E+02  0.47787274452E+02  0.20000015535E+02 0.  0.
        -12    1    1    2    0    0  0.39085852346E+01 -0.37380743346E+02  0.21703132642E+02  0.43400725548E+02  0.00000000000E+00 0.  1.
         11    1    3    3    0    0  0.36466575798E+01  0.26818146162E+02 -0.72216410283E+01  0.28011839898E+02  0.51100000000E-03 0.  1.
        -11    1    3    3    0    0  0.31808993876E+00  0.35102615147E-01 -0.31305361839E+00  0.44767871497E+00  0.51100000000E-03 0. -1.
        -12    1    3    3    0    0 -0.78733327532E+01  0.10527494569E+02 -0.14168437995E+02  0.19327755839E+02  0.00000000000E+00 0.  1.
</event>
<event>
 7    1  0.4432754E-010  0.4778727E+02  0.7816164E-02  0.1312668E+00
        -11   -1    0    0    0    0  0.00000000000E+00  0.00000000000E+00  0.45593999997E+02  0.45594000000E+02  0.51100000000E-03 0. -1.
         11   -1    0    0    0    0 -0.00000000000E+00 -0.00000000000E+00 -0.45593999997E+02  0.45594000000E+02  0.51100000000E-03 0.  1.
    9900012    2    1    2    0    0 -0.59864962143E+01  0.41876597963E+02  0.97023414183E+01  0.47787273936E+02  0.20000013184E+02 0.  0.
        -12    1    1    2    0    0  0.59864962143E+01 -0.41876597963E+02 -0.97023414183E+01  0.43400726064E+02  0.00000000000E+00 0.  1.
         11    1    3    3    0    0 -0.65544625882E+01  0.16931234127E+02  0.35255818451E+01  0.18494793767E+02  0.51100000000E-03 0. -1.
        -11    1    3    3    0    0 -0.46865773294E+01  0.20810131765E+01  0.17492796231E+01  0.54179887750E+01  0.51100000000E-03 0.  1.
        -12    1    3    3    0    0  0.52545437033E+01  0.22864350659E+02  0.44274799501E+01  0.23874491394E+02  0.00000000000E+00 0.  1.
</event>
<event>
 7    1  0.4432754E-010  0.4778727E+02  0.7816164E-02  0.1312668E+00
        -11   -1    0    0    0    0  0.00000000000E+00  0.00000000000E+00  0.45593999997E+02  0.45594000000E+02  0.51100000000E-03 0. -1.
         11   -1    0    0    0    0 -0.00000000000E+00 -0.00000000000E+00 -0.45593999997E+02  0.45594000000E+02  0.51100000000E-03 0.  1.
    9900012    2    1    2    0    0  0.18297835491E+02 -0.29267100121E+02  0.26310633083E+02  0.47787270209E+02  0.19999996190E+02 0.  0.
        -12    1    1    2    0    0 -0.18297835491E+02  0.29267100121E+02 -0.26310633083E+02  0.43400729791E+02  0.00000000000E+00 0.  1.
         11    1    3    3    0    0 -0.11932614694E+01 -0.50180110922E+01 -0.21412602272E+01  0.55847384789E+01  0.51100000000E-03 0. -1.
        -11    1    3    3    0    0  0.31922349813E+01 -0.29441841188E+01  0.41503445562E+01  0.60069913016E+01  0.51100000000E-03 0.  1.
         12    1    3    3    0    0  0.16298861980E+02 -0.21304904910E+02  0.24301548754E+02  0.36195540428E+02  0.00000000000E+00 0. -1.
</event>
<event>
 7    1  0.4432754E-010  0.4778727E+02  0.7816164E-02  0.1312668E+00
        -11   -1    0    0    0    0  0.00000000000E+00  0.00000000000E+00  0.45593999997E+02  0.45594000000E+02  0.51100000000E-03 0.  1.
         11   -1    0    0    0    0 -0.00000000000E+00 -0.00000000000E+00 -0.45593999997E+02  0.45594000000E+02  0.51100000000E-03 0. -1.
    9900012    2    1    2    0    0  0.21797090914E+02 -0.71500629010E+01 -0.36842724799E+02  0.47787274863E+02  0.20000017411E+02 0.  0.
        -12    1    1    2    0    0 -0.21797090914E+02  0.71500629010E+01  0.36842724799E+02  0.43400725137E+02  0.00000000000E+00 0.  1.
         11    1    3    3    0    0  0.12892230673E+01 -0.62700926986E+00 -0.56480073062E+00  0.15408558882E+01  0.51100000000E-03 0. -1.
        -11    1    3    3    0    0  0.12096005080E+02 -0.66394501299E+01 -0.64067686189E+01  0.15213228497E+02  0.51100000000E-03 0.  1.
         12    1    3    3    0    0  0.84118627669E+01  0.11639649875E+00 -0.29871155449E+02  0.31033190478E+02  0.00000000000E+00 0. -1.
</event>
<event>
 7    1  0.4432754E-010  0.4778728E+02  0.7816164E-02  0.1312668E+00
        -11   -1    0    0    0    0  0.00000000000E+00  0.00000000000E+00  0.45593999997E+02  0.45594000000E+02  0.51100000000E-03 0.  1.
         11   -1    0    0    0    0 -0.00000000000E+00 -0.00000000000E+00 -0.45593999997E+02  0.45594000000E+02  0.51100000000E-03 0. -1.
    9900012    2    1    2    0    0  0.20030744348E+00 -0.43249922525E+02  0.36092724276E+01  0.47787276861E+02  0.20000026522E+02 0.  0.
        -12    1    1    2    0    0 -0.20030744348E+00  0.43249922525E+02 -0.36092724276E+01  0.43400723139E+02  0.00000000000E+00 0.  1.
         11    1    3    3    0    0 -0.35417974410E+01 -0.70768063792E+01  0.26337788528E+01  0.83404022054E+01  0.51100000000E-03 0. -1.
        -11    1    3    3    0    0 -0.46121767238E+01 -0.56675767341E+01 -0.22710373794E+01  0.76518763194E+01  0.51100000000E-03 0.  1.
        -12    1    3    3    0    0  0.83542816083E+01 -0.30505539412E+02  0.32465309542E+01  0.31794998337E+02  0.00000000000E+00 0.  1.
</event>
<event>
 7    1  0.4432754E-010  0.4778727E+02  0.7816164E-02  0.1312668E+00
        -11   -1    0    0    0    0  0.00000000000E+00  0.00000000000E+00  0.45593999997E+02  0.45594000000E+02  0.51100000000E-03 0. -1.
         11   -1    0    0    0    0 -0.00000000000E+00 -0.00000000000E+00 -0.45593999997E+02  0.45594000000E+02  0.51100000000E-03 0.  1.
    9900012    2    1    2    0    0 -0.37953036242E+02  0.12774247394E+02 -0.16733466290E+02  0.47787271313E+02  0.20000001226E+02 0.  0.
        -12    1    1    2    0    0  0.37953036242E+02 -0.12774247394E+02  0.16733466290E+02  0.43400728687E+02  0.00000000000E+00 0.  1.
         11    1    3    3    0    0 -0.65095624553E+01  0.69787285838E+01 -0.63570746663E+01  0.11466885130E+02  0.51100000000E-03 0. -1.
        -11    1    3    3    0    0  0.87869715676E-01  0.99524042405E+00 -0.35705380313E+01  0.37076902086E+01  0.51100000000E-03 0.  1.
         12    1    3    3    0    0 -0.31531343502E+02  0.48002783863E+01 -0.68058535921E+01  0.32612695975E+02  0.00000000000E+00 0. -1.
</event>
<event>
 7    1  0.4432754E-010  0.4778727E+02  0.7816164E-02  0.1312668E+00
        -11   -1    0    0    0    0  0.00000000000E+00  0.00000000000E+00  0.45593999997E+02  0.45594000000E+02  0.51100000000E-03 0. -1.
         11   -1    0    0    0    0 -0.00000000000E+00 -0.00000000000E+00 -0.45593999997E+02  0.45594000000E+02  0.51100000000E-03 0.  1.
    9900012    2    1    2    0    0  0.14995702771E+02  0.36989054530E+01  0.40559468164E+02  0.47787268889E+02  0.19999990174E+02 0.  0.
        -12    1    1    2    0    0 -0.14995702771E+02 -0.36989054530E+01 -0.40559468164E+02  0.43400731111E+02  0.00000000000E+00 0.  1.
         11    1    3    3    0    0  0.18269148841E+01  0.19294149804E+00  0.22076066103E+01  0.28719978451E+01  0.51100000000E-03 0. -1.
        -11    1    3    3    0    0 -0.89915219890E+00  0.13319876653E+01  0.26054894768E+02  0.26104409732E+02  0.51100000000E-03 0.  1.
        -12    1    3    3    0    0  0.14067940086E+02  0.21739762897E+01  0.12296966786E+02  0.18810861312E+02  0.00000000000E+00 0.  1.
</event>
<event>
 7    1  0.4432754E-010  0.4778727E+02  0.7816164E-02  0.1312668E+00
        -11   -1    0    0    0    0  0.00000000000E+00  0.00000000000E+00  0.45593999997E+02  0.45594000000E+02  0.51100000000E-03 0.  1.
         11   -1    0    0    0    0 -0.00000000000E+00 -0.00000000000E+00 -0.45593999997E+02  0.45594000000E+02  0.51100000000E-03 0. -1.
    9900012    2    1    2    0    0  0.39054887305E+02 -0.18405976312E+02  0.44226173794E+01  0.47787265780E+02  0.19999975996E+02 0.  0.
        -12    1    1    2    0    0 -0.39054887305E+02  0.18405976312E+02 -0.44226173794E+01  0.43400734220E+02  0.00000000000E+00 0.  1.
         11    1    3    3    0    0  0.38580716044E+02 -0.15935142846E+02  0.26115028865E+01  0.41823681995E+02  0.51100000000E-03 0. -1.
        -11    1    3    3    0    0  0.16922141150E+01 -0.32482677784E+01  0.20554021693E-01  0.36626841115E+01  0.51100000000E-03 0.  1.
         12    1    3    3    0    0 -0.12180428547E+01  0.77743431264E+00  0.17905604712E+01  0.23008996735E+01  0.00000000000E+00 0. -1.
</event>
<event>
 7    1  0.4432754E-010  0.4778727E+02  0.7816164E-02  0.1312668E+00
        -11   -1    0    0    0    0  0.00000000000E+00  0.00000000000E+00  0.45593999997E+02  0.45594000000E+02  0.51100000000E-03 0.  1.
         11   -1    0    0    0    0 -0.00000000000E+00 -0.00000000000E+00 -0.45593999997E+02  0.45594000000E+02  0.51100000000E-03 0. -1.
    9900012    2    1    2    0    0  0.13724752549E+02  0.84936725016E+01 -0.40287862635E+02  0.47787272117E+02  0.20000004892E+02 0.  0.
        -12    1    1    2    0    0 -0.13724752549E+02 -0.84936725016E+01  0.40287862635E+02  0.43400727883E+02  0.00000000000E+00 0.  1.
         11    1    3    3    0    0 -0.23033344942E+01  0.23851946856E+01 -0.93728116813E+01  0.99420371431E+01  0.51100000000E-03 0.  1.
        -11    1    3    3    0    0 -0.13459463457E+01  0.17298507753E+01 -0.10306429151E+02  0.10536908340E+02  0.51100000000E-03 0. -1.
        -12    1    3    3    0    0  0.17374033389E+02  0.43786270407E+01 -0.20608621802E+02  0.27308326634E+02  0.00000000000E+00 0.  1.
</event>
<event>
 7    1  0.4432754E-010  0.4778727E+02  0.7816164E-02  0.1312668E+00
        -11   -1    0    0    0    0  0.00000000000E+00  0.00000000000E+00  0.45593999997E+02  0.45594000000E+02  0.51100000000E-03 0.  1.
         11   -1    0    0    0    0 -0.00000000000E+00 -0.00000000000E+00 -0.45593999997E+02  0.45594000000E+02  0.51100000000E-03 0. -1.
    9900012    2    1    2    0    0 -0.25402610094E+02 -0.21664524665E+02 -0.27730471231E+02  0.47787271167E+02  0.20000000559E+02 0.  0.
        -12    1    1    2    0    0  0.25402610094E+02  0.21664524665E+02  0.27730471231E+02  0.43400728833E+02  0.00000000000E+00 0.  1.
         11    1    3    3    0    0 -0.11116556487E+02 -0.12792488221E+02 -0.16284500244E+02  0.23503415315E+02  0.51100000000E-03 0. -1.
        -11    1    3    3    0    0 -0.52380595720E+01 -0.97074857162E+01 -0.10359807813E+02  0.15132685327E+02  0.51100000000E-03 0.  1.
         12    1    3    3    0    0 -0.90479940351E+01  0.83544927167E+00 -0.10861631736E+01  0.91511705254E+01  0.00000000000E+00 0. -1.
</event>
<event>
 7    1  0.4432754E-010  0.4778727E+02  0.7816164E-02  0.1312668E+00
        -11   -1    0    0    0    0  0.00000000000E+00  0.00000000000E+00  0.45593999997E+02  0.45594000000E+02  0.51100000000E-03 0.  1.
         11   -1    0    0    0    0 -0.00000000000E+00 -0.00000000000E+00 -0.45593999997E+02  0.45594000000E+02  0.51100000000E-03 0. -1.
    9900012    2    1    2    0    0 -0.16748501180E+01 -0.11554387150E+02 -0.41800884866E+02  0.47787274650E+02  0.20000016440E+02 0.  0.
        -12    1    1    2    0    0  0.16748501180E+01  0.11554387150E+02  0.41800884866E+02  0.43400725350E+02  0.00000000000E+00 0.  1.
         11    1    3    3    0    0 -0.79233836662E+01 -0.10535206353E+02 -0.22972604072E+02  0.26486055193E+02  0.51100000000E-03 0. -1.
        -11    1    3    3    0    0  0.96562006439E+00 -0.89936342375E+00  0.38493566283E+00  0.13745735347E+01  0.51100000000E-03 0.  1.
        -12    1    3    3    0    0  0.52829134837E+01 -0.11981737341E+00 -0.19213216457E+02  0.19926645922E+02  0.00000000000E+00 0.  1.
</event>
<event>
 7    1  0.4432754E-010  0.4778726E+02  0.7816164E-02  0.1312668E+00
        -11   -1    0    0    0    0  0.00000000000E+00  0.00000000000E+00  0.45593999997E+02  0.45594000000E+02  0.51100000000E-03 0. -1.
         11   -1    0    0    0    0 -0.00000000000E+00 -0.00000000000E+00 -0.45593999997E+02  0.45594000000E+02  0.51100000000E-03 0.  1.
    9900012    2    1    2    0    0  0.67127899434E+01  0.27428489840E+02  0.32958160088E+02  0.47787263599E+02  0.19999966054E+02 0.  0.
        -12    1    1    2    0    0 -0.67127899434E+01 -0.27428489840E+02 -0.32958160088E+02  0.43400736401E+02  0.00000000000E+00 0.  1.
         11    1    3    3    0    0  0.63335806653E+01  0.18868686905E+02  0.22901371855E+02  0.30341628543E+02  0.51100000000E-03 0. -1.
        -11    1    3    3    0    0 -0.13430719027E+01  0.39987061242E+01  0.11590843423E+02  0.12334550836E+02  0.51100000000E-03 0.  1.
         12    1    3    3    0    0  0.17222811808E+01  0.45610968108E+01 -0.15340551893E+01  0.51110842203E+01  0.00000000000E+00 0. -1.
</event>
<event>
 7    1  0.4432754E-010  0.4778727E+02  0.7816164E-02  0.1312668E+00
        -11   -1    0    0    0    0  0.00000000000E+00  0.00000000000E+00  0.45593999997E+02  0.45594000000E+02  0.51100000000E-03 0. -1.
         11   -1    0    0    0    0 -0.00000000000E+00 -0.00000000000E+00 -0.45593999997E+02  0.45594000000E+02  0.51100000000E-03 0.  1.
    9900012    2    1    2    0    0  0.34095626564E+02  0.21926293971E+02  0.15503201668E+02  0.47787269820E+02  0.19999994420E+02 0.  0.
        -12    1    1    2    0    0 -0.34095626564E+02 -0.21926293971E+02 -0.15503201668E+02  0.43400730180E+02  0.00000000000E+00 0.  1.
         11    1    3    3    0    0  0.16858922812E+02  0.10365549717E+02  0.39710501188E+01  0.20185072173E+02  0.51100000000E-03 0. -1.
        -11    1    3    3    0    0  0.14803501131E+02  0.55081352636E+01  0.18157265957E+01  0.15899058561E+02  0.51100000000E-03 0.  1.
         12    1    3    3    0    0  0.24332026222E+01  0.60526089909E+01  0.97164249538E+01  0.11703139087E+02  0.00000000000E+00 0. -1.
</event>
<event>
 7    1  0.4432754E-010  0.4778727E+02  0.7816164E-02  0.1312668E+00
        -11   -1    0    0    0    0  0.00000000000E+00  0.00000000000E+00  0.45593999997E+02  0.45594000000E+02  0.51100000000E-03 0.  1.
         11   -1    0    0    0    0 -0.00000000000E+00 -0.00000000000E+00 -0.45593999997E+02  0.45594000000E+02  0.51100000000E-03 0. -1.
    9900012    2    1    2    0    0  0.43150241200E+02 -0.35289261467E+01 -0.30375157823E+01  0.47787272615E+02  0.20000007162E+02 0.  0.
        -12    1    1    2    0    0 -0.43150241200E+02  0.35289261467E+01  0.30375157823E+01  0.43400727385E+02  0.00000000000E+00 0.  1.
         11    1    3    3    0    0  0.19518551830E+02  0.40112350632E+01 -0.40769594735E+01  0.20339259354E+02  0.51100000000E-03 0. -1.
        -11    1    3    3    0    0  0.13134971501E+02 -0.26356503491E+01  0.62033570368E+01  0.14763325096E+02  0.51100000000E-03 0.  1.
         12    1    3    3    0    0  0.10496717869E+02 -0.49045108608E+01 -0.51639133456E+01  0.12684688165E+02  0.00000000000E+00 0. -1.
</event>
<event>
 7    1  0.4432754E-010  0.4778727E+02  0.7816164E-02  0.1312668E+00
        -11   -1    0    0    0    0  0.00000000000E+00  0.00000000000E+00  0.45593999997E+02  0.45594000000E+02  0.51100000000E-03 0. -1.
         11   -1    0    0    0    0 -0.00000000000E+00 -0.00000000000E+00 -0.45593999997E+02  0.45594000000E+02  0.51100000000E-03 0.  1.
    9900012    2    1    2    0    0 -0.27423948994E+02  0.33636891700E+02  0.33142747343E+00  0.47787270676E+02  0.19999998322E+02 0.  0.
        -12    1    1    2    0    0  0.27423948994E+02 -0.33636891700E+02 -0.33142747343E+00  0.43400729324E+02  0.00000000000E+00 0.  1.
         11    1    3    3    0    0 -0.84899755043E+01  0.93964397078E+01  0.54583500109E+01  0.13790081521E+02  0.51100000000E-03 0. -1.
        -11    1    3    3    0    0 -0.11099340393E+02  0.21676945859E+02 -0.12244627506E+00  0.24353651314E+02  0.51100000000E-03 0.  1.
        -12    1    3    3    0    0 -0.78346330966E+01  0.25635061326E+01 -0.50044762624E+01  0.96435378421E+01  0.00000000000E+00 0.  1.
</event>
<event>
 7    1  0.4432754E-010  0.4778727E+02  0.7816164E-02  0.1312668E+00
        -11   -1    0    0    0    0  0.00000000000E+00  0.00000000000E+00  0.45593999997E+02  0.45594000000E+02  0.51100000000E-03 0.  1.
         11   -1    0    0    0    0 -0.00000000000E+00 -0.00000000000E+00 -0.45593999997E+02  0.45594000000E+02  0.51100000000E-03 0. -1.
    9900012    2    1    2    0    0 -0.38691526740E+01 -0.68770873130E+01 -0.42677381338E+02  0.47787267861E+02  0.19999985484E+02 0.  0.
        -12    1    1    2    0    0  0.38691526740E+01  0.68770873130E+01  0.42677381338E+02  0.43400732139E+02  0.00000000000E+00 0.  1.
         11    1    3    3    0    0  0.13097430012E+01 -0.23059664557E+01 -0.18987505349E+02  0.19171809192E+02  0.51100000000E-03 0. -1.
        -11    1    3    3    0    0  0.24673071871E+00 -0.88813018001E+01 -0.15697885262E+02  0.18037793647E+02  0.51100000000E-03 0.  1.
        -12    1    3    3    0    0 -0.54256263939E+01  0.43101809427E+01 -0.79919907272E+01  0.10577665022E+02  0.00000000000E+00 0.  1.
</event>
<event>
 7    1  0.4432754E-010  0.4778727E+02  0.7816164E-02  0.1312668E+00
        -11   -1    0    0    0    0  0.00000000000E+00  0.00000000000E+00  0.45593999997E+02  0.45594000000E+02  0.51100000000E-03 0. -1.
         11   -1    0    0    0    0 -0.00000000000E+00 -0.00000000000E+00 -0.45593999997E+02  0.45594000000E+02  0.51100000000E-03 0.  1.
    9900012    2    1    2    0    0 -0.16550912680E+02  0.29052484143E+02  0.27670269187E+02  0.47787270256E+02  0.19999996406E+02 0.  0.
        -12    1    1    2    0    0  0.16550912680E+02 -0.29052484143E+02 -0.27670269187E+02  0.43400729744E+02  0.00000000000E+00 0.  1.
         11    1    3    3    0    0 -0.66304052974E+01  0.43682366795E+01  0.70146271668E+01  0.10594751561E+02  0.51100000000E-03 0. -1.
        -11    1    3    3    0    0  0.26304506156E+01 -0.48758874821E+00  0.90807353324E+00  0.28251745134E+01  0.51100000000E-03 0.  1.
        -12    1    3    3    0    0 -0.12550957998E+02  0.25171836212E+02  0.19747568487E+02  0.34367344181E+02  0.00000000000E+00 0.  1.
</event>
<event>
 7    1  0.4432754E-010  0.4778727E+02  0.7816164E-02  0.1312668E+00
        -11   -1    0    0    0    0  0.00000000000E+00  0.00000000000E+00  0.45593999997E+02  0.45594000000E+02  0.51100000000E-03 0.  1.
         11   -1    0    0    0    0 -0.00000000000E+00 -0.00000000000E+00 -0.45593999997E+02  0.45594000000E+02  0.51100000000E-03 0. -1.
    9900012    2    1    2    0    0 -0.16014655849E+02 -0.40229637068E+02 -0.29547479073E+01  0.47787269179E+02  0.19999991494E+02 0.  0.
        -12    1    1    2    0    0  0.16014655849E+02  0.40229637068E+02  0.29547479073E+01  0.43400730821E+02  0.00000000000E+00 0.  1.
         11    1    3    3    0    0 -0.42252885161E+01 -0.11475825924E+02  0.55208254752E+01  0.13417419941E+02  0.51100000000E-03 0. -1.
        -11    1    3    3    0    0  0.84075307116E+00  0.19599078348E+00 -0.19292633822E+01  0.21136072419E+01  0.51100000000E-03 0.  1.
         12    1    3    3    0    0 -0.12630120404E+02 -0.28949801928E+02 -0.65463100003E+01  0.32256241996E+02  0.00000000000E+00 0. -1.
</event>
<event>
 7    1  0.4432754E-010  0.4778727E+02  0.7816164E-02  0.1312668E+00
        -11   -1    0    0    0    0  0.00000000000E+00  0.00000000000E+00  0.45593999997E+02  0.45594000000E+02  0.51100000000E-03 0. -1.
         11   -1    0    0    0    0 -0.00000000000E+00 -0.00000000000E+00 -0.45593999997E+02  0.45594000000E+02  0.51100000000E-03 0.  1.
    9900012    2    1    2    0    0 -0.25090694383E+01  0.15818706422E+02  0.40337279799E+02  0.47787273694E+02  0.20000012081E+02 0.  0.
        -12    1    1    2    0    0  0.25090694383E+01 -0.15818706422E+02 -0.40337279799E+02  0.43400726306E+02  0.00000000000E+00 0.  1.
         11    1    3    3    0    0 -0.11459142789E+01  0.18862941908E+01  0.38871373388E+00  0.22410542021E+01  0.51100000000E-03 0. -1.
        -11    1    3    3    0    0  0.26102799532E-01 -0.24461414214E+01  0.10877029761E+00  0.24486977046E+01  0.51100000000E-03 0.  1.
         12    1    3    3    0    0 -0.13892579589E+01  0.16378553653E+02  0.39839795767E+02  0.43097521787E+02  0.00000000000E+00 0. -1.
</event>
<event>
 7    1  0.4432754E-010  0.4778727E+02  0.7816164E-02  0.1312668E+00
        -11   -1    0    0    0    0  0.00000000000E+00  0.00000000000E+00  0.45593999997E+02  0.45594000000E+02  0.51100000000E-03 0. -1.
         11   -1    0    0    0    0 -0.00000000000E+00 -0.00000000000E+00 -0.45593999997E+02  0.45594000000E+02  0.51100000000E-03 0.  1.
    9900012    2    1    2    0    0 -0.30802754355E+02  0.25494179962E+02  0.16877809324E+02  0.47787270336E+02  0.19999996769E+02 0.  0.
        -12    1    1    2    0    0  0.30802754355E+02 -0.25494179962E+02 -0.16877809324E+02  0.43400729664E+02  0.00000000000E+00 0.  1.
         11    1    3    3    0    0 -0.19657886999E+02  0.14173755098E+02  0.18468539006E+01  0.24305117248E+02  0.51100000000E-03 0.  1.
        -11    1    3    3    0    0 -0.79715666899E+01  0.10118618638E+02  0.67715462405E+01  0.14552874540E+02  0.51100000000E-03 0. -1.
         12    1    3    3    0    0 -0.31733006661E+01  0.12018062258E+01  0.82594091833E+01  0.89292785475E+01  0.00000000000E+00 0. -1.
</event>
<event>
 7    1  0.4432754E-010  0.4778727E+02  0.7816164E-02  0.1312668E+00
        -11   -1    0    0    0    0  0.00000000000E+00  0.00000000000E+00  0.45593999997E+02  0.45594000000E+02  0.51100000000E-03 0.  1.
         11   -1    0    0    0    0 -0.00000000000E+00 -0.00000000000E+00 -0.45593999997E+02  0.45594000000E+02  0.51100000000E-03 0. -1.
    9900012    2    1    2    0    0  0.25507606486E+02 -0.34664836011E+02 -0.55977265780E+01  0.47787269740E+02  0.19999994052E+02 0.  0.
        -12    1    1    2    0    0 -0.25507606486E+02  0.34664836011E+02  0.55977265780E+01  0.43400730260E+02  0.00000000000E+00 0.  1.
         11    1    3    3    0    0  0.57944626368E+01 -0.10447695909E+02 -0.57270923848E+00  0.11960691585E+02  0.51100000000E-03 0. -1.
        -11    1    3    3    0    0  0.69014555337E+01 -0.17595352470E+02  0.32822497853E+01  0.19183317777E+02  0.51100000000E-03 0.  1.
        -12    1    3    3    0    0  0.12811688315E+02 -0.66217876322E+01 -0.83072671248E+01  0.16643260378E+02  0.00000000000E+00 0.  1.
</event>
<event>
 7    1  0.4432754E-010  0.4778727E+02  0.7816164E-02  0.1312668E+00
        -11   -1    0    0    0    0  0.00000000000E+00  0.00000000000E+00  0.45593999997E+02  0.45594000000E+02  0.51100000000E-03 0. -1.
         11   -1    0    0    0    0 -0.00000000000E+00 -0.00000000000E+00 -0.45593999997E+02  0.45594000000E+02  0.51100000000E-03 0.  1.
    9900012    2    1    2    0    0  0.21905421085E+02  0.17028776626E+02  0.33373597746E+02  0.47787265757E+02  0.19999975893E+02 0.  0.
        -12    1    1    2    0    0 -0.21905421085E+02 -0.17028776626E+02 -0.33373597746E+02  0.43400734243E+02  0.00000000000E+00 0.  1.
         11    1    3    3    0    0  0.72704495562E+00 -0.13615461089E+01 -0.61256044445E+00  0.16606121562E+01  0.51100000000E-03 0. -1.
        -11    1    3    3    0    0  0.86904324351E+01  0.29441566419E+01  0.36685678062E+01  0.98818047062E+01  0.51100000000E-03 0.  1.
         12    1    3    3    0    0  0.12487943695E+02  0.15446166093E+02  0.30317590384E+02  0.36244848895E+02  0.00000000000E+00 0. -1.
</event>
<event>
 7    1  0.4432754E-010  0.4778721E+02  0.7816164E-02  0.1312668E+00
        -11   -1    0    0    0    0  0.00000000000E+00  0.00000000000E+00  0.45593999997E+02  0.45594000000E+02  0.51100000000E-03 0.  1.
         11   -1    0    0    0    0 -0.00000000000E+00 -0.00000000000E+00 -0.45593999997E+02  0.45594000000E+02  0.51100000000E-03 0. -1.
    9900012    2    1    2    0    0  0.17785525397E+02  0.39545004665E+02  0.18697852577E+01  0.47787211937E+02  0.19999730503E+02 0.  0.
        -12    1    1    2    0    0 -0.17785525397E+02 -0.39545004665E+02 -0.18697852577E+01  0.43400788063E+02  0.00000000000E+00 0.  1.
         11    1    3    3    0    0  0.12085560795E+02  0.24108924942E+02  0.48493161988E+01  0.27401038474E+02  0.51100000000E-03 0. -1.
        -11    1    3    3    0    0  0.34070904443E+01  0.19690704241E+01  0.35001234642E+01  0.52665328401E+01  0.51100000000E-03 0.  1.
         12    1    3    3    0    0  0.22928741579E+01  0.13467009298E+02 -0.64796544053E+01  0.15119640622E+02  0.00000000000E+00 0. -1.
</event>
<event>
 7    1  0.4432754E-010  0.4778727E+02  0.7816164E-02  0.1312668E+00
        -11   -1    0    0    0    0  0.00000000000E+00  0.00000000000E+00  0.45593999997E+02  0.45594000000E+02  0.51100000000E-03 0.  1.
         11   -1    0    0    0    0 -0.00000000000E+00 -0.00000000000E+00 -0.45593999997E+02  0.45594000000E+02  0.51100000000E-03 0. -1.
    9900012    2    1    2    0    0 -0.43006804645E+02  0.33635200503E+01 -0.47670856045E+01  0.47787267079E+02  0.19999981919E+02 0.  0.
        -12    1    1    2    0    0  0.43006804645E+02 -0.33635200503E+01  0.47670856045E+01  0.43400732921E+02  0.00000000000E+00 0.  1.
         11    1    3    3    0    0 -0.30751023717E+01  0.29940963570E+00  0.21926479618E+01  0.37886153238E+01  0.51100000000E-03 0. -1.
        -11    1    3    3    0    0 -0.29666675959E+02 -0.43711976723E+01 -0.86545142456E+01  0.31210889904E+02  0.51100000000E-03 0.  1.
         12    1    3    3    0    0 -0.10265026315E+02  0.74353080870E+01  0.16947806793E+01  0.12787761851E+02  0.00000000000E+00 0. -1.
</event>
<event>
 7    1  0.4432754E-010  0.4778728E+02  0.7816164E-02  0.1312668E+00
        -11   -1    0    0    0    0  0.00000000000E+00  0.00000000000E+00  0.45593999997E+02  0.45594000000E+02  0.51100000000E-03 0.  1.
         11   -1    0    0    0    0 -0.00000000000E+00 -0.00000000000E+00 -0.45593999997E+02  0.45594000000E+02  0.51100000000E-03 0. -1.
    9900012    2    1    2    0    0  0.75661461731E+01 -0.23433469922E+02 -0.35738617224E+02  0.47787276025E+02  0.20000022708E+02 0.  0.
        -12    1    1    2    0    0 -0.75661461731E+01  0.23433469922E+02  0.35738617224E+02  0.43400723975E+02  0.00000000000E+00 0.  1.
         11    1    3    3    0    0  0.39395328896E+01 -0.19003703890E+02 -0.29233868412E+02  0.35089595944E+02  0.51100000000E-03 0. -1.
        -11    1    3    3    0    0  0.28671507116E+01 -0.66598221782E+01 -0.72232669228E+01  0.10234713965E+02  0.51100000000E-03 0.  1.
        -12    1    3    3    0    0  0.75946257186E+00  0.22300561456E+01  0.71851811129E+00  0.24629661157E+01  0.00000000000E+00 0.  1.
</event>
<event>
 7    1  0.4432754E-010  0.4778727E+02  0.7816164E-02  0.1312668E+00
        -11   -1    0    0    0    0  0.00000000000E+00  0.00000000000E+00  0.45593999997E+02  0.45594000000E+02  0.51100000000E-03 0. -1.
         11   -1    0    0    0    0 -0.00000000000E+00 -0.00000000000E+00 -0.45593999997E+02  0.45594000000E+02  0.51100000000E-03 0.  1.
    9900012    2    1    2    0    0  0.27464485408E+02 -0.24096749490E+02 -0.23423747925E+02  0.47787271186E+02  0.20000000647E+02 0.  0.
        -12    1    1    2    0    0 -0.27464485408E+02  0.24096749490E+02  0.23423747925E+02  0.43400728814E+02  0.00000000000E+00 0.  1.
         11    1    3    3    0    0  0.90172055411E+01 -0.77835396653E+01 -0.72847392071E+01  0.13962840365E+02  0.51100000000E-03 0. -1.
        -11    1    3    3    0    0  0.10296861875E+02 -0.86231221334E+00 -0.12068461787E+02  0.15887627796E+02  0.51100000000E-03 0.  1.
         12    1    3    3    0    0  0.81504179919E+01 -0.15450897611E+02 -0.40705469316E+01  0.17936803025E+02  0.00000000000E+00 0. -1.
</event>
<event>
 7    1  0.4432754E-010  0.4778727E+02  0.7816164E-02  0.1312668E+00
        -11   -1    0    0    0    0  0.00000000000E+00  0.00000000000E+00  0.45593999997E+02  0.45594000000E+02  0.51100000000E-03 0.  1.
         11   -1    0    0    0    0 -0.00000000000E+00 -0.00000000000E+00 -0.45593999997E+02  0.45594000000E+02  0.51100000000E-03 0. -1.
    9900012    2    1    2    0    0  0.39886401652E+01  0.16735441388E+02 -0.39845185978E+02  0.47787273111E+02  0.20000009422E+02 0.  0.
        -12    1    1    2    0    0 -0.39886401652E+01 -0.16735441388E+02  0.39845185978E+02  0.43400726889E+02  0.00000000000E+00 0.  1.
         11    1    3    3    0    0 -0.40947148538E+00  0.14388355093E+01 -0.86515304183E+01  0.87799142000E+01  0.51100000000E-03 0. -1.
        -11    1    3    3    0    0 -0.50568402785E+01  0.12485480692E+02 -0.19640221492E+02  0.23815901457E+02  0.51100000000E-03 0.  1.
        -12    1    3    3    0    0  0.94549519290E+01  0.28111251873E+01 -0.11553434068E+02  0.15191457454E+02  0.00000000000E+00 0.  1.
</event>
<event>
 7    1  0.4432754E-010  0.4778725E+02  0.7816164E-02  0.1312668E+00
        -11   -1    0    0    0    0  0.00000000000E+00  0.00000000000E+00  0.45593999997E+02  0.45594000000E+02  0.51100000000E-03 0. -1.
         11   -1    0    0    0    0 -0.00000000000E+00 -0.00000000000E+00 -0.45593999997E+02  0.45594000000E+02  0.51100000000E-03 0.  1.
    9900012    2    1    2    0    0 -0.17812554547E+02 -0.19411221408E+01  0.39529358296E+02  0.47787248602E+02  0.19999897674E+02 0.  0.
        -12    1    1    2    0    0  0.17812554547E+02  0.19411221408E+01 -0.39529358296E+02  0.43400751398E+02  0.00000000000E+00 0.  1.
         11    1    3    3    0    0 -0.31096932460E+01  0.86902954190E-01  0.12662718607E+02  0.13039255615E+02  0.51100000000E-03 0. -1.
        -11    1    3    3    0    0  0.22906426028E+01 -0.30021727010E+01  0.12230033105E+01  0.39693603791E+01  0.51100000000E-03 0.  1.
        -12    1    3    3    0    0 -0.16993503904E+02  0.97414760609E+00  0.25643636379E+02  0.30778632608E+02  0.00000000000E+00 0.  1.
</event>
<event>
 7    1  0.4432754E-010  0.4778727E+02  0.7816164E-02  0.1312668E+00
        -11   -1    0    0    0    0  0.00000000000E+00  0.00000000000E+00  0.45593999997E+02  0.45594000000E+02  0.51100000000E-03 0. -1.
         11   -1    0    0    0    0 -0.00000000000E+00 -0.00000000000E+00 -0.45593999997E+02  0.45594000000E+02  0.51100000000E-03 0.  1.
    9900012    2    1    2    0    0  0.38697791277E+02  0.18275668697E+02  0.72183267091E+01  0.47787270092E+02  0.19999995658E+02 0.  0.
        -12    1    1    2    0    0 -0.38697791277E+02 -0.18275668697E+02 -0.72183267091E+01  0.43400729908E+02  0.00000000000E+00 0.  1.
         11    1    3    3    0    0  0.72288402397E+01 -0.32381763659E+01  0.16360797444E+01  0.80881811663E+01  0.51100000000E-03 0.  1.
        -11    1    3    3    0    0  0.17007426179E+02  0.62874036973E+01  0.73450700125E+00  0.18147272282E+02  0.51100000000E-03 0. -1.
        -12    1    3    3    0    0  0.14461524859E+02  0.15226441365E+02  0.48477399635E+01  0.21551816644E+02  0.00000000000E+00 0.  1.
</event>
<event>
 7    1  0.4432754E-010  0.4778727E+02  0.7816164E-02  0.1312668E+00
        -11   -1    0    0    0    0  0.00000000000E+00  0.00000000000E+00  0.45593999997E+02  0.45594000000E+02  0.51100000000E-03 0. -1.
         11   -1    0    0    0    0 -0.00000000000E+00 -0.00000000000E+00 -0.45593999997E+02  0.45594000000E+02  0.51100000000E-03 0.  1.
    9900012    2    1    2    0    0 -0.32633659022E+02  0.71591223999E+01  0.27702246261E+02  0.47787272096E+02  0.20000004793E+02 0.  0.
        -12    1    1    2    0    0  0.32633659022E+02 -0.71591223999E+01 -0.27702246261E+02  0.43400727904E+02  0.00000000000E+00 0.  1.
         11    1    3    3    0    0 -0.22056065215E+00 -0.29684518967E+01  0.33006967068E+01  0.44446543932E+01  0.51100000000E-03 0. -1.
        -11    1    3    3    0    0 -0.50566123512E+01  0.62867227912E+01  0.70986362355E+01  0.10746294645E+02  0.51100000000E-03 0.  1.
         12    1    3    3    0    0 -0.27356486019E+02  0.38408515054E+01  0.17302913319E+02  0.32596323058E+02  0.00000000000E+00 0. -1.
</event>
<event>
 7    1  0.4432754E-010  0.4778727E+02  0.7816164E-02  0.1312668E+00
        -11   -1    0    0    0    0  0.00000000000E+00  0.00000000000E+00  0.45593999997E+02  0.45594000000E+02  0.51100000000E-03 0. -1.
         11   -1    0    0    0    0 -0.00000000000E+00 -0.00000000000E+00 -0.45593999997E+02  0.45594000000E+02  0.51100000000E-03 0.  1.
    9900012    2    1    2    0    0 -0.42971696396E+02 -0.19452794899E+01 -0.57682250296E+01  0.47787271626E+02  0.20000002651E+02 0.  0.
        -12    1    1    2    0    0  0.42971696396E+02  0.19452794899E+01  0.57682250296E+01  0.43400728374E+02  0.00000000000E+00 0.  1.
         11    1    3    3    0    0 -0.19746149006E+02  0.64509940269E+01 -0.39178263135E+01  0.21139420233E+02  0.51100000000E-03 0. -1.
        -11    1    3    3    0    0 -0.70386334737E+00 -0.20197677353E+01 -0.24254326091E+01  0.32338226480E+01  0.51100000000E-03 0.  1.
        -12    1    3    3    0    0 -0.22521684043E+02 -0.63765057814E+01  0.57503389299E+00  0.23414028745E+02  0.00000000000E+00 0.  1.
</event>
<event>
 7    1  0.4432754E-010  0.4778727E+02  0.7816164E-02  0.1312668E+00
        -11   -1    0    0    0    0  0.00000000000E+00  0.00000000000E+00  0.45593999997E+02  0.45594000000E+02  0.51100000000E-03 0.  1.
         11   -1    0    0    0    0 -0.00000000000E+00 -0.00000000000E+00 -0.45593999997E+02  0.45594000000E+02  0.51100000000E-03 0. -1.
    9900012    2    1    2    0    0 -0.18180361319E+02  0.36109502875E+02  0.15786116618E+02  0.47787271740E+02  0.20000003173E+02 0.  0.
        -12    1    1    2    0    0  0.18180361319E+02 -0.36109502875E+02 -0.15786116618E+02  0.43400728260E+02  0.00000000000E+00 0.  1.
         11    1    3    3    0    0 -0.72320945796E+01  0.16668971984E+02  0.22222330671E+01  0.18305631349E+02  0.51100000000E-03 0. -1.
        -11    1    3    3    0    0  0.15994943939E+01  0.10441015529E+01  0.54602762416E+01  0.57847339840E+01  0.51100000000E-03 0.  1.
         12    1    3    3    0    0 -0.12547761133E+02  0.18396429338E+02  0.81036073091E+01  0.23696906407E+02  0.00000000000E+00 0. -1.
</event>
<event>
 7    1  0.4432754E-010  0.4778729E+02  0.7816164E-02  0.1312668E+00
        -11   -1    0    0    0    0  0.00000000000E+00  0.00000000000E+00  0.45593999997E+02  0.45594000000E+02  0.51100000000E-03 0.  1.
         11   -1    0    0    0    0 -0.00000000000E+00 -0.00000000000E+00 -0.45593999997E+02  0.45594000000E+02  0.51100000000E-03 0. -1.
    9900012    2    1    2    0    0 -0.39808382277E+02 -0.11019394740E+02 -0.13322422988E+02  0.47787293621E+02  0.20000102934E+02 0.  0.
        -12    1    1    2    0    0  0.39808382277E+02  0.11019394740E+02  0.13322422988E+02  0.43400706379E+02  0.00000000000E+00 0.  1.
         11    1    3    3    0    0 -0.16944617773E+02 -0.62643524107E+01 -0.77150361791E+01  0.19643929497E+02  0.51100000000E-03 0. -1.
        -11    1    3    3    0    0 -0.23314487973E+02 -0.54343963104E+00 -0.51536035938E+01  0.23883473498E+02  0.51100000000E-03 0.  1.
        -12    1    3    3    0    0  0.45072346833E+00 -0.42116026985E+01 -0.45378321470E+00  0.42598906254E+01  0.00000000000E+00 0.  1.
</event>
<event>
 7    1  0.4432754E-010  0.4778728E+02  0.7816164E-02  0.1312668E+00
        -11   -1    0    0    0    0  0.00000000000E+00  0.00000000000E+00  0.45593999997E+02  0.45594000000E+02  0.51100000000E-03 0.  1.
         11   -1    0    0    0    0 -0.00000000000E+00 -0.00000000000E+00 -0.45593999997E+02  0.45594000000E+02  0.51100000000E-03 0. -1.
    9900012    2    1    2    0    0 -0.22487151913E+02 -0.23140626298E+02 -0.29025196203E+02  0.47787278794E+02  0.20000035332E+02 0.  0.
        -12    1    1    2    0    0  0.22487151913E+02  0.23140626298E+02  0.29025196203E+02  0.43400721206E+02  0.00000000000E+00 0.  1.
         11    1    3    3    0    0 -0.15814706569E+01 -0.21287365234E+01  0.19831088845E+01  0.33113878863E+01  0.51100000000E-03 0.  1.
        -11    1    3    3    0    0 -0.10973653929E+01 -0.63151709168E+01 -0.10934024498E+02  0.12674323907E+02  0.51100000000E-03 0. -1.
         12    1    3    3    0    0 -0.19808315863E+02 -0.14696718858E+02 -0.20074280589E+02  0.31801567000E+02  0.00000000000E+00 0. -1.
</event>
<event>
 7    1  0.4432754E-010  0.4778727E+02  0.7816164E-02  0.1312668E+00
        -11   -1    0    0    0    0  0.00000000000E+00  0.00000000000E+00  0.45593999997E+02  0.45594000000E+02  0.51100000000E-03 0.  1.
         11   -1    0    0    0    0 -0.00000000000E+00 -0.00000000000E+00 -0.45593999997E+02  0.45594000000E+02  0.51100000000E-03 0. -1.
    9900012    2    1    2    0    0 -0.37514725759E+02  0.21708879141E+02  0.22345639363E+01  0.47787270071E+02  0.19999995563E+02 0.  0.
        -12    1    1    2    0    0  0.37514725759E+02 -0.21708879141E+02 -0.22345639363E+01  0.43400729929E+02  0.00000000000E+00 0.  1.
         11    1    3    3    0    0 -0.33523807082E+02  0.18640802451E+02 -0.31579281765E+01  0.38487630063E+02  0.51100000000E-03 0. -1.
        -11    1    3    3    0    0 -0.41874698928E+01  0.38945302680E+01  0.24224878283E+01  0.62105327992E+01  0.51100000000E-03 0.  1.
         12    1    3    3    0    0  0.19655121549E+00 -0.82645357730E+00  0.29700042845E+01  0.30891072086E+01  0.00000000000E+00 0. -1.
</event>
<event>
 7    1  0.4432754E-010  0.4778727E+02  0.7816164E-02  0.1312668E+00
        -11   -1    0    0    0    0  0.00000000000E+00  0.00000000000E+00  0.45593999997E+02  0.45594000000E+02  0.51100000000E-03 0.  1.
         11   -1    0    0    0    0 -0.00000000000E+00 -0.00000000000E+00 -0.45593999997E+02  0.45594000000E+02  0.51100000000E-03 0. -1.
    9900012    2    1    2    0    0  0.21087358730E+02  0.72981487892E+01 -0.37224770245E+02  0.47787271968E+02  0.20000004209E+02 0.  0.
        -12    1    1    2    0    0 -0.21087358730E+02 -0.72981487892E+01  0.37224770245E+02  0.43400728032E+02  0.00000000000E+00 0.  1.
         11    1    3    3    0    0  0.85246868917E+01  0.41846237538E+01 -0.24812351690E+02  0.26567539577E+02  0.51100000000E-03 0. -1.
        -11    1    3    3    0    0  0.30067707125E+01  0.58063317339E+01 -0.80621661474E+01  0.10380398912E+02  0.51100000000E-03 0.  1.
        -12    1    3    3    0    0  0.95559011259E+01 -0.26928066984E+01 -0.43502524080E+01  0.10839333478E+02  0.00000000000E+00 0.  1.
</event>
<event>
 7    1  0.4432754E-010  0.4778727E+02  0.7816164E-02  0.1312668E+00
        -11   -1    0    0    0    0  0.00000000000E+00  0.00000000000E+00  0.45593999997E+02  0.45594000000E+02  0.51100000000E-03 0.  1.
         11   -1    0    0    0    0 -0.00000000000E+00 -0.00000000000E+00 -0.45593999997E+02  0.45594000000E+02  0.51100000000E-03 0. -1.
    9900012    2    1    2    0    0  0.89034784123E+01 -0.24075339794E+02 -0.34996136505E+02  0.47787268620E+02  0.19999988947E+02 0.  0.
        -12    1    1    2    0    0 -0.89034784123E+01  0.24075339794E+02  0.34996136505E+02  0.43400731380E+02  0.00000000000E+00 0.  1.
         11    1    3    3    0    0  0.55071734109E+01 -0.19940907962E+02 -0.18387055841E+02  0.27677655105E+02  0.51100000000E-03 0. -1.
        -11    1    3    3    0    0  0.42968646251E+01 -0.70376085303E+01 -0.11245776687E+02  0.13944836786E+02  0.51100000000E-03 0.  1.
        -12    1    3    3    0    0 -0.90055962373E+00  0.29031766983E+01 -0.53633039768E+01  0.61647767295E+01  0.00000000000E+00 0.  1.
</event>
<event>
 7    1  0.4432754E-010  0.4778727E+02  0.7816164E-02  0.1312668E+00
        -11   -1    0    0    0    0  0.00000000000E+00  0.00000000000E+00  0.45593999997E+02  0.45594000000E+02  0.51100000000E-03 0.  1.
         11   -1    0    0    0    0 -0.00000000000E+00 -0.00000000000E+00 -0.45593999997E+02  0.45594000000E+02  0.51100000000E-03 0. -1.
    9900012    2    1    2    0    0 -0.20210661752E+01 -0.42120480613E+02 -0.10266623162E+02  0.47787272509E+02  0.20000006679E+02 0.  0.
        -12    1    1    2    0    0  0.20210661752E+01  0.42120480613E+02  0.10266623162E+02  0.43400727491E+02  0.00000000000E+00 0.  1.
         11    1    3    3    0    0 -0.75269790060E+01 -0.13074266953E+02 -0.16317933812E+01  0.15174143113E+02  0.51100000000E-03 0. -1.
        -11    1    3    3    0    0  0.38856065557E+00  0.32272905218E+00 -0.20126073451E+01  0.20750233760E+01  0.51100000000E-03 0.  1.
         12    1    3    3    0    0  0.51173521752E+01 -0.29368942712E+02 -0.66222224361E+01  0.30538106020E+02  0.00000000000E+00 0. -1.
</event>
<event>
 7    1  0.4432754E-010  0.4778723E+02  0.7816164E-02  0.1312668E+00
        -11   -1    0    0    0    0  0.00000000000E+00  0.00000000000E+00  0.45593999997E+02  0.45594000000E+02  0.51100000000E-03 0.  1.
         11   -1    0    0    0    0 -0.00000000000E+00 -0.00000000000E+00 -0.45593999997E+02  0.45594000000E+02  0.51100000000E-03 0. -1.
    9900012    2    1    2    0    0  0.29815781745E+02 -0.14859505880E+01 -0.31502983243E+02  0.47787229921E+02  0.19999812502E+02 0.  0.
        -12    1    1    2    0    0 -0.29815781745E+02  0.14859505880E+01  0.31502983243E+02  0.43400770079E+02  0.00000000000E+00 0.  1.
         11    1    3    3    0    0  0.11523786663E+02 -0.34108027787E+00 -0.75256398988E+01  0.13767688657E+02  0.51100000000E-03 0. -1.
        -11    1    3    3    0    0  0.84728852142E+01 -0.83722718611E+01 -0.12690734529E+02  0.17405156222E+02  0.51100000000E-03 0.  1.
        -12    1    3    3    0    0  0.98191098671E+01  0.72274015510E+01 -0.11286608816E+02  0.16614385042E+02  0.00000000000E+00 0.  1.
</event>
<event>
 7    1  0.4432754E-010  0.4778726E+02  0.7816164E-02  0.1312668E+00
        -11   -1    0    0    0    0  0.00000000000E+00  0.00000000000E+00  0.45593999997E+02  0.45594000000E+02  0.51100000000E-03 0.  1.
         11   -1    0    0    0    0 -0.00000000000E+00 -0.00000000000E+00 -0.45593999997E+02  0.45594000000E+02  0.51100000000E-03 0. -1.
    9900012    2    1    2    0    0 -0.25848884698E+02  0.21279967565E+02 -0.27615616167E+02  0.47787261343E+02  0.19999955768E+02 0.  0.
        -12    1    1    2    0    0  0.25848884698E+02 -0.21279967565E+02  0.27615616167E+02  0.43400738657E+02  0.00000000000E+00 0.  1.
         11    1    3    3    0    0 -0.25160283242E+02  0.24173910186E+02 -0.26625942290E+02  0.43890301772E+02  0.51100000000E-03 0. -1.
        -11    1    3    3    0    0  0.35319237495E+00 -0.15063549935E+01 -0.14299782002E+01  0.21068194356E+01  0.51100000000E-03 0.  1.
        -12    1    3    3    0    0 -0.10417938303E+01 -0.13875876275E+01  0.44030432347E+00  0.17901401359E+01  0.00000000000E+00 0.  1.
</event>
<event>
 7    1  0.4432754E-010  0.4778727E+02  0.7816164E-02  0.1312668E+00
        -11   -1    0    0    0    0  0.00000000000E+00  0.00000000000E+00  0.45593999997E+02  0.45594000000E+02  0.51100000000E-03 0. -1.
         11   -1    0    0    0    0 -0.00000000000E+00 -0.00000000000E+00 -0.45593999997E+02  0.45594000000E+02  0.51100000000E-03 0.  1.
    9900012    2    1    2    0    0  0.14157780532E+02 -0.34509810983E+02  0.22186781389E+02  0.47787273369E+02  0.20000010600E+02 0.  0.
        -12    1    1    2    0    0 -0.14157780532E+02  0.34509810983E+02 -0.22186781389E+02  0.43400726631E+02  0.00000000000E+00 0.  1.
         11    1    3    3    0    0  0.74833086565E+01 -0.76980524614E+01  0.44491251149E+01  0.11621300904E+02  0.51100000000E-03 0. -1.
        -11    1    3    3    0    0  0.87044662421E+01 -0.11799849466E+02  0.28717070053E+01  0.14941582291E+02  0.51100000000E-03 0.  1.
        -12    1    3    3    0    0 -0.20299943663E+01 -0.15011909056E+02  0.14865949269E+02  0.21224390175E+02  0.00000000000E+00 0.  1.
</event>
<event>
 7    1  0.4432754E-010  0.4778727E+02  0.7816164E-02  0.1312668E+00
        -11   -1    0    0    0    0  0.00000000000E+00  0.00000000000E+00  0.45593999997E+02  0.45594000000E+02  0.51100000000E-03 0.  1.
         11   -1    0    0    0    0 -0.00000000000E+00 -0.00000000000E+00 -0.45593999997E+02  0.45594000000E+02  0.51100000000E-03 0. -1.
    9900012    2    1    2    0    0 -0.13151296706E+02 -0.16880178216E+02 -0.37758790862E+02  0.47787270639E+02  0.19999998152E+02 0.  0.
        -12    1    1    2    0    0  0.13151296706E+02  0.16880178216E+02  0.37758790862E+02  0.43400729361E+02  0.00000000000E+00 0.  1.
         11    1    3    3    0    0 -0.13200453792E+02 -0.35895704481E+01 -0.23416892097E+02  0.27119878909E+02  0.51100000000E-03 0. -1.
        -11    1    3    3    0    0  0.54285677248E+00 -0.16840075274E+00  0.56508747024E+00  0.80148387326E+00  0.51100000000E-03 0.  1.
        -12    1    3    3    0    0 -0.49369968689E+00 -0.13122207015E+02 -0.14906986236E+02  0.19865907856E+02  0.00000000000E+00 0.  1.
</event>
<event>
 7    1  0.4432754E-010  0.4778729E+02  0.7816164E-02  0.1312668E+00
        -11   -1    0    0    0    0  0.00000000000E+00  0.00000000000E+00  0.45593999997E+02  0.45594000000E+02  0.51100000000E-03 0.  1.
         11   -1    0    0    0    0 -0.00000000000E+00 -0.00000000000E+00 -0.45593999997E+02  0.45594000000E+02  0.51100000000E-03 0. -1.
    9900012    2    1    2    0    0 -0.53635171231E+01  0.36787880359E+02 -0.22394330693E+02  0.47787291429E+02  0.20000092942E+02 0.  0.
        -12    1    1    2    0    0  0.53635171231E+01 -0.36787880359E+02  0.22394330693E+02  0.43400708571E+02  0.00000000000E+00 0.  1.
         11    1    3    3    0    0 -0.86868557793E+01  0.18772509091E+02 -0.17474943696E+02  0.27078445641E+02  0.51100000000E-03 0. -1.
        -11    1    3    3    0    0 -0.60345921034E+00  0.55823017435E+01 -0.52206763295E+01  0.76669235925E+01  0.51100000000E-03 0.  1.
        -12    1    3    3    0    0  0.39267978665E+01  0.12433069525E+02  0.30128933241E+00  0.13041922196E+02  0.00000000000E+00 0.  1.
</event>
<event>
 7    1  0.4432754E-010  0.4778727E+02  0.7816164E-02  0.1312668E+00
        -11   -1    0    0    0    0  0.00000000000E+00  0.00000000000E+00  0.45593999997E+02  0.45594000000E+02  0.51100000000E-03 0. -1.
         11   -1    0    0    0    0 -0.00000000000E+00 -0.00000000000E+00 -0.45593999997E+02  0.45594000000E+02  0.51100000000E-03 0.  1.
    9900012    2    1    2    0    0  0.14699877609E+02 -0.40285732671E+02  0.66780505522E+01  0.47787273995E+02  0.20000013454E+02 0.  0.
        -12    1    1    2    0    0 -0.14699877609E+02  0.40285732671E+02 -0.66780505522E+01  0.43400726005E+02  0.00000000000E+00 0.  1.
         11    1    3    3    0    0  0.41542802847E+01 -0.10071217752E+02  0.70277230878E+01  0.12964426858E+02  0.51100000000E-03 0. -1.
        -11    1    3    3    0    0  0.11034816213E+02 -0.13565840202E+02  0.32395383739E+01  0.17784650639E+02  0.51100000000E-03 0.  1.
         12    1    3    3    0    0 -0.48921888807E+00 -0.16648674717E+02 -0.35892109096E+01  0.17038196498E+02  0.00000000000E+00 0. -1.
</event>
<event>
 7    1  0.4432754E-010  0.4778727E+02  0.7816164E-02  0.1312668E+00
        -11   -1    0    0    0    0  0.00000000000E+00  0.00000000000E+00  0.45593999997E+02  0.45594000000E+02  0.51100000000E-03 0.  1.
         11   -1    0    0    0    0 -0.00000000000E+00 -0.00000000000E+00 -0.45593999997E+02  0.45594000000E+02  0.51100000000E-03 0. -1.
    9900012    2    1    2    0    0 -0.20083662887E+02  0.32646853120E+02 -0.20358115115E+02  0.47787269768E+02  0.19999994182E+02 0.  0.
        -12    1    1    2    0    0  0.20083662887E+02 -0.32646853120E+02  0.20358115115E+02  0.43400730232E+02  0.00000000000E+00 0.  1.
         11    1    3    3    0    0 -0.58339204301E+01  0.30002583391E+01  0.10831622796E+00  0.65610906374E+01  0.51100000000E-03 0. -1.
        -11    1    3    3    0    0 -0.42494084887E+01  0.18910720450E+02 -0.52332556650E+01  0.20076348910E+02  0.51100000000E-03 0.  1.
         12    1    3    3    0    0 -0.10000333969E+02  0.10735874331E+02 -0.15233175678E+02  0.21149830221E+02  0.00000000000E+00 0. -1.
</event>
<event>
 7    1  0.4432754E-010  0.4778727E+02  0.7816164E-02  0.1312668E+00
        -11   -1    0    0    0    0  0.00000000000E+00  0.00000000000E+00  0.45593999997E+02  0.45594000000E+02  0.51100000000E-03 0. -1.
         11   -1    0    0    0    0 -0.00000000000E+00 -0.00000000000E+00 -0.45593999997E+02  0.45594000000E+02  0.51100000000E-03 0.  1.
    9900012    2    1    2    0    0 -0.28111328387E+01  0.16344348307E+02  0.40107145600E+02  0.47787270540E+02  0.19999997702E+02 0.  0.
        -12    1    1    2    0    0  0.28111328387E+01 -0.16344348307E+02 -0.40107145600E+02  0.43400729460E+02  0.00000000000E+00 0.  1.
         11    1    3    3    0    0 -0.35427974932E-01  0.34228495353E+01  0.15322669218E+02  0.15700361343E+02  0.51100000000E-03 0. -1.
        -11    1    3    3    0    0 -0.69439378149E+01  0.89870774328E+00  0.12887818365E+02  0.14667031412E+02  0.51100000000E-03 0.  1.
         12    1    3    3    0    0  0.41682329511E+01  0.12022791029E+02  0.11896658018E+02  0.17419877785E+02  0.00000000000E+00 0. -1.
</event>
<event>
 7    1  0.4432754E-010  0.4778730E+02  0.7816164E-02  0.1312668E+00
        -11   -1    0    0    0    0  0.00000000000E+00  0.00000000000E+00  0.45593999997E+02  0.45594000000E+02  0.51100000000E-03 0. -1.
         11   -1    0    0    0    0 -0.00000000000E+00 -0.00000000000E+00 -0.45593999997E+02  0.45594000000E+02  0.51100000000E-03 0.  1.
    9900012    2    1    2    0    0 -0.30954121683E+02 -0.29200188149E+02  0.85330216758E+01  0.47787296134E+02  0.20000114394E+02 0.  0.
        -12    1    1    2    0    0  0.30954121683E+02  0.29200188149E+02 -0.85330216758E+01  0.43400703866E+02  0.00000000000E+00 0.  1.
         11    1    3    3    0    0 -0.49481207668E+01 -0.10152430893E+02  0.75067371597E+01  0.13561226169E+02  0.51100000000E-03 0. -1.
        -11    1    3    3    0    0 -0.14165441723E+01  0.14540003012E+00 -0.24560964181E+01  0.28390400555E+01  0.51100000000E-03 0.  1.
         12    1    3    3    0    0 -0.24589456744E+02 -0.19193157287E+02  0.34823809342E+01  0.31387029910E+02  0.00000000000E+00 0. -1.
</event>
<event>
 7    1  0.4432754E-010  0.4778727E+02  0.7816164E-02  0.1312668E+00
        -11   -1    0    0    0    0  0.00000000000E+00  0.00000000000E+00  0.45593999997E+02  0.45594000000E+02  0.51100000000E-03 0.  1.
         11   -1    0    0    0    0 -0.00000000000E+00 -0.00000000000E+00 -0.45593999997E+02  0.45594000000E+02  0.51100000000E-03 0. -1.
    9900012    2    1    2    0    0  0.79157120809E+01 -0.21073037513E+02 -0.37106493829E+02  0.47787270836E+02  0.19999999048E+02 0.  0.
        -12    1    1    2    0    0 -0.79157120809E+01  0.21073037513E+02  0.37106493829E+02  0.43400729164E+02  0.00000000000E+00 0.  1.
         11    1    3    3    0    0  0.58558562003E+01 -0.95526706652E+01 -0.34413105548E+01  0.11721228062E+02  0.51100000000E-03 0. -1.
        -11    1    3    3    0    0  0.11275414117E+01 -0.19571669865E+00 -0.68153127502E+01  0.69107266481E+01  0.51100000000E-03 0.  1.
         12    1    3    3    0    0  0.93231446897E+00 -0.11324650149E+02 -0.26849870524E+02  0.29155316126E+02  0.00000000000E+00 0. -1.
</event>
<event>
 7    1  0.4432754E-010  0.4778731E+02  0.7816164E-02  0.1312668E+00
        -11   -1    0    0    0    0  0.00000000000E+00  0.00000000000E+00  0.45593999997E+02  0.45594000000E+02  0.51100000000E-03 0. -1.
         11   -1    0    0    0    0 -0.00000000000E+00 -0.00000000000E+00 -0.45593999997E+02  0.45594000000E+02  0.51100000000E-03 0.  1.
    9900012    2    1    2    0    0  0.21203131078E+02 -0.23987427779E+02  0.29302739176E+02  0.47787308967E+02  0.20000172904E+02 0.  0.
        -12    1    1    2    0    0 -0.21203131078E+02  0.23987427779E+02 -0.29302739176E+02  0.43400691033E+02  0.00000000000E+00 0.  1.
         11    1    3    3    0    0  0.75140733493E+01 -0.19135136194E+01  0.47916995174E+01  0.91149995719E+01  0.51100000000E-03 0. -1.
        -11    1    3    3    0    0  0.10651556470E+02 -0.36847570349E+01  0.89610842349E+01  0.14399101381E+02  0.51100000000E-03 0.  1.
         12    1    3    3    0    0  0.30375012579E+01 -0.18389157124E+02  0.15549955424E+02  0.24273208014E+02  0.00000000000E+00 0. -1.
</event>
<event>
 7    1  0.4432754E-010  0.4778725E+02  0.7816164E-02  0.1312668E+00
        -11   -1    0    0    0    0  0.00000000000E+00  0.00000000000E+00  0.45593999997E+02  0.45594000000E+02  0.51100000000E-03 0.  1.
         11   -1    0    0    0    0 -0.00000000000E+00 -0.00000000000E+00 -0.45593999997E+02  0.45594000000E+02  0.51100000000E-03 0. -1.
    9900012    2    1    2    0    0 -0.41892588330E+01  0.42990901957E+02 -0.42258539661E+01  0.47787246753E+02  0.19999889247E+02 0.  0.
        -12    1    1    2    0    0  0.41892588330E+01 -0.42990901957E+02  0.42258539661E+01  0.43400753247E+02  0.00000000000E+00 0.  1.
         11    1    3    3    0    0  0.17711197176E+01  0.92009690468E+01  0.12136662724E+01  0.94481576265E+01  0.51100000000E-03 0. -1.
        -11    1    3    3    0    0  0.34892327374E+01  0.11082990262E+02  0.35555146627E+01  0.12151094726E+02  0.51100000000E-03 0.  1.
        -12    1    3    3    0    0 -0.94496112880E+01  0.22706942648E+02 -0.89950349012E+01  0.26187994401E+02  0.00000000000E+00 0.  1.
</event>
<event>
 7    1  0.4432754E-010  0.4778727E+02  0.7816164E-02  0.1312668E+00
        -11   -1    0    0    0    0  0.00000000000E+00  0.00000000000E+00  0.45593999997E+02  0.45594000000E+02  0.51100000000E-03 0. -1.
         11   -1    0    0    0    0 -0.00000000000E+00 -0.00000000000E+00 -0.45593999997E+02  0.45594000000E+02  0.51100000000E-03 0.  1.
    9900012    2    1    2    0    0  0.20858755319E+02 -0.34729216412E+02  0.15569761567E+02  0.47787267042E+02  0.19999981751E+02 0.  0.
        -12    1    1    2    0    0 -0.20858755319E+02  0.34729216412E+02 -0.15569761567E+02  0.43400732958E+02  0.00000000000E+00 0.  1.
         11    1    3    3    0    0  0.77391160694E+01 -0.59703796952E+01  0.63103634798E+01  0.11634433323E+02  0.51100000000E-03 0. -1.
        -11    1    3    3    0    0  0.15192946390E+01 -0.93452953361E+01  0.96705621442E+01  0.13533756816E+02  0.51100000000E-03 0.  1.
         12    1    3    3    0    0  0.11600344611E+02 -0.19413541381E+02 -0.41116405744E+00  0.22619076902E+02  0.00000000000E+00 0. -1.
</event>
<event>
 7    1  0.4432754E-010  0.4778726E+02  0.7816164E-02  0.1312668E+00
        -11   -1    0    0    0    0  0.00000000000E+00  0.00000000000E+00  0.45593999997E+02  0.45594000000E+02  0.51100000000E-03 0. -1.
         11   -1    0    0    0    0 -0.00000000000E+00 -0.00000000000E+00 -0.45593999997E+02  0.45594000000E+02  0.51100000000E-03 0.  1.
    9900012    2    1    2    0    0  0.74330847084E+01 -0.37043351345E+02 -0.21357980158E+02  0.47787263329E+02  0.19999964821E+02 0.  0.
        -12    1    1    2    0    0 -0.74330847084E+01  0.37043351345E+02  0.21357980158E+02  0.43400736671E+02  0.00000000000E+00 0.  1.
         11    1    3    3    0    0  0.44664713783E+01 -0.10755773743E+02 -0.15536444705E+01  0.11749461553E+02  0.51100000000E-03 0. -1.
        -11    1    3    3    0    0  0.31059925617E+01  0.61606985178E+00 -0.26604673888E+01  0.41357972440E+01  0.51100000000E-03 0.  1.
         12    1    3    3    0    0 -0.13937923160E+00 -0.26903647454E+02 -0.17143868299E+02  0.31902004531E+02  0.00000000000E+00 0. -1.
</event>
<event>
 7    1  0.4432754E-010  0.4778727E+02  0.7816164E-02  0.1312668E+00
        -11   -1    0    0    0    0  0.00000000000E+00  0.00000000000E+00  0.45593999997E+02  0.45594000000E+02  0.51100000000E-03 0.  1.
         11   -1    0    0    0    0 -0.00000000000E+00 -0.00000000000E+00 -0.45593999997E+02  0.45594000000E+02  0.51100000000E-03 0. -1.
    9900012    2    1    2    0    0 -0.36860015005E+02  0.22472107186E+02 -0.44684296789E+01  0.47787272226E+02  0.20000005386E+02 0.  0.
        -12    1    1    2    0    0  0.36860015005E+02 -0.22472107186E+02  0.44684296789E+01  0.43400727774E+02  0.00000000000E+00 0.  1.
         11    1    3    3    0    0 -0.20074777669E+01  0.49878891127E+01 -0.20893852498E+01  0.57684084259E+01  0.51100000000E-03 0. -1.
        -11    1    3    3    0    0  0.88969662413E+00  0.18736531093E+01  0.18608530293E+01  0.27865588661E+01  0.51100000000E-03 0.  1.
         12    1    3    3    0    0 -0.35742233862E+02  0.15610564964E+02 -0.42398974584E+01  0.39232304934E+02  0.00000000000E+00 0. -1.
</event>
<event>
 7    1  0.4432754E-010  0.4778727E+02  0.7816164E-02  0.1312668E+00
        -11   -1    0    0    0    0  0.00000000000E+00  0.00000000000E+00  0.45593999997E+02  0.45594000000E+02  0.51100000000E-03 0.  1.
         11   -1    0    0    0    0 -0.00000000000E+00 -0.00000000000E+00 -0.45593999997E+02  0.45594000000E+02  0.51100000000E-03 0. -1.
    9900012    2    1    2    0    0  0.92624287362E+01  0.26696674816E+02 -0.32941129910E+02  0.47787273369E+02  0.20000010600E+02 0.  0.
        -12    1    1    2    0    0 -0.92624287362E+01 -0.26696674816E+02  0.32941129910E+02  0.43400726631E+02  0.00000000000E+00 0.  1.
         11    1    3    3    0    0  0.42694012221E+01  0.95606142223E+01 -0.93014643206E+01  0.14005369323E+02  0.51100000000E-03 0. -1.
        -11    1    3    3    0    0 -0.38915277963E+01  0.14237254224E+02 -0.13681533294E+02  0.20125301239E+02  0.51100000000E-03 0.  1.
        -12    1    3    3    0    0  0.88845553103E+01  0.28988063700E+01 -0.99581322948E+01  0.13656602807E+02  0.00000000000E+00 0.  1.
</event>
<event>
 7    1  0.4432754E-010  0.4778727E+02  0.7816164E-02  0.1312668E+00
        -11   -1    0    0    0    0  0.00000000000E+00  0.00000000000E+00  0.45593999997E+02  0.45594000000E+02  0.51100000000E-03 0.  1.
         11   -1    0    0    0    0 -0.00000000000E+00 -0.00000000000E+00 -0.45593999997E+02  0.45594000000E+02  0.51100000000E-03 0. -1.
    9900012    2    1    2    0    0  0.39150056002E+02 -0.18364757631E+02 -0.36921669718E+01  0.47787270689E+02  0.19999998378E+02 0.  0.
        -12    1    1    2    0    0 -0.39150056002E+02  0.18364757631E+02  0.36921669718E+01  0.43400729311E+02  0.00000000000E+00 0.  1.
         11    1    3    3    0    0  0.35284425510E+02 -0.15973091873E+02  0.36605047446E+01  0.38904108303E+02  0.51100000000E-03 0. -1.
        -11    1    3    3    0    0  0.18073420198E+01 -0.17293908612E+01 -0.23455027054E+01  0.34290904231E+01  0.51100000000E-03 0.  1.
         12    1    3    3    0    0  0.20582884719E+01 -0.66227489706E+00 -0.50071690109E+01  0.54540719629E+01  0.00000000000E+00 0. -1.
</event>
<event>
 7    1  0.4432754E-010  0.4778727E+02  0.7816164E-02  0.1312668E+00
        -11   -1    0    0    0    0  0.00000000000E+00  0.00000000000E+00  0.45593999997E+02  0.45594000000E+02  0.51100000000E-03 0. -1.
         11   -1    0    0    0    0 -0.00000000000E+00 -0.00000000000E+00 -0.45593999997E+02  0.45594000000E+02  0.51100000000E-03 0.  1.
    9900012    2    1    2    0    0 -0.10818221612E+02  0.39773361836E+02  0.13589295699E+02  0.47787272032E+02  0.20000004503E+02 0.  0.
        -12    1    1    2    0    0  0.10818221612E+02 -0.39773361836E+02 -0.13589295699E+02  0.43400727968E+02  0.00000000000E+00 0.  1.
         11    1    3    3    0    0 -0.53123736226E+01  0.11163473683E+02  0.50752028415E+01  0.13364211249E+02  0.51100000000E-03 0. -1.
        -11    1    3    3    0    0 -0.27053071958E+01  0.29798436896E+02  0.92018305289E+01  0.31303980798E+02  0.51100000000E-03 0.  1.
         12    1    3    3    0    0 -0.28005407932E+01 -0.11885487429E+01 -0.68773767100E+00  0.31190799850E+01  0.00000000000E+00 0. -1.
</event>
<event>
 7    1  0.4432754E-010  0.4778727E+02  0.7816164E-02  0.1312668E+00
        -11   -1    0    0    0    0  0.00000000000E+00  0.00000000000E+00  0.45593999997E+02  0.45594000000E+02  0.51100000000E-03 0.  1.
         11   -1    0    0    0    0 -0.00000000000E+00 -0.00000000000E+00 -0.45593999997E+02  0.45594000000E+02  0.51100000000E-03 0. -1.
    9900012    2    1    2    0    0  0.15288142544E+02  0.10474686740E+02 -0.39245090638E+02  0.47787268394E+02  0.19999987917E+02 0.  0.
        -12    1    1    2    0    0 -0.15288142544E+02 -0.10474686740E+02  0.39245090638E+02  0.43400731606E+02  0.00000000000E+00 0.  1.
         11    1    3    3    0    0  0.72091341700E+00  0.92729602156E+00  0.14780590361E+01  0.18879228908E+01  0.51100000000E-03 0. -1.
        -11    1    3    3    0    0  0.46828168691E+01  0.76814777338E+01 -0.94464685329E+01  0.13044908662E+02  0.51100000000E-03 0.  1.
         12    1    3    3    0    0  0.98844122583E+01  0.18659129842E+01 -0.31276681141E+02  0.32854436841E+02  0.00000000000E+00 0. -1.
</event>
<event>
 7    1  0.4432754E-010  0.4778727E+02  0.7816164E-02  0.1312668E+00
        -11   -1    0    0    0    0  0.00000000000E+00  0.00000000000E+00  0.45593999997E+02  0.45594000000E+02  0.51100000000E-03 0. -1.
         11   -1    0    0    0    0 -0.00000000000E+00 -0.00000000000E+00 -0.45593999997E+02  0.45594000000E+02  0.51100000000E-03 0.  1.
    9900012    2    1    2    0    0  0.16138456452E+02  0.35906723886E+02 -0.18272405079E+02  0.47787269773E+02  0.19999994201E+02 0.  0.
        -12    1    1    2    0    0 -0.16138456452E+02 -0.35906723886E+02  0.18272405079E+02  0.43400730227E+02  0.00000000000E+00 0.  1.
         11    1    3    3    0    0  0.59476949196E+01  0.18461741511E+02 -0.87056177220E+01  0.21260262338E+02  0.51100000000E-03 0. -1.
        -11    1    3    3    0    0 -0.30751512330E+01  0.62847257390E+01 -0.49998371476E+01  0.85995758316E+01  0.51100000000E-03 0.  1.
         12    1    3    3    0    0  0.13265912765E+02  0.11160256636E+02 -0.45669502098E+01  0.17927431603E+02  0.00000000000E+00 0. -1.
</event>
<event>
 7    1  0.4432754E-010  0.4778726E+02  0.7816164E-02  0.1312668E+00
        -11   -1    0    0    0    0  0.00000000000E+00  0.00000000000E+00  0.45593999997E+02  0.45594000000E+02  0.51100000000E-03 0.  1.
         11   -1    0    0    0    0 -0.00000000000E+00 -0.00000000000E+00 -0.45593999997E+02  0.45594000000E+02  0.51100000000E-03 0. -1.
    9900012    2    1    2    0    0 -0.53810689169E+01  0.10735460647E+02 -0.41706329909E+02  0.47787262997E+02  0.19999963307E+02 0.  0.
        -12    1    1    2    0    0  0.53810689169E+01 -0.10735460647E+02  0.41706329909E+02  0.43400737003E+02  0.00000000000E+00 0.  1.
         11    1    3    3    0    0  0.31831225676E+01 -0.22424697492E+01 -0.99457687215E+00  0.40187215968E+01  0.51100000000E-03 0. -1.
        -11    1    3    3    0    0 -0.16900881561E+01  0.46048876181E+01 -0.88929005714E+01  0.10156036076E+02  0.51100000000E-03 0.  1.
         12    1    3    3    0    0 -0.68741033284E+01  0.83730427780E+01 -0.31818852465E+02  0.33612505324E+02  0.00000000000E+00 0. -1.
</event>
<event>
 7    1  0.4432754E-010  0.4778727E+02  0.7816164E-02  0.1312668E+00
        -11   -1    0    0    0    0  0.00000000000E+00  0.00000000000E+00  0.45593999997E+02  0.45594000000E+02  0.51100000000E-03 0.  1.
         11   -1    0    0    0    0 -0.00000000000E+00 -0.00000000000E+00 -0.45593999997E+02  0.45594000000E+02  0.51100000000E-03 0. -1.
    9900012    2    1    2    0    0  0.19769506118E+02 -0.36887612992E+02  0.11493217018E+02  0.47787269570E+02  0.19999993279E+02 0.  0.
        -12    1    1    2    0    0 -0.19769506118E+02  0.36887612992E+02 -0.11493217018E+02  0.43400730430E+02  0.00000000000E+00 0.  1.
         11    1    3    3    0    0 -0.17558735303E+01 -0.11142105270E+02  0.16216010777E+01  0.11395577740E+02  0.51100000000E-03 0. -1.
        -11    1    3    3    0    0  0.62461790653E+01 -0.45167818009E+01 -0.15308836286E+01  0.78587324485E+01  0.51100000000E-03 0.  1.
         12    1    3    3    0    0  0.15279200584E+02 -0.21228725921E+02  0.11402499568E+02  0.28532959382E+02  0.00000000000E+00 0. -1.
</event>
<event>
 7    1  0.4432754E-010  0.4778727E+02  0.7816164E-02  0.1312668E+00
        -11   -1    0    0    0    0  0.00000000000E+00  0.00000000000E+00  0.45593999997E+02  0.45594000000E+02  0.51100000000E-03 0.  1.
         11   -1    0    0    0    0 -0.00000000000E+00 -0.00000000000E+00 -0.45593999997E+02  0.45594000000E+02  0.51100000000E-03 0. -1.
    9900012    2    1    2    0    0  0.23153313639E+02 -0.35973619873E+02  0.73106839784E+01  0.47787270059E+02  0.19999995506E+02 0.  0.
        -12    1    1    2    0    0 -0.23153313639E+02  0.35973619873E+02 -0.73106839784E+01  0.43400729941E+02  0.00000000000E+00 0.  1.
         11    1    3    3    0    0  0.22855702346E+02 -0.23831886118E+02  0.20916726254E+01  0.33086508131E+02  0.51100000000E-03 0. -1.
        -11    1    3    3    0    0  0.72438731814E-01 -0.43925877577E+00  0.26892599958E+01  0.27258604565E+01  0.51100000000E-03 0.  1.
         12    1    3    3    0    0  0.22517256091E+00 -0.11702474979E+02  0.25297513571E+01  0.11974901471E+02  0.00000000000E+00 0. -1.
</event>
<event>
 7    1  0.4432754E-010  0.4778727E+02  0.7816164E-02  0.1312668E+00
        -11   -1    0    0    0    0  0.00000000000E+00  0.00000000000E+00  0.45593999997E+02  0.45594000000E+02  0.51100000000E-03 0.  1.
         11   -1    0    0    0    0 -0.00000000000E+00 -0.00000000000E+00 -0.45593999997E+02  0.45594000000E+02  0.51100000000E-03 0. -1.
    9900012    2    1    2    0    0 -0.28747251672E+02  0.24310403407E+01 -0.32423898056E+02  0.47787267276E+02  0.19999982819E+02 0.  0.
        -12    1    1    2    0    0  0.28747251672E+02 -0.24310403407E+01  0.32423898056E+02  0.43400732724E+02  0.00000000000E+00 0.  1.
         11    1    3    3    0    0 -0.16395695005E+02 -0.46591856674E+01 -0.20488680723E+02  0.26651695327E+02  0.51100000000E-03 0. -1.
        -11    1    3    3    0    0 -0.53840302826E+01  0.43198618164E+01 -0.11759061200E+02  0.13635413774E+02  0.51100000000E-03 0.  1.
         12    1    3    3    0    0 -0.69675263846E+01  0.27703641917E+01 -0.17615613237E+00  0.75001581755E+01  0.00000000000E+00 0. -1.
</event>
<event>
 7    1  0.4432754E-010  0.4778727E+02  0.7816164E-02  0.1312668E+00
        -11   -1    0    0    0    0  0.00000000000E+00  0.00000000000E+00  0.45593999997E+02  0.45594000000E+02  0.51100000000E-03 0.  1.
         11   -1    0    0    0    0 -0.00000000000E+00 -0.00000000000E+00 -0.45593999997E+02  0.45594000000E+02  0.51100000000E-03 0. -1.
    9900012    2    1    2    0    0 -0.40637625390E+01  0.42460768186E+02 -0.80120122713E+01  0.47787270264E+02  0.19999996443E+02 0.  0.
        -12    1    1    2    0    0  0.40637625390E+01 -0.42460768186E+02  0.80120122713E+01  0.43400729736E+02  0.00000000000E+00 0.  1.
         11    1    3    3    0    0 -0.10778039526E+02  0.32040663834E+02 -0.65242078148E+01  0.34428702601E+02  0.51100000000E-03 0. -1.
        -11    1    3    3    0    0  0.46482876073E+00  0.49452355731E+01 -0.56332510949E+00  0.49988754826E+01  0.51100000000E-03 0.  1.
        -12    1    3    3    0    0  0.62494482265E+01  0.54748687793E+01 -0.92447934703E+00  0.83596921803E+01  0.00000000000E+00 0.  1.
</event>
<event>
 7    1  0.4432754E-010  0.4778726E+02  0.7816164E-02  0.1312668E+00
        -11   -1    0    0    0    0  0.00000000000E+00  0.00000000000E+00  0.45593999997E+02  0.45594000000E+02  0.51100000000E-03 0.  1.
         11   -1    0    0    0    0 -0.00000000000E+00 -0.00000000000E+00 -0.45593999997E+02  0.45594000000E+02  0.51100000000E-03 0. -1.
    9900012    2    1    2    0    0  0.27927954392E+00 -0.43390968504E+02 -0.87758090234E+00  0.47787259303E+02  0.19999946467E+02 0.  0.
        -12    1    1    2    0    0 -0.27927954392E+00  0.43390968504E+02  0.87758090234E+00  0.43400740697E+02  0.00000000000E+00 0.  1.
         11    1    3    3    0    0  0.68294908898E+01 -0.91913334063E+01 -0.35670328685E+01  0.11993593262E+02  0.51100000000E-03 0. -1.
        -11    1    3    3    0    0  0.15431530796E+01 -0.27042732143E+01 -0.35057439162E+00  0.31332599173E+01  0.51100000000E-03 0.  1.
        -12    1    3    3    0    0 -0.80933644255E+01 -0.31495361883E+02  0.30400263578E+01  0.32660406123E+02  0.00000000000E+00 0.  1.
</event>
<event>
 7    1  0.4432754E-010  0.4778727E+02  0.7816164E-02  0.1312668E+00
        -11   -1    0    0    0    0  0.00000000000E+00  0.00000000000E+00  0.45593999997E+02  0.45594000000E+02  0.51100000000E-03 0.  1.
         11   -1    0    0    0    0 -0.00000000000E+00 -0.00000000000E+00 -0.45593999997E+02  0.45594000000E+02  0.51100000000E-03 0. -1.
    9900012    2    1    2    0    0 -0.29927125536E+02 -0.28469026802E+02 -0.13323099337E+02  0.47787270676E+02  0.19999998320E+02 0.  0.
        -12    1    1    2    0    0  0.29927125536E+02  0.28469026802E+02  0.13323099337E+02  0.43400729324E+02  0.00000000000E+00 0.  1.
         11    1    3    3    0    0 -0.25240288986E+02 -0.15923150983E+02 -0.57796021017E+01  0.30397742120E+02  0.51100000000E-03 0. -1.
        -11    1    3    3    0    0  0.29596070985E+00  0.94718190320E+00  0.25936702237E+00  0.10256791959E+01  0.51100000000E-03 0.  1.
        -12    1    3    3    0    0 -0.49827972603E+01 -0.13493057722E+02 -0.78028642580E+01  0.16363849360E+02  0.00000000000E+00 0.  1.
</event>
<event>
 7    1  0.4432754E-010  0.4778727E+02  0.7816164E-02  0.1312668E+00
        -11   -1    0    0    0    0  0.00000000000E+00  0.00000000000E+00  0.45593999997E+02  0.45594000000E+02  0.51100000000E-03 0.  1.
         11   -1    0    0    0    0 -0.00000000000E+00 -0.00000000000E+00 -0.45593999997E+02  0.45594000000E+02  0.51100000000E-03 0. -1.
    9900012    2    1    2    0    0 -0.21348422173E+02  0.81384041566E+01 -0.36900334474E+02  0.47787269179E+02  0.19999991494E+02 0.  0.
        -12    1    1    2    0    0  0.21348422173E+02 -0.81384041566E+01  0.36900334474E+02  0.43400730821E+02  0.00000000000E+00 0.  1.
         11    1    3    3    0    0 -0.63047651580E+01  0.47716968551E+01 -0.24483864799E+01  0.82773033768E+01  0.51100000000E-03 0. -1.
        -11    1    3    3    0    0 -0.63993718453E+01  0.70100214204E+01 -0.12997226811E+02  0.16094106542E+02  0.51100000000E-03 0.  1.
         12    1    3    3    0    0 -0.86442851694E+01 -0.36433141189E+01 -0.21454721183E+02  0.23415859261E+02  0.00000000000E+00 0. -1.
</event>
<event>
 7    1  0.4432754E-010  0.4778727E+02  0.7816164E-02  0.1312668E+00
        -11   -1    0    0    0    0  0.00000000000E+00  0.00000000000E+00  0.45593999997E+02  0.45594000000E+02  0.51100000000E-03 0. -1.
         11   -1    0    0    0    0 -0.00000000000E+00 -0.00000000000E+00 -0.45593999997E+02  0.45594000000E+02  0.51100000000E-03 0.  1.
    9900012    2    1    2    0    0  0.17459511029E+02 -0.14819301630E+02  0.36867018964E+02  0.47787270588E+02  0.19999997921E+02 0.  0.
        -12    1    1    2    0    0 -0.17459511029E+02  0.14819301630E+02 -0.36867018964E+02  0.43400729412E+02  0.00000000000E+00 0.  1.
         11    1    3    3    0    0  0.86314533275E+01 -0.11021427428E+02  0.84784241966E+01  0.16366353479E+02  0.51100000000E-03 0. -1.
        -11    1    3    3    0    0  0.63696843374E+00 -0.50189578939E+01  0.12913461985E+02  0.13869144452E+02  0.51100000000E-03 0.  1.
         12    1    3    3    0    0  0.81910892681E+01  0.12210836919E+01  0.15475132782E+02  0.17551772657E+02  0.00000000000E+00 0. -1.
</event>
<event>
 7    1  0.4432754E-010  0.4778727E+02  0.7816164E-02  0.1312668E+00
        -11   -1    0    0    0    0  0.00000000000E+00  0.00000000000E+00  0.45593999997E+02  0.45594000000E+02  0.51100000000E-03 0.  1.
         11   -1    0    0    0    0 -0.00000000000E+00 -0.00000000000E+00 -0.45593999997E+02  0.45594000000E+02  0.51100000000E-03 0. -1.
    9900012    2    1    2    0    0 -0.16909933230E+01 -0.31190499325E+02 -0.30131652864E+02  0.47787271770E+02  0.20000003309E+02 0.  0.
        -12    1    1    2    0    0  0.16909933230E+01  0.31190499325E+02  0.30131652864E+02  0.43400728230E+02  0.00000000000E+00 0.  1.
         11    1    3    3    0    0 -0.15843149649E+01 -0.26620856082E+01  0.69834706219E+00  0.31756011358E+01  0.51100000000E-03 0. -1.
        -11    1    3    3    0    0  0.42623458692E+01 -0.45370986414E+01 -0.12964928478E+02  0.14382010537E+02  0.51100000000E-03 0.  1.
         12    1    3    3    0    0 -0.43690242273E+01 -0.23991315076E+02 -0.17865071448E+02  0.30229660097E+02  0.00000000000E+00 0. -1.
</event>
<event>
 7    1  0.4432754E-010  0.4778727E+02  0.7816164E-02  0.1312668E+00
        -11   -1    0    0    0    0  0.00000000000E+00  0.00000000000E+00  0.45593999997E+02  0.45594000000E+02  0.51100000000E-03 0. -1.
         11   -1    0    0    0    0 -0.00000000000E+00 -0.00000000000E+00 -0.45593999997E+02  0.45594000000E+02  0.51100000000E-03 0.  1.
    9900012    2    1    2    0    0  0.20690189498E+02  0.14903039854E+02  0.35120347902E+02  0.47787269878E+02  0.19999994682E+02 0.  0.
        -12    1    1    2    0    0 -0.20690189498E+02 -0.14903039854E+02 -0.35120347902E+02  0.43400730122E+02  0.00000000000E+00 0.  1.
         11    1    3    3    0    0  0.58734540540E+01 -0.61318380350E+00  0.43507163454E+01  0.73349976061E+01  0.51100000000E-03 0. -1.
        -11    1    3    3    0    0  0.40186622088E+01 -0.19091071860E+01  0.14550327195E+01  0.46809674932E+01  0.51100000000E-03 0.  1.
         12    1    3    3    0    0  0.10798073235E+02  0.17425330843E+02  0.29314598837E+02  0.35771304779E+02  0.00000000000E+00 0. -1.
</event>
<event>
 7    1  0.4432754E-010  0.4778727E+02  0.7816164E-02  0.1312668E+00
        -11   -1    0    0    0    0  0.00000000000E+00  0.00000000000E+00  0.45593999997E+02  0.45594000000E+02  0.51100000000E-03 0.  1.
         11   -1    0    0    0    0 -0.00000000000E+00 -0.00000000000E+00 -0.45593999997E+02  0.45594000000E+02  0.51100000000E-03 0. -1.
    9900012    2    1    2    0    0  0.22499719853E+02 -0.34800117693E+02 -0.12897191858E+02  0.47787272555E+02  0.20000006889E+02 0.  0.
        -12    1    1    2    0    0 -0.22499719853E+02  0.34800117693E+02  0.12897191858E+02  0.43400727445E+02  0.00000000000E+00 0.  1.
         11    1    3    3    0    0  0.15457648947E+01 -0.14194675251E+01 -0.26470809014E+00  0.21152654204E+01  0.51100000000E-03 0. -1.
        -11    1    3    3    0    0  0.12448996324E+02 -0.33080378165E+02 -0.10893376084E+02  0.36985869894E+02  0.51100000000E-03 0.  1.
         12    1    3    3    0    0  0.85049586339E+01 -0.30027200292E+00 -0.17391076840E+01  0.86861372414E+01  0.00000000000E+00 0. -1.
</event>
<event>
 7    1  0.4432754E-010  0.4778726E+02  0.7816164E-02  0.1312668E+00
        -11   -1    0    0    0    0  0.00000000000E+00  0.00000000000E+00  0.45593999997E+02  0.45594000000E+02  0.51100000000E-03 0. -1.
         11   -1    0    0    0    0 -0.00000000000E+00 -0.00000000000E+00 -0.45593999997E+02  0.45594000000E+02  0.51100000000E-03 0.  1.
    9900012    2    1    2    0    0  0.83103319270E+01  0.42572919306E+02  0.14522537590E+01  0.47787261343E+02  0.19999955766E+02 0.  0.
        -12    1    1    2    0    0 -0.83103319270E+01 -0.42572919306E+02 -0.14522537590E+01  0.43400738657E+02  0.00000000000E+00 0.  1.
         11    1    3    3    0    0 -0.17569342553E+01  0.11925693285E+02 -0.37801946669E+01  0.12633243855E+02  0.51100000000E-03 0. -1.
        -11    1    3    3    0    0 -0.26164404559E+01  0.85525621650E+01  0.35481680325E+01  0.96219320769E+01  0.51100000000E-03 0.  1.
         12    1    3    3    0    0  0.12683706638E+02  0.22094663856E+02  0.16842803933E+01  0.25532085411E+02  0.00000000000E+00 0. -1.
</event>
<event>
 7    1  0.4432754E-010  0.4778727E+02  0.7816164E-02  0.1312668E+00
        -11   -1    0    0    0    0  0.00000000000E+00  0.00000000000E+00  0.45593999997E+02  0.45594000000E+02  0.51100000000E-03 0. -1.
         11   -1    0    0    0    0 -0.00000000000E+00 -0.00000000000E+00 -0.45593999997E+02  0.45594000000E+02  0.51100000000E-03 0.  1.
    9900012    2    1    2    0    0  0.13550445920E+02  0.14029755144E+02  0.38770798314E+02  0.47787269408E+02  0.19999992540E+02 0.  0.
        -12    1    1    2    0    0 -0.13550445920E+02 -0.14029755144E+02 -0.38770798314E+02  0.43400730592E+02  0.00000000000E+00 0.  1.
         11    1    3    3    0    0  0.48970815961E+01  0.47895481060E+01  0.40451612425E+01  0.79551561240E+01  0.51100000000E-03 0.  1.
        -11    1    3    3    0    0 -0.32352158379E+01  0.21525566375E+01  0.16472781451E+02  0.16924912129E+02  0.51100000000E-03 0. -1.
         12    1    3    3    0    0  0.11888580162E+02  0.70876504001E+01  0.18252855620E+02  0.22907201155E+02  0.00000000000E+00 0. -1.
</event>
<event>
 7    1  0.4432754E-010  0.4778727E+02  0.7816164E-02  0.1312668E+00
        -11   -1    0    0    0    0  0.00000000000E+00  0.00000000000E+00  0.45593999997E+02  0.45594000000E+02  0.51100000000E-03 0. -1.
         11   -1    0    0    0    0 -0.00000000000E+00 -0.00000000000E+00 -0.45593999997E+02  0.45594000000E+02  0.51100000000E-03 0.  1.
    9900012    2    1    2    0    0 -0.19136708322E+01  0.16270719844E+02  0.40189859993E+02  0.47787270668E+02  0.19999998283E+02 0.  0.
        -12    1    1    2    0    0  0.19136708322E+01 -0.16270719844E+02 -0.40189859993E+02  0.43400729332E+02  0.00000000000E+00 0.  1.
         11    1    3    3    0    0  0.28432284957E+01  0.15315379016E+02  0.23891741324E+02  0.28521221685E+02  0.51100000000E-03 0. -1.
        -11    1    3    3    0    0 -0.40380030258E+01  0.45985615152E+01  0.12688912028E+02  0.14087608923E+02  0.51100000000E-03 0.  1.
        -12    1    3    3    0    0 -0.71889630217E+00 -0.36432206875E+01  0.36092066420E+01  0.51784400601E+01  0.00000000000E+00 0.  1.
</event>
<event>
 7    1  0.4432754E-010  0.4778728E+02  0.7816164E-02  0.1312668E+00
        -11   -1    0    0    0    0  0.00000000000E+00  0.00000000000E+00  0.45593999997E+02  0.45594000000E+02  0.51100000000E-03 0.  1.
         11   -1    0    0    0    0 -0.00000000000E+00 -0.00000000000E+00 -0.45593999997E+02  0.45594000000E+02  0.51100000000E-03 0. -1.
    9900012    2    1    2    0    0 -0.20243388843E+02  0.25270502028E+02 -0.28900338747E+02  0.47787278298E+02  0.20000033071E+02 0.  0.
        -12    1    1    2    0    0  0.20243388843E+02 -0.25270502028E+02  0.28900338747E+02  0.43400721702E+02  0.00000000000E+00 0.  1.
         11    1    3    3    0    0 -0.24583467982E+01 -0.15336899464E+01  0.74700902938E+00  0.29922728123E+01  0.51100000000E-03 0.  1.
        -11    1    3    3    0    0 -0.56520151142E+01  0.96340358914E+01 -0.45646159341E+01  0.12066301890E+02  0.51100000000E-03 0. -1.
         12    1    3    3    0    0 -0.12133026930E+02  0.17170156083E+02 -0.25082731842E+02  0.32728703596E+02  0.00000000000E+00 0. -1.
</event>
<event>
 7    1  0.4432754E-010  0.4778727E+02  0.7816164E-02  0.1312668E+00
        -11   -1    0    0    0    0  0.00000000000E+00  0.00000000000E+00  0.45593999997E+02  0.45594000000E+02  0.51100000000E-03 0.  1.
         11   -1    0    0    0    0 -0.00000000000E+00 -0.00000000000E+00 -0.45593999997E+02  0.45594000000E+02  0.51100000000E-03 0. -1.
    9900012    2    1    2    0    0  0.24032296400E+02  0.71153569289E+01 -0.35432238797E+02  0.47787272810E+02  0.20000008051E+02 0.  0.
        -12    1    1    2    0    0 -0.24032296400E+02 -0.71153569289E+01  0.35432238797E+02  0.43400727190E+02  0.00000000000E+00 0.  1.
         11    1    3    3    0    0  0.81236947712E+01 -0.47309958827E+01 -0.96002260945E+01  0.13436557599E+02  0.51100000000E-03 0. -1.
        -11    1    3    3    0    0  0.59533012076E+01  0.40454934905E+01 -0.21651266111E+01  0.75163545921E+01  0.51100000000E-03 0.  1.
         12    1    3    3    0    0  0.99553004207E+01  0.78008593210E+01 -0.23666886091E+02  0.26834360620E+02  0.00000000000E+00 0. -1.
</event>
<event>
 7    1  0.4432754E-010  0.4778727E+02  0.7816164E-02  0.1312668E+00
        -11   -1    0    0    0    0  0.00000000000E+00  0.00000000000E+00  0.45593999997E+02  0.45594000000E+02  0.51100000000E-03 0. -1.
         11   -1    0    0    0    0 -0.00000000000E+00 -0.00000000000E+00 -0.45593999997E+02  0.45594000000E+02  0.51100000000E-03 0.  1.
    9900012    2    1    2    0    0 -0.15022100801E+01 -0.42040883431E+02 -0.10673827111E+02  0.47787273048E+02  0.20000009135E+02 0.  0.
        -12    1    1    2    0    0  0.15022100801E+01  0.42040883431E+02  0.10673827111E+02  0.43400726952E+02  0.00000000000E+00 0.  1.
         11    1    3    3    0    0  0.10357690732E+01 -0.19314423340E+01  0.12395788710E+01  0.25179045060E+01  0.51100000000E-03 0. -1.
        -11    1    3    3    0    0 -0.68164094225E+01 -0.88123122430E+01 -0.73652220604E+01  0.13355402680E+02  0.51100000000E-03 0.  1.
         12    1    3    3    0    0  0.42784302692E+01 -0.31297128854E+02 -0.45481839216E+01  0.31913965862E+02  0.00000000000E+00 0. -1.
</event>
<event>
 7    1  0.4432754E-010  0.4778727E+02  0.7816164E-02  0.1312668E+00
        -11   -1    0    0    0    0  0.00000000000E+00  0.00000000000E+00  0.45593999997E+02  0.45594000000E+02  0.51100000000E-03 0. -1.
         11   -1    0    0    0    0 -0.00000000000E+00 -0.00000000000E+00 -0.45593999997E+02  0.45594000000E+02  0.51100000000E-03 0.  1.
    9900012    2    1    2    0    0 -0.23977981603E+02  0.35886407140E+02  0.45656872968E+01  0.47787270517E+02  0.19999997594E+02 0.  0.
        -12    1    1    2    0    0  0.23977981603E+02 -0.35886407140E+02 -0.45656872968E+01  0.43400729483E+02  0.00000000000E+00 0.  1.
         11    1    3    3    0    0 -0.13759345633E+02  0.26076211609E+02  0.94542658866E+01  0.30962421544E+02  0.51100000000E-03 0. -1.
        -11    1    3    3    0    0 -0.29414810057E+01  0.80940637431E+01 -0.23173334528E+01  0.89183077417E+01  0.51100000000E-03 0.  1.
         12    1    3    3    0    0 -0.72771549639E+01  0.17161317879E+01 -0.25712451371E+01  0.79065412309E+01  0.00000000000E+00 0. -1.
</event>
<event>
 7    1  0.4432754E-010  0.4778728E+02  0.7816164E-02  0.1312668E+00
        -11   -1    0    0    0    0  0.00000000000E+00  0.00000000000E+00  0.45593999997E+02  0.45594000000E+02  0.51100000000E-03 0. -1.
         11   -1    0    0    0    0 -0.00000000000E+00 -0.00000000000E+00 -0.45593999997E+02  0.45594000000E+02  0.51100000000E-03 0.  1.
    9900012    2    1    2    0    0 -0.35659455629E+02  0.64362433223E+01  0.23887247323E+02  0.47787278940E+02  0.20000035997E+02 0.  0.
        -12    1    1    2    0    0  0.35659455629E+02 -0.64362433223E+01 -0.23887247323E+02  0.43400721060E+02  0.00000000000E+00 0.  1.
         11    1    3    3    0    0 -0.34168795343E+01  0.32961550319E+01  0.42403554321E+00  0.47664987306E+01  0.51100000000E-03 0. -1.
        -11    1    3    3    0    0 -0.14144648790E+02 -0.50277564428E+01  0.47727955654E+01  0.15752111034E+02  0.51100000000E-03 0.  1.
         12    1    3    3    0    0 -0.18097927305E+02  0.81678447332E+01  0.18690416215E+02  0.27268669175E+02  0.00000000000E+00 0. -1.
</event>
<event>
 7    1  0.4432754E-010  0.4778727E+02  0.7816164E-02  0.1312668E+00
        -11   -1    0    0    0    0  0.00000000000E+00  0.00000000000E+00  0.45593999997E+02  0.45594000000E+02  0.51100000000E-03 0.  1.
         11   -1    0    0    0    0 -0.00000000000E+00 -0.00000000000E+00 -0.45593999997E+02  0.45594000000E+02  0.51100000000E-03 0. -1.
    9900012    2    1    2    0    0  0.13154070376E+02 -0.28211242689E+02 -0.30244328029E+02  0.47787272363E+02  0.20000006012E+02 0.  0.
        -12    1    1    2    0    0 -0.13154070376E+02  0.28211242689E+02  0.30244328029E+02  0.43400727637E+02  0.00000000000E+00 0.  1.
         11    1    3    3    0    0  0.13756264257E+01  0.10557700251E+00 -0.75160017029E+01  0.76415820630E+01  0.51100000000E-03 0. -1.
        -11    1    3    3    0    0  0.54735921507E+01 -0.25239988821E+01 -0.71855208491E+01  0.93788320980E+01  0.51100000000E-03 0.  1.
        -12    1    3    3    0    0  0.63048517999E+01 -0.25792820810E+02 -0.15542805477E+02  0.30766858202E+02  0.00000000000E+00 0.  1.
</event>
<event>
 7    1  0.4432754E-010  0.4778727E+02  0.7816164E-02  0.1312668E+00
        -11   -1    0    0    0    0  0.00000000000E+00  0.00000000000E+00  0.45593999997E+02  0.45594000000E+02  0.51100000000E-03 0.  1.
         11   -1    0    0    0    0 -0.00000000000E+00 -0.00000000000E+00 -0.45593999997E+02  0.45594000000E+02  0.51100000000E-03 0. -1.
    9900012    2    1    2    0    0  0.28066980399E+02 -0.27884606416E+02 -0.17841427238E+02  0.47787272016E+02  0.20000004428E+02 0.  0.
        -12    1    1    2    0    0 -0.28066980399E+02  0.27884606416E+02  0.17841427238E+02  0.43400727984E+02  0.00000000000E+00 0.  1.
         11    1    3    3    0    0  0.13663195857E+01 -0.14223405905E+01  0.20054614069E+01  0.28127846845E+01  0.51100000000E-03 0. -1.
        -11    1    3    3    0    0  0.15797506399E+01 -0.48295387913E+01 -0.85590722424E+01  0.99537819412E+01  0.51100000000E-03 0.  1.
         12    1    3    3    0    0  0.25120910174E+02 -0.21632727034E+02 -0.11287816402E+02  0.35020705390E+02  0.00000000000E+00 0. -1.
</event>
<event>
 7    1  0.4432754E-010  0.4778727E+02  0.7816164E-02  0.1312668E+00
        -11   -1    0    0    0    0  0.00000000000E+00  0.00000000000E+00  0.45593999997E+02  0.45594000000E+02  0.51100000000E-03 0. -1.
         11   -1    0    0    0    0 -0.00000000000E+00 -0.00000000000E+00 -0.45593999997E+02  0.45594000000E+02  0.51100000000E-03 0.  1.
    9900012    2    1    2    0    0  0.35094361602E+01  0.38754795859E+02  0.19219076552E+02  0.47787271345E+02  0.20000001370E+02 0.  0.
        -12    1    1    2    0    0 -0.35094361602E+01 -0.38754795859E+02 -0.19219076552E+02  0.43400728655E+02  0.00000000000E+00 0.  1.
         11    1    3    3    0    0  0.92615462776E+00  0.65006810868E+01  0.26860934362E+01  0.70944848436E+01  0.51100000000E-03 0. -1.
        -11    1    3    3    0    0  0.26862811685E+01  0.77803578275E+01  0.13797856118E+02  0.16066452880E+02  0.51100000000E-03 0.  1.
        -12    1    3    3    0    0 -0.10299963600E+00  0.24473756945E+02  0.27351269983E+01  0.24626333621E+02  0.00000000000E+00 0.  1.
</event>
<event>
 7    1  0.4432754E-010  0.4778727E+02  0.7816164E-02  0.1312668E+00
        -11   -1    0    0    0    0  0.00000000000E+00  0.00000000000E+00  0.45593999997E+02  0.45594000000E+02  0.51100000000E-03 0. -1.
         11   -1    0    0    0    0 -0.00000000000E+00 -0.00000000000E+00 -0.45593999997E+02  0.45594000000E+02  0.51100000000E-03 0.  1.
    9900012    2    1    2    0    0  0.29013863557E+02 -0.12686472778E+02  0.29679493071E+02  0.47787272137E+02  0.20000004983E+02 0.  0.
        -12    1    1    2    0    0 -0.29013863557E+02  0.12686472778E+02 -0.29679493071E+02  0.43400727863E+02  0.00000000000E+00 0.  1.
         11    1    3    3    0    0  0.18525143400E+02 -0.57815570458E+01  0.14434053714E+02  0.24185724028E+02  0.51100000000E-03 0. -1.
        -11    1    3    3    0    0  0.51371772831E+01  0.31740467342E+01  0.82237936252E+01  0.10202742031E+02  0.51100000000E-03 0.  1.
        -12    1    3    3    0    0  0.53515428734E+01 -0.10078962467E+02  0.70216457320E+01  0.13398806078E+02  0.00000000000E+00 0.  1.
</event>
<event>
 7    1  0.4432754E-010  0.4778723E+02  0.7816164E-02  0.1312668E+00
        -11   -1    0    0    0    0  0.00000000000E+00  0.00000000000E+00  0.45593999997E+02  0.45594000000E+02  0.51100000000E-03 0. -1.
         11   -1    0    0    0    0 -0.00000000000E+00 -0.00000000000E+00 -0.45593999997E+02  0.45594000000E+02  0.51100000000E-03 0.  1.
    9900012    2    1    2    0    0  0.41043661643E+02  0.88919032304E+01  0.10953460589E+02  0.47787234995E+02  0.19999835638E+02 0.  0.
        -12    1    1    2    0    0 -0.41043661643E+02 -0.88919032304E+01 -0.10953460589E+02  0.43400765005E+02  0.00000000000E+00 0.  1.
         11    1    3    3    0    0  0.19953216504E+02  0.58536489922E+01  0.32827182149E+01  0.21051657761E+02  0.51100000000E-03 0. -1.
        -11    1    3    3    0    0  0.11234985647E+02  0.81020299795E+01  0.72805586438E+01  0.15648460841E+02  0.51100000000E-03 0.  1.
        -12    1    3    3    0    0  0.98554594923E+01 -0.50637757413E+01  0.39018373018E+00  0.11087116393E+02  0.00000000000E+00 0.  1.
</event>
<event>
 7    1  0.4432754E-010  0.4778727E+02  0.7816164E-02  0.1312668E+00
        -11   -1    0    0    0    0  0.00000000000E+00  0.00000000000E+00  0.45593999997E+02  0.45594000000E+02  0.51100000000E-03 0.  1.
         11   -1    0    0    0    0 -0.00000000000E+00 -0.00000000000E+00 -0.45593999997E+02  0.45594000000E+02  0.51100000000E-03 0. -1.
    9900012    2    1    2    0    0 -0.27819155170E+01  0.18811605536E+02 -0.39012918892E+02  0.47787269623E+02  0.19999993518E+02 0.  0.
        -12    1    1    2    0    0  0.27819155170E+01 -0.18811605536E+02  0.39012918892E+02  0.43400730377E+02  0.00000000000E+00 0.  1.
         11    1    3    3    0    0 -0.40926669984E+01  0.55501169159E+01 -0.18074686271E+02  0.19345490559E+02  0.51100000000E-03 0. -1.
        -11    1    3    3    0    0  0.39640407638E+01  0.41509258581E+01 -0.17387156550E+02  0.18310025063E+02  0.51100000000E-03 0.  1.
        -12    1    3    3    0    0 -0.26532892824E+01  0.91105627619E+01 -0.35510760713E+01  0.10131754000E+02  0.00000000000E+00 0.  1.
</event>
<event>
 7    1  0.4432754E-010  0.4778727E+02  0.7816164E-02  0.1312668E+00
        -11   -1    0    0    0    0  0.00000000000E+00  0.00000000000E+00  0.45593999997E+02  0.45594000000E+02  0.51100000000E-03 0.  1.
         11   -1    0    0    0    0 -0.00000000000E+00 -0.00000000000E+00 -0.45593999997E+02  0.45594000000E+02  0.51100000000E-03 0. -1.
    9900012    2    1    2    0    0 -0.32130818942E+02 -0.22955428470E+02 -0.18007832008E+02  0.47787271484E+02  0.20000002002E+02 0.  0.
        -12    1    1    2    0    0  0.32130818942E+02  0.22955428470E+02  0.18007832008E+02  0.43400728516E+02  0.00000000000E+00 0.  1.
         11    1    3    3    0    0 -0.26085262464E+02 -0.18269562118E+02 -0.79321443122E+01  0.32819761295E+02  0.51100000000E-03 0. -1.
        -11    1    3    3    0    0 -0.68286138695E+01 -0.60480915582E+01 -0.69456429178E+01  0.11465222836E+02  0.51100000000E-03 0.  1.
        -12    1    3    3    0    0  0.78305739129E+00  0.13622252061E+01 -0.31300447782E+01  0.35022873532E+01  0.00000000000E+00 0.  1.
</event>
<event>
 7    1  0.4432754E-010  0.4778728E+02  0.7816164E-02  0.1312668E+00
        -11   -1    0    0    0    0  0.00000000000E+00  0.00000000000E+00  0.45593999997E+02  0.45594000000E+02  0.51100000000E-03 0. -1.
         11   -1    0    0    0    0 -0.00000000000E+00 -0.00000000000E+00 -0.45593999997E+02  0.45594000000E+02  0.51100000000E-03 0.  1.
    9900012    2    1    2    0    0 -0.19413049770E+00 -0.60779925764E+01  0.42972583125E+02  0.47787279029E+02  0.20000036404E+02 0.  0.
        -12    1    1    2    0    0  0.19413049770E+00  0.60779925764E+01 -0.42972583125E+02  0.43400720971E+02  0.00000000000E+00 0.  1.
         11    1    3    3    0    0  0.51482146996E+00  0.96925675348E+00 -0.91092592957E+00  0.14262840216E+01  0.51100000000E-03 0. -1.
        -11    1    3    3    0    0  0.40217506657E+01  0.18331388516E+01  0.85782964214E+01  0.96499764881E+01  0.51100000000E-03 0.  1.
         12    1    3    3    0    0 -0.47307026333E+01 -0.88803881815E+01  0.35305212633E+02  0.36711018519E+02  0.00000000000E+00 0. -1.
</event>
<event>
 7    1  0.4432754E-010  0.4778727E+02  0.7816164E-02  0.1312668E+00
        -11   -1    0    0    0    0  0.00000000000E+00  0.00000000000E+00  0.45593999997E+02  0.45594000000E+02  0.51100000000E-03 0. -1.
         11   -1    0    0    0    0 -0.00000000000E+00 -0.00000000000E+00 -0.45593999997E+02  0.45594000000E+02  0.51100000000E-03 0.  1.
    9900012    2    1    2    0    0  0.53849613110E+01  0.41116871440E+02  0.12807353949E+02  0.47787271429E+02  0.20000001753E+02 0.  0.
        -12    1    1    2    0    0 -0.53849613110E+01 -0.41116871440E+02 -0.12807353949E+02  0.43400728571E+02  0.00000000000E+00 0.  1.
         11    1    3    3    0    0  0.61115093752E+01  0.33833878965E+02  0.75369218820E+01  0.35197828120E+02  0.51100000000E-03 0. -1.
        -11    1    3    3    0    0 -0.24604134376E+01  0.87774004569E+01  0.45605363938E+01  0.10192884063E+02  0.51100000000E-03 0.  1.
        -12    1    3    3    0    0  0.17338653734E+01 -0.14944079821E+01  0.70989567302E+00  0.23965592454E+01  0.00000000000E+00 0.  1.
</event>
<event>
 7    1  0.4432754E-010  0.4778727E+02  0.7816164E-02  0.1312668E+00
        -11   -1    0    0    0    0  0.00000000000E+00  0.00000000000E+00  0.45593999997E+02  0.45594000000E+02  0.51100000000E-03 0.  1.
         11   -1    0    0    0    0 -0.00000000000E+00 -0.00000000000E+00 -0.45593999997E+02  0.45594000000E+02  0.51100000000E-03 0. -1.
    9900012    2    1    2    0    0 -0.26278283796E+02 -0.22509900228E+02 -0.26198841968E+02  0.47787272725E+02  0.20000007661E+02 0.  0.
        -12    1    1    2    0    0  0.26278283796E+02  0.22509900228E+02  0.26198841968E+02  0.43400727275E+02  0.00000000000E+00 0.  1.
         11    1    3    3    0    0 -0.59470834201E+00  0.24440689244E+00  0.65654207589E+00  0.91894531919E+00  0.51100000000E-03 0. -1.
        -11    1    3    3    0    0 -0.55847401664E+01 -0.12677510034E+02 -0.31703904765E+01  0.14211261712E+02  0.51100000000E-03 0.  1.
         12    1    3    3    0    0 -0.20098835288E+02 -0.10076797086E+02 -0.23684993568E+02  0.32657065694E+02  0.00000000000E+00 0. -1.
</event>
<event>
 7    1  0.4432754E-010  0.4778727E+02  0.7816164E-02  0.1312668E+00
        -11   -1    0    0    0    0  0.00000000000E+00  0.00000000000E+00  0.45593999997E+02  0.45594000000E+02  0.51100000000E-03 0. -1.
         11   -1    0    0    0    0 -0.00000000000E+00 -0.00000000000E+00 -0.45593999997E+02  0.45594000000E+02  0.51100000000E-03 0.  1.
    9900012    2    1    2    0    0  0.37031465408E+02 -0.69408212957E+01  0.21543424862E+02  0.47787267457E+02  0.19999983642E+02 0.  0.
        -12    1    1    2    0    0 -0.37031465408E+02  0.69408212957E+01 -0.21543424862E+02  0.43400732543E+02  0.00000000000E+00 0.  1.
         11    1    3    3    0    0  0.62478353740E+01  0.19567761432E+01  0.71314379721E+00  0.65858176464E+01  0.51100000000E-03 0. -1.
        -11    1    3    3    0    0  0.51447110779E+01  0.36507112787E+01  0.86554702765E+00  0.63674890525E+01  0.51100000000E-03 0.  1.
         12    1    3    3    0    0  0.25638918956E+02 -0.12548308718E+02  0.19964734037E+02  0.34833960758E+02  0.00000000000E+00 0. -1.
</event>
<event>
 7    1  0.4432754E-010  0.4778727E+02  0.7816164E-02  0.1312668E+00
        -11   -1    0    0    0    0  0.00000000000E+00  0.00000000000E+00  0.45593999997E+02  0.45594000000E+02  0.51100000000E-03 0.  1.
         11   -1    0    0    0    0 -0.00000000000E+00 -0.00000000000E+00 -0.45593999997E+02  0.45594000000E+02  0.51100000000E-03 0. -1.
    9900012    2    1    2    0    0 -0.38746616807E+02 -0.16200585525E+02 -0.10948244296E+02  0.47787270300E+02  0.19999996606E+02 0.  0.
        -12    1    1    2    0    0  0.38746616807E+02  0.16200585525E+02  0.10948244296E+02  0.43400729700E+02  0.00000000000E+00 0.  1.
         11    1    3    3    0    0 -0.19502432094E+02 -0.48058663147E+01 -0.77810160700E+01  0.21540320795E+02  0.51100000000E-03 0. -1.
        -11    1    3    3    0    0 -0.15832648920E+01 -0.60916183902E+01 -0.45330820760E+01  0.77565053793E+01  0.51100000000E-03 0.  1.
         12    1    3    3    0    0 -0.17660919821E+02 -0.53031008201E+01  0.13658538498E+01  0.18490444126E+02  0.00000000000E+00 0. -1.
</event>
<event>
 7    1  0.4432754E-010  0.4778728E+02  0.7816164E-02  0.1312668E+00
        -11   -1    0    0    0    0  0.00000000000E+00  0.00000000000E+00  0.45593999997E+02  0.45594000000E+02  0.51100000000E-03 0.  1.
         11   -1    0    0    0    0 -0.00000000000E+00 -0.00000000000E+00 -0.45593999997E+02  0.45594000000E+02  0.51100000000E-03 0. -1.
    9900012    2    1    2    0    0  0.27393468296E+02 -0.28985915338E+02 -0.17118338182E+02  0.47787275404E+02  0.20000019879E+02 0.  0.
        -12    1    1    2    0    0 -0.27393468296E+02  0.28985915338E+02  0.17118338182E+02  0.43400724596E+02  0.00000000000E+00 0.  1.
         11    1    3    3    0    0  0.91872228176E+01 -0.14772732560E+02 -0.45550514870E+01  0.17982969296E+02  0.51100000000E-03 0. -1.
        -11    1    3    3    0    0  0.67195482763E+01 -0.33274636653E+01  0.25515138545E+01  0.79205155572E+01  0.51100000000E-03 0.  1.
         12    1    3    3    0    0  0.11486697202E+02 -0.10885719113E+02 -0.15114800550E+02  0.21883790551E+02  0.00000000000E+00 0. -1.
</event>
<event>
 7    1  0.4432754E-010  0.4778727E+02  0.7816164E-02  0.1312668E+00
        -11   -1    0    0    0    0  0.00000000000E+00  0.00000000000E+00  0.45593999997E+02  0.45594000000E+02  0.51100000000E-03 0.  1.
         11   -1    0    0    0    0 -0.00000000000E+00 -0.00000000000E+00 -0.45593999997E+02  0.45594000000E+02  0.51100000000E-03 0. -1.
    9900012    2    1    2    0    0  0.82467212877E+01 -0.35664714462E+02 -0.23316148126E+02  0.47787273818E+02  0.20000012648E+02 0.  0.
        -12    1    1    2    0    0 -0.82467212877E+01  0.35664714462E+02  0.23316148126E+02  0.43400726182E+02  0.00000000000E+00 0.  1.
         11    1    3    3    0    0  0.90712293854E+01 -0.26578260510E+02 -0.10820225369E+02  0.30095986637E+02  0.51100000000E-03 0. -1.
        -11    1    3    3    0    0  0.35632601327E+01 -0.17379061846E+01 -0.39568726990E+01  0.56012482981E+01  0.51100000000E-03 0.  1.
        -12    1    3    3    0    0 -0.43877682305E+01 -0.73485477672E+01 -0.85390500573E+01  0.12090038884E+02  0.00000000000E+00 0.  1.
</event>
<event>
 7    1  0.4432754E-010  0.4778728E+02  0.7816164E-02  0.1312668E+00
        -11   -1    0    0    0    0  0.00000000000E+00  0.00000000000E+00  0.45593999997E+02  0.45594000000E+02  0.51100000000E-03 0.  1.
         11   -1    0    0    0    0 -0.00000000000E+00 -0.00000000000E+00 -0.45593999997E+02  0.45594000000E+02  0.51100000000E-03 0. -1.
    9900012    2    1    2    0    0 -0.37676655840E+02  0.17555442156E+02 -0.12485948085E+02  0.47787275995E+02  0.20000022572E+02 0.  0.
        -12    1    1    2    0    0  0.37676655840E+02 -0.17555442156E+02  0.12485948085E+02  0.43400724005E+02  0.00000000000E+00 0.  1.
         11    1    3    3    0    0 -0.13825872820E+02  0.43794273269E+01 -0.75152841095E+01  0.16334431072E+02  0.51100000000E-03 0.  1.
        -11    1    3    3    0    0 -0.25800255668E+02  0.13070833984E+02 -0.37855681840E+01  0.29168997588E+02  0.51100000000E-03 0. -1.
         12    1    3    3    0    0  0.19494726478E+01  0.10518084589E+00 -0.11850957911E+01  0.22838473349E+01  0.00000000000E+00 0. -1.
</event>
<event>
 7    1  0.4432754E-010  0.4778727E+02  0.7816164E-02  0.1312668E+00
        -11   -1    0    0    0    0  0.00000000000E+00  0.00000000000E+00  0.45593999997E+02  0.45594000000E+02  0.51100000000E-03 0.  1.
         11   -1    0    0    0    0 -0.00000000000E+00 -0.00000000000E+00 -0.45593999997E+02  0.45594000000E+02  0.51100000000E-03 0. -1.
    9900012    2    1    2    0    0  0.44481186488E+01 -0.32491329756E+02 -0.28427993671E+02  0.47787273128E+02  0.20000009501E+02 0.  0.
        -12    1    1    2    0    0 -0.44481186488E+01  0.32491329756E+02  0.28427993671E+02  0.43400726872E+02  0.00000000000E+00 0.  1.
         11    1    3    3    0    0 -0.11411734043E+00 -0.23389321492E+02 -0.10553230313E+02  0.25660164709E+02  0.51100000000E-03 0. -1.
        -11    1    3    3    0    0 -0.23550711210E+01 -0.16719149485E+01 -0.37813779593E+01  0.47582012475E+01  0.51100000000E-03 0.  1.
         12    1    3    3    0    0  0.69173071102E+01 -0.74300933158E+01 -0.14093385399E+02  0.17368907171E+02  0.00000000000E+00 0. -1.
</event>
<event>
 7    1  0.4432754E-010  0.4778727E+02  0.7816164E-02  0.1312668E+00
        -11   -1    0    0    0    0  0.00000000000E+00  0.00000000000E+00  0.45593999997E+02  0.45594000000E+02  0.51100000000E-03 0.  1.
         11   -1    0    0    0    0 -0.00000000000E+00 -0.00000000000E+00 -0.45593999997E+02  0.45594000000E+02  0.51100000000E-03 0. -1.
    9900012    2    1    2    0    0 -0.30888016170E+01 -0.42750101594E+02  0.68199176942E+01  0.47787272367E+02  0.20000006029E+02 0.  0.
        -12    1    1    2    0    0  0.30888016170E+01  0.42750101594E+02 -0.68199176942E+01  0.43400727633E+02  0.00000000000E+00 0.  1.
         11    1    3    3    0    0  0.20948519594E+01 -0.41458094765E+01  0.35880496601E+01  0.58694328152E+01  0.51100000000E-03 0.  1.
        -11    1    3    3    0    0 -0.30127379998E+00 -0.10240368014E+02  0.76683397857E+01  0.12796848764E+02  0.51100000000E-03 0. -1.
         12    1    3    3    0    0 -0.48823797764E+01 -0.28363924103E+02 -0.44364717516E+01  0.29120990787E+02  0.00000000000E+00 0. -1.
</event>
<event>
 7    1  0.4432754E-010  0.4778728E+02  0.7816164E-02  0.1312668E+00
        -11   -1    0    0    0    0  0.00000000000E+00  0.00000000000E+00  0.45593999997E+02  0.45594000000E+02  0.51100000000E-03 0.  1.
         11   -1    0    0    0    0 -0.00000000000E+00 -0.00000000000E+00 -0.45593999997E+02  0.45594000000E+02  0.51100000000E-03 0. -1.
    9900012    2    1    2    0    0 -0.12325553370E+02  0.30335779710E+02 -0.28485843906E+02  0.47787284573E+02  0.20000061684E+02 0.  0.
        -12    1    1    2    0    0  0.12325553370E+02 -0.30335779710E+02  0.28485843906E+02  0.43400715427E+02  0.00000000000E+00 0.  1.
         11    1    3    3    0    0 -0.74783707625E+01  0.15552168813E+02 -0.21634441560E+02  0.27673905505E+02  0.51100000000E-03 0.  1.
        -11    1    3    3    0    0  0.59846070880E+00  0.10813583869E+02 -0.77459952360E+01  0.13315111482E+02  0.51100000000E-03 0. -1.
        -12    1    3    3    0    0 -0.54456433165E+01  0.39700270281E+01  0.89459289003E+00  0.67982675861E+01  0.00000000000E+00 0.  1.
</event>
<event>
 7    1  0.4491000E-010  0.4778726E+02  0.7816164E-02  0.1312668E+00
        -11   -1    0    0    0    0  0.00000000000E+00  0.00000000000E+00  0.45593999997E+02  0.45594000000E+02  0.51100000000E-03 0. -1.
         11   -1    0    0    0    0 -0.00000000000E+00 -0.00000000000E+00 -0.45593999997E+02  0.45594000000E+02  0.51100000000E-03 0.  1.
    9900012    2    1    2    0    0  0.17369675243E+02  0.18396464690E+02  0.35263129466E+02  0.47787264627E+02  0.19999970742E+02 0.  0.
        -12    1    1    2    0    0 -0.17369675243E+02 -0.18396464690E+02 -0.35263129466E+02  0.43400735373E+02  0.00000000000E+00 0.  1.
         11    1    3    3    0    0  0.11180040823E+01  0.74430023380E+01  0.18857010360E+02  0.20303572516E+02  0.51100000000E-03 0. -1.
        -11    1    3    3    0    0  0.32969879898E+01 -0.18644156336E+01  0.34505322290E+01  0.51237045567E+01  0.51100000000E-03 0.  1.
         12    1    3    3    0    0  0.12954683171E+02  0.12817877986E+02  0.12955586877E+02  0.22359987555E+02  0.00000000000E+00 0. -1.
</event>
<event>
 7    1  0.4432754E-010  0.4778727E+02  0.7816164E-02  0.1312668E+00
        -11   -1    0    0    0    0  0.00000000000E+00  0.00000000000E+00  0.45593999997E+02  0.45594000000E+02  0.51100000000E-03 0.  1.
         11   -1    0    0    0    0 -0.00000000000E+00 -0.00000000000E+00 -0.45593999997E+02  0.45594000000E+02  0.51100000000E-03 0. -1.
    9900012    2    1    2    0    0  0.73627856867E+01  0.25102226420E+02 -0.34630779180E+02  0.47787271308E+02  0.20000001203E+02 0.  0.
        -12    1    1    2    0    0 -0.73627856867E+01 -0.25102226420E+02  0.34630779180E+02  0.43400728692E+02  0.00000000000E+00 0.  1.
         11    1    3    3    0    0  0.54810602435E+01  0.12069085433E+02 -0.20620086959E+02  0.24513115490E+02  0.51100000000E-03 0. -1.
        -11    1    3    3    0    0  0.18665733155E+01 -0.16022434182E+01 -0.62321373527E+01  0.67000609070E+01  0.51100000000E-03 0.  1.
         12    1    3    3    0    0  0.15152127753E-01  0.14635384405E+02 -0.77785548688E+01  0.16574094911E+02  0.00000000000E+00 0. -1.
</event>
<event>
 7    1  0.4432754E-010  0.4778727E+02  0.7816164E-02  0.1312668E+00
        -11   -1    0    0    0    0  0.00000000000E+00  0.00000000000E+00  0.45593999997E+02  0.45594000000E+02  0.51100000000E-03 0. -1.
         11   -1    0    0    0    0 -0.00000000000E+00 -0.00000000000E+00 -0.45593999997E+02  0.45594000000E+02  0.51100000000E-03 0.  1.
    9900012    2    1    2    0    0 -0.60756196555E+01  0.27583669467E+02  0.32952255408E+02  0.47787272910E+02  0.20000008506E+02 0.  0.
        -12    1    1    2    0    0  0.60756196555E+01 -0.27583669467E+02 -0.32952255408E+02  0.43400727090E+02  0.00000000000E+00 0.  1.
         11    1    3    3    0    0 -0.57067898533E+00  0.69554999910E+01  0.81983962963E+01  0.10766538753E+02  0.51100000000E-03 0. -1.
        -11    1    3    3    0    0  0.21416918894E+01 -0.21352785503E+00 -0.15115427543E+01  0.26300570437E+01  0.51100000000E-03 0.  1.
         12    1    3    3    0    0 -0.76466325596E+01  0.20841697331E+02  0.26265401866E+02  0.34390677113E+02  0.00000000000E+00 0. -1.
</event>
<event>
 7    1  0.4432754E-010  0.4778727E+02  0.7816164E-02  0.1312668E+00
        -11   -1    0    0    0    0  0.00000000000E+00  0.00000000000E+00  0.45593999997E+02  0.45594000000E+02  0.51100000000E-03 0.  1.
         11   -1    0    0    0    0 -0.00000000000E+00 -0.00000000000E+00 -0.45593999997E+02  0.45594000000E+02  0.51100000000E-03 0. -1.
    9900012    2    1    2    0    0  0.37077232760E+02  0.22553927124E+02  0.47158963097E+00  0.47787271727E+02  0.20000003113E+02 0.  0.
        -12    1    1    2    0    0 -0.37077232760E+02 -0.22553927124E+02 -0.47158963097E+00  0.43400728273E+02  0.00000000000E+00 0.  1.
         11    1    3    3    0    0  0.32321808019E+02  0.19801606936E+02  0.18265271787E+01  0.37949164848E+02  0.51100000000E-03 0. -1.
        -11    1    3    3    0    0  0.46730834968E+01 -0.12036257547E+01  0.13907102887E+01  0.50220015626E+01  0.51100000000E-03 0.  1.
        -12    1    3    3    0    0  0.82341244314E-01  0.39559459426E+01 -0.27456478365E+01  0.48161053169E+01  0.00000000000E+00 0.  1.
</event>
<event>
 7    1  0.4432754E-010  0.4778727E+02  0.7816164E-02  0.1312668E+00
        -11   -1    0    0    0    0  0.00000000000E+00  0.00000000000E+00  0.45593999997E+02  0.45594000000E+02  0.51100000000E-03 0.  1.
         11   -1    0    0    0    0 -0.00000000000E+00 -0.00000000000E+00 -0.45593999997E+02  0.45594000000E+02  0.51100000000E-03 0. -1.
    9900012    2    1    2    0    0  0.48692923480E+01  0.27920413093E+02 -0.32868886105E+02  0.47787272483E+02  0.20000006559E+02 0.  0.
        -12    1    1    2    0    0 -0.48692923480E+01 -0.27920413093E+02  0.32868886105E+02  0.43400727517E+02  0.00000000000E+00 0.  1.
         11    1    3    3    0    0  0.22574981594E+01  0.13953536352E+02 -0.21695278684E+02  0.25893678613E+02  0.51100000000E-03 0. -1.
        -11    1    3    3    0    0  0.58067389929E+01  0.61544586591E+01 -0.10415242037E+02  0.13419122403E+02  0.51100000000E-03 0.  1.
        -12    1    3    3    0    0 -0.31949448043E+01  0.78124180820E+01 -0.75836538316E+00  0.84744714670E+01  0.00000000000E+00 0.  1.
</event>
<event>
 7    1  0.4432754E-010  0.4778731E+02  0.7816164E-02  0.1312668E+00
        -11   -1    0    0    0    0  0.00000000000E+00  0.00000000000E+00  0.45593999997E+02  0.45594000000E+02  0.51100000000E-03 0.  1.
         11   -1    0    0    0    0 -0.00000000000E+00 -0.00000000000E+00 -0.45593999997E+02  0.45594000000E+02  0.51100000000E-03 0. -1.
    9900012    2    1    2    0    0 -0.29638920124E+02 -0.31282434788E+02 -0.51540129190E+01  0.47787306900E+02  0.20000163480E+02 0.  0.
        -12    1    1    2    0    0  0.29638920124E+02  0.31282434788E+02  0.51540129190E+01  0.43400693100E+02  0.00000000000E+00 0.  1.
         11    1    3    3    0    0  0.10828336459E+01 -0.84575176018E+00 -0.77022898720E+00  0.15751437072E+01  0.51100000000E-03 0.  1.
        -11    1    3    3    0    0 -0.23701425579E+02 -0.12623044941E+02 -0.22820373550E+01  0.26950074821E+02  0.51100000000E-03 0. -1.
        -12    1    3    3    0    0 -0.70203281902E+01 -0.17813638087E+02 -0.21017465769E+01  0.19262088372E+02  0.00000000000E+00 0.  1.
</event>
<event>
 7    1  0.4432754E-010  0.4778727E+02  0.7816164E-02  0.1312668E+00
        -11   -1    0    0    0    0  0.00000000000E+00  0.00000000000E+00  0.45593999997E+02  0.45594000000E+02  0.51100000000E-03 0.  1.
         11   -1    0    0    0    0 -0.00000000000E+00 -0.00000000000E+00 -0.45593999997E+02  0.45594000000E+02  0.51100000000E-03 0. -1.
    9900012    2    1    2    0    0 -0.26914953935E+02 -0.75051870900E-01 -0.34047068310E+02  0.47787271451E+02  0.20000001853E+02 0.  0.
        -12    1    1    2    0    0  0.26914953935E+02  0.75051870900E-01  0.34047068310E+02  0.43400728549E+02  0.00000000000E+00 0.  1.
         11    1    3    3    0    0 -0.97046438372E+01 -0.55235208905E+01 -0.20379134479E+02  0.23237868177E+02  0.51100000000E-03 0. -1.
        -11    1    3    3    0    0 -0.47500541887E+01 -0.27321720843E+01 -0.33876129771E+01  0.64423366132E+01  0.51100000000E-03 0.  1.
        -12    1    3    3    0    0 -0.12460255909E+02  0.81806411038E+01 -0.10280320853E+02  0.18107066660E+02  0.00000000000E+00 0.  1.
</event>
<event>
 7    1  0.4432754E-010  0.4778727E+02  0.7816164E-02  0.1312668E+00
        -11   -1    0    0    0    0  0.00000000000E+00  0.00000000000E+00  0.45593999997E+02  0.45594000000E+02  0.51100000000E-03 0.  1.
         11   -1    0    0    0    0 -0.00000000000E+00 -0.00000000000E+00 -0.45593999997E+02  0.45594000000E+02  0.51100000000E-03 0. -1.
    9900012    2    1    2    0    0 -0.23202785189E+02  0.35183962205E+02 -0.10360636568E+02  0.47787271584E+02  0.20000002459E+02 0.  0.
        -12    1    1    2    0    0  0.23202785189E+02 -0.35183962205E+02  0.10360636568E+02  0.43400728416E+02  0.00000000000E+00 0.  1.
         11    1    3    3    0    0 -0.83032453129E+00  0.42701851321E+01  0.13761441164E+01  0.45626409874E+01  0.51100000000E-03 0. -1.
        -11    1    3    3    0    0  0.13901852637E+01  0.68217331581E+01  0.10688240695E+01  0.70435107369E+01  0.51100000000E-03 0.  1.
         12    1    3    3    0    0 -0.23762645922E+02  0.24092043914E+02 -0.12805604754E+02  0.36181119859E+02  0.00000000000E+00 0. -1.
</event>
<event>
 7    1  0.4432754E-010  0.4778725E+02  0.7816164E-02  0.1312668E+00
        -11   -1    0    0    0    0  0.00000000000E+00  0.00000000000E+00  0.45593999997E+02  0.45594000000E+02  0.51100000000E-03 0. -1.
         11   -1    0    0    0    0 -0.00000000000E+00 -0.00000000000E+00 -0.45593999997E+02  0.45594000000E+02  0.51100000000E-03 0.  1.
    9900012    2    1    2    0    0 -0.15061538722E+02 -0.67566219549E+00  0.40697891856E+02  0.47787252661E+02  0.19999916181E+02 0.  0.
        -12    1    1    2    0    0  0.15061538722E+02  0.67566219549E+00 -0.40697891856E+02  0.43400747339E+02  0.00000000000E+00 0.  1.
         11    1    3    3    0    0  0.94285020819E+00  0.41352548049E+01  0.50917441765E+01  0.66268512762E+01  0.51100000000E-03 0. -1.
        -11    1    3    3    0    0 -0.64831035478E+01  0.40421026350E+01  0.13729826876E+02  0.15712331833E+02  0.51100000000E-03 0.  1.
        -12    1    3    3    0    0 -0.95212853822E+01 -0.88530196354E+01  0.21876320804E+02  0.25448069552E+02  0.00000000000E+00 0.  1.
</event>
<event>
 7    1  0.4432754E-010  0.4778724E+02  0.7816164E-02  0.1312668E+00
        -11   -1    0    0    0    0  0.00000000000E+00  0.00000000000E+00  0.45593999997E+02  0.45594000000E+02  0.51100000000E-03 0.  1.
         11   -1    0    0    0    0 -0.00000000000E+00 -0.00000000000E+00 -0.45593999997E+02  0.45594000000E+02  0.51100000000E-03 0. -1.
    9900012    2    1    2    0    0 -0.32413484446E+02 -0.11585493963E+02 -0.26434218967E+02  0.47787244515E+02  0.19999879039E+02 0.  0.
        -12    1    1    2    0    0  0.32413484446E+02  0.11585493963E+02  0.26434218967E+02  0.43400755485E+02  0.00000000000E+00 0.  1.
         11    1    3    3    0    0  0.39031610009E+00  0.10792723448E+01 -0.41656923804E+00  0.12209445702E+01  0.51100000000E-03 0.  1.
        -11    1    3    3    0    0 -0.14841090486E+02 -0.60044664289E+01 -0.21633733661E+02  0.26913379875E+02  0.51100000000E-03 0. -1.
         12    1    3    3    0    0 -0.17962710060E+02 -0.66602998787E+01 -0.43839160687E+01  0.19652920070E+02  0.00000000000E+00 0. -1.
</event>
<event>
 7    1  0.4432754E-010  0.4778727E+02  0.7816164E-02  0.1312668E+00
        -11   -1    0    0    0    0  0.00000000000E+00  0.00000000000E+00  0.45593999997E+02  0.45594000000E+02  0.51100000000E-03 0.  1.
         11   -1    0    0    0    0 -0.00000000000E+00 -0.00000000000E+00 -0.45593999997E+02  0.45594000000E+02  0.51100000000E-03 0. -1.
    9900012    2    1    2    0    0 -0.16422005332E+02  0.15757159136E+00 -0.40173576636E+02  0.47787270195E+02  0.19999996125E+02 0.  0.
        -12    1    1    2    0    0  0.16422005332E+02 -0.15757159136E+00  0.40173576636E+02  0.43400729805E+02  0.00000000000E+00 0.  1.
         11    1    3    3    0    0 -0.59927952917E+01  0.27029639600E+01 -0.12095078080E+02  0.13766282127E+02  0.51100000000E-03 0. -1.
        -11    1    3    3    0    0 -0.49047844110E+01  0.57523894989E+01 -0.19338495283E+02  0.20763532819E+02  0.51100000000E-03 0.  1.
         12    1    3    3    0    0 -0.55244256292E+01 -0.82977818676E+01 -0.87400032732E+01  0.13257455249E+02  0.00000000000E+00 0. -1.
</event>
<event>
 7    1  0.4432754E-010  0.4778728E+02  0.7816164E-02  0.1312668E+00
        -11   -1    0    0    0    0  0.00000000000E+00  0.00000000000E+00  0.45593999997E+02  0.45594000000E+02  0.51100000000E-03 0. -1.
         11   -1    0    0    0    0 -0.00000000000E+00 -0.00000000000E+00 -0.45593999997E+02  0.45594000000E+02  0.51100000000E-03 0.  1.
    9900012    2    1    2    0    0  0.12320681176E+02  0.41267883752E+02  0.53652078394E+01  0.47787275707E+02  0.20000021259E+02 0.  0.
        -12    1    1    2    0    0 -0.12320681176E+02 -0.41267883752E+02 -0.53652078394E+01  0.43400724293E+02  0.00000000000E+00 0.  1.
         11    1    3    3    0    0  0.61381540551E+01  0.48211536135E+01  0.65447005221E+01  0.10185949271E+02  0.51100000000E-03 0.  1.
        -11    1    3    3    0    0  0.71043171028E-01  0.25522993748E+01 -0.18512182968E+01  0.31537737196E+01  0.51100000000E-03 0. -1.
        -12    1    3    3    0    0  0.61114839496E+01  0.33894430763E+02  0.67172561410E+00  0.34447552716E+02  0.00000000000E+00 0.  1.
</event>
<event>
 7    1  0.4432754E-010  0.4778726E+02  0.7816164E-02  0.1312668E+00
        -11   -1    0    0    0    0  0.00000000000E+00  0.00000000000E+00  0.45593999997E+02  0.45594000000E+02  0.51100000000E-03 0. -1.
         11   -1    0    0    0    0 -0.00000000000E+00 -0.00000000000E+00 -0.45593999997E+02  0.45594000000E+02  0.51100000000E-03 0.  1.
    9900012    2    1    2    0    0 -0.14164998154E+02 -0.16120536594E+02  0.37724063858E+02  0.47787264214E+02  0.19999968857E+02 0.  0.
        -12    1    1    2    0    0  0.14164998154E+02  0.16120536594E+02 -0.37724063858E+02  0.43400735786E+02  0.00000000000E+00 0.  1.
         11    1    3    3    0    0 -0.14250102477E+02 -0.39172782138E+01  0.14253679903E+02  0.20532361780E+02  0.51100000000E-03 0. -1.
        -11    1    3    3    0    0  0.82596054718E+00  0.60463961405E+00  0.18711971629E+01  0.21328804401E+01  0.51100000000E-03 0.  1.
         12    1    3    3    0    0 -0.74085622429E+00 -0.12807897995E+02  0.21599186792E+02  0.25122021994E+02  0.00000000000E+00 0. -1.
</event>
<event>
 7    1  0.4432754E-010  0.4778725E+02  0.7816164E-02  0.1312668E+00
        -11   -1    0    0    0    0  0.00000000000E+00  0.00000000000E+00  0.45593999997E+02  0.45594000000E+02  0.51100000000E-03 0.  1.
         11   -1    0    0    0    0 -0.00000000000E+00 -0.00000000000E+00 -0.45593999997E+02  0.45594000000E+02  0.51100000000E-03 0. -1.
    9900012    2    1    2    0    0 -0.30994952537E+02  0.31248831463E+01 -0.30218758033E+02  0.47787247535E+02  0.19999892812E+02 0.  0.
        -12    1    1    2    0    0  0.30994952537E+02 -0.31248831463E+01  0.30218758033E+02  0.43400752465E+02  0.00000000000E+00 0.  1.
         11    1    3    3    0    0 -0.21980451442E+02  0.69184214867E+01 -0.13929951574E+02  0.26926721906E+02  0.51100000000E-03 0. -1.
        -11    1    3    3    0    0 -0.48617599900E+01 -0.31177249011E+01 -0.22391427498E+01  0.61944070962E+01  0.51100000000E-03 0.  1.
        -12    1    3    3    0    0 -0.41527411049E+01 -0.67581343933E+00 -0.14049663709E+02  0.14666118533E+02  0.00000000000E+00 0.  1.
</event>
<event>
 7    1  0.4432754E-010  0.4778727E+02  0.7816164E-02  0.1312668E+00
        -11   -1    0    0    0    0  0.00000000000E+00  0.00000000000E+00  0.45593999997E+02  0.45594000000E+02  0.51100000000E-03 0.  1.
         11   -1    0    0    0    0 -0.00000000000E+00 -0.00000000000E+00 -0.45593999997E+02  0.45594000000E+02  0.51100000000E-03 0. -1.
    9900012    2    1    2    0    0 -0.12092389172E+02 -0.36520191045E+02 -0.20091619248E+02  0.47787269662E+02  0.19999993698E+02 0.  0.
        -12    1    1    2    0    0  0.12092389172E+02  0.36520191045E+02  0.20091619248E+02  0.43400730338E+02  0.00000000000E+00 0.  1.
         11    1    3    3    0    0  0.11663082355E+01 -0.44213561370E+01 -0.45726119909E+01  0.64666409883E+01  0.51100000000E-03 0.  1.
        -11    1    3    3    0    0 -0.52341643650E+01 -0.16183031067E+02 -0.16192368739E+02  0.23483606553E+02  0.51100000000E-03 0. -1.
        -12    1    3    3    0    0 -0.80245330422E+01 -0.15915803841E+02  0.67336148119E+00  0.17837022121E+02  0.00000000000E+00 0.  1.
</event>
<event>
 7    1  0.4432754E-010  0.4778727E+02  0.7816164E-02  0.1312668E+00
        -11   -1    0    0    0    0  0.00000000000E+00  0.00000000000E+00  0.45593999997E+02  0.45594000000E+02  0.51100000000E-03 0.  1.
         11   -1    0    0    0    0 -0.00000000000E+00 -0.00000000000E+00 -0.45593999997E+02  0.45594000000E+02  0.51100000000E-03 0. -1.
    9900012    2    1    2    0    0  0.32692795709E+02  0.22662090765E+02 -0.17356096173E+02  0.47787270473E+02  0.19999997394E+02 0.  0.
        -12    1    1    2    0    0 -0.32692795709E+02 -0.22662090765E+02  0.17356096173E+02  0.43400729527E+02  0.00000000000E+00 0.  1.
         11    1    3    3    0    0  0.17839070522E+02  0.14109808240E+02 -0.65131628165E+01  0.23658833779E+02  0.51100000000E-03 0. -1.
        -11    1    3    3    0    0  0.77034269536E+01  0.62570904497E+01  0.11370305612E+01  0.99893346367E+01  0.51100000000E-03 0.  1.
         12    1    3    3    0    0  0.71502982334E+01  0.22951920749E+01 -0.11979963918E+02  0.14139102057E+02  0.00000000000E+00 0. -1.
</event>
<event>
 7    1  0.4432754E-010  0.4778728E+02  0.7816164E-02  0.1312668E+00
        -11   -1    0    0    0    0  0.00000000000E+00  0.00000000000E+00  0.45593999997E+02  0.45594000000E+02  0.51100000000E-03 0. -1.
         11   -1    0    0    0    0 -0.00000000000E+00 -0.00000000000E+00 -0.45593999997E+02  0.45594000000E+02  0.51100000000E-03 0.  1.
    9900012    2    1    2    0    0 -0.23921109947E+02  0.13373932469E+02  0.33653249134E+02  0.47787277102E+02  0.20000027621E+02 0.  0.
        -12    1    1    2    0    0  0.23921109947E+02 -0.13373932469E+02 -0.33653249134E+02  0.43400722898E+02  0.00000000000E+00 0.  1.
         11    1    3    3    0    0 -0.12386667452E+02  0.45202107044E+01  0.89743145616E+01  0.15949926567E+02  0.51100000000E-03 0. -1.
        -11    1    3    3    0    0 -0.48101587198E+01 -0.13545853939E+01  0.86816120653E+00  0.50721033744E+01  0.51100000000E-03 0.  1.
         12    1    3    3    0    0 -0.67242837753E+01  0.10208307158E+02  0.23810773365E+02  0.26765247161E+02  0.00000000000E+00 0. -1.
</event>
<event>
 7    1  0.4432754E-010  0.4778727E+02  0.7816164E-02  0.1312668E+00
        -11   -1    0    0    0    0  0.00000000000E+00  0.00000000000E+00  0.45593999997E+02  0.45594000000E+02  0.51100000000E-03 0.  1.
         11   -1    0    0    0    0 -0.00000000000E+00 -0.00000000000E+00 -0.45593999997E+02  0.45594000000E+02  0.51100000000E-03 0. -1.
    9900012    2    1    2    0    0 -0.15796478247E+02 -0.39441099026E+02 -0.88596961161E+01  0.47787271519E+02  0.20000002165E+02 0.  0.
        -12    1    1    2    0    0  0.15796478247E+02  0.39441099026E+02  0.88596961161E+01  0.43400728481E+02  0.00000000000E+00 0.  1.
         11    1    3    3    0    0 -0.80758868095E+01 -0.23541186250E+02 -0.85567685631E+01  0.26317782702E+02  0.51100000000E-03 0. -1.
        -11    1    3    3    0    0 -0.37362305914E+01 -0.16400480330E+02  0.18344514075E+01  0.16920413302E+02  0.51100000000E-03 0.  1.
        -12    1    3    3    0    0 -0.39843608463E+01  0.50056755372E+00 -0.21373789605E+01  0.45490755159E+01  0.00000000000E+00 0.  1.
</event>
<event>
 7    1  0.4432754E-010  0.4778728E+02  0.7816164E-02  0.1312668E+00
        -11   -1    0    0    0    0  0.00000000000E+00  0.00000000000E+00  0.45593999997E+02  0.45594000000E+02  0.51100000000E-03 0.  1.
         11   -1    0    0    0    0 -0.00000000000E+00 -0.00000000000E+00 -0.45593999997E+02  0.45594000000E+02  0.51100000000E-03 0. -1.
    9900012    2    1    2    0    0  0.22271868892E+02 -0.16185089145E+02 -0.33550403791E+02  0.47787275938E+02  0.20000022310E+02 0.  0.
        -12    1    1    2    0    0 -0.22271868892E+02  0.16185089145E+02  0.33550403791E+02  0.43400724062E+02  0.00000000000E+00 0.  1.
         11    1    3    3    0    0 -0.35115825950E+00 -0.27331400521E+01 -0.45614225928E+01  0.53291596898E+01  0.51100000000E-03 0. -1.
        -11    1    3    3    0    0  0.15484420254E+02 -0.16779285062E+02 -0.24048476683E+02  0.33160833959E+02  0.51100000000E-03 0.  1.
         12    1    3    3    0    0  0.71386068979E+01  0.33273359697E+01 -0.49405045157E+01  0.92972822893E+01  0.00000000000E+00 0. -1.
</event>
<event>
 7    1  0.4432754E-010  0.4778727E+02  0.7816164E-02  0.1312668E+00
        -11   -1    0    0    0    0  0.00000000000E+00  0.00000000000E+00  0.45593999997E+02  0.45594000000E+02  0.51100000000E-03 0.  1.
         11   -1    0    0    0    0 -0.00000000000E+00 -0.00000000000E+00 -0.45593999997E+02  0.45594000000E+02  0.51100000000E-03 0. -1.
    9900012    2    1    2    0    0  0.27926112418E+02  0.83543138459E+01 -0.32155267713E+02  0.47787267790E+02  0.19999985163E+02 0.  0.
        -12    1    1    2    0    0 -0.27926112418E+02 -0.83543138459E+01  0.32155267713E+02  0.43400732210E+02  0.00000000000E+00 0.  1.
         11    1    3    3    0    0  0.23004845166E+02  0.33718248115E+01 -0.19976559834E+02  0.30653793349E+02  0.51100000000E-03 0. -1.
        -11    1    3    3    0    0  0.46390219855E+01  0.47917498072E+01 -0.20193975169E+01  0.69684544764E+01  0.51100000000E-03 0.  1.
         12    1    3    3    0    0  0.28224526735E+00  0.19073922719E+00 -0.10159310362E+02  0.10165019965E+02  0.00000000000E+00 0. -1.
</event>
<event>
 7    1  0.4432754E-010  0.4778730E+02  0.7816164E-02  0.1312668E+00
        -11   -1    0    0    0    0  0.00000000000E+00  0.00000000000E+00  0.45593999997E+02  0.45594000000E+02  0.51100000000E-03 0.  1.
         11   -1    0    0    0    0 -0.00000000000E+00 -0.00000000000E+00 -0.45593999997E+02  0.45594000000E+02  0.51100000000E-03 0. -1.
    9900012    2    1    2    0    0  0.26289863833E+02 -0.25283611462E+02 -0.23520260867E+02  0.47787301616E+02  0.20000139389E+02 0.  0.
        -12    1    1    2    0    0 -0.26289863833E+02  0.25283611462E+02  0.23520260867E+02  0.43400698384E+02  0.00000000000E+00 0.  1.
         11    1    3    3    0    0  0.12674281560E+01  0.25908902099E+00 -0.55620329909E+01  0.57104914416E+01  0.51100000000E-03 0. -1.
        -11    1    3    3    0    0  0.19377400329E+00  0.37891022525E+00  0.12822560583E+01  0.13510374471E+01  0.51100000000E-03 0.  1.
        -12    1    3    3    0    0  0.24828661674E+02 -0.25921610708E+02 -0.19240483935E+02  0.40725772728E+02  0.00000000000E+00 0.  1.
</event>
<event>
 7    1  0.4432754E-010  0.4778727E+02  0.7816164E-02  0.1312668E+00
        -11   -1    0    0    0    0  0.00000000000E+00  0.00000000000E+00  0.45593999997E+02  0.45594000000E+02  0.51100000000E-03 0. -1.
         11   -1    0    0    0    0 -0.00000000000E+00 -0.00000000000E+00 -0.45593999997E+02  0.45594000000E+02  0.51100000000E-03 0.  1.
    9900012    2    1    2    0    0 -0.32006554589E+02  0.25056954531E+02  0.15210299521E+02  0.47787265921E+02  0.19999976641E+02 0.  0.
        -12    1    1    2    0    0  0.32006554589E+02 -0.25056954531E+02 -0.15210299521E+02  0.43400734079E+02  0.00000000000E+00 0.  1.
         11    1    3    3    0    0 -0.15142876695E+02  0.10740771680E+02 -0.17107398021E+00  0.18566102377E+02  0.51100000000E-03 0. -1.
        -11    1    3    3    0    0  0.16943430150E+01  0.14479049251E+01  0.96327862849E+00  0.24279894773E+01  0.51100000000E-03 0.  1.
         12    1    3    3    0    0 -0.18558020909E+02  0.12868277926E+02  0.14418094873E+02  0.26793174067E+02  0.00000000000E+00 0. -1.
</event>
<event>
 7    1  0.4432754E-010  0.4778727E+02  0.7816164E-02  0.1312668E+00
        -11   -1    0    0    0    0  0.00000000000E+00  0.00000000000E+00  0.45593999997E+02  0.45594000000E+02  0.51100000000E-03 0.  1.
         11   -1    0    0    0    0 -0.00000000000E+00 -0.00000000000E+00 -0.45593999997E+02  0.45594000000E+02  0.51100000000E-03 0. -1.
    9900012    2    1    2    0    0 -0.27049421146E+01  0.19073285062E+02 -0.38891086671E+02  0.47787268010E+02  0.19999986163E+02 0.  0.
        -12    1    1    2    0    0  0.27049421146E+01 -0.19073285062E+02  0.38891086671E+02  0.43400731990E+02  0.00000000000E+00 0.  1.
         11    1    3    3    0    0 -0.66898549310E+01  0.89805482258E+01 -0.14348240641E+02  0.18201000389E+02  0.51100000000E-03 0. -1.
        -11    1    3    3    0    0 -0.15380952655E+01  0.42843497784E+01 -0.92452062033E+00  0.46450111633E+01  0.51100000000E-03 0.  1.
         12    1    3    3    0    0  0.55230080819E+01  0.58083870574E+01 -0.23618325410E+02  0.24941256457E+02  0.00000000000E+00 0. -1.
</event>
<event>
 7    1  0.4432754E-010  0.4778727E+02  0.7816164E-02  0.1312668E+00
        -11   -1    0    0    0    0  0.00000000000E+00  0.00000000000E+00  0.45593999997E+02  0.45594000000E+02  0.51100000000E-03 0.  1.
         11   -1    0    0    0    0 -0.00000000000E+00 -0.00000000000E+00 -0.45593999997E+02  0.45594000000E+02  0.51100000000E-03 0. -1.
    9900012    2    1    2    0    0  0.95255909983E+01  0.41121519570E+02 -0.10094898268E+02  0.47787271589E+02  0.20000002481E+02 0.  0.
        -12    1    1    2    0    0 -0.95255909983E+01 -0.41121519570E+02  0.10094898268E+02  0.43400728411E+02  0.00000000000E+00 0.  1.
         11    1    3    3    0    0  0.62364755571E+01  0.26356431658E+02  0.81036198000E+00  0.27096342998E+02  0.51100000000E-03 0. -1.
        -11    1    3    3    0    0  0.27429867370E+01  0.29910006785E+01  0.73597245466E+00  0.41245262774E+01  0.51100000000E-03 0.  1.
        -12    1    3    3    0    0  0.54612870420E+00  0.11774087234E+02 -0.11641232702E+02  0.16566402313E+02  0.00000000000E+00 0.  1.
</event>
<event>
 7    1  0.4432754E-010  0.4778728E+02  0.7816164E-02  0.1312668E+00
        -11   -1    0    0    0    0  0.00000000000E+00  0.00000000000E+00  0.45593999997E+02  0.45594000000E+02  0.51100000000E-03 0. -1.
         11   -1    0    0    0    0 -0.00000000000E+00 -0.00000000000E+00 -0.45593999997E+02  0.45594000000E+02  0.51100000000E-03 0.  1.
    9900012    2    1    2    0    0  0.39284750414E+02  0.17597823553E+02  0.55360122315E+01  0.47787280648E+02  0.20000043784E+02 0.  0.
        -12    1    1    2    0    0 -0.39284750414E+02 -0.17597823553E+02 -0.55360122315E+01  0.43400719352E+02  0.00000000000E+00 0.  1.
         11    1    3    3    0    0  0.62125471508E+01  0.41343268900E+01  0.33566592316E+01  0.81826378627E+01  0.51100000000E-03 0. -1.
        -11    1    3    3    0    0  0.15535781618E+02 -0.20082634013E+01 -0.21795978995E+01  0.15815950165E+02  0.51100000000E-03 0.  1.
        -12    1    3    3    0    0  0.17536421645E+02  0.15471760064E+02  0.43589508993E+01  0.23788692620E+02  0.00000000000E+00 0.  1.
</event>
<event>
 7    1  0.4432754E-010  0.4778725E+02  0.7816164E-02  0.1312668E+00
        -11   -1    0    0    0    0  0.00000000000E+00  0.00000000000E+00  0.45593999997E+02  0.45594000000E+02  0.51100000000E-03 0.  1.
         11   -1    0    0    0    0 -0.00000000000E+00 -0.00000000000E+00 -0.45593999997E+02  0.45594000000E+02  0.51100000000E-03 0. -1.
    9900012    2    1    2    0    0 -0.34090184782E+02 -0.15802169711E+02 -0.21720411294E+02  0.47787245021E+02  0.19999881346E+02 0.  0.
        -12    1    1    2    0    0  0.34090184782E+02  0.15802169711E+02  0.21720411294E+02  0.43400754979E+02  0.00000000000E+00 0.  1.
         11    1    3    3    0    0 -0.15417998772E+02 -0.75743613492E+00 -0.31364188745E+01  0.15752000484E+02  0.51100000000E-03 0. -1.
        -11    1    3    3    0    0 -0.91000664315E+01 -0.74761017941E+01 -0.28381815354E+01  0.12114395642E+02  0.51100000000E-03 0.  1.
         12    1    3    3    0    0 -0.95721195781E+01 -0.75686317816E+01 -0.15745810884E+02  0.19920848894E+02  0.00000000000E+00 0. -1.
</event>
<event>
 7    1  0.4432754E-010  0.4778727E+02  0.7816164E-02  0.1312668E+00
        -11   -1    0    0    0    0  0.00000000000E+00  0.00000000000E+00  0.45593999997E+02  0.45594000000E+02  0.51100000000E-03 0.  1.
         11   -1    0    0    0    0 -0.00000000000E+00 -0.00000000000E+00 -0.45593999997E+02  0.45594000000E+02  0.51100000000E-03 0. -1.
    9900012    2    1    2    0    0  0.19532203338E+02 -0.13689359722E+02 -0.36259037596E+02  0.47787270234E+02  0.19999996304E+02 0.  0.
        -12    1    1    2    0    0 -0.19532203338E+02  0.13689359722E+02  0.36259037596E+02  0.43400729766E+02  0.00000000000E+00 0.  1.
         11    1    3    3    0    0  0.82749432856E+01 -0.20800169281E+01 -0.14240459405E+02  0.16600959042E+02  0.51100000000E-03 0. -1.
        -11    1    3    3    0    0  0.14077032936E+02 -0.53495507906E+01 -0.13320541533E+02  0.20105157969E+02  0.51100000000E-03 0.  1.
        -12    1    3    3    0    0 -0.28197728839E+01 -0.62597920034E+01 -0.86980366587E+01  0.11081153223E+02  0.00000000000E+00 0.  1.
</event>
<event>
 7    1  0.4432754E-010  0.4778727E+02  0.7816164E-02  0.1312668E+00
        -11   -1    0    0    0    0  0.00000000000E+00  0.00000000000E+00  0.45593999997E+02  0.45594000000E+02  0.51100000000E-03 0. -1.
         11   -1    0    0    0    0 -0.00000000000E+00 -0.00000000000E+00 -0.45593999997E+02  0.45594000000E+02  0.51100000000E-03 0.  1.
    9900012    2    1    2    0    0 -0.21786345334E+02  0.36787467119E+02  0.74606107644E+01  0.47787270824E+02  0.19999998994E+02 0.  0.
        -12    1    1    2    0    0  0.21786345334E+02 -0.36787467119E+02 -0.74606107644E+01  0.43400729176E+02  0.00000000000E+00 0.  1.
         11    1    3    3    0    0 -0.77857095540E+01  0.16137686850E+02  0.98418975766E+01  0.20442728739E+02  0.51100000000E-03 0. -1.
        -11    1    3    3    0    0 -0.80923005990E+01  0.76647003363E+01  0.38290191364E+01  0.11785344630E+02  0.51100000000E-03 0.  1.
        -12    1    3    3    0    0 -0.59083351810E+01  0.12985079933E+02 -0.62103059486E+01  0.15559197455E+02  0.00000000000E+00 0.  1.
</event>
<event>
 7    1  0.4432754E-010  0.4778727E+02  0.7816164E-02  0.1312668E+00
        -11   -1    0    0    0    0  0.00000000000E+00  0.00000000000E+00  0.45593999997E+02  0.45594000000E+02  0.51100000000E-03 0.  1.
         11   -1    0    0    0    0 -0.00000000000E+00 -0.00000000000E+00 -0.45593999997E+02  0.45594000000E+02  0.51100000000E-03 0. -1.
    9900012    2    1    2    0    0  0.10830888507E+02 -0.41815869336E+02 -0.42128552189E+01  0.47787271628E+02  0.20000002659E+02 0.  0.
        -12    1    1    2    0    0 -0.10830888507E+02  0.41815869336E+02  0.42128552189E+01  0.43400728372E+02  0.00000000000E+00 0.  1.
         11    1    3    3    0    0  0.34238240851E+01 -0.10941317456E+02 -0.56990020259E+01  0.12802875590E+02  0.51100000000E-03 0. -1.
        -11    1    3    3    0    0  0.35067866304E+01 -0.31495552614E+01 -0.43165728867E+01  0.63914045845E+01  0.51100000000E-03 0.  1.
        -12    1    3    3    0    0  0.39002777916E+01 -0.27724996619E+02  0.58027196938E+01  0.28592991453E+02  0.00000000000E+00 0.  1.
</event>
<event>
 7    1  0.4432754E-010  0.4778727E+02  0.7816164E-02  0.1312668E+00
        -11   -1    0    0    0    0  0.00000000000E+00  0.00000000000E+00  0.45593999997E+02  0.45594000000E+02  0.51100000000E-03 0. -1.
         11   -1    0    0    0    0 -0.00000000000E+00 -0.00000000000E+00 -0.45593999997E+02  0.45594000000E+02  0.51100000000E-03 0.  1.
    9900012    2    1    2    0    0 -0.25825662763E+02 -0.70457560325E+01  0.34161609294E+02  0.47787273223E+02  0.20000009931E+02 0.  0.
        -12    1    1    2    0    0  0.25825662763E+02  0.70457560325E+01 -0.34161609294E+02  0.43400726777E+02  0.00000000000E+00 0.  1.
         11    1    3    3    0    0 -0.81054689544E+01 -0.27590412943E+01  0.71769571387E+01  0.11172271473E+02  0.51100000000E-03 0. -1.
        -11    1    3    3    0    0 -0.11749724716E+02  0.42081343321E+00  0.26506312308E+02  0.28996856852E+02  0.51100000000E-03 0.  1.
        -12    1    3    3    0    0 -0.59704690928E+01 -0.47075281713E+01  0.47833984747E+00  0.76181448977E+01  0.00000000000E+00 0.  1.
</event>
<event>
 7    1  0.4432754E-010  0.4778727E+02  0.7816164E-02  0.1312668E+00
        -11   -1    0    0    0    0  0.00000000000E+00  0.00000000000E+00  0.45593999997E+02  0.45594000000E+02  0.51100000000E-03 0.  1.
         11   -1    0    0    0    0 -0.00000000000E+00 -0.00000000000E+00 -0.45593999997E+02  0.45594000000E+02  0.51100000000E-03 0. -1.
    9900012    2    1    2    0    0 -0.11294000175E+02 -0.36424864467E+02 -0.20719509140E+02  0.47787271315E+02  0.20000001233E+02 0.  0.
        -12    1    1    2    0    0  0.11294000175E+02  0.36424864467E+02  0.20719509140E+02  0.43400728685E+02  0.00000000000E+00 0.  1.
         11    1    3    3    0    0  0.25294274703E+01 -0.16027896603E+02 -0.81054260619E+01  0.18138065078E+02  0.51100000000E-03 0. -1.
        -11    1    3    3    0    0 -0.38700079876E+01 -0.77789849626E+01  0.78665152759E+00  0.87240122512E+01  0.51100000000E-03 0.  1.
        -12    1    3    3    0    0 -0.99534196575E+01 -0.12617982901E+02 -0.13400734606E+02  0.20925193986E+02  0.00000000000E+00 0.  1.
</event>
<event>
 7    1  0.4432754E-010  0.4778727E+02  0.7816164E-02  0.1312668E+00
        -11   -1    0    0    0    0  0.00000000000E+00  0.00000000000E+00  0.45593999997E+02  0.45594000000E+02  0.51100000000E-03 0.  1.
         11   -1    0    0    0    0 -0.00000000000E+00 -0.00000000000E+00 -0.45593999997E+02  0.45594000000E+02  0.51100000000E-03 0. -1.
    9900012    2    1    2    0    0  0.11347905575E+02  0.31271156646E+02 -0.27874056714E+02  0.47787271474E+02  0.20000001959E+02 0.  0.
        -12    1    1    2    0    0 -0.11347905575E+02 -0.31271156646E+02  0.27874056714E+02  0.43400728526E+02  0.00000000000E+00 0.  1.
         11    1    3    3    0    0 -0.16263747236E+01  0.96492480883E+01 -0.84606303986E+01  0.12935816573E+02  0.51100000000E-03 0. -1.
        -11    1    3    3    0    0  0.69894496877E+01  0.50144898671E+01 -0.13920118981E+02  0.16363594601E+02  0.51100000000E-03 0.  1.
         12    1    3    3    0    0  0.59848306111E+01  0.16607418690E+02 -0.54933073343E+01  0.18487860300E+02  0.00000000000E+00 0. -1.
</event>
<event>
 7    1  0.4432754E-010  0.4778727E+02  0.7816164E-02  0.1312668E+00
        -11   -1    0    0    0    0  0.00000000000E+00  0.00000000000E+00  0.45593999997E+02  0.45594000000E+02  0.51100000000E-03 0.  1.
         11   -1    0    0    0    0 -0.00000000000E+00 -0.00000000000E+00 -0.45593999997E+02  0.45594000000E+02  0.51100000000E-03 0. -1.
    9900012    2    1    2    0    0 -0.19567548020E+02  0.24818229780E+02 -0.29745415918E+02  0.47787271515E+02  0.20000002144E+02 0.  0.
        -12    1    1    2    0    0  0.19567548020E+02 -0.24818229780E+02  0.29745415918E+02  0.43400728485E+02  0.00000000000E+00 0.  1.
         11    1    3    3    0    0 -0.14739218120E+02  0.16076579597E+02 -0.95614922198E+01  0.23814346434E+02  0.51100000000E-03 0. -1.
        -11    1    3    3    0    0 -0.23340571557E+01  0.13593642283E+01 -0.42666596495E+00  0.27345453037E+01  0.51100000000E-03 0.  1.
        -12    1    3    3    0    0 -0.24942727446E+01  0.73822859542E+01 -0.19757257733E+02  0.21238379777E+02  0.00000000000E+00 0.  1.
</event>
<event>
 7    1  0.4432754E-010  0.4778727E+02  0.7816164E-02  0.1312668E+00
        -11   -1    0    0    0    0  0.00000000000E+00  0.00000000000E+00  0.45593999997E+02  0.45594000000E+02  0.51100000000E-03 0. -1.
         11   -1    0    0    0    0 -0.00000000000E+00 -0.00000000000E+00 -0.45593999997E+02  0.45594000000E+02  0.51100000000E-03 0.  1.
    9900012    2    1    2    0    0 -0.23033657613E+01 -0.24361198387E+02  0.35844802952E+02  0.47787269829E+02  0.19999994460E+02 0.  0.
        -12    1    1    2    0    0  0.23033657613E+01  0.24361198387E+02 -0.35844802952E+02  0.43400730171E+02  0.00000000000E+00 0.  1.
         11    1    3    3    0    0 -0.47473295253E+01 -0.83227589937E+00  0.32859336233E+01  0.58332821664E+01  0.51100000000E-03 0.  1.
        -11    1    3    3    0    0 -0.27313019729E+01 -0.88696399042E+01  0.56154240269E+01  0.10847281215E+02  0.51100000000E-03 0. -1.
         12    1    3    3    0    0  0.51752657369E+01 -0.14659282584E+02  0.26943445302E+02  0.31106706448E+02  0.00000000000E+00 0. -1.
</event>
<event>
 7    1  0.4432754E-010  0.4778727E+02  0.7816164E-02  0.1312668E+00
        -11   -1    0    0    0    0  0.00000000000E+00  0.00000000000E+00  0.45593999997E+02  0.45594000000E+02  0.51100000000E-03 0.  1.
         11   -1    0    0    0    0 -0.00000000000E+00 -0.00000000000E+00 -0.45593999997E+02  0.45594000000E+02  0.51100000000E-03 0. -1.
    9900012    2    1    2    0    0 -0.18228848113E+02 -0.37717775038E+02 -0.11344692316E+02  0.47787268427E+02  0.19999988064E+02 0.  0.
        -12    1    1    2    0    0  0.18228848113E+02  0.37717775038E+02  0.11344692316E+02  0.43400731573E+02  0.00000000000E+00 0.  1.
         11    1    3    3    0    0 -0.27822632340E+01 -0.15721869513E+01 -0.18572348379E+01  0.36962253743E+01  0.51100000000E-03 0. -1.
        -11    1    3    3    0    0  0.37887222800E+01 -0.91861847411E+01 -0.19598159486E+01  0.10128241971E+02  0.51100000000E-03 0.  1.
        -12    1    3    3    0    0 -0.19235307159E+02 -0.26959403346E+02 -0.75276415297E+01  0.33962801081E+02  0.00000000000E+00 0.  1.
</event>
<event>
 7    1  0.4432754E-010  0.4778730E+02  0.7816164E-02  0.1312668E+00
        -11   -1    0    0    0    0  0.00000000000E+00  0.00000000000E+00  0.45593999997E+02  0.45594000000E+02  0.51100000000E-03 0.  1.
         11   -1    0    0    0    0 -0.00000000000E+00 -0.00000000000E+00 -0.45593999997E+02  0.45594000000E+02  0.51100000000E-03 0. -1.
    9900012    2    1    2    0    0  0.32664025991E+02  0.10522854862E+02 -0.26569750954E+02  0.47787300303E+02  0.20000133402E+02 0.  0.
        -12    1    1    2    0    0 -0.32664025991E+02 -0.10522854862E+02  0.26569750954E+02  0.43400699697E+02  0.00000000000E+00 0.  1.
         11    1    3    3    0    0  0.23037374186E+02  0.37261561956E+01 -0.15787902840E+02  0.28175569661E+02  0.51100000000E-03 0. -1.
        -11    1    3    3    0    0  0.11784754413E+02  0.76530818134E+01 -0.94700752600E+01  0.16944982252E+02  0.51100000000E-03 0.  1.
        -12    1    3    3    0    0 -0.21581026072E+01 -0.85638314743E+00 -0.13117728539E+01  0.26667483906E+01  0.00000000000E+00 0.  1.
</event>
<event>
 7    1  0.4432754E-010  0.4778727E+02  0.7816164E-02  0.1312668E+00
        -11   -1    0    0    0    0  0.00000000000E+00  0.00000000000E+00  0.45593999997E+02  0.45594000000E+02  0.51100000000E-03 0. -1.
         11   -1    0    0    0    0 -0.00000000000E+00 -0.00000000000E+00 -0.45593999997E+02  0.45594000000E+02  0.51100000000E-03 0.  1.
    9900012    2    1    2    0    0  0.25615880973E+02  0.66546747261E+01  0.34397168762E+02  0.47787271059E+02  0.20000000067E+02 0.  0.
        -12    1    1    2    0    0 -0.25615880973E+02 -0.66546747261E+01 -0.34397168762E+02  0.43400728941E+02  0.00000000000E+00 0.  1.
         11    1    3    3    0    0  0.70149385497E+01  0.96526573706E+00  0.11239459188E+02  0.13284071059E+02  0.51100000000E-03 0. -1.
        -11    1    3    3    0    0  0.12268181022E+02 -0.15203790020E+01  0.38589992627E+01  0.12950354955E+02  0.51100000000E-03 0.  1.
        -12    1    3    3    0    0  0.63327614017E+01  0.72097879910E+01  0.19298710312E+02  0.21552845045E+02  0.00000000000E+00 0.  1.
</event>
<event>
 7    1  0.4432754E-010  0.4778727E+02  0.7816164E-02  0.1312668E+00
        -11   -1    0    0    0    0  0.00000000000E+00  0.00000000000E+00  0.45593999997E+02  0.45594000000E+02  0.51100000000E-03 0.  1.
         11   -1    0    0    0    0 -0.00000000000E+00 -0.00000000000E+00 -0.45593999997E+02  0.45594000000E+02  0.51100000000E-03 0. -1.
    9900012    2    1    2    0    0  0.18836506914E+02 -0.21131699080E+02 -0.32897730159E+02  0.47787270186E+02  0.19999996088E+02 0.  0.
        -12    1    1    2    0    0 -0.18836506914E+02  0.21131699080E+02  0.32897730159E+02  0.43400729814E+02  0.00000000000E+00 0.  1.
         11    1    3    3    0    0  0.11571178580E+02 -0.27028588481E+01 -0.83265422129E+01  0.14509614922E+02  0.51100000000E-03 0. -1.
        -11    1    3    3    0    0  0.14208336107E+00 -0.72321505648E+00  0.10788074657E+01  0.13065425782E+01  0.51100000000E-03 0.  1.
        -12    1    3    3    0    0  0.71232449728E+01 -0.17705625175E+02 -0.25649995412E+02  0.31971112687E+02  0.00000000000E+00 0.  1.
</event>
<event>
 7    1  0.4432754E-010  0.4778728E+02  0.7816164E-02  0.1312668E+00
        -11   -1    0    0    0    0  0.00000000000E+00  0.00000000000E+00  0.45593999997E+02  0.45594000000E+02  0.51100000000E-03 0.  1.
         11   -1    0    0    0    0 -0.00000000000E+00 -0.00000000000E+00 -0.45593999997E+02  0.45594000000E+02  0.51100000000E-03 0. -1.
    9900012    2    1    2    0    0 -0.32231880643E+02 -0.33783773544E+01 -0.28867199031E+02  0.47787277157E+02  0.20000027870E+02 0.  0.
        -12    1    1    2    0    0  0.32231880643E+02  0.33783773544E+01  0.28867199031E+02  0.43400722843E+02  0.00000000000E+00 0.  1.
         11    1    3    3    0    0  0.76641262255E+00 -0.12015365001E+01 -0.16471067406E+00  0.14346456483E+01  0.51100000000E-03 0. -1.
        -11    1    3    3    0    0 -0.54348052508E+01 -0.32336631871E+01  0.29531244063E+00  0.63309474347E+01  0.51100000000E-03 0.  1.
         12    1    3    3    0    0 -0.27563488015E+02  0.10568223328E+01 -0.28997800798E+02  0.40021684074E+02  0.00000000000E+00 0. -1.
</event>
<event>
 7    1  0.4432754E-010  0.4778730E+02  0.7816164E-02  0.1312668E+00
        -11   -1    0    0    0    0  0.00000000000E+00  0.00000000000E+00  0.45593999997E+02  0.45594000000E+02  0.51100000000E-03 0.  1.
         11   -1    0    0    0    0 -0.00000000000E+00 -0.00000000000E+00 -0.45593999997E+02  0.45594000000E+02  0.51100000000E-03 0. -1.
    9900012    2    1    2    0    0 -0.20298034434E+02 -0.24677569891E+02 -0.29370528202E+02  0.47787302027E+02  0.20000141263E+02 0.  0.
        -12    1    1    2    0    0  0.20298034434E+02  0.24677569891E+02  0.29370528202E+02  0.43400697973E+02  0.00000000000E+00 0.  1.
         11    1    3    3    0    0 -0.20636042394E+02 -0.22173351944E+02 -0.28988728925E+02  0.41926724020E+02  0.51100000000E-03 0. -1.
        -11    1    3    3    0    0 -0.23313680645E+01 -0.24798448116E+00 -0.30774814117E+00  0.23646315854E+01  0.51100000000E-03 0.  1.
        -12    1    3    3    0    0  0.26693760241E+01 -0.22562334665E+01 -0.74051135961E-01  0.34959464218E+01  0.00000000000E+00 0.  1.
</event>
<event>
 7    1  0.4432754E-010  0.4778727E+02  0.7816164E-02  0.1312668E+00
        -11   -1    0    0    0    0  0.00000000000E+00  0.00000000000E+00  0.45593999997E+02  0.45594000000E+02  0.51100000000E-03 0.  1.
         11   -1    0    0    0    0 -0.00000000000E+00 -0.00000000000E+00 -0.45593999997E+02  0.45594000000E+02  0.51100000000E-03 0. -1.
    9900012    2    1    2    0    0  0.29406407971E+02  0.17368325165E+02 -0.26781116870E+02  0.47787265333E+02  0.19999973961E+02 0.  0.
        -12    1    1    2    0    0 -0.29406407971E+02 -0.17368325165E+02  0.26781116870E+02  0.43400734667E+02  0.00000000000E+00 0.  1.
         11    1    3    3    0    0  0.43979857533E+01  0.20033984502E+01 -0.55264686725E+01  0.73415080390E+01  0.51100000000E-03 0. -1.
        -11    1    3    3    0    0 -0.16774976429E+01  0.33551715801E+01  0.75810227766E+00  0.38269954270E+01  0.51100000000E-03 0.  1.
        -12    1    3    3    0    0  0.26685919861E+02  0.12009755135E+02 -0.22012750475E+02  0.36618761867E+02  0.00000000000E+00 0.  1.
</event>
<event>
 7    1  0.4432754E-010  0.4778729E+02  0.7816164E-02  0.1312668E+00
        -11   -1    0    0    0    0  0.00000000000E+00  0.00000000000E+00  0.45593999997E+02  0.45594000000E+02  0.51100000000E-03 0. -1.
         11   -1    0    0    0    0 -0.00000000000E+00 -0.00000000000E+00 -0.45593999997E+02  0.45594000000E+02  0.51100000000E-03 0.  1.
    9900012    2    1    2    0    0 -0.31448358768E+02 -0.29456816892E+02  0.51882786527E+01  0.47787290720E+02  0.20000089710E+02 0.  0.
        -12    1    1    2    0    0  0.31448358768E+02  0.29456816892E+02 -0.51882786527E+01  0.43400709280E+02  0.00000000000E+00 0.  1.
         11    1    3    3    0    0 -0.19914726234E+02 -0.73922471702E+01  0.39639934989E+01  0.21609138898E+02  0.51100000000E-03 0. -1.
        -11    1    3    3    0    0 -0.87067067361E+01 -0.13221434796E+02 -0.27701775755E+01  0.16071308730E+02  0.51100000000E-03 0.  1.
        -12    1    3    3    0    0 -0.28269257978E+01 -0.88431349262E+01  0.39944627293E+01  0.10106843092E+02  0.00000000000E+00 0.  1.
</event>
<event>
 7    1  0.4432754E-010  0.4778727E+02  0.7816164E-02  0.1312668E+00
        -11   -1    0    0    0    0  0.00000000000E+00  0.00000000000E+00  0.45593999997E+02  0.45594000000E+02  0.51100000000E-03 0.  1.
         11   -1    0    0    0    0 -0.00000000000E+00 -0.00000000000E+00 -0.45593999997E+02  0.45594000000E+02  0.51100000000E-03 0. -1.
    9900012    2    1    2    0    0 -0.34216236400E+02  0.23265615536E+00 -0.26698666702E+02  0.47787265376E+02  0.19999974155E+02 0.  0.
        -12    1    1    2    0    0  0.34216236400E+02 -0.23265615536E+00  0.26698666702E+02  0.43400734624E+02  0.00000000000E+00 0.  1.
         11    1    3    3    0    0  0.14291829436E+01 -0.18081601423E+01 -0.18969355821E+01  0.29850245979E+01  0.51100000000E-03 0. -1.
        -11    1    3    3    0    0 -0.77266762110E+01 -0.29868340110E+01 -0.23101636232E+01  0.85999743550E+01  0.51100000000E-03 0.  1.
         12    1    3    3    0    0 -0.27918743132E+02  0.50276503086E+01 -0.22491567496E+02  0.36202266423E+02  0.00000000000E+00 0. -1.
</event>
<event>
 7    1  0.4432754E-010  0.4778727E+02  0.7816164E-02  0.1312668E+00
        -11   -1    0    0    0    0  0.00000000000E+00  0.00000000000E+00  0.45593999997E+02  0.45594000000E+02  0.51100000000E-03 0.  1.
         11   -1    0    0    0    0 -0.00000000000E+00 -0.00000000000E+00 -0.45593999997E+02  0.45594000000E+02  0.51100000000E-03 0. -1.
    9900012    2    1    2    0    0  0.25714655873E+02  0.26020682475E+02 -0.23351734730E+02  0.47787274683E+02  0.20000016591E+02 0.  0.
        -12    1    1    2    0    0 -0.25714655873E+02 -0.26020682475E+02  0.23351734730E+02  0.43400725317E+02  0.00000000000E+00 0.  1.
         11    1    3    3    0    0  0.63637840320E+01  0.65284786006E+01 -0.12060821041E+02  0.15118934635E+02  0.51100000000E-03 0. -1.
        -11    1    3    3    0    0  0.11826185283E+01  0.18365177715E+01 -0.65368993765E+01  0.68922012325E+01  0.51100000000E-03 0.  1.
        -12    1    3    3    0    0  0.18168253312E+02  0.17655686103E+02 -0.47540143121E+01  0.25776138816E+02  0.00000000000E+00 0.  1.
</event>
<event>
 7    1  0.4432754E-010  0.4778727E+02  0.7816164E-02  0.1312668E+00
        -11   -1    0    0    0    0  0.00000000000E+00  0.00000000000E+00  0.45593999997E+02  0.45594000000E+02  0.51100000000E-03 0. -1.
         11   -1    0    0    0    0 -0.00000000000E+00 -0.00000000000E+00 -0.45593999997E+02  0.45594000000E+02  0.51100000000E-03 0.  1.
    9900012    2    1    2    0    0 -0.26109236219E+02  0.33899017763E+02 -0.72655209852E+01  0.47787269402E+02  0.19999992512E+02 0.  0.
        -12    1    1    2    0    0  0.26109236219E+02 -0.33899017763E+02  0.72655209852E+01  0.43400730598E+02  0.00000000000E+00 0.  1.
         11    1    3    3    0    0 -0.14873248687E+02  0.16118888719E+02 -0.17397857442E+01  0.22001339839E+02  0.51100000000E-03 0. -1.
        -11    1    3    3    0    0 -0.10715414874E+02  0.11768489681E+02  0.21084163915E+01  0.16054995647E+02  0.51100000000E-03 0.  1.
        -12    1    3    3    0    0 -0.52057265920E+00  0.60116393624E+01 -0.76341516324E+01  0.97309339153E+01  0.00000000000E+00 0.  1.
</event>
<event>
 7    1  0.4432754E-010  0.4778727E+02  0.7816164E-02  0.1312668E+00
        -11   -1    0    0    0    0  0.00000000000E+00  0.00000000000E+00  0.45593999997E+02  0.45594000000E+02  0.51100000000E-03 0.  1.
         11   -1    0    0    0    0 -0.00000000000E+00 -0.00000000000E+00 -0.45593999997E+02  0.45594000000E+02  0.51100000000E-03 0. -1.
    9900012    2    1    2    0    0 -0.11970661012E+02 -0.26225878199E+02 -0.32442721747E+02  0.47787267210E+02  0.19999982518E+02 0.  0.
        -12    1    1    2    0    0  0.11970661012E+02  0.26225878199E+02  0.32442721747E+02  0.43400732790E+02  0.00000000000E+00 0.  1.
         11    1    3    3    0    0 -0.74031419735E+01 -0.35280736962E+01 -0.78706281477E+01  0.11366644306E+02  0.51100000000E-03 0. -1.
        -11    1    3    3    0    0  0.18003959835E+00  0.77818100084E+00  0.10681910760E+01  0.13337962225E+01  0.51100000000E-03 0.  1.
         12    1    3    3    0    0 -0.47475586370E+01 -0.23475985503E+02 -0.25640284675E+02  0.35086826682E+02  0.00000000000E+00 0. -1.
</event>
<event>
 7    1  0.4432754E-010  0.4778727E+02  0.7816164E-02  0.1312668E+00
        -11   -1    0    0    0    0  0.00000000000E+00  0.00000000000E+00  0.45593999997E+02  0.45594000000E+02  0.51100000000E-03 0.  1.
         11   -1    0    0    0    0 -0.00000000000E+00 -0.00000000000E+00 -0.45593999997E+02  0.45594000000E+02  0.51100000000E-03 0. -1.
    9900012    2    1    2    0    0 -0.53013901370E+01  0.63789470820E+01 -0.42600794503E+02  0.47787269643E+02  0.19999993610E+02 0.  0.
        -12    1    1    2    0    0  0.53013901370E+01 -0.63789470820E+01  0.42600794503E+02  0.43400730357E+02  0.00000000000E+00 0.  1.
         11    1    3    3    0    0 -0.19248573161E+01 -0.26684851738E+01 -0.48540659631E+01  0.58641150608E+01  0.51100000000E-03 0. -1.
        -11    1    3    3    0    0 -0.30962347892E+01  0.78313692100E+01 -0.64652714739E+01  0.10616814450E+02  0.51100000000E-03 0.  1.
        -12    1    3    3    0    0 -0.28029803165E+00  0.12160630458E+01 -0.31281457066E+02  0.31306340132E+02  0.00000000000E+00 0.  1.
</event>
<event>
 7    1  0.4432754E-010  0.4778727E+02  0.7816164E-02  0.1312668E+00
        -11   -1    0    0    0    0  0.00000000000E+00  0.00000000000E+00  0.45593999997E+02  0.45594000000E+02  0.51100000000E-03 0.  1.
         11   -1    0    0    0    0 -0.00000000000E+00 -0.00000000000E+00 -0.45593999997E+02  0.45594000000E+02  0.51100000000E-03 0. -1.
    9900012    2    1    2    0    0 -0.40545692156E+02 -0.10017972504E+02 -0.11802972222E+02  0.47787273292E+02  0.20000010248E+02 0.  0.
        -12    1    1    2    0    0  0.40545692156E+02  0.10017972504E+02  0.11802972222E+02  0.43400726708E+02  0.00000000000E+00 0.  1.
         11    1    3    3    0    0 -0.12223381213E+02  0.18240104095E+01 -0.18334824675E+01  0.12493987373E+02  0.51100000000E-03 0. -1.
        -11    1    3    3    0    0  0.92655493808E+00 -0.15183922559E+01  0.13940226433E+01  0.22599377175E+01  0.51100000000E-03 0.  1.
         12    1    3    3    0    0 -0.29248865881E+02 -0.10323590658E+02 -0.11363512398E+02  0.33033348201E+02  0.00000000000E+00 0. -1.
</event>
<event>
 7    1  0.4432754E-010  0.4778727E+02  0.7816164E-02  0.1312668E+00
        -11   -1    0    0    0    0  0.00000000000E+00  0.00000000000E+00  0.45593999997E+02  0.45594000000E+02  0.51100000000E-03 0.  1.
         11   -1    0    0    0    0 -0.00000000000E+00 -0.00000000000E+00 -0.45593999997E+02  0.45594000000E+02  0.51100000000E-03 0. -1.
    9900012    2    1    2    0    0 -0.40454353869E+02  0.24788353459E+01 -0.15521726317E+02  0.47787270058E+02  0.19999995504E+02 0.  0.
        -12    1    1    2    0    0  0.40454353869E+02 -0.24788353459E+01  0.15521726317E+02  0.43400729942E+02  0.00000000000E+00 0.  1.
         11    1    3    3    0    0 -0.12318499478E+02 -0.52973049851E+01 -0.51209194475E+01  0.14353769043E+02  0.51100000000E-03 0. -1.
        -11    1    3    3    0    0 -0.68941218054E+01 -0.40591975609E-02 -0.81879369408E+01  0.10703795754E+02  0.51100000000E-03 0.  1.
         12    1    3    3    0    0 -0.21241732586E+02  0.77801995286E+01 -0.22128699291E+01  0.22729705261E+02  0.00000000000E+00 0. -1.
</event>
<event>
 7    1  0.4432754E-010  0.4778726E+02  0.7816164E-02  0.1312668E+00
        -11   -1    0    0    0    0  0.00000000000E+00  0.00000000000E+00  0.45593999997E+02  0.45594000000E+02  0.51100000000E-03 0.  1.
         11   -1    0    0    0    0 -0.00000000000E+00 -0.00000000000E+00 -0.45593999997E+02  0.45594000000E+02  0.51100000000E-03 0. -1.
    9900012    2    1    2    0    0  0.25135266234E+02  0.34345599934E+02  0.84983882155E+01  0.47787257544E+02  0.19999938445E+02 0.  0.
        -12    1    1    2    0    0 -0.25135266234E+02 -0.34345599934E+02 -0.84983882155E+01  0.43400742456E+02  0.00000000000E+00 0.  1.
         11    1    3    3    0    0  0.27641274367E+01  0.51058725291E+01 -0.28037832460E+01  0.64475992060E+01  0.51100000000E-03 0. -1.
        -11    1    3    3    0    0  0.11505672483E+02  0.38966781813E+01  0.43467734229E+01  0.12901900619E+02  0.51100000000E-03 0.  1.
         12    1    3    3    0    0  0.10865466315E+02  0.25343049224E+02  0.69553980387E+01  0.28437757719E+02  0.00000000000E+00 0. -1.
</event>
<event>
 7    1  0.4432754E-010  0.4778727E+02  0.7816164E-02  0.1312668E+00
        -11   -1    0    0    0    0  0.00000000000E+00  0.00000000000E+00  0.45593999997E+02  0.45594000000E+02  0.51100000000E-03 0.  1.
         11   -1    0    0    0    0 -0.00000000000E+00 -0.00000000000E+00 -0.45593999997E+02  0.45594000000E+02  0.51100000000E-03 0. -1.
    9900012    2    1    2    0    0 -0.44726862641E+01 -0.38254878607E+02 -0.20004566919E+02  0.47787270083E+02  0.19999995618E+02 0.  0.
        -12    1    1    2    0    0  0.44726862641E+01  0.38254878607E+02  0.20004566919E+02  0.43400729917E+02  0.00000000000E+00 0.  1.
         11    1    3    3    0    0  0.70489050355E+00 -0.88413865704E+01  0.15862005630E+01  0.90101620183E+01  0.51100000000E-03 0.  1.
        -11    1    3    3    0    0  0.32239087325E+01 -0.27251105213E+01 -0.31513231298E+01  0.52678888179E+01  0.51100000000E-03 0. -1.
         12    1    3    3    0    0 -0.84014855001E+01 -0.26688381515E+02 -0.18439444353E+02  0.33509219247E+02  0.00000000000E+00 0. -1.
</event>
<event>
 7    1  0.4432754E-010  0.4778727E+02  0.7816164E-02  0.1312668E+00
        -11   -1    0    0    0    0  0.00000000000E+00  0.00000000000E+00  0.45593999997E+02  0.45594000000E+02  0.51100000000E-03 0. -1.
         11   -1    0    0    0    0 -0.00000000000E+00 -0.00000000000E+00 -0.45593999997E+02  0.45594000000E+02  0.51100000000E-03 0.  1.
    9900012    2    1    2    0    0 -0.39431694310E+02  0.15988825098E+02  0.85511551741E+01  0.47787270755E+02  0.19999998678E+02 0.  0.
        -12    1    1    2    0    0  0.39431694310E+02 -0.15988825098E+02 -0.85511551741E+01  0.43400729245E+02  0.00000000000E+00 0.  1.
         11    1    3    3    0    0 -0.24548753904E+01 -0.66847878243E+00  0.39549209598E+00  0.25748186973E+01  0.51100000000E-03 0. -1.
        -11    1    3    3    0    0 -0.38961872361E+01 -0.17200544978E+01  0.59347858077E+01  0.73048302717E+01  0.51100000000E-03 0.  1.
         12    1    3    3    0    0 -0.33080631684E+02  0.18377358379E+02  0.22208772704E+01  0.37907621786E+02  0.00000000000E+00 0. -1.
</event>
<event>
 7    1  0.4432754E-010  0.4778728E+02  0.7816164E-02  0.1312668E+00
        -11   -1    0    0    0    0  0.00000000000E+00  0.00000000000E+00  0.45593999997E+02  0.45594000000E+02  0.51100000000E-03 0.  1.
         11   -1    0    0    0    0 -0.00000000000E+00 -0.00000000000E+00 -0.45593999997E+02  0.45594000000E+02  0.51100000000E-03 0. -1.
    9900012    2    1    2    0    0 -0.15365362847E+02  0.38096463814E+02 -0.14006706021E+02  0.47787277148E+02  0.20000027826E+02 0.  0.
        -12    1    1    2    0    0  0.15365362847E+02 -0.38096463814E+02  0.14006706021E+02  0.43400722852E+02  0.00000000000E+00 0.  1.
         11    1    3    3    0    0 -0.49192719753E+01  0.25968530740E+01 -0.31512108567E+01  0.63932005114E+01  0.51100000000E-03 0. -1.
        -11    1    3    3    0    0 -0.87511581743E+01  0.65575564637E+01 -0.35327488474E+01  0.11491937645E+02  0.51100000000E-03 0.  1.
         12    1    3    3    0    0 -0.16949326971E+01  0.28942054277E+02 -0.73227463166E+01  0.29902138991E+02  0.00000000000E+00 0. -1.
</event>
<event>
 7    1  0.4432754E-010  0.4778728E+02  0.7816164E-02  0.1312668E+00
        -11   -1    0    0    0    0  0.00000000000E+00  0.00000000000E+00  0.45593999997E+02  0.45594000000E+02  0.51100000000E-03 0. -1.
         11   -1    0    0    0    0 -0.00000000000E+00 -0.00000000000E+00 -0.45593999997E+02  0.45594000000E+02  0.51100000000E-03 0.  1.
    9900012    2    1    2    0    0 -0.18653761948E+02 -0.12042192868E+02  0.37291360860E+02  0.47787276058E+02  0.20000022857E+02 0.  0.
        -12    1    1    2    0    0  0.18653761948E+02  0.12042192868E+02 -0.37291360860E+02  0.43400723942E+02  0.00000000000E+00 0.  1.
         11    1    3    3    0    0  0.13283956507E+01 -0.25632329368E+01  0.22866524056E+01  0.36828762643E+01  0.51100000000E-03 0.  1.
        -11    1    3    3    0    0 -0.12297899445E+02 -0.11814859215E+02  0.30372869008E+02  0.34833036058E+02  0.51100000000E-03 0. -1.
         12    1    3    3    0    0 -0.76842581544E+01  0.23358992830E+01  0.46318394470E+01  0.92713637350E+01  0.00000000000E+00 0. -1.
</event>
<event>
 7    1  0.4432754E-010  0.4778727E+02  0.7816164E-02  0.1312668E+00
        -11   -1    0    0    0    0  0.00000000000E+00  0.00000000000E+00  0.45593999997E+02  0.45594000000E+02  0.51100000000E-03 0. -1.
         11   -1    0    0    0    0 -0.00000000000E+00 -0.00000000000E+00 -0.45593999997E+02  0.45594000000E+02  0.51100000000E-03 0.  1.
    9900012    2    1    2    0    0  0.16757667262E+02  0.88266189343E+01  0.39049899140E+02  0.47787271472E+02  0.20000001951E+02 0.  0.
        -12    1    1    2    0    0 -0.16757667262E+02 -0.88266189343E+01 -0.39049899140E+02  0.43400728528E+02  0.00000000000E+00 0.  1.
         11    1    3    3    0    0  0.52525833685E+01  0.50253330801E+01  0.10063104664E+02  0.12414092007E+02  0.51100000000E-03 0. -1.
        -11    1    3    3    0    0  0.10467582679E+02  0.45766195026E+01  0.71058874205E+01  0.13453972258E+02  0.51100000000E-03 0.  1.
         12    1    3    3    0    0  0.10375012141E+01 -0.77533364842E+00  0.21880907056E+02  0.21919207208E+02  0.00000000000E+00 0. -1.
</event>
<event>
 7    1  0.4432754E-010  0.4778726E+02  0.7816164E-02  0.1312668E+00
        -11   -1    0    0    0    0  0.00000000000E+00  0.00000000000E+00  0.45593999997E+02  0.45594000000E+02  0.51100000000E-03 0.  1.
         11   -1    0    0    0    0 -0.00000000000E+00 -0.00000000000E+00 -0.45593999997E+02  0.45594000000E+02  0.51100000000E-03 0. -1.
    9900012    2    1    2    0    0  0.30951202387E+02 -0.29194616139E+02  0.85628182904E+01  0.47787258097E+02  0.19999940966E+02 0.  0.
        -12    1    1    2    0    0 -0.30951202387E+02  0.29194616139E+02 -0.85628182904E+01  0.43400741903E+02  0.00000000000E+00 0.  1.
         11    1    3    3    0    0  0.17447940844E+02 -0.10987578073E+02 -0.16400537837E+01  0.20684469737E+02  0.51100000000E-03 0. -1.
        -11    1    3    3    0    0  0.13768195542E+02 -0.10354914979E+02  0.75632296902E+01  0.18814619750E+02  0.51100000000E-03 0.  1.
         12    1    3    3    0    0 -0.26493399989E+00 -0.78521230873E+01  0.26396423839E+01  0.82881686105E+01  0.00000000000E+00 0. -1.
</event>
<event>
 7    1  0.4432754E-010  0.4778727E+02  0.7816164E-02  0.1312668E+00
        -11   -1    0    0    0    0  0.00000000000E+00  0.00000000000E+00  0.45593999997E+02  0.45594000000E+02  0.51100000000E-03 0.  1.
         11   -1    0    0    0    0 -0.00000000000E+00 -0.00000000000E+00 -0.45593999997E+02  0.45594000000E+02  0.51100000000E-03 0. -1.
    9900012    2    1    2    0    0 -0.81307596498E+01  0.73457001565E+01 -0.41994697865E+02  0.47787271757E+02  0.20000003247E+02 0.  0.
        -12    1    1    2    0    0  0.81307596498E+01 -0.73457001565E+01  0.41994697865E+02  0.43400728243E+02  0.00000000000E+00 0.  1.
         11    1    3    3    0    0 -0.61435103501E+01  0.69138770905E+01 -0.38375382648E+02  0.39474224622E+02  0.51100000000E-03 0.  1.
        -11    1    3    3    0    0 -0.19836770014E+01  0.22559463464E+01 -0.51298283311E+01  0.59446957308E+01  0.51100000000E-03 0. -1.
        -12    1    3    3    0    0 -0.35722982409E-02 -0.18241232804E+01  0.15105131143E+01  0.23683514038E+01  0.00000000000E+00 0.  1.
</event>
<event>
 7    1  0.4432754E-010  0.4778727E+02  0.7816164E-02  0.1312668E+00
        -11   -1    0    0    0    0  0.00000000000E+00  0.00000000000E+00  0.45593999997E+02  0.45594000000E+02  0.51100000000E-03 0.  1.
         11   -1    0    0    0    0 -0.00000000000E+00 -0.00000000000E+00 -0.45593999997E+02  0.45594000000E+02  0.51100000000E-03 0. -1.
    9900012    2    1    2    0    0  0.21426759138E+02  0.36679772849E+02 -0.88944690947E+01  0.47787270468E+02  0.19999997372E+02 0.  0.
        -12    1    1    2    0    0 -0.21426759138E+02 -0.36679772849E+02  0.88944690947E+01  0.43400729532E+02  0.00000000000E+00 0.  1.
         11    1    3    3    0    0  0.13593285761E+02  0.23533500622E+02 -0.28065070106E+01  0.27321777965E+02  0.51100000000E-03 0. -1.
        -11    1    3    3    0    0  0.29788461291E+01  0.38036278815E+01  0.37035816667E+01  0.60874975765E+01  0.51100000000E-03 0.  1.
        -12    1    3    3    0    0  0.48546272476E+01  0.93426443462E+01 -0.97915437507E+01  0.14377994927E+02  0.00000000000E+00 0.  1.
</event>
<event>
 7    1  0.4432754E-010  0.4778727E+02  0.7816164E-02  0.1312668E+00
        -11   -1    0    0    0    0  0.00000000000E+00  0.00000000000E+00  0.45593999997E+02  0.45594000000E+02  0.51100000000E-03 0. -1.
         11   -1    0    0    0    0 -0.00000000000E+00 -0.00000000000E+00 -0.45593999997E+02  0.45594000000E+02  0.51100000000E-03 0.  1.
    9900012    2    1    2    0    0 -0.32715369109E+02  0.28415609731E+02  0.24250242001E+01  0.47787274261E+02  0.20000014666E+02 0.  0.
        -12    1    1    2    0    0  0.32715369109E+02 -0.28415609731E+02 -0.24250242001E+01  0.43400725739E+02  0.00000000000E+00 0.  1.
         11    1    3    3    0    0 -0.16409682562E+02  0.22416666709E+02 -0.36643343415E+01  0.28021634045E+02  0.51100000000E-03 0. -1.
        -11    1    3    3    0    0 -0.17412603731E+01  0.24438182259E+01  0.33991415101E+01  0.45341370155E+01  0.51100000000E-03 0.  1.
         12    1    3    3    0    0 -0.14564426174E+02  0.35551247963E+01  0.26902170315E+01  0.15231503201E+02  0.00000000000E+00 0. -1.
</event>
<event>
 7    1  0.4432754E-010  0.4778727E+02  0.7816164E-02  0.1312668E+00
        -11   -1    0    0    0    0  0.00000000000E+00  0.00000000000E+00  0.45593999997E+02  0.45594000000E+02  0.51100000000E-03 0.  1.
         11   -1    0    0    0    0 -0.00000000000E+00 -0.00000000000E+00 -0.45593999997E+02  0.45594000000E+02  0.51100000000E-03 0. -1.
    9900012    2    1    2    0    0 -0.11424594516E+02 -0.36122113830E+02 -0.21172982060E+02  0.47787266864E+02  0.19999980940E+02 0.  0.
        -12    1    1    2    0    0  0.11424594516E+02  0.36122113830E+02  0.21172982060E+02  0.43400733136E+02  0.00000000000E+00 0.  1.
         11    1    3    3    0    0 -0.26794747288E+01 -0.50276800914E+00  0.60018464277E+00  0.27915197223E+01  0.51100000000E-03 0. -1.
        -11    1    3    3    0    0 -0.53215242319E+01 -0.49516058488E+01 -0.90743530963E+01  0.11626732344E+02  0.51100000000E-03 0.  1.
         12    1    3    3    0    0 -0.34235955549E+01 -0.30667739972E+02 -0.12698813607E+02  0.33369014797E+02  0.00000000000E+00 0. -1.
</event>
<event>
 7    1  0.4432754E-010  0.4778728E+02  0.7816164E-02  0.1312668E+00
        -11   -1    0    0    0    0  0.00000000000E+00  0.00000000000E+00  0.45593999997E+02  0.45594000000E+02  0.51100000000E-03 0.  1.
         11   -1    0    0    0    0 -0.00000000000E+00 -0.00000000000E+00 -0.45593999997E+02  0.45594000000E+02  0.51100000000E-03 0. -1.
    9900012    2    1    2    0    0  0.18634718340E+02  0.26082441301E+02 -0.29258784048E+02  0.47787275170E+02  0.20000018808E+02 0.  0.
        -12    1    1    2    0    0 -0.18634718340E+02 -0.26082441301E+02  0.29258784048E+02  0.43400724830E+02  0.00000000000E+00 0.  1.
         11    1    3    3    0    0 -0.20646011211E+01  0.28805769248E+01 -0.91630384165E+01  0.98245394036E+01  0.51100000000E-03 0. -1.
        -11    1    3    3    0    0  0.42197048245E+01  0.10762305341E+02 -0.71658244529E+01  0.13600814880E+02  0.51100000000E-03 0.  1.
        -12    1    3    3    0    0  0.16479614636E+02  0.12439559035E+02 -0.12929921179E+02  0.24361920886E+02  0.00000000000E+00 0.  1.
</event>
<event>
 7    1  0.4432754E-010  0.4778728E+02  0.7816164E-02  0.1312668E+00
        -11   -1    0    0    0    0  0.00000000000E+00  0.00000000000E+00  0.45593999997E+02  0.45594000000E+02  0.51100000000E-03 0.  1.
         11   -1    0    0    0    0 -0.00000000000E+00 -0.00000000000E+00 -0.45593999997E+02  0.45594000000E+02  0.51100000000E-03 0. -1.
    9900012    2    1    2    0    0  0.14425625388E+02  0.31800370086E+02  0.25773255179E+02  0.47787275491E+02  0.20000020273E+02 0.  0.
        -12    1    1    2    0    0 -0.14425625388E+02 -0.31800370086E+02 -0.25773255179E+02  0.43400724509E+02  0.00000000000E+00 0.  1.
         11    1    3    3    0    0  0.76437926650E+01  0.27329348576E+02  0.21911607374E+02  0.35853024947E+02  0.51100000000E-03 0.  1.
        -11    1    3    3    0    0  0.47232102758E+01  0.11883816499E+01  0.58230380813E+01  0.75913594970E+01  0.51100000000E-03 0. -1.
        -12    1    3    3    0    0  0.20586224472E+01  0.32826398595E+01 -0.19613902764E+01  0.43428910467E+01  0.00000000000E+00 0.  1.
</event>
<event>
 7    1  0.4432754E-010  0.4778727E+02  0.7816164E-02  0.1312668E+00
        -11   -1    0    0    0    0  0.00000000000E+00  0.00000000000E+00  0.45593999997E+02  0.45594000000E+02  0.51100000000E-03 0.  1.
         11   -1    0    0    0    0 -0.00000000000E+00 -0.00000000000E+00 -0.45593999997E+02  0.45594000000E+02  0.51100000000E-03 0. -1.
    9900012    2    1    2    0    0  0.21070817261E+02  0.12839215288E+02 -0.35704319484E+02  0.47787271676E+02  0.20000002878E+02 0.  0.
        -12    1    1    2    0    0 -0.21070817261E+02 -0.12839215288E+02  0.35704319484E+02  0.43400728324E+02  0.00000000000E+00 0.  1.
         11    1    3    3    0    0  0.11261640143E+02  0.81240273578E+01 -0.31311629914E+02  0.34252628035E+02  0.51100000000E-03 0. -1.
        -11    1    3    3    0    0 -0.22040575740E+00  0.18547779424E+01 -0.21840962439E+01  0.28738574386E+01  0.51100000000E-03 0.  1.
        -12    1    3    3    0    0  0.10029582876E+02  0.28604099877E+01 -0.22085933267E+01  0.10660786202E+02  0.00000000000E+00 0.  1.
</event>
<event>
 7    1  0.4432754E-010  0.4778727E+02  0.7816164E-02  0.1312668E+00
        -11   -1    0    0    0    0  0.00000000000E+00  0.00000000000E+00  0.45593999997E+02  0.45594000000E+02  0.51100000000E-03 0.  1.
         11   -1    0    0    0    0 -0.00000000000E+00 -0.00000000000E+00 -0.45593999997E+02  0.45594000000E+02  0.51100000000E-03 0. -1.
    9900012    2    1    2    0    0  0.90203879705E+01 -0.30929061943E+02 -0.29080040502E+02  0.47787273884E+02  0.20000012946E+02 0.  0.
        -12    1    1    2    0    0 -0.90203879705E+01  0.30929061943E+02  0.29080040502E+02  0.43400726116E+02  0.00000000000E+00 0.  1.
         11    1    3    3    0    0  0.65207863318E+01 -0.13425752916E+02 -0.12230744752E+02  0.19296699542E+02  0.51100000000E-03 0. -1.
        -11    1    3    3    0    0  0.13552485469E+01 -0.36917914129E+01 -0.13733919990E+02  0.14285887478E+02  0.51100000000E-03 0.  1.
         12    1    3    3    0    0  0.11443530918E+01 -0.13811517614E+02 -0.31153757596E+01  0.14204686864E+02  0.00000000000E+00 0. -1.
</event>
<event>
 7    1  0.4432754E-010  0.4778727E+02  0.7816164E-02  0.1312668E+00
        -11   -1    0    0    0    0  0.00000000000E+00  0.00000000000E+00  0.45593999997E+02  0.45594000000E+02  0.51100000000E-03 0.  1.
         11   -1    0    0    0    0 -0.00000000000E+00 -0.00000000000E+00 -0.45593999997E+02  0.45594000000E+02  0.51100000000E-03 0. -1.
    9900012    2    1    2    0    0  0.39620383014E+02  0.11218648955E+02 -0.13710958079E+02  0.47787271826E+02  0.20000003565E+02 0.  0.
        -12    1    1    2    0    0 -0.39620383014E+02 -0.11218648955E+02  0.13710958079E+02  0.43400728174E+02  0.00000000000E+00 0.  1.
         11    1    3    3    0    0  0.24557741859E+02  0.11631201602E+02 -0.10870300549E+02  0.29266550364E+02  0.51100000000E-03 0. -1.
        -11    1    3    3    0    0  0.14951321477E+02 -0.26106096432E+00 -0.54416514769E+01  0.15912942462E+02  0.51100000000E-03 0.  1.
         12    1    3    3    0    0  0.11131967802E+00 -0.15149168277E+00  0.26009939472E+01  0.26077790002E+01  0.00000000000E+00 0. -1.
</event>
<event>
 7    1  0.4432754E-010  0.4778727E+02  0.7816164E-02  0.1312668E+00
        -11   -1    0    0    0    0  0.00000000000E+00  0.00000000000E+00  0.45593999997E+02  0.45594000000E+02  0.51100000000E-03 0. -1.
         11   -1    0    0    0    0 -0.00000000000E+00 -0.00000000000E+00 -0.45593999997E+02  0.45594000000E+02  0.51100000000E-03 0.  1.
    9900012    2    1    2    0    0  0.22831444135E+02  0.33158462894E+02  0.16213102539E+02  0.47787271933E+02  0.20000004052E+02 0.  0.
        -12    1    1    2    0    0 -0.22831444135E+02 -0.33158462894E+02 -0.16213102539E+02  0.43400728067E+02  0.00000000000E+00 0.  1.
         11    1    3    3    0    0  0.36919016417E+01  0.49907515288E+01  0.16423806814E+01  0.64214603571E+01  0.51100000000E-03 0. -1.
        -11    1    3    3    0    0  0.83992548437E+00  0.50848241881E+01 -0.40174308279E+01  0.65345743979E+01  0.51100000000E-03 0.  1.
         12    1    3    3    0    0  0.18299617009E+02  0.23082887177E+02  0.18588152685E+02  0.34831237178E+02  0.00000000000E+00 0. -1.
</event>
<event>
 7    1  0.4432754E-010  0.4778727E+02  0.7816164E-02  0.1312668E+00
        -11   -1    0    0    0    0  0.00000000000E+00  0.00000000000E+00  0.45593999997E+02  0.45594000000E+02  0.51100000000E-03 0.  1.
         11   -1    0    0    0    0 -0.00000000000E+00 -0.00000000000E+00 -0.45593999997E+02  0.45594000000E+02  0.51100000000E-03 0. -1.
    9900012    2    1    2    0    0  0.19744340352E+02  0.37112151456E+02 -0.10792229245E+02  0.47787274503E+02  0.20000015767E+02 0.  0.
        -12    1    1    2    0    0 -0.19744340352E+02 -0.37112151456E+02  0.10792229245E+02  0.43400725497E+02  0.00000000000E+00 0.  1.
         11    1    3    3    0    0  0.18654889523E+02  0.15182775826E+02 -0.67021836298E+01  0.24968797539E+02  0.51100000000E-03 0.  1.
        -11    1    3    3    0    0  0.18950503816E+01  0.65109754095E+01  0.23327560751E+00  0.67851628206E+01  0.51100000000E-03 0. -1.
         12    1    3    3    0    0 -0.80559955251E+00  0.15418400220E+02 -0.43233212232E+01  0.16033314143E+02  0.00000000000E+00 0. -1.
</event>
<event>
 7    1  0.4432754E-010  0.4778727E+02  0.7816164E-02  0.1312668E+00
        -11   -1    0    0    0    0  0.00000000000E+00  0.00000000000E+00  0.45593999997E+02  0.45594000000E+02  0.51100000000E-03 0. -1.
         11   -1    0    0    0    0 -0.00000000000E+00 -0.00000000000E+00 -0.45593999997E+02  0.45594000000E+02  0.51100000000E-03 0.  1.
    9900012    2    1    2    0    0  0.16483609582E+02  0.37653707972E+02  0.13932420734E+02  0.47787268941E+02  0.19999990411E+02 0.  0.
        -12    1    1    2    0    0 -0.16483609582E+02 -0.37653707972E+02 -0.13932420734E+02  0.43400731059E+02  0.00000000000E+00 0.  1.
         11    1    3    3    0    0  0.99915158775E+01  0.21177075137E+02  0.34149844872E+01  0.23663495520E+02  0.51100000000E-03 0. -1.
        -11    1    3    3    0    0  0.87299446721E+01  0.10918988249E+02  0.11437242667E+02  0.18062302136E+02  0.51100000000E-03 0.  1.
        -12    1    3    3    0    0 -0.22378509674E+01  0.55576445863E+01 -0.91980642012E+00  0.60614712860E+01  0.00000000000E+00 0.  1.
</event>
<event>
 7    1  0.4432754E-010  0.4778728E+02  0.7816164E-02  0.1312668E+00
        -11   -1    0    0    0    0  0.00000000000E+00  0.00000000000E+00  0.45593999997E+02  0.45594000000E+02  0.51100000000E-03 0.  1.
         11   -1    0    0    0    0 -0.00000000000E+00 -0.00000000000E+00 -0.45593999997E+02  0.45594000000E+02  0.51100000000E-03 0. -1.
    9900012    2    1    2    0    0 -0.46765771306E+01  0.39721116472E+02 -0.16851850444E+02  0.47787281909E+02  0.20000049535E+02 0.  0.
        -12    1    1    2    0    0  0.46765771306E+01 -0.39721116472E+02  0.16851850444E+02  0.43400718091E+02  0.00000000000E+00 0.  1.
         11    1    3    3    0    0 -0.56399237663E+01  0.29798971165E+02 -0.14541104049E+02  0.33633779594E+02  0.51100000000E-03 0. -1.
        -11    1    3    3    0    0  0.26099867338E+01  0.71277356250E+01 -0.56771904112E+01  0.94787729753E+01  0.51100000000E-03 0.  1.
         12    1    3    3    0    0 -0.16466400981E+01  0.27944096826E+01  0.33664440161E+01  0.46747293398E+01  0.00000000000E+00 0. -1.
</event>
<event>
 7    1  0.4432754E-010  0.4778727E+02  0.7816164E-02  0.1312668E+00
        -11   -1    0    0    0    0  0.00000000000E+00  0.00000000000E+00  0.45593999997E+02  0.45594000000E+02  0.51100000000E-03 0. -1.
         11   -1    0    0    0    0 -0.00000000000E+00 -0.00000000000E+00 -0.45593999997E+02  0.45594000000E+02  0.51100000000E-03 0.  1.
    9900012    2    1    2    0    0 -0.17319053193E+02  0.34334399701E+02  0.20120204845E+02  0.47787271327E+02  0.20000001290E+02 0.  0.
        -12    1    1    2    0    0  0.17319053193E+02 -0.34334399701E+02 -0.20120204845E+02  0.43400728673E+02  0.00000000000E+00 0.  1.
         11    1    3    3    0    0  0.17619274827E+01  0.69347805703E+01  0.16276747474E+01  0.73379081050E+01  0.51100000000E-03 0. -1.
        -11    1    3    3    0    0 -0.19103019806E+02  0.19070590085E+02  0.17235032380E+02  0.32025913153E+02  0.51100000000E-03 0.  1.
        -12    1    3    3    0    0  0.22039129837E-01  0.83290290457E+01  0.12574977178E+01  0.84234500698E+01  0.00000000000E+00 0.  1.
</event>
<event>
 7    1  0.5750049E-010  0.4778726E+02  0.7816164E-02  0.1312668E+00
        -11   -1    0    0    0    0  0.00000000000E+00  0.00000000000E+00  0.45593999997E+02  0.45594000000E+02  0.51100000000E-03 0. -1.
         11   -1    0    0    0    0 -0.00000000000E+00 -0.00000000000E+00 -0.45593999997E+02  0.45594000000E+02  0.51100000000E-03 0.  1.
    9900012    2    1    2    0    0  0.16371417062E+01 -0.12816855780E+02  0.41432739892E+02  0.47787263140E+02  0.19999963960E+02 0.  0.
        -12    1    1    2    0    0 -0.16371417062E+01  0.12816855780E+02 -0.41432739892E+02  0.43400736860E+02  0.00000000000E+00 0.  1.
         11    1    3    3    0    0 -0.36007707141E+01 -0.10911572970E+01  0.18402231301E+02  0.18782925520E+02  0.51100000000E-03 0. -1.
        -11    1    3    3    0    0  0.37232338841E+01 -0.87012400407E+01  0.23732197825E+02  0.25549780091E+02  0.51100000000E-03 0.  1.
        -12    1    3    3    0    0  0.15146785363E+01 -0.30244584426E+01 -0.70168923449E+00  0.34545575290E+01  0.00000000000E+00 0.  1.
</event>
<event>
 7    1  0.4432754E-010  0.4778727E+02  0.7816164E-02  0.1312668E+00
        -11   -1    0    0    0    0  0.00000000000E+00  0.00000000000E+00  0.45593999997E+02  0.45594000000E+02  0.51100000000E-03 0. -1.
         11   -1    0    0    0    0 -0.00000000000E+00 -0.00000000000E+00 -0.45593999997E+02  0.45594000000E+02  0.51100000000E-03 0.  1.
    9900012    2    1    2    0    0  0.86748997549E+00 -0.76746591270E+00  0.43385268984E+02  0.47787272960E+02  0.20000008735E+02 0.  0.
        -12    1    1    2    0    0 -0.86748997549E+00  0.76746591270E+00 -0.43385268984E+02  0.43400727040E+02  0.00000000000E+00 0.  1.
         11    1    3    3    0    0  0.80149439463E+01 -0.11165453929E+01  0.86042041115E+01  0.11811787703E+02  0.51100000000E-03 0. -1.
        -11    1    3    3    0    0  0.11145459980E+00 -0.86809219490E+00  0.73496283951E+00  0.11428809313E+01  0.51100000000E-03 0.  1.
        -12    1    3    3    0    0 -0.72589085706E+01  0.12171716751E+01  0.34046102033E+02  0.34832604326E+02  0.00000000000E+00 0.  1.
</event>
<event>
 7    1  0.4432754E-010  0.4778727E+02  0.7816164E-02  0.1312668E+00
        -11   -1    0    0    0    0  0.00000000000E+00  0.00000000000E+00  0.45593999997E+02  0.45594000000E+02  0.51100000000E-03 0.  1.
         11   -1    0    0    0    0 -0.00000000000E+00 -0.00000000000E+00 -0.45593999997E+02  0.45594000000E+02  0.51100000000E-03 0. -1.
    9900012    2    1    2    0    0 -0.42902670781E+02  0.62224685314E+01 -0.20651798304E+01  0.47787271406E+02  0.20000001647E+02 0.  0.
        -12    1    1    2    0    0  0.42902670781E+02 -0.62224685314E+01  0.20651798304E+01  0.43400728594E+02  0.00000000000E+00 0.  1.
         11    1    3    3    0    0 -0.35590860094E+02  0.14469639644E+01 -0.10102765320E+00  0.35620404739E+02  0.51100000000E-03 0. -1.
        -11    1    3    3    0    0 -0.84131689605E+01  0.34485274001E+01 -0.36100886644E+01  0.97829695703E+01  0.51100000000E-03 0.  1.
        -12    1    3    3    0    0  0.11013582727E+01  0.13269771669E+01  0.16459364873E+01  0.23838970964E+01  0.00000000000E+00 0.  1.
</event>
<event>
 7    1  0.4432754E-010  0.4778727E+02  0.7816164E-02  0.1312668E+00
        -11   -1    0    0    0    0  0.00000000000E+00  0.00000000000E+00  0.45593999997E+02  0.45594000000E+02  0.51100000000E-03 0.  1.
         11   -1    0    0    0    0 -0.00000000000E+00 -0.00000000000E+00 -0.45593999997E+02  0.45594000000E+02  0.51100000000E-03 0. -1.
    9900012    2    1    2    0    0  0.21573980075E+02 -0.15919121478E+02 -0.34128701388E+02  0.47787270705E+02  0.19999998450E+02 0.  0.
        -12    1    1    2    0    0 -0.21573980075E+02  0.15919121478E+02  0.34128701388E+02  0.43400729295E+02  0.00000000000E+00 0.  1.
         11    1    3    3    0    0  0.32333489997E+01 -0.47146316101E+01 -0.40641993998E+01  0.70142721643E+01  0.51100000000E-03 0. -1.
        -11    1    3    3    0    0  0.90658529377E+01  0.68661661963E+00 -0.26261037049E+01  0.94634852354E+01  0.51100000000E-03 0.  1.
         12    1    3    3    0    0  0.92747781377E+01 -0.11891106488E+02 -0.27438398284E+02  0.31309513305E+02  0.00000000000E+00 0. -1.
</event>
<event>
 7    1  0.4432754E-010  0.4778727E+02  0.7816164E-02  0.1312668E+00
        -11   -1    0    0    0    0  0.00000000000E+00  0.00000000000E+00  0.45593999997E+02  0.45594000000E+02  0.51100000000E-03 0.  1.
         11   -1    0    0    0    0 -0.00000000000E+00 -0.00000000000E+00 -0.45593999997E+02  0.45594000000E+02  0.51100000000E-03 0. -1.
    9900012    2    1    2    0    0 -0.33171061323E+02 -0.24166860313E+02 -0.14116197078E+02  0.47787268824E+02  0.19999989876E+02 0.  0.
        -12    1    1    2    0    0  0.33171061323E+02  0.24166860313E+02  0.14116197078E+02  0.43400731176E+02  0.00000000000E+00 0.  1.
         11    1    3    3    0    0 -0.26002506235E+01 -0.58465097047E+01 -0.59536061871E+00  0.64263079260E+01  0.51100000000E-03 0. -1.
        -11    1    3    3    0    0 -0.10415280782E+02 -0.14152147963E+02 -0.10734917595E+02  0.20591255954E+02  0.51100000000E-03 0.  1.
         12    1    3    3    0    0 -0.20155529917E+02 -0.41682026455E+01 -0.27859188641E+01  0.20769704944E+02  0.00000000000E+00 0. -1.
</event>
<event>
 7    1  0.4432754E-010  0.4778727E+02  0.7816164E-02  0.1312668E+00
        -11   -1    0    0    0    0  0.00000000000E+00  0.00000000000E+00  0.45593999997E+02  0.45594000000E+02  0.51100000000E-03 0.  1.
         11   -1    0    0    0    0 -0.00000000000E+00 -0.00000000000E+00 -0.45593999997E+02  0.45594000000E+02  0.51100000000E-03 0. -1.
    9900012    2    1    2    0    0  0.20472792562E+02 -0.38010551449E+02 -0.44368895625E+01  0.47787271368E+02  0.20000001477E+02 0.  0.
        -12    1    1    2    0    0 -0.20472792562E+02  0.38010551449E+02  0.44368895625E+01  0.43400728632E+02  0.00000000000E+00 0.  1.
         11    1    3    3    0    0  0.61292785718E+00 -0.15943214138E+02  0.21551608830E+00  0.15956447131E+02  0.51100000000E-03 0. -1.
        -11    1    3    3    0    0  0.13067994727E+02 -0.20730873935E+02 -0.28017519255E+01  0.24665592116E+02  0.51100000000E-03 0.  1.
        -12    1    3    3    0    0  0.67918699776E+01 -0.13364633768E+01 -0.18506537253E+01  0.71652321219E+01  0.00000000000E+00 0.  1.
</event>
<event>
 7    1  0.4432754E-010  0.4778726E+02  0.7816164E-02  0.1312668E+00
        -11   -1    0    0    0    0  0.00000000000E+00  0.00000000000E+00  0.45593999997E+02  0.45594000000E+02  0.51100000000E-03 0.  1.
         11   -1    0    0    0    0 -0.00000000000E+00 -0.00000000000E+00 -0.45593999997E+02  0.45594000000E+02  0.51100000000E-03 0. -1.
    9900012    2    1    2    0    0  0.13350590798E+02 -0.77988350465E+01 -0.40553224681E+02  0.47787261127E+02  0.19999954781E+02 0.  0.
        -12    1    1    2    0    0 -0.13350590798E+02  0.77988350465E+01  0.40553224681E+02  0.43400738873E+02  0.00000000000E+00 0.  1.
         11    1    3    3    0    0  0.10788321905E+01  0.93299059949E+00 -0.39462765456E+00  0.14798924288E+01  0.51100000000E-03 0. -1.
        -11    1    3    3    0    0  0.70461386916E+01 -0.13955890256E+02 -0.28437800673E+02  0.32451863593E+02  0.51100000000E-03 0.  1.
        -12    1    3    3    0    0  0.52256199156E+01  0.52240646100E+01 -0.11720796353E+02  0.13855505105E+02  0.00000000000E+00 0.  1.
</event>
<event>
 7    1  0.4432754E-010  0.4778728E+02  0.7816164E-02  0.1312668E+00
        -11   -1    0    0    0    0  0.00000000000E+00  0.00000000000E+00  0.45593999997E+02  0.45594000000E+02  0.51100000000E-03 0. -1.
         11   -1    0    0    0    0 -0.00000000000E+00 -0.00000000000E+00 -0.45593999997E+02  0.45594000000E+02  0.51100000000E-03 0.  1.
    9900012    2    1    2    0    0  0.38018851698E+02  0.12577033642E+02  0.16733415954E+02  0.47787284923E+02  0.20000063279E+02 0.  0.
        -12    1    1    2    0    0 -0.38018851698E+02 -0.12577033642E+02 -0.16733415954E+02  0.43400715077E+02  0.00000000000E+00 0.  1.
         11    1    3    3    0    0  0.50124892173E+01  0.58096133617E+01  0.12485553822E+00  0.76741282719E+01  0.51100000000E-03 0. -1.
        -11    1    3    3    0    0  0.33163625122E+02  0.41742799224E+01  0.13466158658E+02  0.36035927536E+02  0.51100000000E-03 0.  1.
        -12    1    3    3    0    0 -0.15726264131E+00  0.25931403580E+01  0.31424017573E+01  0.40772291153E+01  0.00000000000E+00 0.  1.
</event>
<event>
 7    1  0.4432754E-010  0.4778727E+02  0.7816164E-02  0.1312668E+00
        -11   -1    0    0    0    0  0.00000000000E+00  0.00000000000E+00  0.45593999997E+02  0.45594000000E+02  0.51100000000E-03 0.  1.
         11   -1    0    0    0    0 -0.00000000000E+00 -0.00000000000E+00 -0.45593999997E+02  0.45594000000E+02  0.51100000000E-03 0. -1.
    9900012    2    1    2    0    0  0.22586752043E+02 -0.14757794080E+02 -0.33995141594E+02  0.47787268370E+02  0.19999987808E+02 0.  0.
        -12    1    1    2    0    0 -0.22586752043E+02  0.14757794080E+02  0.33995141594E+02  0.43400731630E+02  0.00000000000E+00 0.  1.
         11    1    3    3    0    0  0.93534506134E+01 -0.18372207959E+01 -0.48391789137E+01  0.10690185754E+02  0.51100000000E-03 0. -1.
        -11    1    3    3    0    0  0.13985861940E+01 -0.19478206242E+01  0.12271321516E+01  0.26936781739E+01  0.51100000000E-03 0.  1.
        -12    1    3    3    0    0  0.11834715235E+02 -0.10972752660E+02 -0.30383094832E+02  0.34403404443E+02  0.00000000000E+00 0.  1.
</event>
<event>
 7    1  0.4432754E-010  0.4778728E+02  0.7816164E-02  0.1312668E+00
        -11   -1    0    0    0    0  0.00000000000E+00  0.00000000000E+00  0.45593999997E+02  0.45594000000E+02  0.51100000000E-03 0.  1.
         11   -1    0    0    0    0 -0.00000000000E+00 -0.00000000000E+00 -0.45593999997E+02  0.45594000000E+02  0.51100000000E-03 0. -1.
    9900012    2    1    2    0    0 -0.26524854694E+02 -0.32180928569E+02 -0.12018405657E+02  0.47787283939E+02  0.20000058791E+02 0.  0.
        -12    1    1    2    0    0  0.26524854694E+02  0.32180928569E+02  0.12018405657E+02  0.43400716061E+02  0.00000000000E+00 0.  1.
         11    1    3    3    0    0  0.18296372031E+01 -0.56769504359E+01 -0.11662046076E+01  0.60774478191E+01  0.51100000000E-03 0.  1.
        -11    1    3    3    0    0 -0.13444884279E+01 -0.62718097777E+01 -0.61368817952E+00  0.64435906499E+01  0.51100000000E-03 0. -1.
        -12    1    3    3    0    0 -0.27010003469E+02 -0.20232168355E+02 -0.10238512870E+02  0.35266245470E+02  0.00000000000E+00 0.  1.
</event>
<event>
 7    1  0.4432754E-010  0.4778727E+02  0.7816164E-02  0.1312668E+00
        -11   -1    0    0    0    0  0.00000000000E+00  0.00000000000E+00  0.45593999997E+02  0.45594000000E+02  0.51100000000E-03 0. -1.
         11   -1    0    0    0    0 -0.00000000000E+00 -0.00000000000E+00 -0.45593999997E+02  0.45594000000E+02  0.51100000000E-03 0.  1.
    9900012    2    1    2    0    0  0.27591022726E+02  0.24407579415E+02  0.22948401543E+02  0.47787267272E+02  0.19999982798E+02 0.  0.
        -12    1    1    2    0    0 -0.27591022726E+02 -0.24407579415E+02 -0.22948401543E+02  0.43400732728E+02  0.00000000000E+00 0.  1.
         11    1    3    3    0    0  0.13112892878E+02  0.11945796498E+02  0.44711520619E+01  0.18293201322E+02  0.51100000000E-03 0. -1.
        -11    1    3    3    0    0  0.30008111637E+01  0.10161790630E+02  0.52297469518E+01  0.11815968428E+02  0.51100000000E-03 0.  1.
         12    1    3    3    0    0  0.11477318684E+02  0.22999922875E+01  0.13247502530E+02  0.17678097521E+02  0.00000000000E+00 0. -1.
</event>
<event>
 7    1  0.4765202E-010  0.4778726E+02  0.7816164E-02  0.1312668E+00
        -11   -1    0    0    0    0  0.00000000000E+00  0.00000000000E+00  0.45593999997E+02  0.45594000000E+02  0.51100000000E-03 0. -1.
         11   -1    0    0    0    0 -0.00000000000E+00 -0.00000000000E+00 -0.45593999997E+02  0.45594000000E+02  0.51100000000E-03 0.  1.
    9900012    2    1    2    0    0 -0.73065750024E+01  0.12695658685E+02  0.40854112405E+02  0.47787259360E+02  0.19999946727E+02 0.  0.
        -12    1    1    2    0    0  0.73065750024E+01 -0.12695658685E+02 -0.40854112405E+02  0.43400740640E+02  0.00000000000E+00 0.  1.
         11    1    3    3    0    0 -0.21126249582E+01 -0.26261313262E+01  0.44831388955E+01  0.56087685435E+01  0.51100000000E-03 0. -1.
        -11    1    3    3    0    0 -0.37069756406E+01  0.59004024329E+01  0.32081335397E+01  0.76712800979E+01  0.51100000000E-03 0.  1.
         12    1    3    3    0    0 -0.14869744035E+01  0.94213875780E+01  0.33162839969E+02  0.34507210719E+02  0.00000000000E+00 0. -1.
</event>
<event>
 7    1  0.4432754E-010  0.4778727E+02  0.7816164E-02  0.1312668E+00
        -11   -1    0    0    0    0  0.00000000000E+00  0.00000000000E+00  0.45593999997E+02  0.45594000000E+02  0.51100000000E-03 0.  1.
         11   -1    0    0    0    0 -0.00000000000E+00 -0.00000000000E+00 -0.45593999997E+02  0.45594000000E+02  0.51100000000E-03 0. -1.
    9900012    2    1    2    0    0 -0.21468103174E+02  0.33499352443E+01 -0.37570221561E+02  0.47787273415E+02  0.20000010806E+02 0.  0.
        -12    1    1    2    0    0  0.21468103174E+02 -0.33499352443E+01  0.37570221561E+02  0.43400726585E+02  0.00000000000E+00 0.  1.
         11    1    3    3    0    0 -0.56859119938E+01 -0.22646657951E+01 -0.24243290170E+02  0.25003908192E+02  0.51100000000E-03 0. -1.
        -11    1    3    3    0    0 -0.47349049896E+01  0.19032052350E+00 -0.81588478797E+01  0.94351654012E+01  0.51100000000E-03 0.  1.
        -12    1    3    3    0    0 -0.11047286190E+02  0.54242805159E+01 -0.51680835111E+01  0.13348199821E+02  0.00000000000E+00 0.  1.
</event>
<event>
 7    1  0.4432754E-010  0.4778727E+02  0.7816164E-02  0.1312668E+00
        -11   -1    0    0    0    0  0.00000000000E+00  0.00000000000E+00  0.45593999997E+02  0.45594000000E+02  0.51100000000E-03 0. -1.
         11   -1    0    0    0    0 -0.00000000000E+00 -0.00000000000E+00 -0.45593999997E+02  0.45594000000E+02  0.51100000000E-03 0.  1.
    9900012    2    1    2    0    0  0.28197747919E+02 -0.32768761248E+02 -0.38364918210E+01  0.47787269927E+02  0.19999994903E+02 0.  0.
        -12    1    1    2    0    0 -0.28197747919E+02  0.32768761248E+02  0.38364918210E+01  0.43400730073E+02  0.00000000000E+00 0.  1.
         11    1    3    3    0    0  0.63615258926E+01 -0.92044674476E+01  0.12898017815E+01  0.11262984577E+02  0.51100000000E-03 0. -1.
        -11    1    3    3    0    0  0.15743575751E+02 -0.12886749923E+02 -0.10744192928E+02  0.23007959122E+02  0.51100000000E-03 0.  1.
        -12    1    3    3    0    0  0.60926462750E+01 -0.10677543877E+02  0.56178993251E+01  0.13516326228E+02  0.00000000000E+00 0.  1.
</event>
<event>
 7    1  0.4432754E-010  0.4778727E+02  0.7816164E-02  0.1312668E+00
        -11   -1    0    0    0    0  0.00000000000E+00  0.00000000000E+00  0.45593999997E+02  0.45594000000E+02  0.51100000000E-03 0.  1.
         11   -1    0    0    0    0 -0.00000000000E+00 -0.00000000000E+00 -0.45593999997E+02  0.45594000000E+02  0.51100000000E-03 0. -1.
    9900012    2    1    2    0    0  0.34207728773E+02 -0.43857672541E+01 -0.26348044116E+02  0.47787273152E+02  0.20000009608E+02 0.  0.
        -12    1    1    2    0    0 -0.34207728773E+02  0.43857672541E+01  0.26348044116E+02  0.43400726848E+02  0.00000000000E+00 0.  1.
         11    1    3    3    0    0  0.22352163829E+01  0.25910699270E+01 -0.10364909698E+02  0.10915181581E+02  0.51100000000E-03 0. -1.
        -11    1    3    3    0    0  0.84735154180E+01 -0.55685022737E+00 -0.66477158011E+01  0.10784371625E+02  0.51100000000E-03 0.  1.
        -12    1    3    3    0    0  0.23498996972E+02 -0.64199869537E+01 -0.93354186168E+01  0.26087719945E+02  0.00000000000E+00 0.  1.
</event>
<event>
 7    1  0.4432754E-010  0.4778730E+02  0.7816164E-02  0.1312668E+00
        -11   -1    0    0    0    0  0.00000000000E+00  0.00000000000E+00  0.45593999997E+02  0.45594000000E+02  0.51100000000E-03 0.  1.
         11   -1    0    0    0    0 -0.00000000000E+00 -0.00000000000E+00 -0.45593999997E+02  0.45594000000E+02  0.51100000000E-03 0. -1.
    9900012    2    1    2    0    0  0.24833369496E+00  0.20281153766E+02 -0.38369704934E+02  0.47787295807E+02  0.20000112901E+02 0.  0.
        -12    1    1    2    0    0 -0.24833369496E+00 -0.20281153766E+02  0.38369704934E+02  0.43400704193E+02  0.00000000000E+00 0.  1.
         11    1    3    3    0    0 -0.45990838741E+01  0.62832930648E+01 -0.83122952596E+01  0.11389714525E+02  0.51100000000E-03 0.  1.
        -11    1    3    3    0    0  0.40972137412E+01  0.16822621436E+02 -0.27588547837E+02  0.32571701282E+02  0.51100000000E-03 0. -1.
        -12    1    3    3    0    0  0.75020382785E+00 -0.28247607349E+01 -0.24688618383E+01  0.38258799993E+01  0.00000000000E+00 0.  1.
</event>
<event>
 7    1  0.4432754E-010  0.4778727E+02  0.7816164E-02  0.1312668E+00
        -11   -1    0    0    0    0  0.00000000000E+00  0.00000000000E+00  0.45593999997E+02  0.45594000000E+02  0.51100000000E-03 0. -1.
         11   -1    0    0    0    0 -0.00000000000E+00 -0.00000000000E+00 -0.45593999997E+02  0.45594000000E+02  0.51100000000E-03 0.  1.
    9900012    2    1    2    0    0 -0.37887913251E+02  0.20169015161E+02  0.64296366494E+01  0.47787269931E+02  0.19999994921E+02 0.  0.
        -12    1    1    2    0    0  0.37887913251E+02 -0.20169015161E+02 -0.64296366494E+01  0.43400730069E+02  0.00000000000E+00 0.  1.
         11    1    3    3    0    0 -0.16217312085E+02  0.82657825963E+01 -0.93314534063E+00  0.18226221048E+02  0.51100000000E-03 0. -1.
        -11    1    3    3    0    0 -0.23091375803E+02  0.10054261287E+02  0.40484353172E+01  0.25508618844E+02  0.51100000000E-03 0.  1.
        -12    1    3    3    0    0  0.14207746371E+01  0.18489712773E+01  0.33143466729E+01  0.40524300391E+01  0.00000000000E+00 0.  1.
</event>
<event>
 7    1  0.4432754E-010  0.4778727E+02  0.7816164E-02  0.1312668E+00
        -11   -1    0    0    0    0  0.00000000000E+00  0.00000000000E+00  0.45593999997E+02  0.45594000000E+02  0.51100000000E-03 0.  1.
         11   -1    0    0    0    0 -0.00000000000E+00 -0.00000000000E+00 -0.45593999997E+02  0.45594000000E+02  0.51100000000E-03 0. -1.
    9900012    2    1    2    0    0  0.81084927121E+01 -0.73927486309E+01 -0.41990746550E+02  0.47787272100E+02  0.20000004813E+02 0.  0.
        -12    1    1    2    0    0 -0.81084927121E+01  0.73927486309E+01  0.41990746550E+02  0.43400727900E+02  0.00000000000E+00 0.  1.
         11    1    3    3    0    0  0.92801687388E+01 -0.16462020394E+01 -0.35115306546E+02  0.36358166443E+02  0.51100000000E-03 0. -1.
        -11    1    3    3    0    0  0.26833637705E+01 -0.16619089245E+01 -0.40712164617E+01  0.51514256412E+01  0.51100000000E-03 0.  1.
        -12    1    3    3    0    0 -0.38550397972E+01 -0.40846376670E+01 -0.28042235426E+01  0.62776800162E+01  0.00000000000E+00 0.  1.
</event>
<event>
 7    1  0.4432754E-010  0.4778727E+02  0.7816164E-02  0.1312668E+00
        -11   -1    0    0    0    0  0.00000000000E+00  0.00000000000E+00  0.45593999997E+02  0.45594000000E+02  0.51100000000E-03 0.  1.
         11   -1    0    0    0    0 -0.00000000000E+00 -0.00000000000E+00 -0.45593999997E+02  0.45594000000E+02  0.51100000000E-03 0. -1.
    9900012    2    1    2    0    0  0.29034048304E+01  0.40763378264E+02 -0.14613019937E+02  0.47787272831E+02  0.20000008145E+02 0.  0.
        -12    1    1    2    0    0 -0.29034048304E+01 -0.40763378264E+02  0.14613019937E+02  0.43400727169E+02  0.00000000000E+00 0.  1.
         11    1    3    3    0    0  0.53957824270E+01  0.55740893891E+01 -0.23873613515E+01  0.81169227544E+01  0.51100000000E-03 0. -1.
        -11    1    3    3    0    0 -0.23129508913E+01  0.57746895914E+00  0.10427446841E+01  0.26020240125E+01  0.51100000000E-03 0.  1.
         12    1    3    3    0    0 -0.17942670535E+00  0.34611819916E+02 -0.13268403270E+02  0.37068326064E+02  0.00000000000E+00 0. -1.
</event>
<event>
 7    1  0.4432754E-010  0.4778727E+02  0.7816164E-02  0.1312668E+00
        -11   -1    0    0    0    0  0.00000000000E+00  0.00000000000E+00  0.45593999997E+02  0.45594000000E+02  0.51100000000E-03 0.  1.
         11   -1    0    0    0    0 -0.00000000000E+00 -0.00000000000E+00 -0.45593999997E+02  0.45594000000E+02  0.51100000000E-03 0. -1.
    9900012    2    1    2    0    0 -0.32750477971E+02  0.27702601827E+02 -0.66026731034E+01  0.47787271349E+02  0.20000001389E+02 0.  0.
        -12    1    1    2    0    0  0.32750477971E+02 -0.27702601827E+02  0.66026731034E+01  0.43400728651E+02  0.00000000000E+00 0.  1.
         11    1    3    3    0    0 -0.43782859121E+01  0.10222113318E+02  0.73730645931E+00  0.11144712167E+02  0.51100000000E-03 0. -1.
        -11    1    3    3    0    0 -0.39571397945E+01 -0.17785469135E+01  0.98898766696E+00  0.44497507057E+01  0.51100000000E-03 0.  1.
         12    1    3    3    0    0 -0.24415052264E+02  0.19259035423E+02 -0.83289672296E+01  0.32192808477E+02  0.00000000000E+00 0. -1.
</event>
<event>
 7    1  0.4432754E-010  0.4778727E+02  0.7816164E-02  0.1312668E+00
        -11   -1    0    0    0    0  0.00000000000E+00  0.00000000000E+00  0.45593999997E+02  0.45594000000E+02  0.51100000000E-03 0.  1.
         11   -1    0    0    0    0 -0.00000000000E+00 -0.00000000000E+00 -0.45593999997E+02  0.45594000000E+02  0.51100000000E-03 0. -1.
    9900012    2    1    2    0    0  0.40715947230E+02  0.94018352144E+01 -0.11723496826E+02  0.47787271411E+02  0.20000001670E+02 0.  0.
        -12    1    1    2    0    0 -0.40715947230E+02 -0.94018352144E+01  0.11723496826E+02  0.43400728589E+02  0.00000000000E+00 0.  1.
         11    1    3    3    0    0  0.33101662715E+02  0.82313543718E+01 -0.10384415010E+02  0.35655453224E+02  0.51100000000E-03 0. -1.
        -11    1    3    3    0    0  0.40890260229E+01  0.50639274335E+01 -0.20676567441E+01  0.68292532199E+01  0.51100000000E-03 0.  1.
        -12    1    3    3    0    0  0.35252584928E+01 -0.38934465909E+01  0.72857492892E+00  0.53025649665E+01  0.00000000000E+00 0.  1.
</event>
<event>
 7    1  0.4432754E-010  0.4778727E+02  0.7816164E-02  0.1312668E+00
        -11   -1    0    0    0    0  0.00000000000E+00  0.00000000000E+00  0.45593999997E+02  0.45594000000E+02  0.51100000000E-03 0.  1.
         11   -1    0    0    0    0 -0.00000000000E+00 -0.00000000000E+00 -0.45593999997E+02  0.45594000000E+02  0.51100000000E-03 0. -1.
    9900012    2    1    2    0    0  0.16675627464E+02  0.33570857887E+02 -0.21875652118E+02  0.47787271825E+02  0.20000003557E+02 0.  0.
        -12    1    1    2    0    0 -0.16675627464E+02 -0.33570857887E+02  0.21875652118E+02  0.43400728175E+02  0.00000000000E+00 0.  1.
         11    1    3    3    0    0  0.56485749922E+00 -0.13606088900E+01 -0.45688455737E+01  0.48004865049E+01  0.51100000000E-03 0. -1.
        -11    1    3    3    0    0  0.16867997163E+01  0.72142221646E+01 -0.30536474291E+00  0.74150888471E+01  0.51100000000E-03 0.  1.
        -12    1    3    3    0    0  0.14423970248E+02  0.27717244612E+02 -0.17001441802E+02  0.35571696473E+02  0.00000000000E+00 0.  1.
</event>
<event>
 7    1  0.4432754E-010  0.4778727E+02  0.7816164E-02  0.1312668E+00
        -11   -1    0    0    0    0  0.00000000000E+00  0.00000000000E+00  0.45593999997E+02  0.45594000000E+02  0.51100000000E-03 0.  1.
         11   -1    0    0    0    0 -0.00000000000E+00 -0.00000000000E+00 -0.45593999997E+02  0.45594000000E+02  0.51100000000E-03 0. -1.
    9900012    2    1    2    0    0  0.35701091833E+02  0.24301032083E+02 -0.43029446575E+01  0.47787269003E+02  0.19999990692E+02 0.  0.
        -12    1    1    2    0    0 -0.35701091833E+02 -0.24301032083E+02  0.43029446575E+01  0.43400730997E+02  0.00000000000E+00 0.  1.
         11    1    3    3    0    0  0.32429958326E+01 -0.87217193684E+00 -0.75068683188E-01  0.33590685355E+01  0.51100000000E-03 0. -1.
        -11    1    3    3    0    0  0.37388184001E+01  0.54083249197E+01  0.51202369385E+01  0.83334007484E+01  0.51100000000E-03 0.  1.
         12    1    3    3    0    0  0.28719277600E+02  0.19764879101E+02 -0.93481129128E+01  0.36094799719E+02  0.00000000000E+00 0. -1.
</event>
<event>
 7    1  0.4432754E-010  0.4778727E+02  0.7816164E-02  0.1312668E+00
        -11   -1    0    0    0    0  0.00000000000E+00  0.00000000000E+00  0.45593999997E+02  0.45594000000E+02  0.51100000000E-03 0. -1.
         11   -1    0    0    0    0 -0.00000000000E+00 -0.00000000000E+00 -0.45593999997E+02  0.45594000000E+02  0.51100000000E-03 0.  1.
    9900012    2    1    2    0    0  0.41637037791E+02  0.55095200909E+01  0.10937331798E+02  0.47787274724E+02  0.20000016778E+02 0.  0.
        -12    1    1    2    0    0 -0.41637037791E+02 -0.55095200909E+01 -0.10937331798E+02  0.43400725276E+02  0.00000000000E+00 0.  1.
         11    1    3    3    0    0  0.20242539753E+02  0.39702270823E+01  0.78883890603E+01  0.22085058319E+02  0.51100000000E-03 0. -1.
        -11    1    3    3    0    0  0.86379076342E+01  0.20820452635E+00  0.81703653076E+01  0.11891663758E+02  0.51100000000E-03 0.  1.
        -12    1    3    3    0    0  0.12756590403E+02  0.13310884822E+01 -0.51214225697E+01  0.13810552646E+02  0.00000000000E+00 0.  1.
</event>
<event>
 7    1  0.4432754E-010  0.4778727E+02  0.7816164E-02  0.1312668E+00
        -11   -1    0    0    0    0  0.00000000000E+00  0.00000000000E+00  0.45593999997E+02  0.45594000000E+02  0.51100000000E-03 0. -1.
         11   -1    0    0    0    0 -0.00000000000E+00 -0.00000000000E+00 -0.45593999997E+02  0.45594000000E+02  0.51100000000E-03 0.  1.
    9900012    2    1    2    0    0 -0.42541272729E+01 -0.12365544564E+02  0.41383800363E+02  0.47787271623E+02  0.20000002636E+02 0.  0.
        -12    1    1    2    0    0  0.42541272729E+01  0.12365544564E+02 -0.41383800363E+02  0.43400728377E+02  0.00000000000E+00 0.  1.
         11    1    3    3    0    0 -0.47675962418E+01  0.39470032450E+00  0.57009683998E+01  0.74422310652E+01  0.51100000000E-03 0. -1.
        -11    1    3    3    0    0 -0.56374156209E+01 -0.10252580214E+02  0.26890382155E+02  0.29325560670E+02  0.51100000000E-03 0.  1.
        -12    1    3    3    0    0  0.61508845898E+01 -0.25076646745E+01  0.87924498083E+01  0.11019479887E+02  0.00000000000E+00 0.  1.
</event>
<event>
 7    1  0.4432754E-010  0.4778727E+02  0.7816164E-02  0.1312668E+00
        -11   -1    0    0    0    0  0.00000000000E+00  0.00000000000E+00  0.45593999997E+02  0.45594000000E+02  0.51100000000E-03 0.  1.
         11   -1    0    0    0    0 -0.00000000000E+00 -0.00000000000E+00 -0.45593999997E+02  0.45594000000E+02  0.51100000000E-03 0. -1.
    9900012    2    1    2    0    0 -0.34245284165E+01 -0.12837054222E+02 -0.41317139998E+02  0.47787269435E+02  0.19999992662E+02 0.  0.
        -12    1    1    2    0    0  0.34245284165E+01  0.12837054222E+02  0.41317139998E+02  0.43400730565E+02  0.00000000000E+00 0.  1.
         11    1    3    3    0    0  0.25866915343E+01 -0.15771587154E+01 -0.27895812578E+01  0.41182722788E+01  0.51100000000E-03 0. -1.
        -11    1    3    3    0    0 -0.87790097605E+01 -0.28605995785E+00 -0.12402255097E+02  0.15197656873E+02  0.51100000000E-03 0.  1.
         12    1    3    3    0    0  0.27677898097E+01 -0.10973835549E+02 -0.26125303643E+02  0.28471340284E+02  0.00000000000E+00 0. -1.
</event>
<event>
 7    1  0.4432754E-010  0.4778727E+02  0.7816164E-02  0.1312668E+00
        -11   -1    0    0    0    0  0.00000000000E+00  0.00000000000E+00  0.45593999997E+02  0.45594000000E+02  0.51100000000E-03 0. -1.
         11   -1    0    0    0    0 -0.00000000000E+00 -0.00000000000E+00 -0.45593999997E+02  0.45594000000E+02  0.51100000000E-03 0.  1.
    9900012    2    1    2    0    0 -0.37831676738E+02 -0.17880561848E+01  0.21194110035E+02  0.47787271781E+02  0.20000003358E+02 0.  0.
        -12    1    1    2    0    0  0.37831676738E+02  0.17880561848E+01 -0.21194110035E+02  0.43400728219E+02  0.00000000000E+00 0.  1.
         11    1    3    3    0    0 -0.26716666623E+02 -0.46723311120E+01  0.19386713288E+02  0.33338500354E+02  0.51100000000E-03 0. -1.
        -11    1    3    3    0    0 -0.67093465757E+01 -0.10770818292E+01  0.42778190449E+01  0.80296433782E+01  0.51100000000E-03 0.  1.
        -12    1    3    3    0    0 -0.44056635396E+01  0.39613567564E+01 -0.24704222979E+01  0.64191280488E+01  0.00000000000E+00 0.  1.
</event>
<event>
 7    1  0.4432754E-010  0.4778727E+02  0.7816164E-02  0.1312668E+00
        -11   -1    0    0    0    0  0.00000000000E+00  0.00000000000E+00  0.45593999997E+02  0.45594000000E+02  0.51100000000E-03 0.  1.
         11   -1    0    0    0    0 -0.00000000000E+00 -0.00000000000E+00 -0.45593999997E+02  0.45594000000E+02  0.51100000000E-03 0. -1.
    9900012    2    1    2    0    0  0.91736183772E+01 -0.38348363188E+01 -0.42246446249E+02  0.47787268849E+02  0.19999989992E+02 0.  0.
        -12    1    1    2    0    0 -0.91736183772E+01  0.38348363188E+01  0.42246446249E+02  0.43400731151E+02  0.00000000000E+00 0.  1.
         11    1    3    3    0    0  0.71600163712E+01 -0.77816550374E+00 -0.69671188177E+01  0.10020584857E+02  0.51100000000E-03 0. -1.
        -11    1    3    3    0    0 -0.75875419838E-01  0.18116371154E+01  0.26255513086E+00  0.18321357960E+01  0.51100000000E-03 0.  1.
         12    1    3    3    0    0  0.20894774259E+01 -0.48683079304E+01 -0.35541882562E+02  0.35934548197E+02  0.00000000000E+00 0. -1.
</event>
<event>
 7    1  0.4432754E-010  0.4778727E+02  0.7816164E-02  0.1312668E+00
        -11   -1    0    0    0    0  0.00000000000E+00  0.00000000000E+00  0.45593999997E+02  0.45594000000E+02  0.51100000000E-03 0.  1.
         11   -1    0    0    0    0 -0.00000000000E+00 -0.00000000000E+00 -0.45593999997E+02  0.45594000000E+02  0.51100000000E-03 0. -1.
    9900012    2    1    2    0    0 -0.20197816470E+02 -0.27296914017E+02 -0.27028683330E+02  0.47787273882E+02  0.20000012938E+02 0.  0.
        -12    1    1    2    0    0  0.20197816470E+02  0.27296914017E+02  0.27028683330E+02  0.43400726118E+02  0.00000000000E+00 0.  1.
         11    1    3    3    0    0 -0.26072290830E+01 -0.39616287177E-01 -0.46398560820E+01  0.53223564015E+01  0.51100000000E-03 0. -1.
        -11    1    3    3    0    0 -0.12469900128E+02 -0.68162971397E+01 -0.47493301872E+01  0.14983873110E+02  0.51100000000E-03 0.  1.
         12    1    3    3    0    0 -0.51206872597E+01 -0.20441000590E+02 -0.17639497061E+02  0.27481044370E+02  0.00000000000E+00 0. -1.
</event>
<event>
 7    1  0.4432754E-010  0.4778727E+02  0.7816164E-02  0.1312668E+00
        -11   -1    0    0    0    0  0.00000000000E+00  0.00000000000E+00  0.45593999997E+02  0.45594000000E+02  0.51100000000E-03 0. -1.
         11   -1    0    0    0    0 -0.00000000000E+00 -0.00000000000E+00 -0.45593999997E+02  0.45594000000E+02  0.51100000000E-03 0.  1.
    9900012    2    1    2    0    0 -0.18475189610E+02  0.29062634550E+02  0.26413143876E+02  0.47787268122E+02  0.19999986675E+02 0.  0.
        -12    1    1    2    0    0  0.18475189610E+02 -0.29062634550E+02 -0.26413143876E+02  0.43400731878E+02  0.00000000000E+00 0.  1.
         11    1    3    3    0    0 -0.13040794934E+02  0.21656780171E+02  0.22511841761E+02  0.33850575765E+02  0.51100000000E-03 0. -1.
        -11    1    3    3    0    0  0.22196799258E+01  0.42221214446E+01  0.29105179850E+01  0.55878800693E+01  0.51100000000E-03 0.  1.
         12    1    3    3    0    0 -0.76540746024E+01  0.31837329343E+01  0.99078412965E+00  0.83488122873E+01  0.00000000000E+00 0. -1.
</event>
<event>
 7    1  0.4432754E-010  0.4778727E+02  0.7816164E-02  0.1312668E+00
        -11   -1    0    0    0    0  0.00000000000E+00  0.00000000000E+00  0.45593999997E+02  0.45594000000E+02  0.51100000000E-03 0. -1.
         11   -1    0    0    0    0 -0.00000000000E+00 -0.00000000000E+00 -0.45593999997E+02  0.45594000000E+02  0.51100000000E-03 0.  1.
    9900012    2    1    2    0    0 -0.17882197598E+02  0.57954708817E+01  0.39118577970E+02  0.47787267102E+02  0.19999982024E+02 0.  0.
        -12    1    1    2    0    0  0.17882197598E+02 -0.57954708817E+01 -0.39118577970E+02  0.43400732898E+02  0.00000000000E+00 0.  1.
         11    1    3    3    0    0 -0.73110185405E+01 -0.14074419923E+00  0.33886590670E+01  0.80593927540E+01  0.51100000000E-03 0.  1.
        -11    1    3    3    0    0 -0.87345352751E+01 -0.22016548110E+01  0.19465673502E+02  0.21448818977E+02  0.51100000000E-03 0. -1.
         12    1    3    3    0    0 -0.18366437823E+01  0.81378698919E+01  0.16264245402E+02  0.18279055371E+02  0.00000000000E+00 0. -1.
</event>
<event>
 7    1  0.4432754E-010  0.4778728E+02  0.7816164E-02  0.1312668E+00
        -11   -1    0    0    0    0  0.00000000000E+00  0.00000000000E+00  0.45593999997E+02  0.45594000000E+02  0.51100000000E-03 0. -1.
         11   -1    0    0    0    0 -0.00000000000E+00 -0.00000000000E+00 -0.45593999997E+02  0.45594000000E+02  0.51100000000E-03 0.  1.
    9900012    2    1    2    0    0 -0.43120786981E+01  0.42634628718E+02 -0.68787494604E+01  0.47787276703E+02  0.20000025798E+02 0.  0.
        -12    1    1    2    0    0  0.43120786981E+01 -0.42634628718E+02  0.68787494604E+01  0.43400723297E+02  0.00000000000E+00 0.  1.
         11    1    3    3    0    0 -0.65171995795E+01  0.21596118938E+02 -0.70638881349E+01  0.23638205503E+02  0.51100000000E-03 0. -1.
        -11    1    3    3    0    0 -0.16118691874E+01  0.12690704082E+02 -0.48482230935E+01  0.13680546766E+02  0.51100000000E-03 0.  1.
        -12    1    3    3    0    0  0.38169900688E+01  0.83478056975E+01  0.50333617680E+01  0.10468524435E+02  0.00000000000E+00 0.  1.
</event>
<event>
 7    1  0.4432754E-010  0.4778727E+02  0.7816164E-02  0.1312668E+00
        -11   -1    0    0    0    0  0.00000000000E+00  0.00000000000E+00  0.45593999997E+02  0.45594000000E+02  0.51100000000E-03 0.  1.
         11   -1    0    0    0    0 -0.00000000000E+00 -0.00000000000E+00 -0.45593999997E+02  0.45594000000E+02  0.51100000000E-03 0. -1.
    9900012    2    1    2    0    0  0.22298354300E+02  0.32739290770E+02 -0.17735434638E+02  0.47787269518E+02  0.19999993040E+02 0.  0.
        -12    1    1    2    0    0 -0.22298354300E+02 -0.32739290770E+02  0.17735434638E+02  0.43400730482E+02  0.00000000000E+00 0.  1.
         11    1    3    3    0    0  0.10300095756E+02  0.52957797612E+01 -0.48898820289E+01  0.12571722332E+02  0.51100000000E-03 0. -1.
        -11    1    3    3    0    0  0.10865980475E+02  0.14180431326E+02 -0.18692443438E+01  0.17962411836E+02  0.51100000000E-03 0.  1.
         12    1    3    3    0    0  0.11322780688E+01  0.13263079682E+02 -0.10976308266E+02  0.17253135350E+02  0.00000000000E+00 0. -1.
</event>
<event>
 7    1  0.4432754E-010  0.4778727E+02  0.7816164E-02  0.1312668E+00
        -11   -1    0    0    0    0  0.00000000000E+00  0.00000000000E+00  0.45593999997E+02  0.45594000000E+02  0.51100000000E-03 0. -1.
         11   -1    0    0    0    0 -0.00000000000E+00 -0.00000000000E+00 -0.45593999997E+02  0.45594000000E+02  0.51100000000E-03 0.  1.
    9900012    2    1    2    0    0 -0.79493732549E+01 -0.38548312474E+02  0.18288204523E+02  0.47787270117E+02  0.19999995769E+02 0.  0.
        -12    1    1    2    0    0  0.79493732549E+01  0.38548312474E+02 -0.18288204523E+02  0.43400729883E+02  0.00000000000E+00 0.  1.
         11    1    3    3    0    0  0.88097166621E+00 -0.18771179610E+02  0.73762363081E+01  0.20187673401E+02  0.51100000000E-03 0. -1.
        -11    1    3    3    0    0 -0.37387860041E+01 -0.11480010028E+02 -0.11169738602E+01  0.12125047707E+02  0.51100000000E-03 0.  1.
         12    1    3    3    0    0 -0.50915589170E+01 -0.82971228361E+01  0.12028942076E+02  0.15474549009E+02  0.00000000000E+00 0. -1.
</event>
<event>
 7    1  0.4432754E-010  0.4778727E+02  0.7816164E-02  0.1312668E+00
        -11   -1    0    0    0    0  0.00000000000E+00  0.00000000000E+00  0.45593999997E+02  0.45594000000E+02  0.51100000000E-03 0.  1.
         11   -1    0    0    0    0 -0.00000000000E+00 -0.00000000000E+00 -0.45593999997E+02  0.45594000000E+02  0.51100000000E-03 0. -1.
    9900012    2    1    2    0    0 -0.36304380179E+01  0.38111812275E+02 -0.20443407936E+02  0.47787271399E+02  0.20000001614E+02 0.  0.
        -12    1    1    2    0    0  0.36304380179E+01 -0.38111812275E+02  0.20443407936E+02  0.43400728601E+02  0.00000000000E+00 0.  1.
         11    1    3    3    0    0  0.30937070164E+01  0.10165855019E+02 -0.88163305461E+01  0.13807364554E+02  0.51100000000E-03 0. -1.
        -11    1    3    3    0    0  0.74063930233E+00  0.22909311225E+02 -0.85357396216E+01  0.24459025707E+02  0.51100000000E-03 0.  1.
        -12    1    3    3    0    0 -0.74647843366E+01  0.50366460312E+01 -0.30913377678E+01  0.95208811373E+01  0.00000000000E+00 0.  1.
</event>
<event>
 7    1  0.4432754E-010  0.4778727E+02  0.7816164E-02  0.1312668E+00
        -11   -1    0    0    0    0  0.00000000000E+00  0.00000000000E+00  0.45593999997E+02  0.45594000000E+02  0.51100000000E-03 0.  1.
         11   -1    0    0    0    0 -0.00000000000E+00 -0.00000000000E+00 -0.45593999997E+02  0.45594000000E+02  0.51100000000E-03 0. -1.
    9900012    2    1    2    0    0 -0.11159908532E+02  0.27952499860E+02 -0.31268793271E+02  0.47787271440E+02  0.20000001806E+02 0.  0.
        -12    1    1    2    0    0  0.11159908532E+02 -0.27952499860E+02  0.31268793271E+02  0.43400728560E+02  0.00000000000E+00 0.  1.
         11    1    3    3    0    0 -0.91839732767E+00  0.61246610564E+01 -0.38303201288E+01  0.72819145324E+01  0.51100000000E-03 0. -1.
        -11    1    3    3    0    0 -0.88989541468E+00 -0.12343232149E+01  0.16363068748E+01  0.22344950431E+01  0.51100000000E-03 0.  1.
        -12    1    3    3    0    0 -0.93516157895E+01  0.23062162019E+02 -0.29074780017E+02  0.38270861865E+02  0.00000000000E+00 0.  1.
</event>
<event>
 7    1  0.4432754E-010  0.4778727E+02  0.7816164E-02  0.1312668E+00
        -11   -1    0    0    0    0  0.00000000000E+00  0.00000000000E+00  0.45593999997E+02  0.45594000000E+02  0.51100000000E-03 0.  1.
         11   -1    0    0    0    0 -0.00000000000E+00 -0.00000000000E+00 -0.45593999997E+02  0.45594000000E+02  0.51100000000E-03 0. -1.
    9900012    2    1    2    0    0 -0.21703462289E+02 -0.24930285684E+02 -0.28125859493E+02  0.47787269685E+02  0.19999993803E+02 0.  0.
        -12    1    1    2    0    0  0.21703462289E+02  0.24930285684E+02  0.28125859493E+02  0.43400730315E+02  0.00000000000E+00 0.  1.
         11    1    3    3    0    0  0.40772708825E+00  0.10281014909E+01 -0.32092306761E+01  0.33944654730E+01  0.51100000000E-03 0. -1.
        -11    1    3    3    0    0 -0.12431929386E+02 -0.50267496685E+01 -0.66191407661E+01  0.14954400865E+02  0.51100000000E-03 0.  1.
         12    1    3    3    0    0 -0.96792599918E+01 -0.20931637506E+02 -0.18297488051E+02  0.29438403348E+02  0.00000000000E+00 0. -1.
</event>
<event>
 7    1  0.4432754E-010  0.4778727E+02  0.7816164E-02  0.1312668E+00
        -11   -1    0    0    0    0  0.00000000000E+00  0.00000000000E+00  0.45593999997E+02  0.45594000000E+02  0.51100000000E-03 0.  1.
         11   -1    0    0    0    0 -0.00000000000E+00 -0.00000000000E+00 -0.45593999997E+02  0.45594000000E+02  0.51100000000E-03 0. -1.
    9900012    2    1    2    0    0  0.43053383767E+02 -0.55244772817E+00 -0.54519764053E+01  0.47787273059E+02  0.20000009186E+02 0.  0.
        -12    1    1    2    0    0 -0.43053383767E+02  0.55244772817E+00  0.54519764053E+01  0.43400726941E+02  0.00000000000E+00 0.  1.
         11    1    3    3    0    0  0.54347371210E+01  0.23611508268E+01  0.10262091003E+01  0.60136932229E+01  0.51100000000E-03 0. -1.
        -11    1    3    3    0    0  0.10463156816E+02 -0.59170657882E+00  0.56912412556E+01  0.11925518627E+02  0.51100000000E-03 0.  1.
         12    1    3    3    0    0  0.27155489830E+02 -0.23218919761E+01 -0.12169426761E+02  0.29848061210E+02  0.00000000000E+00 0. -1.
</event>
<event>
 7    1  0.4432754E-010  0.4778726E+02  0.7816164E-02  0.1312668E+00
        -11   -1    0    0    0    0  0.00000000000E+00  0.00000000000E+00  0.45593999997E+02  0.45594000000E+02  0.51100000000E-03 0. -1.
         11   -1    0    0    0    0 -0.00000000000E+00 -0.00000000000E+00 -0.45593999997E+02  0.45594000000E+02  0.51100000000E-03 0.  1.
    9900012    2    1    2    0    0  0.29766965089E+01  0.42932805877E+02  0.56158391259E+01  0.47787260471E+02  0.19999951791E+02 0.  0.
        -12    1    1    2    0    0 -0.29766965089E+01 -0.42932805877E+02 -0.56158391259E+01  0.43400739529E+02  0.00000000000E+00 0.  1.
         11    1    3    3    0    0 -0.14899566556E+01  0.25481377673E+01  0.62740521537E+01  0.69337369149E+01  0.51100000000E-03 0. -1.
        -11    1    3    3    0    0 -0.41563366084E-01  0.78896426307E+01  0.12669312264E+01  0.79908261993E+01  0.51100000000E-03 0.  1.
        -12    1    3    3    0    0  0.45082165306E+01  0.32495025479E+02 -0.19251442543E+01  0.32862697357E+02  0.00000000000E+00 0.  1.
</event>
<event>
 7    1  0.4432754E-010  0.4778727E+02  0.7816164E-02  0.1312668E+00
        -11   -1    0    0    0    0  0.00000000000E+00  0.00000000000E+00  0.45593999997E+02  0.45594000000E+02  0.51100000000E-03 0.  1.
         11   -1    0    0    0    0 -0.00000000000E+00 -0.00000000000E+00 -0.45593999997E+02  0.45594000000E+02  0.51100000000E-03 0. -1.
    9900012    2    1    2    0    0  0.26624268233E+02 -0.24385942915E+02 -0.24085209775E+02  0.47787271887E+02  0.20000003843E+02 0.  0.
        -12    1    1    2    0    0 -0.26624268233E+02  0.24385942915E+02  0.24085209775E+02  0.43400728113E+02  0.00000000000E+00 0.  1.
         11    1    3    3    0    0  0.90186937946E+01 -0.17223276906E+02 -0.13966753687E+02  0.23938427558E+02  0.51100000000E-03 0. -1.
        -11    1    3    3    0    0  0.23003221649E+01 -0.25167598413E+01 -0.66634041882E+01  0.74850863588E+01  0.51100000000E-03 0.  1.
        -12    1    3    3    0    0  0.15305252274E+02 -0.46459061679E+01 -0.34550518993E+01  0.16363757970E+02  0.00000000000E+00 0.  1.
</event>
<event>
 7    1  0.4432754E-010  0.4778727E+02  0.7816164E-02  0.1312668E+00
        -11   -1    0    0    0    0  0.00000000000E+00  0.00000000000E+00  0.45593999997E+02  0.45594000000E+02  0.51100000000E-03 0.  1.
         11   -1    0    0    0    0 -0.00000000000E+00 -0.00000000000E+00 -0.45593999997E+02  0.45594000000E+02  0.51100000000E-03 0. -1.
    9900012    2    1    2    0    0 -0.39775102482E+02 -0.16611735522E+02  0.50610866820E+01  0.47787272668E+02  0.20000007404E+02 0.  0.
        -12    1    1    2    0    0  0.39775102482E+02  0.16611735522E+02 -0.50610866820E+01  0.43400727332E+02  0.00000000000E+00 0.  1.
         11    1    3    3    0    0 -0.76722073144E+01  0.85914011923E+00  0.11764583941E+01  0.78092855905E+01  0.51100000000E-03 0.  1.
        -11    1    3    3    0    0  0.10691789435E+01 -0.23849613503E+01 -0.16904053533E+01  0.31126604016E+01  0.51100000000E-03 0. -1.
         12    1    3    3    0    0 -0.33172074111E+02 -0.15085914291E+02  0.55750336412E+01  0.36865326676E+02  0.00000000000E+00 0. -1.
</event>
<event>
 7    1  0.4432754E-010  0.4778727E+02  0.7816164E-02  0.1312668E+00
        -11   -1    0    0    0    0  0.00000000000E+00  0.00000000000E+00  0.45593999997E+02  0.45594000000E+02  0.51100000000E-03 0.  1.
         11   -1    0    0    0    0 -0.00000000000E+00 -0.00000000000E+00 -0.45593999997E+02  0.45594000000E+02  0.51100000000E-03 0. -1.
    9900012    2    1    2    0    0 -0.33353038927E+02  0.10933768943E+02  0.25527449512E+02  0.47787272039E+02  0.20000004536E+02 0.  0.
        -12    1    1    2    0    0  0.33353038927E+02 -0.10933768943E+02 -0.25527449512E+02  0.43400727961E+02  0.00000000000E+00 0.  1.
         11    1    3    3    0    0 -0.33441458368E+02  0.88717031130E+01  0.21066429413E+02  0.40507193217E+02  0.51100000000E-03 0. -1.
        -11    1    3    3    0    0 -0.16161034834E+01  0.30703430167E+01  0.39035760771E+01  0.52227103270E+01  0.51100000000E-03 0.  1.
         12    1    3    3    0    0  0.17045229244E+01 -0.10082771871E+01  0.55744402224E+00  0.20573684949E+01  0.00000000000E+00 0. -1.
</event>
<event>
 7    1  0.4432754E-010  0.4778727E+02  0.7816164E-02  0.1312668E+00
        -11   -1    0    0    0    0  0.00000000000E+00  0.00000000000E+00  0.45593999997E+02  0.45594000000E+02  0.51100000000E-03 0.  1.
         11   -1    0    0    0    0 -0.00000000000E+00 -0.00000000000E+00 -0.45593999997E+02  0.45594000000E+02  0.51100000000E-03 0. -1.
    9900012    2    1    2    0    0 -0.42968471151E+02  0.25086545545E+01 -0.55714203872E+01  0.47787267450E+02  0.19999983610E+02 0.  0.
        -12    1    1    2    0    0  0.42968471151E+02 -0.25086545545E+01  0.55714203872E+01  0.43400732550E+02  0.00000000000E+00 0.  1.
         11    1    3    3    0    0 -0.59410804526E+01 -0.84209704414E+00 -0.37638679801E+01  0.70832384408E+01  0.51100000000E-03 0. -1.
        -11    1    3    3    0    0 -0.38370769761E+02  0.42959809893E+01 -0.29190730328E+01  0.38720697467E+02  0.51100000000E-03 0.  1.
        -12    1    3    3    0    0  0.13433790618E+01 -0.94522939068E+00  0.11115206257E+01  0.19833315422E+01  0.00000000000E+00 0.  1.
</event>
<event>
 7    1  0.4432754E-010  0.4778727E+02  0.7816164E-02  0.1312668E+00
        -11   -1    0    0    0    0  0.00000000000E+00  0.00000000000E+00  0.45593999997E+02  0.45594000000E+02  0.51100000000E-03 0.  1.
         11   -1    0    0    0    0 -0.00000000000E+00 -0.00000000000E+00 -0.45593999997E+02  0.45594000000E+02  0.51100000000E-03 0. -1.
    9900012    2    1    2    0    0 -0.53907461098E+01  0.29859144350E+01 -0.42961000477E+02  0.47787269700E+02  0.19999993869E+02 0.  0.
        -12    1    1    2    0    0  0.53907461098E+01 -0.29859144350E+01  0.42961000477E+02  0.43400730300E+02  0.00000000000E+00 0.  1.
         11    1    3    3    0    0 -0.33226861396E+01  0.17104164481E+01 -0.26817769005E+02  0.27076899791E+02  0.51100000000E-03 0. -1.
        -11    1    3    3    0    0 -0.55439141002E+01  0.51114335876E+01 -0.11528026034E+02  0.13775235801E+02  0.51100000000E-03 0.  1.
        -12    1    3    3    0    0  0.34758541300E+01 -0.38359356007E+01 -0.46152054374E+01  0.69351341080E+01  0.00000000000E+00 0.  1.
</event>
<event>
 7    1  0.4432754E-010  0.4778727E+02  0.7816164E-02  0.1312668E+00
        -11   -1    0    0    0    0  0.00000000000E+00  0.00000000000E+00  0.45593999997E+02  0.45594000000E+02  0.51100000000E-03 0.  1.
         11   -1    0    0    0    0 -0.00000000000E+00 -0.00000000000E+00 -0.45593999997E+02  0.45594000000E+02  0.51100000000E-03 0. -1.
    9900012    2    1    2    0    0 -0.38645611439E+02  0.19742620105E+02  0.60731581519E+00  0.47787272303E+02  0.20000005739E+02 0.  0.
        -12    1    1    2    0    0  0.38645611439E+02 -0.19742620105E+02 -0.60731581519E+00  0.43400727697E+02  0.00000000000E+00 0.  1.
         11    1    3    3    0    0 -0.36520930794E+01 -0.12936989875E+01 -0.26560294029E+01  0.46974390237E+01  0.51100000000E-03 0. -1.
        -11    1    3    3    0    0 -0.13748408492E+02  0.10560422565E+01  0.55866384102E+00  0.13800219812E+02  0.51100000000E-03 0.  1.
        -12    1    3    3    0    0 -0.21245109868E+02  0.19980276836E+02  0.27046813771E+01  0.29289613467E+02  0.00000000000E+00 0.  1.
</event>
<event>
 7    1  0.4432754E-010  0.4778727E+02  0.7816164E-02  0.1312668E+00
        -11   -1    0    0    0    0  0.00000000000E+00  0.00000000000E+00  0.45593999997E+02  0.45594000000E+02  0.51100000000E-03 0. -1.
         11   -1    0    0    0    0 -0.00000000000E+00 -0.00000000000E+00 -0.45593999997E+02  0.45594000000E+02  0.51100000000E-03 0.  1.
    9900012    2    1    2    0    0  0.19890873106E+01  0.31368638707E+02  0.29927833972E+02  0.47787271792E+02  0.20000003410E+02 0.  0.
        -12    1    1    2    0    0 -0.19890873106E+01 -0.31368638707E+02 -0.29927833972E+02  0.43400728208E+02  0.00000000000E+00 0.  1.
         11    1    3    3    0    0 -0.40838431701E+01  0.90918034748E+01  0.14354040763E+02  0.17475043690E+02  0.51100000000E-03 0. -1.
        -11    1    3    3    0    0  0.25477849784E-01 -0.14832218999E+01  0.10220073624E+01  0.18014148981E+01  0.51100000000E-03 0.  1.
         12    1    3    3    0    0  0.60474526309E+01  0.23760057133E+02  0.14551785846E+02  0.28510813204E+02  0.00000000000E+00 0. -1.
</event>
<event>
 7    1  0.4432754E-010  0.4778726E+02  0.7816164E-02  0.1312668E+00
        -11   -1    0    0    0    0  0.00000000000E+00  0.00000000000E+00  0.45593999997E+02  0.45594000000E+02  0.51100000000E-03 0. -1.
         11   -1    0    0    0    0 -0.00000000000E+00 -0.00000000000E+00 -0.45593999997E+02  0.45594000000E+02  0.51100000000E-03 0.  1.
    9900012    2    1    2    0    0  0.29965578033E+02  0.14242706856E+02  0.27979162845E+02  0.47787261309E+02  0.19999955611E+02 0.  0.
        -12    1    1    2    0    0 -0.29965578033E+02 -0.14242706856E+02 -0.27979162845E+02  0.43400738691E+02  0.00000000000E+00 0.  1.
         11    1    3    3    0    0  0.15480578408E+02  0.10803048976E+01  0.13915674281E+02  0.20843736648E+02  0.51100000000E-03 0. -1.
        -11    1    3    3    0    0  0.51546035625E+01  0.87609273777E+00 -0.10652342196E+01  0.53359348362E+01  0.51100000000E-03 0.  1.
        -12    1    3    3    0    0  0.93303960631E+01  0.12286309221E+02  0.15128722783E+02  0.21607589824E+02  0.00000000000E+00 0.  1.
</event>
<event>
 7    1  0.4432754E-010  0.4778727E+02  0.7816164E-02  0.1312668E+00
        -11   -1    0    0    0    0  0.00000000000E+00  0.00000000000E+00  0.45593999997E+02  0.45594000000E+02  0.51100000000E-03 0.  1.
         11   -1    0    0    0    0 -0.00000000000E+00 -0.00000000000E+00 -0.45593999997E+02  0.45594000000E+02  0.51100000000E-03 0. -1.
    9900012    2    1    2    0    0 -0.25771225048E+02  0.27926922992E+02 -0.20965541467E+02  0.47787274231E+02  0.20000014530E+02 0.  0.
        -12    1    1    2    0    0  0.25771225048E+02 -0.27926922992E+02  0.20965541467E+02  0.43400725769E+02  0.00000000000E+00 0.  1.
         11    1    3    3    0    0 -0.60796638875E+00  0.16711335825E+01  0.16061323526E+01  0.23962412182E+01  0.51100000000E-03 0. -1.
        -11    1    3    3    0    0  0.56065786697E+00 -0.33819492692E-01 -0.42722490982E+01  0.43090130680E+01  0.51100000000E-03 0.  1.
         12    1    3    3    0    0 -0.25723916526E+02  0.26289608902E+02 -0.18299424721E+02  0.41082019945E+02  0.00000000000E+00 0. -1.
</event>
<event>
 7    1  0.4432754E-010  0.4778727E+02  0.7816164E-02  0.1312668E+00
        -11   -1    0    0    0    0  0.00000000000E+00  0.00000000000E+00  0.45593999997E+02  0.45594000000E+02  0.51100000000E-03 0. -1.
         11   -1    0    0    0    0 -0.00000000000E+00 -0.00000000000E+00 -0.45593999997E+02  0.45594000000E+02  0.51100000000E-03 0.  1.
    9900012    2    1    2    0    0 -0.36204716668E+02  0.21328147870E+02 -0.10860552271E+02  0.47787274243E+02  0.20000014584E+02 0.  0.
        -12    1    1    2    0    0  0.36204716668E+02 -0.21328147870E+02  0.10860552271E+02  0.43400725757E+02  0.00000000000E+00 0.  1.
         11    1    3    3    0    0 -0.76565097911E+01  0.66692143649E+01  0.21496300117E+01  0.10378895504E+02  0.51100000000E-03 0. -1.
        -11    1    3    3    0    0 -0.17628819375E+01 -0.15749410410E+01  0.15929378230E+01  0.28505513813E+01  0.51100000000E-03 0.  1.
         12    1    3    3    0    0 -0.26785324939E+02  0.16233874547E+02 -0.14603120106E+02  0.34557827358E+02  0.00000000000E+00 0. -1.
</event>
<event>
 7    1  0.4432754E-010  0.4778727E+02  0.7816164E-02  0.1312668E+00
        -11   -1    0    0    0    0  0.00000000000E+00  0.00000000000E+00  0.45593999997E+02  0.45594000000E+02  0.51100000000E-03 0.  1.
         11   -1    0    0    0    0 -0.00000000000E+00 -0.00000000000E+00 -0.45593999997E+02  0.45594000000E+02  0.51100000000E-03 0. -1.
    9900012    2    1    2    0    0 -0.25039013637E+02 -0.31986630165E+02 -0.15281569873E+02  0.47787273151E+02  0.20000009606E+02 0.  0.
        -12    1    1    2    0    0  0.25039013637E+02  0.31986630165E+02  0.15281569873E+02  0.43400726849E+02  0.00000000000E+00 0.  1.
         11    1    3    3    0    0 -0.14552683071E+02 -0.16420821895E+02 -0.17461032469E+02  0.28041248749E+02  0.51100000000E-03 0. -1.
        -11    1    3    3    0    0 -0.54647527982E+00  0.28240720724E+00  0.77009544019E+00  0.98561468652E+00  0.51100000000E-03 0.  1.
        -12    1    3    3    0    0 -0.99398552862E+01 -0.15848215477E+02  0.14093671560E+01  0.18760409716E+02  0.00000000000E+00 0.  1.
</event>
<event>
 7    1  0.4432754E-010  0.4778727E+02  0.7816164E-02  0.1312668E+00
        -11   -1    0    0    0    0  0.00000000000E+00  0.00000000000E+00  0.45593999997E+02  0.45594000000E+02  0.51100000000E-03 0.  1.
         11   -1    0    0    0    0 -0.00000000000E+00 -0.00000000000E+00 -0.45593999997E+02  0.45594000000E+02  0.51100000000E-03 0. -1.
    9900012    2    1    2    0    0  0.12568503146E+02 -0.27713779960E+02 -0.30945148430E+02  0.47787273251E+02  0.20000010059E+02 0.  0.
        -12    1    1    2    0    0 -0.12568503146E+02  0.27713779960E+02  0.30945148430E+02  0.43400726749E+02  0.00000000000E+00 0.  1.
         11    1    3    3    0    0  0.10478153187E+02 -0.18270727642E+02 -0.12722316824E+02  0.24606270104E+02  0.51100000000E-03 0. -1.
        -11    1    3    3    0    0  0.41225181913E+01 -0.76403772043E+01 -0.57437331836E+01  0.10409658554E+02  0.51100000000E-03 0.  1.
         12    1    3    3    0    0 -0.20321682324E+01 -0.18026751141E+01 -0.12479098422E+02  0.12771344593E+02  0.00000000000E+00 0. -1.
</event>
<event>
 7    1  0.4432754E-010  0.4778727E+02  0.7816164E-02  0.1312668E+00
        -11   -1    0    0    0    0  0.00000000000E+00  0.00000000000E+00  0.45593999997E+02  0.45594000000E+02  0.51100000000E-03 0.  1.
         11   -1    0    0    0    0 -0.00000000000E+00 -0.00000000000E+00 -0.45593999997E+02  0.45594000000E+02  0.51100000000E-03 0. -1.
    9900012    2    1    2    0    0 -0.17502789355E+02 -0.10771815921E+01 -0.39700321276E+02  0.47787268845E+02  0.19999989971E+02 0.  0.
        -12    1    1    2    0    0  0.17502789355E+02  0.10771815921E+01  0.39700321276E+02  0.43400731155E+02  0.00000000000E+00 0.  1.
         11    1    3    3    0    0 -0.54873464411E+00 -0.14748297241E+01 -0.54874098688E+01  0.57085812382E+01  0.51100000000E-03 0. -1.
        -11    1    3    3    0    0 -0.26908634190E+00 -0.59851767162E+01 -0.48488879186E+01  0.77075587635E+01  0.51100000000E-03 0.  1.
         12    1    3    3    0    0 -0.16684968369E+02  0.63828248483E+01 -0.29364023489E+02  0.34371128843E+02  0.00000000000E+00 0. -1.
</event>
<event>
 7    1  0.4432754E-010  0.4778727E+02  0.7816164E-02  0.1312668E+00
        -11   -1    0    0    0    0  0.00000000000E+00  0.00000000000E+00  0.45593999997E+02  0.45594000000E+02  0.51100000000E-03 0. -1.
         11   -1    0    0    0    0 -0.00000000000E+00 -0.00000000000E+00 -0.45593999997E+02  0.45594000000E+02  0.51100000000E-03 0.  1.
    9900012    2    1    2    0    0  0.97854115779E+01  0.24735530704E+02  0.34293183662E+02  0.47787271843E+02  0.20000003639E+02 0.  0.
        -12    1    1    2    0    0 -0.97854115779E+01 -0.24735530704E+02 -0.34293183662E+02  0.43400728157E+02  0.00000000000E+00 0.  1.
         11    1    3    3    0    0 -0.13345952598E+01  0.17475692220E+02  0.10323831657E+02  0.20341151969E+02  0.51100000000E-03 0. -1.
        -11    1    3    3    0    0  0.51555237484E+01  0.42897292663E+01  0.11944678698E+02  0.13698779207E+02  0.51100000000E-03 0.  1.
        -12    1    3    3    0    0  0.59644830892E+01  0.29701092176E+01  0.12024673306E+02  0.13747340666E+02  0.00000000000E+00 0.  1.
</event>
<event>
 7    1  0.4432754E-010  0.4778727E+02  0.7816164E-02  0.1312668E+00
        -11   -1    0    0    0    0  0.00000000000E+00  0.00000000000E+00  0.45593999997E+02  0.45594000000E+02  0.51100000000E-03 0.  1.
         11   -1    0    0    0    0 -0.00000000000E+00 -0.00000000000E+00 -0.45593999997E+02  0.45594000000E+02  0.51100000000E-03 0. -1.
    9900012    2    1    2    0    0 -0.29321797539E+02 -0.26698765593E+02 -0.17636082061E+02  0.47787270910E+02  0.19999999385E+02 0.  0.
        -12    1    1    2    0    0  0.29321797539E+02  0.26698765593E+02  0.17636082061E+02  0.43400729090E+02  0.00000000000E+00 0.  1.
         11    1    3    3    0    0 -0.13800437665E+02 -0.15940018525E+02 -0.18149920878E+01  0.21162005266E+02  0.51100000000E-03 0. -1.
        -11    1    3    3    0    0 -0.27651006929E+00 -0.11409699209E+00  0.13096220719E+01  0.13433488655E+01  0.51100000000E-03 0.  1.
         12    1    3    3    0    0 -0.15244849805E+02 -0.10644650075E+02 -0.17130712045E+02  0.25281916778E+02  0.00000000000E+00 0. -1.
</event>
<event>
 7    1  0.4432754E-010  0.4778726E+02  0.7816164E-02  0.1312668E+00
        -11   -1    0    0    0    0  0.00000000000E+00  0.00000000000E+00  0.45593999997E+02  0.45594000000E+02  0.51100000000E-03 0. -1.
         11   -1    0    0    0    0 -0.00000000000E+00 -0.00000000000E+00 -0.45593999997E+02  0.45594000000E+02  0.51100000000E-03 0.  1.
    9900012    2    1    2    0    0 -0.27556016141E+02 -0.86041012795E+01  0.32407704445E+02  0.47787263926E+02  0.19999967543E+02 0.  0.
        -12    1    1    2    0    0  0.27556016141E+02  0.86041012795E+01 -0.32407704445E+02  0.43400736074E+02  0.00000000000E+00 0.  1.
         11    1    3    3    0    0 -0.19495298680E+01 -0.24384239905E+00  0.26400676996E+01  0.32909092271E+01  0.51100000000E-03 0. -1.
        -11    1    3    3    0    0 -0.17464638491E+02  0.43226097524E+01  0.16739849752E+02  0.24574806666E+02  0.51100000000E-03 0.  1.
         12    1    3    3    0    0 -0.81418477820E+01 -0.12682868633E+02  0.13027786994E+02  0.19921548033E+02  0.00000000000E+00 0. -1.
</event>
<event>
 7    1  0.4432754E-010  0.4778727E+02  0.7816164E-02  0.1312668E+00
        -11   -1    0    0    0    0  0.00000000000E+00  0.00000000000E+00  0.45593999997E+02  0.45594000000E+02  0.51100000000E-03 0.  1.
         11   -1    0    0    0    0 -0.00000000000E+00 -0.00000000000E+00 -0.45593999997E+02  0.45594000000E+02  0.51100000000E-03 0. -1.
    9900012    2    1    2    0    0 -0.39335317374E+02  0.18276550379E+02 -0.15244195749E+01  0.47787270263E+02  0.19999996436E+02 0.  0.
        -12    1    1    2    0    0  0.39335317374E+02 -0.18276550379E+02  0.15244195749E+01  0.43400729737E+02  0.00000000000E+00 0.  1.
         11    1    3    3    0    0 -0.15719558866E+02  0.67387603605E+00 -0.36812556004E+01  0.16158907231E+02  0.51100000000E-03 0. -1.
        -11    1    3    3    0    0 -0.82184724867E+01  0.52217133754E+01  0.60877387924E+01  0.11483472665E+02  0.51100000000E-03 0.  1.
         12    1    3    3    0    0 -0.15397286021E+02  0.12380960967E+02 -0.39309027669E+01  0.20144890366E+02  0.00000000000E+00 0. -1.
</event>
<event>
 7    1  0.4432754E-010  0.4778725E+02  0.7816164E-02  0.1312668E+00
        -11   -1    0    0    0    0  0.00000000000E+00  0.00000000000E+00  0.45593999997E+02  0.45594000000E+02  0.51100000000E-03 0. -1.
         11   -1    0    0    0    0 -0.00000000000E+00 -0.00000000000E+00 -0.45593999997E+02  0.45594000000E+02  0.51100000000E-03 0.  1.
    9900012    2    1    2    0    0 -0.19568243769E+02 -0.38492067577E+02 -0.43668405284E+01  0.47787254306E+02  0.19999923684E+02 0.  0.
        -12    1    1    2    0    0  0.19568243769E+02  0.38492067577E+02  0.43668405284E+01  0.43400745694E+02  0.00000000000E+00 0.  1.
         11    1    3    3    0    0 -0.47519055468E+01 -0.17354220909E+02 -0.50795455969E+01  0.18696293039E+02  0.51100000000E-03 0. -1.
        -11    1    3    3    0    0 -0.12506271074E+02 -0.10099822450E+02 -0.44623181128E+01  0.16683090628E+02  0.51100000000E-03 0.  1.
        -12    1    3    3    0    0 -0.23100671487E+01 -0.11038024218E+02  0.51750231812E+01  0.12407870639E+02  0.00000000000E+00 0.  1.
</event>
<event>
 7    1  0.4432754E-010  0.4778727E+02  0.7816164E-02  0.1312668E+00
        -11   -1    0    0    0    0  0.00000000000E+00  0.00000000000E+00  0.45593999997E+02  0.45594000000E+02  0.51100000000E-03 0.  1.
         11   -1    0    0    0    0 -0.00000000000E+00 -0.00000000000E+00 -0.45593999997E+02  0.45594000000E+02  0.51100000000E-03 0. -1.
    9900012    2    1    2    0    0 -0.42287927310E+02  0.91313885571E+01  0.34601053017E+01  0.47787269800E+02  0.19999994327E+02 0.  0.
        -12    1    1    2    0    0  0.42287927310E+02 -0.91313885571E+01 -0.34601053017E+01  0.43400730200E+02  0.00000000000E+00 0.  1.
         11    1    3    3    0    0 -0.81827793341E+01  0.54990715044E+01  0.23554187401E+01  0.10136353523E+02  0.51100000000E-03 0. -1.
        -11    1    3    3    0    0 -0.82096553771E+01  0.78057735671E+01  0.14382153424E+01  0.11419150845E+02  0.51100000000E-03 0.  1.
        -12    1    3    3    0    0 -0.25895492599E+02 -0.41734565145E+01 -0.33352878084E+00  0.26231765432E+02  0.00000000000E+00 0.  1.
</event>
<event>
 7    1  0.4432754E-010  0.4778727E+02  0.7816164E-02  0.1312668E+00
        -11   -1    0    0    0    0  0.00000000000E+00  0.00000000000E+00  0.45593999997E+02  0.45594000000E+02  0.51100000000E-03 0. -1.
         11   -1    0    0    0    0 -0.00000000000E+00 -0.00000000000E+00 -0.45593999997E+02  0.45594000000E+02  0.51100000000E-03 0.  1.
    9900012    2    1    2    0    0 -0.26413336962E+02  0.25490785442E+02  0.23155536855E+02  0.47787269603E+02  0.19999993430E+02 0.  0.
        -12    1    1    2    0    0  0.26413336962E+02 -0.25490785442E+02 -0.23155536855E+02  0.43400730397E+02  0.00000000000E+00 0.  1.
         11    1    3    3    0    0 -0.16052638756E+01 -0.97480116381E+00  0.12828905378E+01  0.22744049359E+01  0.51100000000E-03 0.  1.
        -11    1    3    3    0    0 -0.30231585579E+01  0.12855714684E+02  0.27500863171E+01  0.13489694685E+02  0.51100000000E-03 0. -1.
         12    1    3    3    0    0 -0.21784914528E+02  0.13609871922E+02  0.19122560000E+02  0.32023169982E+02  0.00000000000E+00 0. -1.
</event>
<event>
 7    1  0.4432754E-010  0.4778726E+02  0.7816164E-02  0.1312668E+00
        -11   -1    0    0    0    0  0.00000000000E+00  0.00000000000E+00  0.45593999997E+02  0.45594000000E+02  0.51100000000E-03 0. -1.
         11   -1    0    0    0    0 -0.00000000000E+00 -0.00000000000E+00 -0.45593999997E+02  0.45594000000E+02  0.51100000000E-03 0.  1.
    9900012    2    1    2    0    0  0.10696160638E+02 -0.41074053831E+02  0.90630093889E+01  0.47787263950E+02  0.19999967655E+02 0.  0.
        -12    1    1    2    0    0 -0.10696160638E+02  0.41074053831E+02 -0.90630093889E+01  0.43400736050E+02  0.00000000000E+00 0.  1.
         11    1    3    3    0    0 -0.40377718531E+00 -0.57391665479E+01  0.23986867754E+01  0.62333592218E+01  0.51100000000E-03 0. -1.
        -11    1    3    3    0    0 -0.19815484753E+01  0.23125972832E+00 -0.18420258142E+01  0.27153406385E+01  0.51100000000E-03 0.  1.
         12    1    3    3    0    0  0.13081486299E+02 -0.35566147011E+02  0.85063484277E+01  0.38838564090E+02  0.00000000000E+00 0. -1.
</event>
<event>
 7    1  0.4432754E-010  0.4778727E+02  0.7816164E-02  0.1312668E+00
        -11   -1    0    0    0    0  0.00000000000E+00  0.00000000000E+00  0.45593999997E+02  0.45594000000E+02  0.51100000000E-03 0. -1.
         11   -1    0    0    0    0 -0.00000000000E+00 -0.00000000000E+00 -0.45593999997E+02  0.45594000000E+02  0.51100000000E-03 0.  1.
    9900012    2    1    2    0    0 -0.40624776070E+02  0.95120680490E+01  0.11948696734E+02  0.47787271631E+02  0.20000002675E+02 0.  0.
        -12    1    1    2    0    0  0.40624776070E+02 -0.95120680490E+01 -0.11948696734E+02  0.43400728369E+02  0.00000000000E+00 0.  1.
         11    1    3    3    0    0 -0.29775060821E+01  0.11717403387E+01  0.11741304845E+01  0.34083867952E+01  0.51100000000E-03 0. -1.
        -11    1    3    3    0    0 -0.15613885532E+02  0.49709947889E+01 -0.49309632393E+01  0.17111943470E+02  0.51100000000E-03 0.  1.
        -12    1    3    3    0    0 -0.22033384456E+02  0.33693329214E+01  0.15705529489E+02  0.27266941365E+02  0.00000000000E+00 0.  1.
</event>
<event>
 7    1  0.4432754E-010  0.4778726E+02  0.7816164E-02  0.1312668E+00
        -11   -1    0    0    0    0  0.00000000000E+00  0.00000000000E+00  0.45593999997E+02  0.45594000000E+02  0.51100000000E-03 0.  1.
         11   -1    0    0    0    0 -0.00000000000E+00 -0.00000000000E+00 -0.45593999997E+02  0.45594000000E+02  0.51100000000E-03 0. -1.
    9900012    2    1    2    0    0 -0.23391327310E+02 -0.34058725012E+02  0.13284312294E+02  0.47787263879E+02  0.19999967328E+02 0.  0.
        -12    1    1    2    0    0  0.23391327310E+02  0.34058725012E+02 -0.13284312294E+02  0.43400736121E+02  0.00000000000E+00 0.  1.
         11    1    3    3    0    0  0.11459009778E+01 -0.65767042396E+01  0.42960078765E+01  0.79386278186E+01  0.51100000000E-03 0. -1.
        -11    1    3    3    0    0 -0.39980641753E+01 -0.12511364621E+02  0.85307177971E+00  0.13162313381E+02  0.51100000000E-03 0.  1.
         12    1    3    3    0    0 -0.20539164112E+02 -0.14970656152E+02  0.81352326377E+01  0.26686322679E+02  0.00000000000E+00 0. -1.
</event>
<event>
 7    1  0.4432754E-010  0.4778726E+02  0.7816164E-02  0.1312668E+00
        -11   -1    0    0    0    0  0.00000000000E+00  0.00000000000E+00  0.45593999997E+02  0.45594000000E+02  0.51100000000E-03 0. -1.
         11   -1    0    0    0    0 -0.00000000000E+00 -0.00000000000E+00 -0.45593999997E+02  0.45594000000E+02  0.51100000000E-03 0.  1.
    9900012    2    1    2    0    0  0.35279264550E+01  0.10961955877E+02  0.41845108477E+02  0.47787264462E+02  0.19999969989E+02 0.  0.
        -12    1    1    2    0    0 -0.35279264550E+01 -0.10961955877E+02 -0.41845108477E+02  0.43400735538E+02  0.00000000000E+00 0.  1.
         11    1    3    3    0    0  0.53033097862E+01  0.38364385086E+01  0.53539763136E+01  0.84562649998E+01  0.51100000000E-03 0. -1.
        -11    1    3    3    0    0 -0.11749539269E+01  0.37298292750E+01  0.15283456960E+01  0.41985692776E+01  0.51100000000E-03 0.  1.
         12    1    3    3    0    0 -0.60042940438E+00  0.33956880936E+01  0.34962786468E+02  0.35132430185E+02  0.00000000000E+00 0. -1.
</event>
<event>
 7    1  0.4432754E-010  0.4778727E+02  0.7816164E-02  0.1312668E+00
        -11   -1    0    0    0    0  0.00000000000E+00  0.00000000000E+00  0.45593999997E+02  0.45594000000E+02  0.51100000000E-03 0. -1.
         11   -1    0    0    0    0 -0.00000000000E+00 -0.00000000000E+00 -0.45593999997E+02  0.45594000000E+02  0.51100000000E-03 0.  1.
    9900012    2    1    2    0    0  0.35367623246E+02  0.25126849852E+02  0.11815001207E+01  0.47787270742E+02  0.19999998622E+02 0.  0.
        -12    1    1    2    0    0 -0.35367623246E+02 -0.25126849852E+02 -0.11815001207E+01  0.43400729258E+02  0.00000000000E+00 0.  1.
         11    1    3    3    0    0  0.17859091920E+01 -0.20662862130E+01  0.17219949708E+00  0.27365422131E+01  0.51100000000E-03 0. -1.
        -11    1    3    3    0    0  0.12108215383E+02  0.93117928047E+01 -0.57157148548E+01  0.16309131233E+02  0.51100000000E-03 0.  1.
         12    1    3    3    0    0  0.21473498671E+02  0.17881343260E+02  0.67250154784E+01  0.28741597297E+02  0.00000000000E+00 0. -1.
</event>
<event>
 7    1  0.4432754E-010  0.4778727E+02  0.7816164E-02  0.1312668E+00
        -11   -1    0    0    0    0  0.00000000000E+00  0.00000000000E+00  0.45593999997E+02  0.45594000000E+02  0.51100000000E-03 0. -1.
         11   -1    0    0    0    0 -0.00000000000E+00 -0.00000000000E+00 -0.45593999997E+02  0.45594000000E+02  0.51100000000E-03 0.  1.
    9900012    2    1    2    0    0 -0.12582532074E+02  0.37470669995E+02  0.17923502800E+02  0.47787272173E+02  0.20000005146E+02 0.  0.
        -12    1    1    2    0    0  0.12582532074E+02 -0.37470669995E+02 -0.17923502800E+02  0.43400727827E+02  0.00000000000E+00 0.  1.
         11    1    3    3    0    0  0.58698845538E+00  0.63322629134E+01  0.21636507465E+01  0.67174023152E+01  0.51100000000E-03 0. -1.
        -11    1    3    3    0    0 -0.15680370595E+02  0.17221152966E+02  0.65518569589E+01  0.24194399380E+02  0.51100000000E-03 0.  1.
        -12    1    3    3    0    0  0.25108500663E+01  0.13917254116E+02  0.92079950947E+01  0.16875470478E+02  0.00000000000E+00 0.  1.
</event>
<event>
 7    1  0.4432754E-010  0.4778727E+02  0.7816164E-02  0.1312668E+00
        -11   -1    0    0    0    0  0.00000000000E+00  0.00000000000E+00  0.45593999997E+02  0.45594000000E+02  0.51100000000E-03 0.  1.
         11   -1    0    0    0    0 -0.00000000000E+00 -0.00000000000E+00 -0.45593999997E+02  0.45594000000E+02  0.51100000000E-03 0. -1.
    9900012    2    1    2    0    0 -0.26764955033E+02 -0.29647309420E+02 -0.16979325317E+02  0.47787271182E+02  0.20000000626E+02 0.  0.
        -12    1    1    2    0    0  0.26764955033E+02  0.29647309420E+02  0.16979325317E+02  0.43400728818E+02  0.00000000000E+00 0.  1.
         11    1    3    3    0    0 -0.16226154083E+02 -0.11588064846E+02 -0.11879983034E+02  0.23210026289E+02  0.51100000000E-03 0. -1.
        -11    1    3    3    0    0 -0.40816058607E+00  0.11925152387E+01 -0.23274367007E+01  0.26468187538E+01  0.51100000000E-03 0.  1.
        -12    1    3    3    0    0 -0.10130640364E+02 -0.19251759813E+02 -0.27719055822E+01  0.21930426139E+02  0.00000000000E+00 0.  1.
</event>
<event>
 7    1  0.4432754E-010  0.4778727E+02  0.7816164E-02  0.1312668E+00
        -11   -1    0    0    0    0  0.00000000000E+00  0.00000000000E+00  0.45593999997E+02  0.45594000000E+02  0.51100000000E-03 0.  1.
         11   -1    0    0    0    0 -0.00000000000E+00 -0.00000000000E+00 -0.45593999997E+02  0.45594000000E+02  0.51100000000E-03 0. -1.
    9900012    2    1    2    0    0 -0.17524788059E+02 -0.24908051736E+02 -0.30920768193E+02  0.47787272547E+02  0.20000006851E+02 0.  0.
        -12    1    1    2    0    0  0.17524788059E+02  0.24908051736E+02  0.30920768193E+02  0.43400727453E+02  0.00000000000E+00 0.  1.
         11    1    3    3    0    0 -0.41056860194E+01 -0.15515075632E+02 -0.20068476457E+02  0.25696653034E+02  0.51100000000E-03 0.  1.
        -11    1    3    3    0    0 -0.42156712774E+01 -0.82762999979E+01 -0.83457743582E+01  0.12486832099E+02  0.51100000000E-03 0. -1.
        -12    1    3    3    0    0 -0.92034307626E+01 -0.11166761057E+01 -0.25065173776E+01  0.96037874139E+01  0.00000000000E+00 0.  1.
</event>
<event>
 7    1  0.4432754E-010  0.4778727E+02  0.7816164E-02  0.1312668E+00
        -11   -1    0    0    0    0  0.00000000000E+00  0.00000000000E+00  0.45593999997E+02  0.45594000000E+02  0.51100000000E-03 0.  1.
         11   -1    0    0    0    0 -0.00000000000E+00 -0.00000000000E+00 -0.45593999997E+02  0.45594000000E+02  0.51100000000E-03 0. -1.
    9900012    2    1    2    0    0 -0.28241068836E+02 -0.26001752064E+02 -0.20247812853E+02  0.47787274145E+02  0.20000014137E+02 0.  0.
        -12    1    1    2    0    0  0.28241068836E+02  0.26001752064E+02  0.20247812853E+02  0.43400725855E+02  0.00000000000E+00 0.  1.
         11    1    3    3    0    0  0.50905589906E+00 -0.30544862167E+01 -0.18708075407E+01  0.36178647117E+01  0.51100000000E-03 0.  1.
        -11    1    3    3    0    0 -0.31206055678E+01 -0.34924760281E+01  0.29786016492E+01  0.55504626801E+01  0.51100000000E-03 0. -1.
         12    1    3    3    0    0 -0.25629519167E+02 -0.19454789819E+02 -0.21355606962E+02  0.38618946753E+02  0.00000000000E+00 0. -1.
</event>
<event>
 7    1  0.4432754E-010  0.4778727E+02  0.7816164E-02  0.1312668E+00
        -11   -1    0    0    0    0  0.00000000000E+00  0.00000000000E+00  0.45593999997E+02  0.45594000000E+02  0.51100000000E-03 0.  1.
         11   -1    0    0    0    0 -0.00000000000E+00 -0.00000000000E+00 -0.45593999997E+02  0.45594000000E+02  0.51100000000E-03 0. -1.
    9900012    2    1    2    0    0 -0.69802887768E+01  0.19899004635E+02 -0.37933207811E+02  0.47787273374E+02  0.20000010619E+02 0.  0.
        -12    1    1    2    0    0  0.69802887768E+01 -0.19899004635E+02  0.37933207811E+02  0.43400726626E+02  0.00000000000E+00 0.  1.
         11    1    3    3    0    0  0.26537603821E+01  0.85599270461E+01 -0.20372013232E+02  0.22256093965E+02  0.51100000000E-03 0. -1.
        -11    1    3    3    0    0 -0.65870038829E+01  0.95232391849E+01 -0.18533364330E+02  0.21853290333E+02  0.51100000000E-03 0.  1.
        -12    1    3    3    0    0 -0.30470452760E+01  0.18158384042E+01  0.97216975133E+00  0.36778890752E+01  0.00000000000E+00 0.  1.
</event>
<event>
 7    1  0.4432754E-010  0.4778727E+02  0.7816164E-02  0.1312668E+00
        -11   -1    0    0    0    0  0.00000000000E+00  0.00000000000E+00  0.45593999997E+02  0.45594000000E+02  0.51100000000E-03 0.  1.
         11   -1    0    0    0    0 -0.00000000000E+00 -0.00000000000E+00 -0.45593999997E+02  0.45594000000E+02  0.51100000000E-03 0. -1.
    9900012    2    1    2    0    0 -0.39007365682E+02  0.50144675380E+01 -0.18354944848E+02  0.47787268871E+02  0.19999990092E+02 0.  0.
        -12    1    1    2    0    0  0.39007365682E+02 -0.50144675380E+01  0.18354944848E+02  0.43400731129E+02  0.00000000000E+00 0.  1.
         11    1    3    3    0    0 -0.30145333471E+00 -0.29575716938E+01 -0.13784515577E+01  0.32769243804E+01  0.51100000000E-03 0. -1.
        -11    1    3    3    0    0 -0.87128631146E+01 -0.77410361478E+00  0.40865404952E+00  0.87567241851E+01  0.51100000000E-03 0.  1.
         12    1    3    3    0    0 -0.29993049232E+02  0.87461428465E+01 -0.17385147340E+02  0.35753620306E+02  0.00000000000E+00 0. -1.
</event>
<event>
 7    1  0.4432754E-010  0.4778727E+02  0.7816164E-02  0.1312668E+00
        -11   -1    0    0    0    0  0.00000000000E+00  0.00000000000E+00  0.45593999997E+02  0.45594000000E+02  0.51100000000E-03 0.  1.
         11   -1    0    0    0    0 -0.00000000000E+00 -0.00000000000E+00 -0.45593999997E+02  0.45594000000E+02  0.51100000000E-03 0. -1.
    9900012    2    1    2    0    0 -0.18776783130E+02 -0.19748772172E+02 -0.33779314917E+02  0.47787266097E+02  0.19999977444E+02 0.  0.
        -12    1    1    2    0    0  0.18776783130E+02  0.19748772172E+02  0.33779314917E+02  0.43400733903E+02  0.00000000000E+00 0.  1.
         11    1    3    3    0    0 -0.14041866451E+02 -0.86106190482E+01 -0.14004641597E+02  0.21620517116E+02  0.51100000000E-03 0. -1.
        -11    1    3    3    0    0 -0.93510161658E-01  0.12547516842E+01 -0.90390397500E+01  0.91261922949E+01  0.51100000000E-03 0.  1.
         12    1    3    3    0    0 -0.46414065169E+01 -0.12392904808E+02 -0.10735633570E+02  0.17040556687E+02  0.00000000000E+00 0. -1.
</event>
<event>
 7    1  0.4432754E-010  0.4778727E+02  0.7816164E-02  0.1312668E+00
        -11   -1    0    0    0    0  0.00000000000E+00  0.00000000000E+00  0.45593999997E+02  0.45594000000E+02  0.51100000000E-03 0.  1.
         11   -1    0    0    0    0 -0.00000000000E+00 -0.00000000000E+00 -0.45593999997E+02  0.45594000000E+02  0.51100000000E-03 0. -1.
    9900012    2    1    2    0    0  0.31616841350E+01 -0.40758305352E+02  0.14573529065E+02  0.47787269003E+02  0.19999990691E+02 0.  0.
        -12    1    1    2    0    0 -0.31616841350E+01  0.40758305352E+02 -0.14573529065E+02  0.43400730997E+02  0.00000000000E+00 0.  1.
         11    1    3    3    0    0 -0.21263298041E+01 -0.71069432051E+01  0.26078378874E+01  0.78632524355E+01  0.51100000000E-03 0. -1.
        -11    1    3    3    0    0 -0.94983455040E+00 -0.29173180118E+02  0.13391348815E+02  0.32113935405E+02  0.51100000000E-03 0.  1.
        -12    1    3    3    0    0  0.62378484895E+01 -0.44781820286E+01 -0.14256576373E+01  0.78100811621E+01  0.00000000000E+00 0.  1.
</event>
<event>
 7    1  0.4432754E-010  0.4778727E+02  0.7816164E-02  0.1312668E+00
        -11   -1    0    0    0    0  0.00000000000E+00  0.00000000000E+00  0.45593999997E+02  0.45594000000E+02  0.51100000000E-03 0.  1.
         11   -1    0    0    0    0 -0.00000000000E+00 -0.00000000000E+00 -0.45593999997E+02  0.45594000000E+02  0.51100000000E-03 0. -1.
    9900012    2    1    2    0    0 -0.37085876159E+01 -0.15344846765E+02 -0.40427780263E+02  0.47787270037E+02  0.19999995406E+02 0.  0.
        -12    1    1    2    0    0  0.37085876159E+01  0.15344846765E+02  0.40427780263E+02  0.43400729963E+02  0.00000000000E+00 0.  1.
         11    1    3    3    0    0  0.43200127077E+00 -0.11667308549E+02 -0.24261747308E+02  0.26924804485E+02  0.51100000000E-03 0. -1.
        -11    1    3    3    0    0 -0.11658937719E+01 -0.62170324695E+01 -0.15696561362E+02  0.16923145094E+02  0.51100000000E-03 0.  1.
        -12    1    3    3    0    0 -0.29746951148E+01  0.25394942536E+01 -0.46947159291E+00  0.39393204574E+01  0.00000000000E+00 0.  1.
</event>
<event>
 7    1  0.4432754E-010  0.4778727E+02  0.7816164E-02  0.1312668E+00
        -11   -1    0    0    0    0  0.00000000000E+00  0.00000000000E+00  0.45593999997E+02  0.45594000000E+02  0.51100000000E-03 0.  1.
         11   -1    0    0    0    0 -0.00000000000E+00 -0.00000000000E+00 -0.45593999997E+02  0.45594000000E+02  0.51100000000E-03 0. -1.
    9900012    2    1    2    0    0 -0.15784870341E+01  0.40886644307E+01 -0.43178865848E+02  0.47787271273E+02  0.20000001043E+02 0.  0.
        -12    1    1    2    0    0  0.15784870341E+01 -0.40886644307E+01  0.43178865848E+02  0.43400728727E+02  0.00000000000E+00 0.  1.
         11    1    3    3    0    0 -0.36916760289E+01 -0.41282275145E+01 -0.80268772616E+01  0.97519994436E+01  0.51100000000E-03 0. -1.
        -11    1    3    3    0    0 -0.30241461097E+01  0.55024836706E+01 -0.75085909640E+01  0.97878355505E+01  0.51100000000E-03 0.  1.
        -12    1    3    3    0    0  0.51373351045E+01  0.27144082745E+01 -0.27643397622E+02  0.28247436279E+02  0.00000000000E+00 0.  1.
</event>
<event>
 7    1  0.4432754E-010  0.4778726E+02  0.7816164E-02  0.1312668E+00
        -11   -1    0    0    0    0  0.00000000000E+00  0.00000000000E+00  0.45593999997E+02  0.45594000000E+02  0.51100000000E-03 0.  1.
         11   -1    0    0    0    0 -0.00000000000E+00 -0.00000000000E+00 -0.45593999997E+02  0.45594000000E+02  0.51100000000E-03 0. -1.
    9900012    2    1    2    0    0 -0.25947682155E+02 -0.27299449437E+02 -0.21565752262E+02  0.47787264760E+02  0.19999971345E+02 0.  0.
        -12    1    1    2    0    0  0.25947682155E+02  0.27299449437E+02  0.21565752262E+02  0.43400735240E+02  0.00000000000E+00 0.  1.
         11    1    3    3    0    0 -0.47128193744E+01 -0.20488211289E+00 -0.20522297775E+01  0.51443454838E+01  0.51100000000E-03 0. -1.
        -11    1    3    3    0    0 -0.13130127065E+02 -0.45927986810E+01 -0.85973889600E+01  0.16352649133E+02  0.51100000000E-03 0.  1.
         12    1    3    3    0    0 -0.81047357162E+01 -0.22501768643E+02 -0.10916133524E+02  0.26290270143E+02  0.00000000000E+00 0. -1.
</event>
<event>
 7    1  0.4432754E-010  0.4778727E+02  0.7816164E-02  0.1312668E+00
        -11   -1    0    0    0    0  0.00000000000E+00  0.00000000000E+00  0.45593999997E+02  0.45594000000E+02  0.51100000000E-03 0.  1.
         11   -1    0    0    0    0 -0.00000000000E+00 -0.00000000000E+00 -0.45593999997E+02  0.45594000000E+02  0.51100000000E-03 0. -1.
    9900012    2    1    2    0    0  0.16081369869E+02 -0.38370168661E+02 -0.12358932980E+02  0.47787268159E+02  0.19999986844E+02 0.  0.
        -12    1    1    2    0    0 -0.16081369869E+02  0.38370168661E+02  0.12358932980E+02  0.43400731841E+02  0.00000000000E+00 0.  1.
         11    1    3    3    0    0  0.31126755294E+01 -0.88334287538E+00 -0.44598378931E+01  0.55099181374E+01  0.51100000000E-03 0.  1.
        -11    1    3    3    0    0  0.15744468968E+01 -0.15376645123E+01 -0.37367496699E+01  0.43366569543E+01  0.51100000000E-03 0. -1.
        -12    1    3    3    0    0  0.11394247442E+02 -0.35949161274E+02 -0.41623454168E+01  0.37940693067E+02  0.00000000000E+00 0.  1.
</event>
<event>
 7    1  0.4432754E-010  0.4778727E+02  0.7816164E-02  0.1312668E+00
        -11   -1    0    0    0    0  0.00000000000E+00  0.00000000000E+00  0.45593999997E+02  0.45594000000E+02  0.51100000000E-03 0.  1.
         11   -1    0    0    0    0 -0.00000000000E+00 -0.00000000000E+00 -0.45593999997E+02  0.45594000000E+02  0.51100000000E-03 0. -1.
    9900012    2    1    2    0    0  0.34442718364E+02  0.76978502283E+01 -0.25259962126E+02  0.47787269211E+02  0.19999991639E+02 0.  0.
        -12    1    1    2    0    0 -0.34442718364E+02 -0.76978502283E+01  0.25259962126E+02  0.43400730789E+02  0.00000000000E+00 0.  1.
         11    1    3    3    0    0  0.15019495112E+02  0.48104080010E+01 -0.55707787048E+01  0.16725992771E+02  0.51100000000E-03 0. -1.
        -11    1    3    3    0    0  0.18261560672E+02  0.21840080467E+01 -0.93475024325E+01  0.20630809274E+02  0.51100000000E-03 0.  1.
        -12    1    3    3    0    0  0.11616625798E+01  0.70343418052E+00 -0.10341680989E+02  0.10430467165E+02  0.00000000000E+00 0.  1.
</event>
<event>
 7    1  0.4432754E-010  0.4778727E+02  0.7816164E-02  0.1312668E+00
        -11   -1    0    0    0    0  0.00000000000E+00  0.00000000000E+00  0.45593999997E+02  0.45594000000E+02  0.51100000000E-03 0.  1.
         11   -1    0    0    0    0 -0.00000000000E+00 -0.00000000000E+00 -0.45593999997E+02  0.45594000000E+02  0.51100000000E-03 0. -1.
    9900012    2    1    2    0    0  0.31102090024E+02  0.10156187652E+02  0.28515526400E+02  0.47787269621E+02  0.19999993512E+02 0.  0.
        -12    1    1    2    0    0 -0.31102090024E+02 -0.10156187652E+02 -0.28515526400E+02  0.43400730379E+02  0.00000000000E+00 0.  1.
         11    1    3    3    0    0  0.19726358298E+01  0.36694590711E+01  0.51096124475E+00  0.41972971835E+01  0.51100000000E-03 0. -1.
        -11    1    3    3    0    0  0.11669807148E+02  0.83866175484E+01  0.19089465862E+02  0.23894088389E+02  0.51100000000E-03 0.  1.
        -12    1    3    3    0    0  0.17459647046E+02 -0.18998889672E+01  0.89150992941E+01  0.19695884049E+02  0.00000000000E+00 0.  1.
</event>
<event>
 7    1  0.4432754E-010  0.4778727E+02  0.7816164E-02  0.1312668E+00
        -11   -1    0    0    0    0  0.00000000000E+00  0.00000000000E+00  0.45593999997E+02  0.45594000000E+02  0.51100000000E-03 0. -1.
         11   -1    0    0    0    0 -0.00000000000E+00 -0.00000000000E+00 -0.45593999997E+02  0.45594000000E+02  0.51100000000E-03 0.  1.
    9900012    2    1    2    0    0  0.15792863918E+02 -0.17277442450E+02  0.36547214627E+02  0.47787268838E+02  0.19999989942E+02 0.  0.
        -12    1    1    2    0    0 -0.15792863918E+02  0.17277442450E+02 -0.36547214627E+02  0.43400731162E+02  0.00000000000E+00 0.  1.
         11    1    3    3    0    0  0.82235339964E+01 -0.16357277687E+02  0.27479602595E+02  0.33019927374E+02  0.51100000000E-03 0. -1.
        -11    1    3    3    0    0  0.11980980090E+00 -0.33202791136E+01  0.87211505780E+00  0.34349953007E+01  0.51100000000E-03 0.  1.
        -12    1    3    3    0    0  0.74495201205E+01  0.24001143507E+01  0.81954969743E+01  0.11332346164E+02  0.00000000000E+00 0.  1.
</event>
<event>
 7    1  0.4432754E-010  0.4778727E+02  0.7816164E-02  0.1312668E+00
        -11   -1    0    0    0    0  0.00000000000E+00  0.00000000000E+00  0.45593999997E+02  0.45594000000E+02  0.51100000000E-03 0. -1.
         11   -1    0    0    0    0 -0.00000000000E+00 -0.00000000000E+00 -0.45593999997E+02  0.45594000000E+02  0.51100000000E-03 0.  1.
    9900012    2    1    2    0    0  0.42330294297E+02 -0.95539603098E+01  0.70117549116E+00  0.47787267057E+02  0.19999981822E+02 0.  0.
        -12    1    1    2    0    0 -0.42330294297E+02  0.95539603098E+01 -0.70117549116E+00  0.43400732943E+02  0.00000000000E+00 0.  1.
         11    1    3    3    0    0  0.16246915376E+02 -0.27467825744E+00 -0.52241164097E+01  0.17068365473E+02  0.51100000000E-03 0. -1.
        -11    1    3    3    0    0  0.16767128227E+01 -0.23946008347E+01 -0.26535454836E+01  0.39480099977E+01  0.51100000000E-03 0.  1.
         12    1    3    3    0    0  0.24406666098E+02 -0.68846812177E+01  0.85788373845E+01  0.26770891587E+02  0.00000000000E+00 0. -1.
</event>
<event>
 7    1  0.4432754E-010  0.4778727E+02  0.7816164E-02  0.1312668E+00
        -11   -1    0    0    0    0  0.00000000000E+00  0.00000000000E+00  0.45593999997E+02  0.45594000000E+02  0.51100000000E-03 0.  1.
         11   -1    0    0    0    0 -0.00000000000E+00 -0.00000000000E+00 -0.45593999997E+02  0.45594000000E+02  0.51100000000E-03 0. -1.
    9900012    2    1    2    0    0  0.16166399723E+02 -0.16260034562E+02 -0.36849448699E+02  0.47787273354E+02  0.20000010529E+02 0.  0.
        -12    1    1    2    0    0 -0.16166399723E+02  0.16260034562E+02  0.36849448699E+02  0.43400726646E+02  0.00000000000E+00 0.  1.
         11    1    3    3    0    0  0.10557865999E+02 -0.96015137083E+01 -0.25711781967E+02  0.29406688561E+02  0.51100000000E-03 0. -1.
        -11    1    3    3    0    0  0.58595955319E+01 -0.96488994982E+01 -0.70489038408E+01  0.13308762788E+02  0.51100000000E-03 0.  1.
         12    1    3    3    0    0 -0.25106180745E+00  0.29903786444E+01 -0.40887628912E+01  0.50718220048E+01  0.00000000000E+00 0. -1.
</event>
<event>
 7    1  0.4432754E-010  0.4778727E+02  0.7816164E-02  0.1312668E+00
        -11   -1    0    0    0    0  0.00000000000E+00  0.00000000000E+00  0.45593999997E+02  0.45594000000E+02  0.51100000000E-03 0.  1.
         11   -1    0    0    0    0 -0.00000000000E+00 -0.00000000000E+00 -0.45593999997E+02  0.45594000000E+02  0.51100000000E-03 0. -1.
    9900012    2    1    2    0    0 -0.24418185226E+02 -0.32885857447E+02 -0.14349072020E+02  0.47787271232E+02  0.20000000855E+02 0.  0.
        -12    1    1    2    0    0  0.24418185226E+02  0.32885857447E+02  0.14349072020E+02  0.43400728768E+02  0.00000000000E+00 0.  1.
         11    1    3    3    0    0 -0.15313086929E+02 -0.11396346326E+02 -0.56237108671E+01  0.19899584545E+02  0.51100000000E-03 0. -1.
        -11    1    3    3    0    0 -0.68405377318E+01 -0.11562093030E+02  0.14259271048E+01  0.13509560321E+02  0.51100000000E-03 0.  1.
         12    1    3    3    0    0 -0.22645605649E+01 -0.99274180919E+01 -0.10151288257E+02  0.14378126366E+02  0.00000000000E+00 0. -1.
</event>
<event>
 7    1  0.4432754E-010  0.4778726E+02  0.7816164E-02  0.1312668E+00
        -11   -1    0    0    0    0  0.00000000000E+00  0.00000000000E+00  0.45593999997E+02  0.45594000000E+02  0.51100000000E-03 0.  1.
         11   -1    0    0    0    0 -0.00000000000E+00 -0.00000000000E+00 -0.45593999997E+02  0.45594000000E+02  0.51100000000E-03 0. -1.
    9900012    2    1    2    0    0 -0.33204634365E+02  0.17711102712E+02 -0.21619275757E+02  0.47787262831E+02  0.19999962550E+02 0.  0.
        -12    1    1    2    0    0  0.33204634365E+02 -0.17711102712E+02  0.21619275757E+02  0.43400737169E+02  0.00000000000E+00 0.  1.
         11    1    3    3    0    0 -0.21000638167E+02  0.89688496409E+01 -0.10497011004E+02  0.25132733787E+02  0.51100000000E-03 0. -1.
        -11    1    3    3    0    0 -0.11755095167E+02  0.72446360520E+01 -0.13820246920E+02  0.19536280073E+02  0.51100000000E-03 0.  1.
        -12    1    3    3    0    0 -0.44890103048E+00  0.14976170188E+01  0.26979821669E+01  0.31182489707E+01  0.00000000000E+00 0.  1.
</event>
<event>
 7    1  0.4432754E-010  0.4778727E+02  0.7816164E-02  0.1312668E+00
        -11   -1    0    0    0    0  0.00000000000E+00  0.00000000000E+00  0.45593999997E+02  0.45594000000E+02  0.51100000000E-03 0. -1.
         11   -1    0    0    0    0 -0.00000000000E+00 -0.00000000000E+00 -0.45593999997E+02  0.45594000000E+02  0.51100000000E-03 0.  1.
    9900012    2    1    2    0    0  0.40779611749E+02  0.13812805003E+02  0.54638071936E+01  0.47787268377E+02  0.19999987836E+02 0.  0.
        -12    1    1    2    0    0 -0.40779611749E+02 -0.13812805003E+02 -0.54638071936E+01  0.43400731623E+02  0.00000000000E+00 0.  1.
         11    1    3    3    0    0  0.32688154311E+02  0.15641704801E+02  0.20177641537E+01  0.36293935220E+02  0.51100000000E-03 0. -1.
        -11    1    3    3    0    0  0.74146437226E+00  0.23786843578E+01  0.91181043927E+00  0.26531692798E+01  0.51100000000E-03 0.  1.
        -12    1    3    3    0    0  0.73499930651E+01 -0.42075841558E+01  0.25342326007E+01  0.88401638763E+01  0.00000000000E+00 0.  1.
</event>
<event>
 7    1  0.4432754E-010  0.4778727E+02  0.7816164E-02  0.1312668E+00
        -11   -1    0    0    0    0  0.00000000000E+00  0.00000000000E+00  0.45593999997E+02  0.45594000000E+02  0.51100000000E-03 0.  1.
         11   -1    0    0    0    0 -0.00000000000E+00 -0.00000000000E+00 -0.45593999997E+02  0.45594000000E+02  0.51100000000E-03 0. -1.
    9900012    2    1    2    0    0  0.88791331855E+01  0.37778485730E+02 -0.19431174539E+02  0.47787268046E+02  0.19999986329E+02 0.  0.
        -12    1    1    2    0    0 -0.88791331855E+01 -0.37778485730E+02  0.19431174539E+02  0.43400731954E+02  0.00000000000E+00 0.  1.
         11    1    3    3    0    0  0.12995994727E+01  0.83055438638E+01 -0.92311207246E+01  0.12485375755E+02  0.51100000000E-03 0. -1.
        -11    1    3    3    0    0  0.32799955278E+01  0.21335615106E+01 -0.62105878326E+01  0.73404262049E+01  0.51100000000E-03 0.  1.
        -12    1    3    3    0    0  0.42995381850E+01  0.27339380356E+02 -0.39894659819E+01  0.27961466086E+02  0.00000000000E+00 0.  1.
</event>
<event>
 7    1  0.4432754E-010  0.4778727E+02  0.7816164E-02  0.1312668E+00
        -11   -1    0    0    0    0  0.00000000000E+00  0.00000000000E+00  0.45593999997E+02  0.45594000000E+02  0.51100000000E-03 0.  1.
         11   -1    0    0    0    0 -0.00000000000E+00 -0.00000000000E+00 -0.45593999997E+02  0.45594000000E+02  0.51100000000E-03 0. -1.
    9900012    2    1    2    0    0  0.29582260817E+02 -0.78730587380E+01 -0.30765699086E+02  0.47787269025E+02  0.19999990790E+02 0.  0.
        -12    1    1    2    0    0 -0.29582260817E+02  0.78730587380E+01  0.30765699086E+02  0.43400730975E+02  0.00000000000E+00 0.  1.
         11    1    3    3    0    0  0.25466368124E+02 -0.24022757580E+01 -0.29105899983E+02  0.38748680602E+02  0.51100000000E-03 0. -1.
        -11    1    3    3    0    0  0.36328868639E+00  0.11857713666E+01 -0.14732344115E+00  0.12488942553E+01  0.51100000000E-03 0.  1.
        -12    1    3    3    0    0  0.37526040065E+01 -0.66565543466E+01 -0.15124756617E+01  0.77896941677E+01  0.00000000000E+00 0.  1.
</event>
<event>
 7    1  0.4432754E-010  0.4778728E+02  0.7816164E-02  0.1312668E+00
        -11   -1    0    0    0    0  0.00000000000E+00  0.00000000000E+00  0.45593999997E+02  0.45594000000E+02  0.51100000000E-03 0.  1.
         11   -1    0    0    0    0 -0.00000000000E+00 -0.00000000000E+00 -0.45593999997E+02  0.45594000000E+02  0.51100000000E-03 0. -1.
    9900012    2    1    2    0    0  0.38281183156E+02  0.91977985816E+01 -0.18264011966E+02  0.47787278628E+02  0.20000034574E+02 0.  0.
        -12    1    1    2    0    0 -0.38281183156E+02 -0.91977985816E+01  0.18264011966E+02  0.43400721372E+02  0.00000000000E+00 0.  1.
         11    1    3    3    0    0  0.71000283844E+01  0.33402594096E+01 -0.51690231838E+01  0.93960915767E+01  0.51100000000E-03 0. -1.
        -11    1    3    3    0    0  0.29800330468E+02 -0.22057066566E+00 -0.10016761986E+02  0.31439527165E+02  0.51100000000E-03 0.  1.
        -12    1    3    3    0    0  0.13808243033E+01  0.60781098376E+01 -0.30782267963E+01  0.69516598856E+01  0.00000000000E+00 0.  1.
</event>
<event>
 7    1  0.4432754E-010  0.4778727E+02  0.7816164E-02  0.1312668E+00
        -11   -1    0    0    0    0  0.00000000000E+00  0.00000000000E+00  0.45593999997E+02  0.45594000000E+02  0.51100000000E-03 0.  1.
         11   -1    0    0    0    0 -0.00000000000E+00 -0.00000000000E+00 -0.45593999997E+02  0.45594000000E+02  0.51100000000E-03 0. -1.
    9900012    2    1    2    0    0 -0.74617478738E-01  0.73344545863E+01 -0.42776438992E+02  0.47787268155E+02  0.19999986827E+02 0.  0.
        -12    1    1    2    0    0  0.74617478738E-01 -0.73344545863E+01  0.42776438992E+02  0.43400731845E+02  0.00000000000E+00 0.  1.
         11    1    3    3    0    0  0.26780798591E+01  0.52026966149E+01 -0.88068098699E+01  0.10573554944E+02  0.51100000000E-03 0. -1.
        -11    1    3    3    0    0  0.43167402033E+01 -0.12612196369E+01 -0.33549958346E+01  0.56107858867E+01  0.51100000000E-03 0.  1.
        -12    1    3    3    0    0 -0.70694375411E+01  0.33929776083E+01 -0.30614633287E+02  0.31602927325E+02  0.00000000000E+00 0.  1.
</event>
<event>
 7    1  0.4432754E-010  0.4778728E+02  0.7816164E-02  0.1312668E+00
        -11   -1    0    0    0    0  0.00000000000E+00  0.00000000000E+00  0.45593999997E+02  0.45594000000E+02  0.51100000000E-03 0.  1.
         11   -1    0    0    0    0 -0.00000000000E+00 -0.00000000000E+00 -0.45593999997E+02  0.45594000000E+02  0.51100000000E-03 0. -1.
    9900012    2    1    2    0    0  0.19925359014E+02 -0.11579281846E+02 -0.36776664246E+02  0.47787277276E+02  0.20000028411E+02 0.  0.
        -12    1    1    2    0    0 -0.19925359014E+02  0.11579281846E+02  0.36776664246E+02  0.43400722724E+02  0.00000000000E+00 0.  1.
         11    1    3    3    0    0  0.14456023443E+01 -0.61515651105E+01 -0.44950921019E+01  0.77548289931E+01  0.51100000000E-03 0. -1.
        -11    1    3    3    0    0  0.37240657836E+01 -0.32750051083E+01 -0.57269823896E+00  0.49922247499E+01  0.51100000000E-03 0.  1.
         12    1    3    3    0    0  0.14755690886E+02 -0.21527116270E+01 -0.31708873905E+02  0.35040223533E+02  0.00000000000E+00 0. -1.
</event>
<event>
 7    1  0.4432754E-010  0.4778727E+02  0.7816164E-02  0.1312668E+00
        -11   -1    0    0    0    0  0.00000000000E+00  0.00000000000E+00  0.45593999997E+02  0.45594000000E+02  0.51100000000E-03 0.  1.
         11   -1    0    0    0    0 -0.00000000000E+00 -0.00000000000E+00 -0.45593999997E+02  0.45594000000E+02  0.51100000000E-03 0. -1.
    9900012    2    1    2    0    0  0.98290016955E+01 -0.15313524518E+02 -0.39401901143E+02  0.47787272804E+02  0.20000008022E+02 0.  0.
        -12    1    1    2    0    0 -0.98290016955E+01  0.15313524518E+02  0.39401901143E+02  0.43400727196E+02  0.00000000000E+00 0.  1.
         11    1    3    3    0    0  0.60429673739E+01 -0.10026156144E+02 -0.25963580362E+02  0.28480673574E+02  0.51100000000E-03 0. -1.
        -11    1    3    3    0    0 -0.23894929354E+01 -0.42441894355E+01 -0.11898905801E+02  0.12857168428E+02  0.51100000000E-03 0.  1.
        -12    1    3    3    0    0  0.61755272570E+01 -0.10431789380E+01 -0.15394149795E+01  0.64494308026E+01  0.00000000000E+00 0.  1.
</event>
<event>
 7    1  0.4432754E-010  0.4778727E+02  0.7816164E-02  0.1312668E+00
        -11   -1    0    0    0    0  0.00000000000E+00  0.00000000000E+00  0.45593999997E+02  0.45594000000E+02  0.51100000000E-03 0.  1.
         11   -1    0    0    0    0 -0.00000000000E+00 -0.00000000000E+00 -0.45593999997E+02  0.45594000000E+02  0.51100000000E-03 0. -1.
    9900012    2    1    2    0    0 -0.20988345199E+02  0.14411514248E+02 -0.35148555818E+02  0.47787270131E+02  0.19999995834E+02 0.  0.
        -12    1    1    2    0    0  0.20988345199E+02 -0.14411514248E+02  0.35148555818E+02  0.43400729869E+02  0.00000000000E+00 0.  1.
         11    1    3    3    0    0 -0.51423937957E+01  0.43802891767E+00 -0.76465555466E+01  0.92252856471E+01  0.51100000000E-03 0. -1.
        -11    1    3    3    0    0 -0.98617354010E+01  0.13836682828E+02 -0.92342114832E+01  0.19338518009E+02  0.51100000000E-03 0.  1.
        -12    1    3    3    0    0 -0.59842160019E+01  0.13680250193E+00 -0.18267788788E+02  0.19223466474E+02  0.00000000000E+00 0.  1.
</event>
<event>
 7    1  0.4432754E-010  0.4778727E+02  0.7816164E-02  0.1312668E+00
        -11   -1    0    0    0    0  0.00000000000E+00  0.00000000000E+00  0.45593999997E+02  0.45594000000E+02  0.51100000000E-03 0.  1.
         11   -1    0    0    0    0 -0.00000000000E+00 -0.00000000000E+00 -0.45593999997E+02  0.45594000000E+02  0.51100000000E-03 0. -1.
    9900012    2    1    2    0    0 -0.39834100866E+02  0.20025610240E+01 -0.17113068544E+02  0.47787274690E+02  0.20000016621E+02 0.  0.
        -12    1    1    2    0    0  0.39834100866E+02 -0.20025610240E+01  0.17113068544E+02  0.43400725310E+02  0.00000000000E+00 0.  1.
         11    1    3    3    0    0 -0.76666232334E+01  0.47356866991E+01 -0.37529790357E+01  0.97615927091E+01  0.51100000000E-03 0. -1.
        -11    1    3    3    0    0 -0.79236318173E+01  0.49089702934E+01 -0.74384072737E+01  0.11925260314E+02  0.51100000000E-03 0.  1.
         12    1    3    3    0    0 -0.24243845815E+02 -0.76420959686E+01 -0.59216822341E+01  0.26100421667E+02  0.00000000000E+00 0. -1.
</event>
<event>
 7    1  0.4432754E-010  0.4778727E+02  0.7816164E-02  0.1312668E+00
        -11   -1    0    0    0    0  0.00000000000E+00  0.00000000000E+00  0.45593999997E+02  0.45594000000E+02  0.51100000000E-03 0. -1.
         11   -1    0    0    0    0 -0.00000000000E+00 -0.00000000000E+00 -0.45593999997E+02  0.45594000000E+02  0.51100000000E-03 0.  1.
    9900012    2    1    2    0    0  0.21363139181E+02 -0.29521977646E+02  0.23573128982E+02  0.47787270861E+02  0.19999999166E+02 0.  0.
        -12    1    1    2    0    0 -0.21363139181E+02  0.29521977646E+02 -0.23573128982E+02  0.43400729139E+02  0.00000000000E+00 0.  1.
         11    1    3    3    0    0  0.15140252817E+02 -0.14307363949E+02  0.22853188103E+02  0.30922421077E+02  0.51100000000E-03 0. -1.
        -11    1    3    3    0    0  0.29029396104E+01 -0.62568653097E+01  0.21055369187E+01  0.72117063073E+01  0.51100000000E-03 0.  1.
        -12    1    3    3    0    0  0.33199467532E+01 -0.89577483865E+01 -0.13855960399E+01  0.96531434769E+01  0.00000000000E+00 0.  1.
</event>
<event>
 7    1  0.4432754E-010  0.4778727E+02  0.7816164E-02  0.1312668E+00
        -11   -1    0    0    0    0  0.00000000000E+00  0.00000000000E+00  0.45593999997E+02  0.45594000000E+02  0.51100000000E-03 0.  1.
         11   -1    0    0    0    0 -0.00000000000E+00 -0.00000000000E+00 -0.45593999997E+02  0.45594000000E+02  0.51100000000E-03 0. -1.
    9900012    2    1    2    0    0 -0.13338025697E+02  0.27159730230E+02 -0.31113809438E+02  0.47787274046E+02  0.20000013683E+02 0.  0.
        -12    1    1    2    0    0  0.13338025697E+02 -0.27159730230E+02  0.31113809438E+02  0.43400725954E+02  0.00000000000E+00 0.  1.
         11    1    3    3    0    0 -0.11222207016E+01  0.13608657934E+02 -0.23489990194E+02  0.27170472753E+02  0.51100000000E-03 0. -1.
        -11    1    3    3    0    0 -0.20130029167E+01 -0.30806992157E-01 -0.40081226758E-01  0.20136376484E+01  0.51100000000E-03 0.  1.
         12    1    3    3    0    0 -0.10202802079E+02  0.13581879288E+02 -0.75837380174E+01  0.18603163644E+02  0.00000000000E+00 0. -1.
</event>
<event>
 7    1  0.4432754E-010  0.4778727E+02  0.7816164E-02  0.1312668E+00
        -11   -1    0    0    0    0  0.00000000000E+00  0.00000000000E+00  0.45593999997E+02  0.45594000000E+02  0.51100000000E-03 0.  1.
         11   -1    0    0    0    0 -0.00000000000E+00 -0.00000000000E+00 -0.45593999997E+02  0.45594000000E+02  0.51100000000E-03 0. -1.
    9900012    2    1    2    0    0  0.50327185187E+01  0.51167340117E+01 -0.42803199303E+02  0.47787273126E+02  0.20000009491E+02 0.  0.
        -12    1    1    2    0    0 -0.50327185187E+01 -0.51167340117E+01  0.42803199303E+02  0.43400726874E+02  0.00000000000E+00 0.  1.
         11    1    3    3    0    0 -0.38127056413E+01  0.54685394202E+01 -0.21844355684E+02  0.22838947506E+02  0.51100000000E-03 0. -1.
        -11    1    3    3    0    0  0.18747729426E+01 -0.76439189618E+00 -0.16586348630E+02  0.16709459288E+02  0.51100000000E-03 0.  1.
        -12    1    3    3    0    0  0.69706512174E+01  0.41258648765E+00 -0.43724949891E+01  0.82388663319E+01  0.00000000000E+00 0.  1.
</event>
<event>
 7    1  0.4432754E-010  0.4778727E+02  0.7816164E-02  0.1312668E+00
        -11   -1    0    0    0    0  0.00000000000E+00  0.00000000000E+00  0.45593999997E+02  0.45594000000E+02  0.51100000000E-03 0. -1.
         11   -1    0    0    0    0 -0.00000000000E+00 -0.00000000000E+00 -0.45593999997E+02  0.45594000000E+02  0.51100000000E-03 0.  1.
    9900012    2    1    2    0    0  0.12798930570E+02  0.40246980310E+02  0.99995812428E+01  0.47787266449E+02  0.19999979046E+02 0.  0.
        -12    1    1    2    0    0 -0.12798930570E+02 -0.40246980310E+02 -0.99995812428E+01  0.43400733551E+02  0.00000000000E+00 0.  1.
         11    1    3    3    0    0  0.26501895600E+01  0.77857943187E+01  0.10528024768E+01  0.82915915959E+01  0.51100000000E-03 0. -1.
        -11    1    3    3    0    0  0.49515948110E+01  0.21911579800E+02 -0.30804228845E+01  0.22674316437E+02  0.51100000000E-03 0.  1.
         12    1    3    3    0    0  0.51971461985E+01  0.10549606191E+02  0.12027201651E+02  0.16821358415E+02  0.00000000000E+00 0. -1.
</event>
<event>
 7    1  0.4432754E-010  0.4778731E+02  0.7816164E-02  0.1312668E+00
        -11   -1    0    0    0    0  0.00000000000E+00  0.00000000000E+00  0.45593999997E+02  0.45594000000E+02  0.51100000000E-03 0.  1.
         11   -1    0    0    0    0 -0.00000000000E+00 -0.00000000000E+00 -0.45593999997E+02  0.45594000000E+02  0.51100000000E-03 0. -1.
    9900012    2    1    2    0    0  0.15541761066E+02  0.36965472654E+02 -0.16602033098E+02  0.47787308663E+02  0.20000171519E+02 0.  0.
        -12    1    1    2    0    0 -0.15541761066E+02 -0.36965472654E+02  0.16602033098E+02  0.43400691337E+02  0.00000000000E+00 0.  1.
         11    1    3    3    0    0  0.59039333708E+01  0.10835450842E+02 -0.24260767172E+01  0.12575741437E+02  0.51100000000E-03 0. -1.
        -11    1    3    3    0    0 -0.11532144872E+01  0.69014660831E+00  0.25696050345E+01  0.28998407351E+01  0.51100000000E-03 0.  1.
        -12    1    3    3    0    0  0.10791042182E+02  0.25439875203E+02 -0.16745561415E+02  0.32311726491E+02  0.00000000000E+00 0.  1.
</event>
<event>
 7    1  0.4432754E-010  0.4778727E+02  0.7816164E-02  0.1312668E+00
        -11   -1    0    0    0    0  0.00000000000E+00  0.00000000000E+00  0.45593999997E+02  0.45594000000E+02  0.51100000000E-03 0.  1.
         11   -1    0    0    0    0 -0.00000000000E+00 -0.00000000000E+00 -0.45593999997E+02  0.45594000000E+02  0.51100000000E-03 0. -1.
    9900012    2    1    2    0    0 -0.33533728055E+02 -0.27257181186E+02 -0.40197272353E+01  0.47787273618E+02  0.20000011733E+02 0.  0.
        -12    1    1    2    0    0  0.33533728055E+02  0.27257181186E+02  0.40197272353E+01  0.43400726382E+02  0.00000000000E+00 0.  1.
         11    1    3    3    0    0 -0.25506103191E+01 -0.58818381380E+01 -0.57235190568E+01  0.85942017393E+01  0.51100000000E-03 0. -1.
        -11    1    3    3    0    0 -0.46601494634E+01 -0.68227089519E+01 -0.29173926762E+01  0.87622788561E+01  0.51100000000E-03 0.  1.
         12    1    3    3    0    0 -0.26322968272E+02 -0.14552634096E+02  0.46211844978E+01  0.30430793022E+02  0.00000000000E+00 0. -1.
</event>
<event>
 7    1  0.4432754E-010  0.4778727E+02  0.7816164E-02  0.1312668E+00
        -11   -1    0    0    0    0  0.00000000000E+00  0.00000000000E+00  0.45593999997E+02  0.45594000000E+02  0.51100000000E-03 0.  1.
         11   -1    0    0    0    0 -0.00000000000E+00 -0.00000000000E+00 -0.45593999997E+02  0.45594000000E+02  0.51100000000E-03 0. -1.
    9900012    2    1    2    0    0  0.21700486772E+02  0.16687995462E+02 -0.33678223761E+02  0.47787273343E+02  0.20000010478E+02 0.  0.
        -12    1    1    2    0    0 -0.21700486772E+02 -0.16687995462E+02  0.33678223761E+02  0.43400726657E+02  0.00000000000E+00 0.  1.
         11    1    3    3    0    0  0.12917755197E+02  0.32983022761E+01 -0.12983520745E+02  0.18609648262E+02  0.51100000000E-03 0. -1.
        -11    1    3    3    0    0  0.26020838019E+01  0.15721613776E+01  0.14180481708E+01  0.33546076350E+01  0.51100000000E-03 0.  1.
        -12    1    3    3    0    0  0.61806477730E+01  0.11817531808E+02 -0.22112751188E+02  0.25823017446E+02  0.00000000000E+00 0.  1.
</event>
<event>
 7    1  0.4432754E-010  0.4778727E+02  0.7816164E-02  0.1312668E+00
        -11   -1    0    0    0    0  0.00000000000E+00  0.00000000000E+00  0.45593999997E+02  0.45594000000E+02  0.51100000000E-03 0.  1.
         11   -1    0    0    0    0 -0.00000000000E+00 -0.00000000000E+00 -0.45593999997E+02  0.45594000000E+02  0.51100000000E-03 0. -1.
    9900012    2    1    2    0    0  0.99223061863E+01 -0.26237458181E+02 -0.33117469022E+02  0.47787272745E+02  0.20000007754E+02 0.  0.
        -12    1    1    2    0    0 -0.99223061863E+01  0.26237458181E+02  0.33117469022E+02  0.43400727255E+02  0.00000000000E+00 0.  1.
         11    1    3    3    0    0  0.60658084840E+01 -0.89628340719E+01 -0.18231085719E+01  0.10974978464E+02  0.51100000000E-03 0. -1.
        -11    1    3    3    0    0  0.55946794598E+01 -0.79380060847E+01 -0.18302020044E+02  0.20718984454E+02  0.51100000000E-03 0.  1.
        -12    1    3    3    0    0 -0.17381817576E+01 -0.93366180244E+01 -0.12992340406E+02  0.16093309827E+02  0.00000000000E+00 0.  1.
</event>
<event>
 7    1  0.4432754E-010  0.4778727E+02  0.7816164E-02  0.1312668E+00
        -11   -1    0    0    0    0  0.00000000000E+00  0.00000000000E+00  0.45593999997E+02  0.45594000000E+02  0.51100000000E-03 0.  1.
         11   -1    0    0    0    0 -0.00000000000E+00 -0.00000000000E+00 -0.45593999997E+02  0.45594000000E+02  0.51100000000E-03 0. -1.
    9900012    2    1    2    0    0  0.34568685421E+02  0.16479857655E+02 -0.20421647635E+02  0.47787269451E+02  0.19999992733E+02 0.  0.
        -12    1    1    2    0    0 -0.34568685421E+02 -0.16479857655E+02  0.20421647635E+02  0.43400730549E+02  0.00000000000E+00 0.  1.
         11    1    3    3    0    0  0.55348703337E+01  0.26874932232E+01  0.25533775042E+01  0.66616173994E+01  0.51100000000E-03 0. -1.
        -11    1    3    3    0    0  0.19667288361E+01  0.53589233542E+01 -0.30349577299E+01  0.64650638446E+01  0.51100000000E-03 0.  1.
         12    1    3    3    0    0  0.27067086252E+02  0.84334410778E+01 -0.19940067409E+02  0.34660588207E+02  0.00000000000E+00 0. -1.
</event>
<event>
 7    1  0.4432754E-010  0.4778727E+02  0.7816164E-02  0.1312668E+00
        -11   -1    0    0    0    0  0.00000000000E+00  0.00000000000E+00  0.45593999997E+02  0.45594000000E+02  0.51100000000E-03 0.  1.
         11   -1    0    0    0    0 -0.00000000000E+00 -0.00000000000E+00 -0.45593999997E+02  0.45594000000E+02  0.51100000000E-03 0. -1.
    9900012    2    1    2    0    0 -0.42977844511E+02 -0.42047770834E+01  0.43414253839E+01  0.47787271395E+02  0.20000001597E+02 0.  0.
        -12    1    1    2    0    0  0.42977844511E+02  0.42047770834E+01 -0.43414253839E+01  0.43400728605E+02  0.00000000000E+00 0.  1.
         11    1    3    3    0    0 -0.93176553553E+01 -0.51416636416E+01  0.48444236476E+01  0.11692897291E+02  0.51100000000E-03 0. -1.
        -11    1    3    3    0    0 -0.10429670805E+02  0.13919766183E+01  0.58065121229E+01  0.12017953873E+02  0.51100000000E-03 0.  1.
         12    1    3    3    0    0 -0.23230518351E+02 -0.45509006005E+00 -0.63095103866E+01  0.24076420231E+02  0.00000000000E+00 0. -1.
</event>
<event>
 7    1  0.4432754E-010  0.4778727E+02  0.7816164E-02  0.1312668E+00
        -11   -1    0    0    0    0  0.00000000000E+00  0.00000000000E+00  0.45593999997E+02  0.45594000000E+02  0.51100000000E-03 0.  1.
         11   -1    0    0    0    0 -0.00000000000E+00 -0.00000000000E+00 -0.45593999997E+02  0.45594000000E+02  0.51100000000E-03 0. -1.
    9900012    2    1    2    0    0  0.23367455656E+02  0.97422925788E+01 -0.35251568573E+02  0.47787270336E+02  0.19999996772E+02 0.  0.
        -12    1    1    2    0    0 -0.23367455656E+02 -0.97422925788E+01  0.35251568573E+02  0.43400729664E+02  0.00000000000E+00 0.  1.
         11    1    3    3    0    0  0.87137439575E+01  0.10686833353E+02 -0.15856034225E+02  0.21013128336E+02  0.51100000000E-03 0. -1.
        -11    1    3    3    0    0  0.65060714707E+01  0.50840782499E+01 -0.75994839254E+01  0.11221807957E+02  0.51100000000E-03 0.  1.
        -12    1    3    3    0    0  0.81476402273E+01 -0.60286190244E+01 -0.11796050422E+02  0.15552334043E+02  0.00000000000E+00 0.  1.
</event>
<event>
 7    1  0.4432754E-010  0.4778727E+02  0.7816164E-02  0.1312668E+00
        -11   -1    0    0    0    0  0.00000000000E+00  0.00000000000E+00  0.45593999997E+02  0.45594000000E+02  0.51100000000E-03 0.  1.
         11   -1    0    0    0    0 -0.00000000000E+00 -0.00000000000E+00 -0.45593999997E+02  0.45594000000E+02  0.51100000000E-03 0. -1.
    9900012    2    1    2    0    0 -0.41246302279E+02 -0.13461365914E+02 -0.10758964586E+01  0.47787269855E+02  0.19999994578E+02 0.  0.
        -12    1    1    2    0    0  0.41246302279E+02  0.13461365914E+02  0.10758964586E+01  0.43400730145E+02  0.00000000000E+00 0.  1.
         11    1    3    3    0    0 -0.10497437633E+01  0.76713941402E+00 -0.13815068714E+01  0.18971099984E+01  0.51100000000E-03 0. -1.
        -11    1    3    3    0    0 -0.27871209859E+02 -0.17665774333E+02  0.15465433599E+01  0.33034462587E+02  0.51100000000E-03 0.  1.
        -12    1    3    3    0    0 -0.12325348657E+02  0.34372690053E+01 -0.12409329471E+01  0.12855697270E+02  0.00000000000E+00 0.  1.
</event>
<event>
 7    1  0.4432754E-010  0.4778732E+02  0.7816164E-02  0.1312668E+00
        -11   -1    0    0    0    0  0.00000000000E+00  0.00000000000E+00  0.45593999997E+02  0.45594000000E+02  0.51100000000E-03 0.  1.
         11   -1    0    0    0    0 -0.00000000000E+00 -0.00000000000E+00 -0.45593999997E+02  0.45594000000E+02  0.51100000000E-03 0. -1.
    9900012    2    1    2    0    0  0.15993404549E+02 -0.38835235724E+02 -0.10938657311E+02  0.47787323201E+02  0.20000237803E+02 0.  0.
        -12    1    1    2    0    0 -0.15993404549E+02  0.38835235724E+02  0.10938657311E+02  0.43400676799E+02  0.00000000000E+00 0.  1.
         11    1    3    3    0    0  0.29683499151E+01 -0.11293675216E+02  0.26819888718E+01  0.11981288147E+02  0.51100000000E-03 0. -1.
        -11    1    3    3    0    0  0.52017313605E+00 -0.64185712748E+01  0.19606580096E+01  0.67314795842E+01  0.51100000000E-03 0.  1.
         12    1    3    3    0    0  0.12504881497E+02 -0.21122989234E+02 -0.15581304192E+02  0.29074555470E+02  0.00000000000E+00 0. -1.
</event>
<event>
 7    1  0.4432754E-010  0.4778727E+02  0.7816164E-02  0.1312668E+00
        -11   -1    0    0    0    0  0.00000000000E+00  0.00000000000E+00  0.45593999997E+02  0.45594000000E+02  0.51100000000E-03 0.  1.
         11   -1    0    0    0    0 -0.00000000000E+00 -0.00000000000E+00 -0.45593999997E+02  0.45594000000E+02  0.51100000000E-03 0. -1.
    9900012    2    1    2    0    0  0.16771121150E+02  0.13863552883E+02 -0.37552027806E+02  0.47787269643E+02  0.19999993612E+02 0.  0.
        -12    1    1    2    0    0 -0.16771121150E+02 -0.13863552883E+02  0.37552027806E+02  0.43400730357E+02  0.00000000000E+00 0.  1.
         11    1    3    3    0    0  0.37757992478E+01  0.22291614921E+00 -0.36745044233E+01  0.52733608436E+01  0.51100000000E-03 0. -1.
        -11    1    3    3    0    0 -0.64321760827E-01 -0.30466900409E+01 -0.66783581007E+00  0.31196894756E+01  0.51100000000E-03 0.  1.
         12    1    3    3    0    0  0.13059643663E+02  0.16687326775E+02 -0.33209687572E+02  0.39394219324E+02  0.00000000000E+00 0. -1.
</event>
<event>
 7    1  0.4432754E-010  0.4778727E+02  0.7816164E-02  0.1312668E+00
        -11   -1    0    0    0    0  0.00000000000E+00  0.00000000000E+00  0.45593999997E+02  0.45594000000E+02  0.51100000000E-03 0.  1.
         11   -1    0    0    0    0 -0.00000000000E+00 -0.00000000000E+00 -0.45593999997E+02  0.45594000000E+02  0.51100000000E-03 0. -1.
    9900012    2    1    2    0    0  0.30024513106E+02  0.25995530906E+02  0.17503847927E+02  0.47787266059E+02  0.19999977270E+02 0.  0.
        -12    1    1    2    0    0 -0.30024513106E+02 -0.25995530906E+02 -0.17503847927E+02  0.43400733941E+02  0.00000000000E+00 0.  1.
         11    1    3    3    0    0  0.24868565270E+02  0.24486356169E+02  0.65190438105E+01  0.35503874570E+02  0.51100000000E-03 0. -1.
        -11    1    3    3    0    0  0.47870782422E+00 -0.14272258163E-02  0.18415844510E+01  0.19027865801E+01  0.51100000000E-03 0.  1.
         12    1    3    3    0    0  0.46772400124E+01  0.15106019625E+01  0.91432196658E+01  0.10380604909E+02  0.00000000000E+00 0. -1.
</event>
<event>
 7    1  0.4432754E-010  0.4778727E+02  0.7816164E-02  0.1312668E+00
        -11   -1    0    0    0    0  0.00000000000E+00  0.00000000000E+00  0.45593999997E+02  0.45594000000E+02  0.51100000000E-03 0.  1.
         11   -1    0    0    0    0 -0.00000000000E+00 -0.00000000000E+00 -0.45593999997E+02  0.45594000000E+02  0.51100000000E-03 0. -1.
    9900012    2    1    2    0    0  0.17330774084E+02 -0.13114777590E+02 -0.37566871702E+02  0.47787274533E+02  0.20000015905E+02 0.  0.
        -12    1    1    2    0    0 -0.17330774084E+02  0.13114777590E+02  0.37566871702E+02  0.43400725467E+02  0.00000000000E+00 0.  1.
         11    1    3    3    0    0  0.12755951451E+02 -0.79665071545E+01 -0.29072229786E+02  0.32731851134E+02  0.51100000000E-03 0. -1.
        -11    1    3    3    0    0  0.76986590871E+01 -0.42863063905E+01 -0.77399874901E+01  0.11728136289E+02  0.51100000000E-03 0.  1.
        -12    1    3    3    0    0 -0.31238364544E+01 -0.86196404460E+00 -0.75465442679E+00  0.33272871099E+01  0.00000000000E+00 0.  1.
</event>
<event>
 7    1  0.4432754E-010  0.4778727E+02  0.7816164E-02  0.1312668E+00
        -11   -1    0    0    0    0  0.00000000000E+00  0.00000000000E+00  0.45593999997E+02  0.45594000000E+02  0.51100000000E-03 0.  1.
         11   -1    0    0    0    0 -0.00000000000E+00 -0.00000000000E+00 -0.45593999997E+02  0.45594000000E+02  0.51100000000E-03 0. -1.
    9900012    2    1    2    0    0  0.30908973673E+02 -0.30465367793E+02 -0.34630990380E+00  0.47787271679E+02  0.20000002893E+02 0.  0.
        -12    1    1    2    0    0 -0.30908973673E+02  0.30465367793E+02  0.34630990380E+00  0.43400728321E+02  0.00000000000E+00 0.  1.
         11    1    3    3    0    0  0.57815009885E+01 -0.25510812322E+01 -0.22474595664E+01  0.67070741682E+01  0.51100000000E-03 0. -1.
        -11    1    3    3    0    0  0.96779283323E+01 -0.38738715090E+01  0.62799573738E+01  0.12169923671E+02  0.51100000000E-03 0.  1.
         12    1    3    3    0    0  0.15449544352E+02 -0.24040415052E+02 -0.43788077112E+01  0.28910273840E+02  0.00000000000E+00 0. -1.
</event>
<event>
 7    1  0.4432754E-010  0.4778726E+02  0.7816164E-02  0.1312668E+00
        -11   -1    0    0    0    0  0.00000000000E+00  0.00000000000E+00  0.45593999997E+02  0.45594000000E+02  0.51100000000E-03 0.  1.
         11   -1    0    0    0    0 -0.00000000000E+00 -0.00000000000E+00 -0.45593999997E+02  0.45594000000E+02  0.51100000000E-03 0. -1.
    9900012    2    1    2    0    0  0.24370464973E+02 -0.33006066879E+02 -0.14152896182E+02  0.47787257102E+02  0.19999936429E+02 0.  0.
        -12    1    1    2    0    0 -0.24370464973E+02  0.33006066879E+02  0.14152896182E+02  0.43400742898E+02  0.00000000000E+00 0.  1.
         11    1    3    3    0    0  0.17344851204E+02 -0.23521957647E+02 -0.68302695468E+01  0.30012979479E+02  0.51100000000E-03 0. -1.
        -11    1    3    3    0    0  0.86579828542E+00 -0.89374199062E+01 -0.11773775809E+01  0.90561194493E+01  0.51100000000E-03 0.  1.
        -12    1    3    3    0    0  0.61598154834E+01 -0.54668932580E+00 -0.61452490538E+01  0.87181581737E+01  0.00000000000E+00 0.  1.
</event>
<event>
 7    1  0.4432754E-010  0.4778727E+02  0.7816164E-02  0.1312668E+00
        -11   -1    0    0    0    0  0.00000000000E+00  0.00000000000E+00  0.45593999997E+02  0.45594000000E+02  0.51100000000E-03 0. -1.
         11   -1    0    0    0    0 -0.00000000000E+00 -0.00000000000E+00 -0.45593999997E+02  0.45594000000E+02  0.51100000000E-03 0.  1.
    9900012    2    1    2    0    0 -0.21074074754E+02 -0.31421355830E+02  0.21265119876E+02  0.47787267837E+02  0.19999985377E+02 0.  0.
        -12    1    1    2    0    0  0.21074074754E+02  0.31421355830E+02 -0.21265119876E+02  0.43400732163E+02  0.00000000000E+00 0.  1.
         11    1    3    3    0    0 -0.82717126101E+01 -0.12993010011E+02  0.27611246810E+01  0.15648110059E+02  0.51100000000E-03 0. -1.
        -11    1    3    3    0    0  0.11377717198E+01 -0.79875207119E+01  0.23979539538E+01  0.84169587759E+01  0.51100000000E-03 0.  1.
         12    1    3    3    0    0 -0.13940133864E+02 -0.10440825107E+02  0.16106041241E+02  0.23722199003E+02  0.00000000000E+00 0. -1.
</event>
<event>
 7    1  0.4432754E-010  0.4778727E+02  0.7816164E-02  0.1312668E+00
        -11   -1    0    0    0    0  0.00000000000E+00  0.00000000000E+00  0.45593999997E+02  0.45594000000E+02  0.51100000000E-03 0. -1.
         11   -1    0    0    0    0 -0.00000000000E+00 -0.00000000000E+00 -0.45593999997E+02  0.45594000000E+02  0.51100000000E-03 0.  1.
    9900012    2    1    2    0    0  0.41135811305E+02  0.60739434479E+01 -0.12432848805E+02  0.47787268553E+02  0.19999988640E+02 0.  0.
        -12    1    1    2    0    0 -0.41135811305E+02 -0.60739434479E+01  0.12432848805E+02  0.43400731447E+02  0.00000000000E+00 0.  1.
         11    1    3    3    0    0  0.21634483049E+02  0.55902635163E+01 -0.33000311480E+01  0.22587432541E+02  0.51100000000E-03 0. -1.
        -11    1    3    3    0    0  0.53365592862E+01  0.23036820784E+01  0.29268798560E+01  0.65078753895E+01  0.51100000000E-03 0.  1.
         12    1    3    3    0    0  0.14164768970E+02 -0.18200021468E+01 -0.12059697513E+02  0.18691960622E+02  0.00000000000E+00 0. -1.
</event>
<event>
 7    1  0.4432754E-010  0.4778727E+02  0.7816164E-02  0.1312668E+00
        -11   -1    0    0    0    0  0.00000000000E+00  0.00000000000E+00  0.45593999997E+02  0.45594000000E+02  0.51100000000E-03 0. -1.
         11   -1    0    0    0    0 -0.00000000000E+00 -0.00000000000E+00 -0.45593999997E+02  0.45594000000E+02  0.51100000000E-03 0.  1.
    9900012    2    1    2    0    0 -0.30070119987E+02 -0.17743288581E+02  0.25779582334E+02  0.47787271077E+02  0.20000000150E+02 0.  0.
        -12    1    1    2    0    0  0.30070119987E+02  0.17743288581E+02 -0.25779582334E+02  0.43400728923E+02  0.00000000000E+00 0.  1.
         11    1    3    3    0    0 -0.83351958654E+01 -0.89360732077E+01  0.10516956009E+02  0.16122507821E+02  0.51100000000E-03 0. -1.
        -11    1    3    3    0    0 -0.18382701358E+02 -0.76393031347E+01  0.18264219594E+02  0.27016002280E+02  0.51100000000E-03 0.  1.
        -12    1    3    3    0    0 -0.33522227640E+01 -0.11679122383E+01 -0.30015932688E+01  0.46487609755E+01  0.00000000000E+00 0.  1.
</event>
<event>
 7    1  0.4432754E-010  0.4778727E+02  0.7816164E-02  0.1312668E+00
        -11   -1    0    0    0    0  0.00000000000E+00  0.00000000000E+00  0.45593999997E+02  0.45594000000E+02  0.51100000000E-03 0.  1.
         11   -1    0    0    0    0 -0.00000000000E+00 -0.00000000000E+00 -0.45593999997E+02  0.45594000000E+02  0.51100000000E-03 0. -1.
    9900012    2    1    2    0    0  0.31939865094E+02 -0.11231065623E+02 -0.27153844589E+02  0.47787273126E+02  0.20000009489E+02 0.  0.
        -12    1    1    2    0    0 -0.31939865094E+02  0.11231065623E+02  0.27153844589E+02  0.43400726874E+02  0.00000000000E+00 0.  1.
         11    1    3    3    0    0  0.66014580157E+01 -0.94146627500E+01 -0.69963747304E+01  0.13459731879E+02  0.51100000000E-03 0. -1.
        -11    1    3    3    0    0  0.20113151766E+02 -0.61123336287E+01 -0.15237767348E+02  0.25963224961E+02  0.51100000000E-03 0.  1.
        -12    1    3    3    0    0  0.52252553128E+01  0.42959307553E+01 -0.49197025106E+01  0.83643162859E+01  0.00000000000E+00 0.  1.
</event>
<event>
 7    1  0.4432754E-010  0.4778727E+02  0.7816164E-02  0.1312668E+00
        -11   -1    0    0    0    0  0.00000000000E+00  0.00000000000E+00  0.45593999997E+02  0.45594000000E+02  0.51100000000E-03 0.  1.
         11   -1    0    0    0    0 -0.00000000000E+00 -0.00000000000E+00 -0.45593999997E+02  0.45594000000E+02  0.51100000000E-03 0. -1.
    9900012    2    1    2    0    0 -0.32459532733E+02  0.14007997529E+02 -0.25174948920E+02  0.47787270592E+02  0.19999997938E+02 0.  0.
        -12    1    1    2    0    0  0.32459532733E+02 -0.14007997529E+02  0.25174948920E+02  0.43400729408E+02  0.00000000000E+00 0.  1.
         11    1    3    3    0    0 -0.20084499732E+02  0.15325388756E+02 -0.21117738248E+02  0.32927397998E+02  0.51100000000E-03 0. -1.
        -11    1    3    3    0    0 -0.11388377677E+02 -0.13364307443E+01 -0.58053961436E+01  0.12852385689E+02  0.51100000000E-03 0.  1.
        -12    1    3    3    0    0 -0.98665532438E+00  0.19039517290E-01  0.17481854711E+01  0.20074869050E+01  0.00000000000E+00 0.  1.
</event>
<event>
 7    1  0.4432754E-010  0.4778727E+02  0.7816164E-02  0.1312668E+00
        -11   -1    0    0    0    0  0.00000000000E+00  0.00000000000E+00  0.45593999997E+02  0.45594000000E+02  0.51100000000E-03 0.  1.
         11   -1    0    0    0    0 -0.00000000000E+00 -0.00000000000E+00 -0.45593999997E+02  0.45594000000E+02  0.51100000000E-03 0. -1.
    9900012    2    1    2    0    0 -0.36289075455E+02 -0.68672657871E-02 -0.23806022127E+02  0.47787265743E+02  0.19999975830E+02 0.  0.
        -12    1    1    2    0    0  0.36289075455E+02  0.68672657871E-02  0.23806022127E+02  0.43400734257E+02  0.00000000000E+00 0.  1.
         11    1    3    3    0    0 -0.33871450959E+02 -0.38244409630E+01 -0.21741220281E+02  0.40429966588E+02  0.51100000000E-03 0. -1.
        -11    1    3    3    0    0 -0.36493275000E+01  0.13917883375E+01 -0.24485708646E+01  0.46097901816E+01  0.51100000000E-03 0.  1.
        -12    1    3    3    0    0  0.12317030043E+01  0.24257853597E+01  0.38376901804E+00  0.27475089738E+01  0.00000000000E+00 0.  1.
</event>
<event>
 7    1  0.4432754E-010  0.4778727E+02  0.7816164E-02  0.1312668E+00
        -11   -1    0    0    0    0  0.00000000000E+00  0.00000000000E+00  0.45593999997E+02  0.45594000000E+02  0.51100000000E-03 0.  1.
         11   -1    0    0    0    0 -0.00000000000E+00 -0.00000000000E+00 -0.45593999997E+02  0.45594000000E+02  0.51100000000E-03 0. -1.
    9900012    2    1    2    0    0  0.81916168816E+01  0.42361880131E+02  0.46895582041E+01  0.47787269229E+02  0.19999991721E+02 0.  0.
        -12    1    1    2    0    0 -0.81916168816E+01 -0.42361880131E+02 -0.46895582041E+01  0.43400730771E+02  0.00000000000E+00 0.  1.
         11    1    3    3    0    0  0.35132335715E+01  0.26796290968E+01  0.27040270073E+01  0.51802494671E+01  0.51100000000E-03 0. -1.
        -11    1    3    3    0    0  0.64984765203E+01  0.10426796119E+02  0.47336467420E+01  0.13166460653E+02  0.51100000000E-03 0.  1.
         12    1    3    3    0    0 -0.18200932102E+01  0.29255454915E+02 -0.27481155452E+01  0.29440559109E+02  0.00000000000E+00 0. -1.
</event>
<event>
 7    1  0.4432754E-010  0.4778727E+02  0.7816164E-02  0.1312668E+00
        -11   -1    0    0    0    0  0.00000000000E+00  0.00000000000E+00  0.45593999997E+02  0.45594000000E+02  0.51100000000E-03 0.  1.
         11   -1    0    0    0    0 -0.00000000000E+00 -0.00000000000E+00 -0.45593999997E+02  0.45594000000E+02  0.51100000000E-03 0. -1.
    9900012    2    1    2    0    0  0.34556672540E+02 -0.26937033258E+01 -0.26119036142E+02  0.47787266093E+02  0.19999977425E+02 0.  0.
        -12    1    1    2    0    0 -0.34556672540E+02  0.26937033258E+01  0.26119036142E+02  0.43400733907E+02  0.00000000000E+00 0.  1.
         11    1    3    3    0    0  0.21834434021E+01 -0.11779767549E+01 -0.69777031090E+01  0.74056326713E+01  0.51100000000E-03 0. -1.
        -11    1    3    3    0    0  0.49575583288E+01 -0.59742045675E+01 -0.47128902615E+01  0.90818412052E+01  0.51100000000E-03 0.  1.
        -12    1    3    3    0    0  0.27415670810E+02  0.44584779966E+01 -0.14428442771E+02  0.31299792217E+02  0.00000000000E+00 0.  1.
</event>
<event>
 7    1  0.4432754E-010  0.4778727E+02  0.7816164E-02  0.1312668E+00
        -11   -1    0    0    0    0  0.00000000000E+00  0.00000000000E+00  0.45593999997E+02  0.45594000000E+02  0.51100000000E-03 0.  1.
         11   -1    0    0    0    0 -0.00000000000E+00 -0.00000000000E+00 -0.45593999997E+02  0.45594000000E+02  0.51100000000E-03 0. -1.
    9900012    2    1    2    0    0 -0.37759060579E+02 -0.38202572593E+01 -0.21054277306E+02  0.47787267124E+02  0.19999982125E+02 0.  0.
        -12    1    1    2    0    0  0.37759060579E+02  0.38202572593E+01  0.21054277306E+02  0.43400732876E+02  0.00000000000E+00 0.  1.
         11    1    3    3    0    0 -0.15041442797E+02 -0.97477404610E+00 -0.38291297704E+01  0.15551765845E+02  0.51100000000E-03 0. -1.
        -11    1    3    3    0    0 -0.12056222610E+02 -0.56852597847E+01 -0.20694236026E+01  0.13489151076E+02  0.51100000000E-03 0.  1.
        -12    1    3    3    0    0 -0.10661395172E+02  0.28397765715E+01 -0.15155723933E+02  0.18746350203E+02  0.00000000000E+00 0.  1.
</event>
<event>
 7    1  0.4432754E-010  0.4778726E+02  0.7816164E-02  0.1312668E+00
        -11   -1    0    0    0    0  0.00000000000E+00  0.00000000000E+00  0.45593999997E+02  0.45594000000E+02  0.51100000000E-03 0.  1.
         11   -1    0    0    0    0 -0.00000000000E+00 -0.00000000000E+00 -0.45593999997E+02  0.45594000000E+02  0.51100000000E-03 0. -1.
    9900012    2    1    2    0    0  0.39660466487E+02 -0.92990613950E+01 -0.14973279798E+02  0.47787259768E+02  0.19999948586E+02 0.  0.
        -12    1    1    2    0    0 -0.39660466487E+02  0.92990613950E+01  0.14973279798E+02  0.43400740232E+02  0.00000000000E+00 0.  1.
         11    1    3    3    0    0  0.18462821406E+02 -0.66144894104E+00 -0.96197967551E+01  0.20829156941E+02  0.51100000000E-03 0. -1.
        -11    1    3    3    0    0  0.14177583705E+01  0.23204875715E+01 -0.32654155943E+01  0.42494282711E+01  0.51100000000E-03 0.  1.
         12    1    3    3    0    0  0.19779886710E+02 -0.10958100025E+02 -0.20880674483E+01  0.22708674556E+02  0.00000000000E+00 0. -1.
</event>
<event>
 7    1  0.4432754E-010  0.4778727E+02  0.7816164E-02  0.1312668E+00
        -11   -1    0    0    0    0  0.00000000000E+00  0.00000000000E+00  0.45593999997E+02  0.45594000000E+02  0.51100000000E-03 0.  1.
         11   -1    0    0    0    0 -0.00000000000E+00 -0.00000000000E+00 -0.45593999997E+02  0.45594000000E+02  0.51100000000E-03 0. -1.
    9900012    2    1    2    0    0  0.22436091226E+01 -0.41479044208E+00 -0.43340713591E+02  0.47787270887E+02  0.19999999280E+02 0.  0.
        -12    1    1    2    0    0 -0.22436091226E+01  0.41479044208E+00  0.43340713591E+02  0.43400729113E+02  0.00000000000E+00 0.  1.
         11    1    3    3    0    0 -0.25689222801E+01  0.42420832548E+01 -0.17839850135E+02  0.18516341030E+02  0.51100000000E-03 0.  1.
        -11    1    3    3    0    0  0.10569141137E+00  0.27362392300E+01 -0.16434110803E+02  0.16660677476E+02  0.51100000000E-03 0. -1.
        -12    1    3    3    0    0  0.47068399913E+01 -0.73931129269E+01 -0.90667526529E+01  0.12610252381E+02  0.00000000000E+00 0.  1.
</event>
<event>
 7    1  0.4432754E-010  0.4778727E+02  0.7816164E-02  0.1312668E+00
        -11   -1    0    0    0    0  0.00000000000E+00  0.00000000000E+00  0.45593999997E+02  0.45594000000E+02  0.51100000000E-03 0.  1.
         11   -1    0    0    0    0 -0.00000000000E+00 -0.00000000000E+00 -0.45593999997E+02  0.45594000000E+02  0.51100000000E-03 0. -1.
    9900012    2    1    2    0    0 -0.37006370399E+02 -0.19247327643E+01 -0.22593076758E+02  0.47787272314E+02  0.20000005786E+02 0.  0.
        -12    1    1    2    0    0  0.37006370399E+02  0.19247327643E+01  0.22593076758E+02  0.43400727686E+02  0.00000000000E+00 0.  1.
         11    1    3    3    0    0 -0.72360642049E+01  0.22950130329E+01 -0.58678062319E+01  0.95947308579E+01  0.51100000000E-03 0.  1.
        -11    1    3    3    0    0 -0.15034978568E+02  0.11857041168E+01  0.23582755337E+00  0.15083503893E+02  0.51100000000E-03 0. -1.
        -12    1    3    3    0    0 -0.14735327626E+02 -0.54054499141E+01 -0.16961098079E+02  0.23109037563E+02  0.00000000000E+00 0.  1.
</event>
<event>
 7    1  0.4432754E-010  0.4778727E+02  0.7816164E-02  0.1312668E+00
        -11   -1    0    0    0    0  0.00000000000E+00  0.00000000000E+00  0.45593999997E+02  0.45594000000E+02  0.51100000000E-03 0. -1.
         11   -1    0    0    0    0 -0.00000000000E+00 -0.00000000000E+00 -0.45593999997E+02  0.45594000000E+02  0.51100000000E-03 0.  1.
    9900012    2    1    2    0    0  0.42165558040E+02 -0.32199694546E+01  0.97632503657E+01  0.47787267911E+02  0.19999985714E+02 0.  0.
        -12    1    1    2    0    0 -0.42165558040E+02  0.32199694546E+01 -0.97632503657E+01  0.43400732089E+02  0.00000000000E+00 0.  1.
         11    1    3    3    0    0  0.14003986737E+02 -0.39052061914E+00  0.51011701259E+01  0.14909261813E+02  0.51100000000E-03 0. -1.
        -11    1    3    3    0    0  0.10167503585E+02  0.53515418466E+01 -0.26689985555E+01  0.11795790895E+02  0.51100000000E-03 0.  1.
         12    1    3    3    0    0  0.17994067718E+02 -0.81809906820E+01  0.73310787952E+01  0.21082215204E+02  0.00000000000E+00 0. -1.
</event>
<event>
 7    1  0.4432754E-010  0.4778727E+02  0.7816164E-02  0.1312668E+00
        -11   -1    0    0    0    0  0.00000000000E+00  0.00000000000E+00  0.45593999997E+02  0.45594000000E+02  0.51100000000E-03 0. -1.
         11   -1    0    0    0    0 -0.00000000000E+00 -0.00000000000E+00 -0.45593999997E+02  0.45594000000E+02  0.51100000000E-03 0.  1.
    9900012    2    1    2    0    0  0.18648931697E+02  0.34240605942E+02  0.19063617117E+02  0.47787271362E+02  0.20000001448E+02 0.  0.
        -12    1    1    2    0    0 -0.18648931697E+02 -0.34240605942E+02 -0.19063617117E+02  0.43400728638E+02  0.00000000000E+00 0.  1.
         11    1    3    3    0    0  0.44834168844E+01  0.18679548157E+02  0.10622877894E+02  0.21951584939E+02  0.51100000000E-03 0. -1.
        -11    1    3    3    0    0 -0.16020256989E+01  0.31279773840E+01  0.38982462924E+01  0.52485286769E+01  0.51100000000E-03 0.  1.
        -12    1    3    3    0    0  0.15767540512E+02  0.12433080401E+02  0.45424929308E+01  0.20587157746E+02  0.00000000000E+00 0.  1.
</event>
<event>
 7    1  0.4432754E-010  0.4778727E+02  0.7816164E-02  0.1312668E+00
        -11   -1    0    0    0    0  0.00000000000E+00  0.00000000000E+00  0.45593999997E+02  0.45594000000E+02  0.51100000000E-03 0.  1.
         11   -1    0    0    0    0 -0.00000000000E+00 -0.00000000000E+00 -0.45593999997E+02  0.45594000000E+02  0.51100000000E-03 0. -1.
    9900012    2    1    2    0    0 -0.43256774053E+01 -0.29630655503E+02 -0.31415540728E+02  0.47787269248E+02  0.19999991811E+02 0.  0.
        -12    1    1    2    0    0  0.43256774053E+01  0.29630655503E+02  0.31415540728E+02  0.43400730752E+02  0.00000000000E+00 0.  1.
         11    1    3    3    0    0 -0.23911147292E+01  0.19519596438E+01 -0.15209140560E+01  0.34410399483E+01  0.51100000000E-03 0.  1.
        -11    1    3    3    0    0 -0.30966195853E+01 -0.74003569996E+01 -0.11108473158E+02  0.13702281297E+02  0.51100000000E-03 0. -1.
        -12    1    3    3    0    0  0.11620569092E+01 -0.24182258148E+02 -0.18786153513E+02  0.30643948003E+02  0.00000000000E+00 0.  1.
</event>
<event>
 7    1  0.4432754E-010  0.4778727E+02  0.7816164E-02  0.1312668E+00
        -11   -1    0    0    0    0  0.00000000000E+00  0.00000000000E+00  0.45593999997E+02  0.45594000000E+02  0.51100000000E-03 0.  1.
         11   -1    0    0    0    0 -0.00000000000E+00 -0.00000000000E+00 -0.45593999997E+02  0.45594000000E+02  0.51100000000E-03 0. -1.
    9900012    2    1    2    0    0  0.17473079380E+02 -0.19169627788E+02 -0.34797131088E+02  0.47787268849E+02  0.19999989988E+02 0.  0.
        -12    1    1    2    0    0 -0.17473079380E+02  0.19169627788E+02  0.34797131088E+02  0.43400731151E+02  0.00000000000E+00 0.  1.
         11    1    3    3    0    0  0.31874359898E+01 -0.32125108471E+01 -0.11080427364E+02  0.11968953378E+02  0.51100000000E-03 0. -1.
        -11    1    3    3    0    0  0.74057824270E+01 -0.50080822114E+01 -0.20688239965E+02  0.22537297395E+02  0.51100000000E-03 0.  1.
         12    1    3    3    0    0  0.68798609631E+01 -0.10949034729E+02 -0.30284637593E+01  0.13281018075E+02  0.00000000000E+00 0. -1.
</event>
<event>
 7    1  0.4432754E-010  0.4778727E+02  0.7816164E-02  0.1312668E+00
        -11   -1    0    0    0    0  0.00000000000E+00  0.00000000000E+00  0.45593999997E+02  0.45594000000E+02  0.51100000000E-03 0.  1.
         11   -1    0    0    0    0 -0.00000000000E+00 -0.00000000000E+00 -0.45593999997E+02  0.45594000000E+02  0.51100000000E-03 0. -1.
    9900012    2    1    2    0    0 -0.31033881762E+02 -0.30156478828E+02 -0.33329127575E+01  0.47787270283E+02  0.19999996527E+02 0.  0.
        -12    1    1    2    0    0  0.31033881762E+02  0.30156478828E+02  0.33329127575E+01  0.43400729717E+02  0.00000000000E+00 0.  1.
         11    1    3    3    0    0 -0.68140784395E+01 -0.19877874667E+01 -0.11420341536E+00  0.70990144861E+01  0.51100000000E-03 0. -1.
        -11    1    3    3    0    0 -0.20755994404E+02 -0.28909709520E+02 -0.61176276193E+01  0.36111050611E+02  0.51100000000E-03 0.  1.
        -12    1    3    3    0    0 -0.34638089184E+01  0.74101815922E+00  0.28989182771E+01  0.45772051858E+01  0.00000000000E+00 0.  1.
</event>
<event>
 7    1  0.4432754E-010  0.4778727E+02  0.7816164E-02  0.1312668E+00
        -11   -1    0    0    0    0  0.00000000000E+00  0.00000000000E+00  0.45593999997E+02  0.45594000000E+02  0.51100000000E-03 0.  1.
         11   -1    0    0    0    0 -0.00000000000E+00 -0.00000000000E+00 -0.45593999997E+02  0.45594000000E+02  0.51100000000E-03 0. -1.
    9900012    2    1    2    0    0  0.19289789095E+02  0.10090013714E+02 -0.37546224913E+02  0.47787270222E+02  0.19999996250E+02 0.  0.
        -12    1    1    2    0    0 -0.19289789095E+02 -0.10090013714E+02  0.37546224913E+02  0.43400729778E+02  0.00000000000E+00 0.  1.
         11    1    3    3    0    0  0.94951522543E+01 -0.20247255928E+01 -0.75219578750E+01  0.12281582984E+02  0.51100000000E-03 0. -1.
        -11    1    3    3    0    0  0.92128107525E+01  0.39094198048E+01 -0.11549448021E+02  0.15282316415E+02  0.51100000000E-03 0.  1.
        -12    1    3    3    0    0  0.58182608795E+00  0.82053195018E+01 -0.18474819017E+02  0.20223370823E+02  0.00000000000E+00 0.  1.
</event>
<event>
 7    1  0.4432754E-010  0.4778727E+02  0.7816164E-02  0.1312668E+00
        -11   -1    0    0    0    0  0.00000000000E+00  0.00000000000E+00  0.45593999997E+02  0.45594000000E+02  0.51100000000E-03 0. -1.
         11   -1    0    0    0    0 -0.00000000000E+00 -0.00000000000E+00 -0.45593999997E+02  0.45594000000E+02  0.51100000000E-03 0.  1.
    9900012    2    1    2    0    0  0.14613632555E+02 -0.66913797802E+01  0.40314892739E+02  0.47787269633E+02  0.19999993564E+02 0.  0.
        -12    1    1    2    0    0 -0.14613632555E+02  0.66913797802E+01 -0.40314892739E+02  0.43400730367E+02  0.00000000000E+00 0.  1.
         11    1    3    3    0    0  0.31536508351E+01  0.25510624329E+01  0.28664449590E+01  0.49668843444E+01  0.51100000000E-03 0. -1.
        -11    1    3    3    0    0 -0.33770261199E+01 -0.18432158009E+01  0.10471260327E+02  0.11155673131E+02  0.51100000000E-03 0.  1.
         12    1    3    3    0    0  0.14837007840E+02 -0.73992264123E+01  0.26977187453E+02  0.31664712158E+02  0.00000000000E+00 0. -1.
</event>
<event>
 7    1  0.4432754E-010  0.4778727E+02  0.7816164E-02  0.1312668E+00
        -11   -1    0    0    0    0  0.00000000000E+00  0.00000000000E+00  0.45593999997E+02  0.45594000000E+02  0.51100000000E-03 0.  1.
         11   -1    0    0    0    0 -0.00000000000E+00 -0.00000000000E+00 -0.45593999997E+02  0.45594000000E+02  0.51100000000E-03 0. -1.
    9900012    2    1    2    0    0 -0.38815947986E+02  0.16757073773E+02 -0.98054161606E+01  0.47787268145E+02  0.19999986778E+02 0.  0.
        -12    1    1    2    0    0  0.38815947986E+02 -0.16757073773E+02  0.98054161606E+01  0.43400731855E+02  0.00000000000E+00 0.  1.
         11    1    3    3    0    0 -0.26618800562E+02  0.93875508141E+01 -0.14478660987E+02  0.31722520043E+02  0.51100000000E-03 0. -1.
        -11    1    3    3    0    0 -0.92539493403E+01  0.29219578915E+01  0.13937077977E+01  0.98038685221E+01  0.51100000000E-03 0.  1.
         12    1    3    3    0    0 -0.29431980837E+01  0.44475650673E+01  0.32795370282E+01  0.62608795794E+01  0.00000000000E+00 0. -1.
</event>
<event>
 7    1  0.4432754E-010  0.4778727E+02  0.7816164E-02  0.1312668E+00
        -11   -1    0    0    0    0  0.00000000000E+00  0.00000000000E+00  0.45593999997E+02  0.45594000000E+02  0.51100000000E-03 0.  1.
         11   -1    0    0    0    0 -0.00000000000E+00 -0.00000000000E+00 -0.45593999997E+02  0.45594000000E+02  0.51100000000E-03 0. -1.
    9900012    2    1    2    0    0  0.13623503670E+02 -0.31640452944E+02  0.26398963154E+02  0.47787269933E+02  0.19999994933E+02 0.  0.
        -12    1    1    2    0    0 -0.13623503670E+02  0.31640452944E+02 -0.26398963154E+02  0.43400730067E+02  0.00000000000E+00 0.  1.
         11    1    3    3    0    0 -0.11389732267E+01 -0.89735652884E+01  0.76312686011E+00  0.90776922652E+01  0.51100000000E-03 0. -1.
        -11    1    3    3    0    0  0.12097006859E+02 -0.17026197962E+02  0.12956378255E+02  0.24578379315E+02  0.51100000000E-03 0.  1.
        -12    1    3    3    0    0  0.26654700377E+01 -0.56406896937E+01  0.12679458039E+02  0.14131198353E+02  0.00000000000E+00 0.  1.
</event>
<event>
 7    1  0.4432754E-010  0.4778727E+02  0.7816164E-02  0.1312668E+00
        -11   -1    0    0    0    0  0.00000000000E+00  0.00000000000E+00  0.45593999997E+02  0.45594000000E+02  0.51100000000E-03 0.  1.
         11   -1    0    0    0    0 -0.00000000000E+00 -0.00000000000E+00 -0.45593999997E+02  0.45594000000E+02  0.51100000000E-03 0. -1.
    9900012    2    1    2    0    0 -0.22922476825E+02 -0.47840241511E+01 -0.36541708792E+02  0.47787270602E+02  0.19999997981E+02 0.  0.
        -12    1    1    2    0    0  0.22922476825E+02  0.47840241511E+01  0.36541708792E+02  0.43400729398E+02  0.00000000000E+00 0.  1.
         11    1    3    3    0    0 -0.24668564369E+01  0.23756120909E+01 -0.40571392413E+01  0.53093589605E+01  0.51100000000E-03 0. -1.
        -11    1    3    3    0    0 -0.99462396119E+01 -0.26132766648E+01 -0.27951979836E+01  0.10656924011E+02  0.51100000000E-03 0.  1.
         12    1    3    3    0    0 -0.10509380776E+02 -0.45463595772E+01 -0.29689371567E+02  0.31820987630E+02  0.00000000000E+00 0. -1.
</event>
<event>
 7    1  0.4432754E-010  0.4778727E+02  0.7816164E-02  0.1312668E+00
        -11   -1    0    0    0    0  0.00000000000E+00  0.00000000000E+00  0.45593999997E+02  0.45594000000E+02  0.51100000000E-03 0.  1.
         11   -1    0    0    0    0 -0.00000000000E+00 -0.00000000000E+00 -0.45593999997E+02  0.45594000000E+02  0.51100000000E-03 0. -1.
    9900012    2    1    2    0    0 -0.29443753410E+02  0.19481867629E+02 -0.25241739368E+02  0.47787272039E+02  0.20000004537E+02 0.  0.
        -12    1    1    2    0    0  0.29443753410E+02 -0.19481867629E+02  0.25241739368E+02  0.43400727961E+02  0.00000000000E+00 0.  1.
         11    1    3    3    0    0 -0.16447037102E+02  0.91874318979E+01 -0.11841793847E+02  0.22251786807E+02  0.51100000000E-03 0. -1.
        -11    1    3    3    0    0 -0.46021873376E+00  0.62447336082E+01 -0.10215275312E+02  0.11981667208E+02  0.51100000000E-03 0.  1.
        -12    1    3    3    0    0 -0.12536497574E+02  0.40497021224E+01 -0.31846702094E+01  0.13553818025E+02  0.00000000000E+00 0.  1.
</event>
<event>
 7    1  0.4432754E-010  0.4778727E+02  0.7816164E-02  0.1312668E+00
        -11   -1    0    0    0    0  0.00000000000E+00  0.00000000000E+00  0.45593999997E+02  0.45594000000E+02  0.51100000000E-03 0.  1.
         11   -1    0    0    0    0 -0.00000000000E+00 -0.00000000000E+00 -0.45593999997E+02  0.45594000000E+02  0.51100000000E-03 0. -1.
    9900012    2    1    2    0    0 -0.24969525972E+02  0.31076462100E+02 -0.17158070075E+02  0.47787273133E+02  0.20000009521E+02 0.  0.
        -12    1    1    2    0    0  0.24969525972E+02 -0.31076462100E+02  0.17158070075E+02  0.43400726867E+02  0.00000000000E+00 0.  1.
         11    1    3    3    0    0 -0.14670488800E+02  0.16686979539E+02 -0.88098185842E+01  0.23901703528E+02  0.51100000000E-03 0. -1.
        -11    1    3    3    0    0 -0.11413391293E+02  0.16345191113E+02 -0.64861777882E+01  0.20964285723E+02  0.51100000000E-03 0.  1.
        -12    1    3    3    0    0  0.11143541212E+01 -0.19557085517E+01 -0.18620737021E+01  0.29212838819E+01  0.00000000000E+00 0.  1.
</event>
<event>
 7    1  0.4432754E-010  0.4778727E+02  0.7816164E-02  0.1312668E+00
        -11   -1    0    0    0    0  0.00000000000E+00  0.00000000000E+00  0.45593999997E+02  0.45594000000E+02  0.51100000000E-03 0. -1.
         11   -1    0    0    0    0 -0.00000000000E+00 -0.00000000000E+00 -0.45593999997E+02  0.45594000000E+02  0.51100000000E-03 0.  1.
    9900012    2    1    2    0    0 -0.84829883921E+01  0.36388969130E+02  0.22079512168E+02  0.47787273923E+02  0.20000013124E+02 0.  0.
        -12    1    1    2    0    0  0.84829883921E+01 -0.36388969130E+02 -0.22079512168E+02  0.43400726077E+02  0.00000000000E+00 0.  1.
         11    1    3    3    0    0  0.40023643946E+01  0.10722312050E+02  0.68915783949E+01  0.13359668764E+02  0.51100000000E-03 0.  1.
        -11    1    3    3    0    0 -0.15474018834E+01  0.14359161077E+02  0.35879608321E+01  0.14881311186E+02  0.51100000000E-03 0. -1.
         12    1    3    3    0    0 -0.10937950903E+02  0.11307496003E+02  0.11599972941E+02  0.19546293972E+02  0.00000000000E+00 0. -1.
</event>
<event>
 7    1  0.4432754E-010  0.4778727E+02  0.7816164E-02  0.1312668E+00
        -11   -1    0    0    0    0  0.00000000000E+00  0.00000000000E+00  0.45593999997E+02  0.45594000000E+02  0.51100000000E-03 0.  1.
         11   -1    0    0    0    0 -0.00000000000E+00 -0.00000000000E+00 -0.45593999997E+02  0.45594000000E+02  0.51100000000E-03 0. -1.
    9900012    2    1    2    0    0 -0.39717477727E+02  0.95301634272E+01 -0.14673833711E+02  0.47787269042E+02  0.19999990869E+02 0.  0.
        -12    1    1    2    0    0  0.39717477727E+02 -0.95301634272E+01  0.14673833711E+02  0.43400730958E+02  0.00000000000E+00 0.  1.
         11    1    3    3    0    0 -0.26749530658E+02  0.65645271537E+01 -0.10559418588E+02  0.29497995328E+02  0.51100000000E-03 0. -1.
        -11    1    3    3    0    0 -0.10468926833E+02  0.68614597051E+01 -0.51686704374E+01  0.13542275018E+02  0.51100000000E-03 0.  1.
         12    1    3    3    0    0 -0.24990202354E+01 -0.38958234316E+01  0.10542553142E+01  0.47469986955E+01  0.00000000000E+00 0. -1.
</event>
<event>
 7    1  0.4432754E-010  0.4778727E+02  0.7816164E-02  0.1312668E+00
        -11   -1    0    0    0    0  0.00000000000E+00  0.00000000000E+00  0.45593999997E+02  0.45594000000E+02  0.51100000000E-03 0.  1.
         11   -1    0    0    0    0 -0.00000000000E+00 -0.00000000000E+00 -0.45593999997E+02  0.45594000000E+02  0.51100000000E-03 0. -1.
    9900012    2    1    2    0    0 -0.34176290439E+02  0.23689950127E+02 -0.12425423314E+02  0.47787266024E+02  0.19999977109E+02 0.  0.
        -12    1    1    2    0    0  0.34176290439E+02 -0.23689950127E+02  0.12425423314E+02  0.43400733976E+02  0.00000000000E+00 0.  1.
         11    1    3    3    0    0 -0.95343732667E+01  0.13086203794E+02 -0.26496957112E+01  0.16406519770E+02  0.51100000000E-03 0. -1.
        -11    1    3    3    0    0 -0.58995079834E+01  0.77821147772E+01  0.57972012426E+00  0.97827184634E+01  0.51100000000E-03 0.  1.
         12    1    3    3    0    0 -0.18742409189E+02  0.28216315556E+01 -0.10355447727E+02  0.21598027791E+02  0.00000000000E+00 0. -1.
</event>
<event>
 7    1  0.4432754E-010  0.4778727E+02  0.7816164E-02  0.1312668E+00
        -11   -1    0    0    0    0  0.00000000000E+00  0.00000000000E+00  0.45593999997E+02  0.45594000000E+02  0.51100000000E-03 0.  1.
         11   -1    0    0    0    0 -0.00000000000E+00 -0.00000000000E+00 -0.45593999997E+02  0.45594000000E+02  0.51100000000E-03 0. -1.
    9900012    2    1    2    0    0  0.16116404740E+02 -0.14699915246E+02 -0.37520625789E+02  0.47787269942E+02  0.19999994973E+02 0.  0.
        -12    1    1    2    0    0 -0.16116404740E+02  0.14699915246E+02  0.37520625789E+02  0.43400730058E+02  0.00000000000E+00 0.  1.
         11    1    3    3    0    0  0.47745386222E+01  0.19647303376E+01 -0.72036193740E+01  0.88627601063E+01  0.51100000000E-03 0.  1.
        -11    1    3    3    0    0  0.97093356732E+01 -0.54413855415E+01 -0.74320137706E+01  0.13383374192E+02  0.51100000000E-03 0. -1.
        -12    1    3    3    0    0  0.16325304447E+01 -0.11223260042E+02 -0.22884992644E+02  0.25541135643E+02  0.00000000000E+00 0.  1.
</event>
<event>
 7    1  0.4432754E-010  0.4778727E+02  0.7816164E-02  0.1312668E+00
        -11   -1    0    0    0    0  0.00000000000E+00  0.00000000000E+00  0.45593999997E+02  0.45594000000E+02  0.51100000000E-03 0. -1.
         11   -1    0    0    0    0 -0.00000000000E+00 -0.00000000000E+00 -0.45593999997E+02  0.45594000000E+02  0.51100000000E-03 0.  1.
    9900012    2    1    2    0    0  0.36542879497E+02 -0.22183976089E+02  0.74908208601E+01  0.47787271501E+02  0.20000002083E+02 0.  0.
        -12    1    1    2    0    0 -0.36542879497E+02  0.22183976089E+02 -0.74908208601E+01  0.43400728499E+02  0.00000000000E+00 0.  1.
         11    1    3    3    0    0  0.40513554693E+00  0.29931380544E+00  0.67794332383E-02  0.50375568220E+00  0.51100000000E-03 0. -1.
        -11    1    3    3    0    0 -0.99159600933E+00 -0.86731064137E+00  0.39630307429E+01  0.41762547006E+01  0.51100000000E-03 0.  1.
         12    1    3    3    0    0  0.37129339960E+02 -0.21615979253E+02  0.35210106840E+01  0.43107261118E+02  0.00000000000E+00 0. -1.
</event>
<event>
 7    1  0.4432754E-010  0.4778729E+02  0.7816164E-02  0.1312668E+00
        -11   -1    0    0    0    0  0.00000000000E+00  0.00000000000E+00  0.45593999997E+02  0.45594000000E+02  0.51100000000E-03 0.  1.
         11   -1    0    0    0    0 -0.00000000000E+00 -0.00000000000E+00 -0.45593999997E+02  0.45594000000E+02  0.51100000000E-03 0. -1.
    9900012    2    1    2    0    0 -0.10586880550E+02  0.19527417292E+02 -0.37285649286E+02  0.47787289078E+02  0.20000082224E+02 0.  0.
        -12    1    1    2    0    0  0.10586880550E+02 -0.19527417292E+02  0.37285649286E+02  0.43400710922E+02  0.00000000000E+00 0.  1.
         11    1    3    3    0    0  0.13997163439E+01 -0.57594749879E+00 -0.13408606434E+02  0.13493763305E+02  0.51100000000E-03 0. -1.
        -11    1    3    3    0    0 -0.34774907089E+00 -0.69781233214E+00 -0.77396679993E+00  0.10985883377E+01  0.51100000000E-03 0.  1.
        -12    1    3    3    0    0 -0.11638847823E+02  0.20801177122E+02 -0.23103076052E+02  0.33194937436E+02  0.00000000000E+00 0.  1.
</event>
<event>
 7    1  0.4432754E-010  0.4778727E+02  0.7816164E-02  0.1312668E+00
        -11   -1    0    0    0    0  0.00000000000E+00  0.00000000000E+00  0.45593999997E+02  0.45594000000E+02  0.51100000000E-03 0.  1.
         11   -1    0    0    0    0 -0.00000000000E+00 -0.00000000000E+00 -0.45593999997E+02  0.45594000000E+02  0.51100000000E-03 0. -1.
    9900012    2    1    2    0    0 -0.13724922147E+02 -0.92790383881E+01 -0.40114202145E+02  0.47787271261E+02  0.20000000988E+02 0.  0.
        -12    1    1    2    0    0  0.13724922147E+02  0.92790383881E+01  0.40114202145E+02  0.43400728739E+02  0.00000000000E+00 0.  1.
         11    1    3    3    0    0 -0.81325656850E+01 -0.22609189717E+01 -0.23436345832E+02  0.24910092039E+02  0.51100000000E-03 0. -1.
        -11    1    3    3    0    0 -0.32996993194E+01 -0.27593643546E+01 -0.17456150230E+02  0.17978300485E+02  0.51100000000E-03 0.  1.
         12    1    3    3    0    0 -0.22926571430E+01 -0.42587550619E+01  0.77829391646E+00  0.48988787363E+01  0.00000000000E+00 0. -1.
</event>
<event>
 7    1  0.4432754E-010  0.4778727E+02  0.7816164E-02  0.1312668E+00
        -11   -1    0    0    0    0  0.00000000000E+00  0.00000000000E+00  0.45593999997E+02  0.45594000000E+02  0.51100000000E-03 0.  1.
         11   -1    0    0    0    0 -0.00000000000E+00 -0.00000000000E+00 -0.45593999997E+02  0.45594000000E+02  0.51100000000E-03 0. -1.
    9900012    2    1    2    0    0 -0.60535627460E+01 -0.22629068017E+01 -0.42916857929E+02  0.47787273467E+02  0.20000011046E+02 0.  0.
        -12    1    1    2    0    0  0.60535627460E+01  0.22629068017E+01  0.42916857929E+02  0.43400726533E+02  0.00000000000E+00 0.  1.
         11    1    3    3    0    0  0.16989520646E+01  0.81067785660E+00  0.88748348795E+00  0.20811688801E+01  0.51100000000E-03 0.  1.
        -11    1    3    3    0    0 -0.51476454167E+01  0.23825575945E+01 -0.11294734476E+02  0.12639060929E+02  0.51100000000E-03 0. -1.
         12    1    3    3    0    0 -0.26048693939E+01 -0.54561422528E+01 -0.32509606940E+02  0.33067043658E+02  0.00000000000E+00 0. -1.
</event>
<event>
 7    1  0.4432754E-010  0.4778728E+02  0.7816164E-02  0.1312668E+00
        -11   -1    0    0    0    0  0.00000000000E+00  0.00000000000E+00  0.45593999997E+02  0.45594000000E+02  0.51100000000E-03 0.  1.
         11   -1    0    0    0    0 -0.00000000000E+00 -0.00000000000E+00 -0.45593999997E+02  0.45594000000E+02  0.51100000000E-03 0. -1.
    9900012    2    1    2    0    0 -0.27704835116E+02 -0.41689211564E+01 -0.33146419173E+02  0.47787275393E+02  0.20000019825E+02 0.  0.
        -12    1    1    2    0    0  0.27704835116E+02  0.41689211564E+01  0.33146419173E+02  0.43400724607E+02  0.00000000000E+00 0.  1.
         11    1    3    3    0    0 -0.93040021567E+00 -0.23557122152E+01 -0.84549083702E+01  0.88261260138E+01  0.51100000000E-03 0. -1.
        -11    1    3    3    0    0  0.13839091150E+01 -0.28675264380E+00 -0.32233850684E+01  0.35196083699E+01  0.51100000000E-03 0.  1.
        -12    1    3    3    0    0 -0.28158344016E+02 -0.15264562974E+01 -0.21468125735E+02  0.35441541009E+02  0.00000000000E+00 0.  1.
</event>
<event>
 7    1  0.4432754E-010  0.4778727E+02  0.7816164E-02  0.1312668E+00
        -11   -1    0    0    0    0  0.00000000000E+00  0.00000000000E+00  0.45593999997E+02  0.45594000000E+02  0.51100000000E-03 0.  1.
         11   -1    0    0    0    0 -0.00000000000E+00 -0.00000000000E+00 -0.45593999997E+02  0.45594000000E+02  0.51100000000E-03 0. -1.
    9900012    2    1    2    0    0  0.38016465911E+02  0.20778332078E+02  0.25753996921E+01  0.47787269040E+02  0.19999990859E+02 0.  0.
        -12    1    1    2    0    0 -0.38016465911E+02 -0.20778332078E+02 -0.25753996921E+01  0.43400730960E+02  0.00000000000E+00 0.  1.
         11    1    3    3    0    0  0.11886531884E+02 -0.97305788510E-02  0.61250271160E+01  0.13371824571E+02  0.51100000000E-03 0. -1.
        -11    1    3    3    0    0  0.68069573917E+01  0.69372551478E+01  0.21795887027E+01  0.99604610883E+01  0.51100000000E-03 0.  1.
        -12    1    3    3    0    0  0.19322976635E+02  0.13850807509E+02 -0.57292161267E+01  0.24454983380E+02  0.00000000000E+00 0.  1.
</event>
<event>
 7    1  0.4432754E-010  0.4778727E+02  0.7816164E-02  0.1312668E+00
        -11   -1    0    0    0    0  0.00000000000E+00  0.00000000000E+00  0.45593999997E+02  0.45594000000E+02  0.51100000000E-03 0.  1.
         11   -1    0    0    0    0 -0.00000000000E+00 -0.00000000000E+00 -0.45593999997E+02  0.45594000000E+02  0.51100000000E-03 0. -1.
    9900012    2    1    2    0    0  0.15084162659E+02 -0.33100346507E+02 -0.23674001862E+02  0.47787271133E+02  0.20000000403E+02 0.  0.
        -12    1    1    2    0    0 -0.15084162659E+02  0.33100346507E+02  0.23674001862E+02  0.43400728867E+02  0.00000000000E+00 0.  1.
         11    1    3    3    0    0  0.86759657646E+00 -0.30075059776E+01 -0.17452780833E+01  0.35838264291E+01  0.51100000000E-03 0. -1.
        -11    1    3    3    0    0  0.81317362254E+01 -0.30623149906E+02 -0.21033260965E+02  0.38030257839E+02  0.51100000000E-03 0.  1.
         12    1    3    3    0    0  0.60848298567E+01  0.53030937603E+00 -0.89546281422E+00  0.61731868650E+01  0.00000000000E+00 0. -1.
</event>
<event>
 7    1  0.4432754E-010  0.4778727E+02  0.7816164E-02  0.1312668E+00
        -11   -1    0    0    0    0  0.00000000000E+00  0.00000000000E+00  0.45593999997E+02  0.45594000000E+02  0.51100000000E-03 0.  1.
         11   -1    0    0    0    0 -0.00000000000E+00 -0.00000000000E+00 -0.45593999997E+02  0.45594000000E+02  0.51100000000E-03 0. -1.
    9900012    2    1    2    0    0  0.38314230031E+02 -0.80135542226E+01 -0.18746351593E+02  0.47787274520E+02  0.20000015846E+02 0.  0.
        -12    1    1    2    0    0 -0.38314230031E+02  0.80135542226E+01  0.18746351593E+02  0.43400725480E+02  0.00000000000E+00 0.  1.
         11    1    3    3    0    0  0.80879160680E+01  0.12112035635E+01 -0.10397501239E+02  0.13228357142E+02  0.51100000000E-03 0. -1.
        -11    1    3    3    0    0  0.14937547841E+01 -0.38684204052E+01  0.54970085718E-01  0.41471679201E+01  0.51100000000E-03 0.  1.
        -12    1    3    3    0    0  0.28732559179E+02 -0.53563373809E+01 -0.84038204404E+01  0.30411749458E+02  0.00000000000E+00 0.  1.
</event>
<event>
 7    1  0.4432754E-010  0.4778725E+02  0.7816164E-02  0.1312668E+00
        -11   -1    0    0    0    0  0.00000000000E+00  0.00000000000E+00  0.45593999997E+02  0.45594000000E+02  0.51100000000E-03 0.  1.
         11   -1    0    0    0    0 -0.00000000000E+00 -0.00000000000E+00 -0.45593999997E+02  0.45594000000E+02  0.51100000000E-03 0. -1.
    9900012    2    1    2    0    0 -0.11372790009E+02 -0.41849604731E+02  0.17015193686E+01  0.47787251886E+02  0.19999912648E+02 0.  0.
        -12    1    1    2    0    0  0.11372790009E+02  0.41849604731E+02 -0.17015193686E+01  0.43400748114E+02  0.00000000000E+00 0.  1.
         11    1    3    3    0    0 -0.25015672321E+01  0.45307171320E+00 -0.18016419793E+01  0.31159311091E+01  0.51100000000E-03 0. -1.
        -11    1    3    3    0    0  0.14700513682E+01 -0.56277446995E+01 -0.20427091330E+01  0.61648375722E+01  0.51100000000E-03 0.  1.
         12    1    3    3    0    0 -0.10341274145E+02 -0.36674931744E+02  0.55458704810E+01  0.38506483205E+02  0.00000000000E+00 0. -1.
</event>
<event>
 7    1  0.4432754E-010  0.4778727E+02  0.7816164E-02  0.1312668E+00
        -11   -1    0    0    0    0  0.00000000000E+00  0.00000000000E+00  0.45593999997E+02  0.45594000000E+02  0.51100000000E-03 0.  1.
         11   -1    0    0    0    0 -0.00000000000E+00 -0.00000000000E+00 -0.45593999997E+02  0.45594000000E+02  0.51100000000E-03 0. -1.
    9900012    2    1    2    0    0 -0.20299583151E+02  0.20435267096E+02 -0.32464593325E+02  0.47787273771E+02  0.20000012431E+02 0.  0.
        -12    1    1    2    0    0  0.20299583151E+02 -0.20435267096E+02  0.32464593325E+02  0.43400726229E+02  0.00000000000E+00 0.  1.
         11    1    3    3    0    0 -0.31112320790E+01 -0.93035103370E+00 -0.53216729752E+01  0.62342218128E+01  0.51100000000E-03 0. -1.
        -11    1    3    3    0    0 -0.11381177555E+01 -0.66017590995E+00 -0.83389335686E+01  0.84420943835E+01  0.51100000000E-03 0.  1.
         12    1    3    3    0    0 -0.16050233317E+02  0.22025794040E+02 -0.18803986782E+02  0.33110957575E+02  0.00000000000E+00 0. -1.
</event>
<event>
 7    1  0.4432754E-010  0.4778722E+02  0.7816164E-02  0.1312668E+00
        -11   -1    0    0    0    0  0.00000000000E+00  0.00000000000E+00  0.45593999997E+02  0.45594000000E+02  0.51100000000E-03 0.  1.
         11   -1    0    0    0    0 -0.00000000000E+00 -0.00000000000E+00 -0.45593999997E+02  0.45594000000E+02  0.51100000000E-03 0. -1.
    9900012    2    1    2    0    0  0.31588090694E+02 -0.13255836670E+02 -0.26647765766E+02  0.47787215447E+02  0.19999746507E+02 0.  0.
        -12    1    1    2    0    0 -0.31588090694E+02  0.13255836670E+02  0.26647765766E+02  0.43400784553E+02  0.00000000000E+00 0.  1.
         11    1    3    3    0    0  0.17734642096E+02 -0.95863684968E+01 -0.13722602327E+02  0.24387000761E+02  0.51100000000E-03 0. -1.
        -11    1    3    3    0    0  0.14712520532E+02 -0.41686648569E+01 -0.14798409362E+02  0.21279777889E+02  0.51100000000E-03 0.  1.
         12    1    3    3    0    0 -0.85907193496E+00  0.49919668370E+00  0.18732459232E+01  0.21204367964E+01  0.00000000000E+00 0. -1.
</event>
<event>
 7    1  0.4432754E-010  0.4778728E+02  0.7816164E-02  0.1312668E+00
        -11   -1    0    0    0    0  0.00000000000E+00  0.00000000000E+00  0.45593999997E+02  0.45594000000E+02  0.51100000000E-03 0. -1.
         11   -1    0    0    0    0 -0.00000000000E+00 -0.00000000000E+00 -0.45593999997E+02  0.45594000000E+02  0.51100000000E-03 0.  1.
    9900012    2    1    2    0    0 -0.20770070242E+02 -0.35753687767E+02  0.13187148442E+02  0.47787275457E+02  0.20000020120E+02 0.  0.
        -12    1    1    2    0    0  0.20770070242E+02  0.35753687767E+02 -0.13187148442E+02  0.43400724543E+02  0.00000000000E+00 0.  1.
         11    1    3    3    0    0 -0.14286391817E+02 -0.17584788079E+02  0.44567382648E+01  0.23090870039E+02  0.51100000000E-03 0. -1.
        -11    1    3    3    0    0 -0.67787467358E+01 -0.18144325872E+02  0.37769018177E+01  0.19734055748E+02  0.51100000000E-03 0.  1.
        -12    1    3    3    0    0  0.29506831088E+00 -0.24573815798E-01  0.49535083597E+01  0.49623496703E+01  0.00000000000E+00 0.  1.
</event>
<event>
 7    1  0.4432754E-010  0.4778727E+02  0.7816164E-02  0.1312668E+00
        -11   -1    0    0    0    0  0.00000000000E+00  0.00000000000E+00  0.45593999997E+02  0.45594000000E+02  0.51100000000E-03 0.  1.
         11   -1    0    0    0    0 -0.00000000000E+00 -0.00000000000E+00 -0.45593999997E+02  0.45594000000E+02  0.51100000000E-03 0. -1.
    9900012    2    1    2    0    0  0.11218396286E+01 -0.35723717656E+02 -0.24620733723E+02  0.47787273550E+02  0.20000011422E+02 0.  0.
        -12    1    1    2    0    0 -0.11218396286E+01  0.35723717656E+02  0.24620733723E+02  0.43400726450E+02  0.00000000000E+00 0.  1.
         11    1    3    3    0    0  0.36293226530E+01 -0.18105417540E+02 -0.29490275303E+01  0.18699596008E+02  0.51100000000E-03 0. -1.
        -11    1    3    3    0    0  0.21714522497E+01 -0.35971240675E+01 -0.25353336069E+01  0.49073845569E+01  0.51100000000E-03 0.  1.
         12    1    3    3    0    0 -0.46789352741E+01 -0.14021176049E+02 -0.19136372586E+02  0.24180292985E+02  0.00000000000E+00 0. -1.
</event>
<event>
 7    1  0.4432754E-010  0.4778727E+02  0.7816164E-02  0.1312668E+00
        -11   -1    0    0    0    0  0.00000000000E+00  0.00000000000E+00  0.45593999997E+02  0.45594000000E+02  0.51100000000E-03 0. -1.
         11   -1    0    0    0    0 -0.00000000000E+00 -0.00000000000E+00 -0.45593999997E+02  0.45594000000E+02  0.51100000000E-03 0.  1.
    9900012    2    1    2    0    0  0.19528438599E+02 -0.34897407216E+02  0.16865182304E+02  0.47787270528E+02  0.19999997647E+02 0.  0.
        -12    1    1    2    0    0 -0.19528438599E+02  0.34897407216E+02 -0.16865182304E+02  0.43400729472E+02  0.00000000000E+00 0.  1.
         11    1    3    3    0    0  0.93260430140E+01 -0.21444335662E+02  0.34184154225E+01  0.23633031429E+02  0.51100000000E-03 0. -1.
        -11    1    3    3    0    0  0.94600151884E+01 -0.15347082707E+02  0.12195593884E+02  0.21765967597E+02  0.51100000000E-03 0.  1.
        -12    1    3    3    0    0  0.74238039629E+00  0.18940111526E+01  0.12511729978E+01  0.23882715024E+01  0.00000000000E+00 0.  1.
</event>
<event>
 7    1  0.4432754E-010  0.4778727E+02  0.7816164E-02  0.1312668E+00
        -11   -1    0    0    0    0  0.00000000000E+00  0.00000000000E+00  0.45593999997E+02  0.45594000000E+02  0.51100000000E-03 0. -1.
         11   -1    0    0    0    0 -0.00000000000E+00 -0.00000000000E+00 -0.45593999997E+02  0.45594000000E+02  0.51100000000E-03 0.  1.
    9900012    2    1    2    0    0 -0.33027700740E+02  0.16348214423E+02  0.22924451362E+02  0.47787267273E+02  0.19999982804E+02 0.  0.
        -12    1    1    2    0    0  0.33027700740E+02 -0.16348214423E+02 -0.22924451362E+02  0.43400732727E+02  0.00000000000E+00 0.  1.
         11    1    3    3    0    0 -0.25002372999E+02  0.86175125000E+01  0.11971615642E+02  0.29029291390E+02  0.51100000000E-03 0. -1.
        -11    1    3    3    0    0 -0.44081641207E+01 -0.13659756296E+01  0.65780819894E+01  0.80354815198E+01  0.51100000000E-03 0.  1.
         12    1    3    3    0    0 -0.36171636202E+01  0.90966775527E+01  0.43747537314E+01  0.10722494363E+02  0.00000000000E+00 0. -1.
</event>
<event>
 7    1  0.4432754E-010  0.4778728E+02  0.7816164E-02  0.1312668E+00
        -11   -1    0    0    0    0  0.00000000000E+00  0.00000000000E+00  0.45593999997E+02  0.45594000000E+02  0.51100000000E-03 0.  1.
         11   -1    0    0    0    0 -0.00000000000E+00 -0.00000000000E+00 -0.45593999997E+02  0.45594000000E+02  0.51100000000E-03 0. -1.
    9900012    2    1    2    0    0 -0.15281356444E+02 -0.82691514005E+01 -0.39770892426E+02  0.47787278762E+02  0.20000035187E+02 0.  0.
        -12    1    1    2    0    0  0.15281356444E+02  0.82691514005E+01  0.39770892426E+02  0.43400721238E+02  0.00000000000E+00 0.  1.
         11    1    3    3    0    0 -0.61492767888E+01 -0.85098095079E+01 -0.76640522633E+01  0.12998775336E+02  0.51100000000E-03 0. -1.
        -11    1    3    3    0    0 -0.70670936175E+01 -0.43759582185E+01 -0.18936384014E+02  0.20680412528E+02  0.51100000000E-03 0.  1.
        -12    1    3    3    0    0 -0.20649860376E+01  0.46166163258E+01 -0.13170456148E+02  0.14108090898E+02  0.00000000000E+00 0.  1.
</event>
<event>
 7    1  0.4432754E-010  0.4778727E+02  0.7816164E-02  0.1312668E+00
        -11   -1    0    0    0    0  0.00000000000E+00  0.00000000000E+00  0.45593999997E+02  0.45594000000E+02  0.51100000000E-03 0. -1.
         11   -1    0    0    0    0 -0.00000000000E+00 -0.00000000000E+00 -0.45593999997E+02  0.45594000000E+02  0.51100000000E-03 0.  1.
    9900012    2    1    2    0    0  0.13389282655E+02 -0.10893198176E+02  0.39820705961E+02  0.47787270976E+02  0.19999999690E+02 0.  0.
        -12    1    1    2    0    0 -0.13389282655E+02  0.10893198176E+02 -0.39820705961E+02  0.43400729024E+02  0.00000000000E+00 0.  1.
         11    1    3    3    0    0 -0.36564408301E+01 -0.60570689523E+01  0.78869211835E+01  0.10595337175E+02  0.51100000000E-03 0.  1.
        -11    1    3    3    0    0  0.27601487876E+01 -0.13505513251E+01  0.12205716200E+02  0.12586576914E+02  0.51100000000E-03 0. -1.
        -12    1    3    3    0    0  0.14285574697E+02 -0.34855778985E+01  0.19728068578E+02  0.24605356887E+02  0.00000000000E+00 0.  1.
</event>
<event>
 7    1  0.4432754E-010  0.4778727E+02  0.7816164E-02  0.1312668E+00
        -11   -1    0    0    0    0  0.00000000000E+00  0.00000000000E+00  0.45593999997E+02  0.45594000000E+02  0.51100000000E-03 0.  1.
         11   -1    0    0    0    0 -0.00000000000E+00 -0.00000000000E+00 -0.45593999997E+02  0.45594000000E+02  0.51100000000E-03 0. -1.
    9900012    2    1    2    0    0 -0.29052118985E+02 -0.59101259939E+01 -0.31696494154E+02  0.47787274793E+02  0.20000017093E+02 0.  0.
        -12    1    1    2    0    0  0.29052118985E+02  0.59101259939E+01  0.31696494154E+02  0.43400725207E+02  0.00000000000E+00 0.  1.
         11    1    3    3    0    0 -0.88933751806E+01 -0.15618091435E+01 -0.99980991827E+00  0.90846568476E+01  0.51100000000E-03 0. -1.
        -11    1    3    3    0    0 -0.58862994331E+01  0.37278040791E+01 -0.69271247240E+01  0.98249733573E+01  0.51100000000E-03 0.  1.
         12    1    3    3    0    0 -0.14272444372E+02 -0.80761209296E+01 -0.23769559512E+02  0.28877644589E+02  0.00000000000E+00 0. -1.
</event>
<event>
 7    1  0.4432754E-010  0.4778727E+02  0.7816164E-02  0.1312668E+00
        -11   -1    0    0    0    0  0.00000000000E+00  0.00000000000E+00  0.45593999997E+02  0.45594000000E+02  0.51100000000E-03 0. -1.
         11   -1    0    0    0    0 -0.00000000000E+00 -0.00000000000E+00 -0.45593999997E+02  0.45594000000E+02  0.51100000000E-03 0.  1.
    9900012    2    1    2    0    0 -0.85978192037E+01  0.32710080342E+02  0.27198371335E+02  0.47787271270E+02  0.20000001026E+02 0.  0.
        -12    1    1    2    0    0  0.85978192037E+01 -0.32710080342E+02 -0.27198371335E+02  0.43400728730E+02  0.00000000000E+00 0.  1.
         11    1    3    3    0    0  0.21441731314E+01  0.55158052250E+01  0.59724811578E+00  0.59479653051E+01  0.51100000000E-03 0. -1.
        -11    1    3    3    0    0 -0.12736468242E+01  0.18377069835E+02  0.20418062800E+02  0.27499748375E+02  0.51100000000E-03 0.  1.
        -12    1    3    3    0    0 -0.94683455109E+01  0.88172052824E+01  0.61830604198E+01  0.14339557589E+02  0.00000000000E+00 0.  1.
</event>
<event>
 7    1  0.4432754E-010  0.4778729E+02  0.7816164E-02  0.1312668E+00
        -11   -1    0    0    0    0  0.00000000000E+00  0.00000000000E+00  0.45593999997E+02  0.45594000000E+02  0.51100000000E-03 0.  1.
         11   -1    0    0    0    0 -0.00000000000E+00 -0.00000000000E+00 -0.45593999997E+02  0.45594000000E+02  0.51100000000E-03 0. -1.
    9900012    2    1    2    0    0  0.33910250119E+02 -0.12723904818E+02 -0.23912738195E+02  0.47787287276E+02  0.20000074005E+02 0.  0.
        -12    1    1    2    0    0 -0.33910250119E+02  0.12723904818E+02  0.23912738195E+02  0.43400712724E+02  0.00000000000E+00 0.  1.
         11    1    3    3    0    0  0.22081392108E+02 -0.10590031624E+02 -0.44958112557E+01  0.24898774394E+02  0.51100000000E-03 0.  1.
        -11    1    3    3    0    0  0.31307879736E+01 -0.10151233523E+01 -0.43439499782E+01  0.54499734339E+01  0.51100000000E-03 0. -1.
        -12    1    3    3    0    0  0.86980700378E+01 -0.11187498414E+01 -0.15072976961E+02  0.17438539448E+02  0.00000000000E+00 0.  1.
</event>
<event>
 7    1  0.4432754E-010  0.4778723E+02  0.7816164E-02  0.1312668E+00
        -11   -1    0    0    0    0  0.00000000000E+00  0.00000000000E+00  0.45593999997E+02  0.45594000000E+02  0.51100000000E-03 0. -1.
         11   -1    0    0    0    0 -0.00000000000E+00 -0.00000000000E+00 -0.45593999997E+02  0.45594000000E+02  0.51100000000E-03 0.  1.
    9900012    2    1    2    0    0 -0.24723404366E+02  0.35634928985E+02  0.15912615467E+01  0.47787228111E+02  0.19999804250E+02 0.  0.
        -12    1    1    2    0    0  0.24723404366E+02 -0.35634928985E+02 -0.15912615467E+01  0.43400771889E+02  0.00000000000E+00 0.  1.
         11    1    3    3    0    0 -0.19104595831E+02  0.31723439519E+02 -0.14485516304E+01  0.37060227993E+02  0.51100000000E-03 0. -1.
        -11    1    3    3    0    0  0.10228123270E+01  0.26874432678E+01 -0.76494978841E+00  0.29755074885E+01  0.51100000000E-03 0.  1.
        -12    1    3    3    0    0 -0.66416208620E+01  0.12240461982E+01  0.38047629654E+01  0.77514926300E+01  0.00000000000E+00 0.  1.
</event>
<event>
 7    1  0.4432754E-010  0.4778726E+02  0.7816164E-02  0.1312668E+00
        -11   -1    0    0    0    0  0.00000000000E+00  0.00000000000E+00  0.45593999997E+02  0.45594000000E+02  0.51100000000E-03 0.  1.
         11   -1    0    0    0    0 -0.00000000000E+00 -0.00000000000E+00 -0.45593999997E+02  0.45594000000E+02  0.51100000000E-03 0. -1.
    9900012    2    1    2    0    0 -0.16738474395E+02 -0.39785067083E+02  0.45383297401E+01  0.47787256634E+02  0.19999934299E+02 0.  0.
        -12    1    1    2    0    0  0.16738474395E+02  0.39785067083E+02 -0.45383297401E+01  0.43400743366E+02  0.00000000000E+00 0.  1.
         11    1    3    3    0    0 -0.33580044820E+01 -0.16828523195E+02  0.16245553735E+01  0.17237011558E+02  0.51100000000E-03 0. -1.
        -11    1    3    3    0    0 -0.54892944477E-01 -0.12456048593E+02  0.50694398206E+01  0.13448248219E+02  0.51100000000E-03 0.  1.
        -12    1    3    3    0    0 -0.13325576969E+02 -0.10500495294E+02 -0.21556654540E+01  0.17101996858E+02  0.00000000000E+00 0.  1.
</event>
<event>
 7    1  0.4432754E-010  0.4778732E+02  0.7816164E-02  0.1312668E+00
        -11   -1    0    0    0    0  0.00000000000E+00  0.00000000000E+00  0.45593999997E+02  0.45594000000E+02  0.51100000000E-03 0.  1.
         11   -1    0    0    0    0 -0.00000000000E+00 -0.00000000000E+00 -0.45593999997E+02  0.45594000000E+02  0.51100000000E-03 0. -1.
    9900012    2    1    2    0    0 -0.64011537354E+01  0.18975565523E+02 -0.38504188835E+02  0.47787315513E+02  0.20000202750E+02 0.  0.
        -12    1    1    2    0    0  0.64011537354E+01 -0.18975565523E+02  0.38504188835E+02  0.43400684487E+02  0.00000000000E+00 0.  1.
         11    1    3    3    0    0  0.20619042340E+01 -0.13206187984E+01 -0.10628091037E+01  0.26692782794E+01  0.51100000000E-03 0. -1.
        -11    1    3    3    0    0 -0.68607585978E+01  0.35432428380E+01 -0.74627453257E+01  0.10738582141E+02  0.51100000000E-03 0.  1.
         12    1    3    3    0    0 -0.16022993717E+01  0.16752941483E+02 -0.29978634406E+02  0.34379455093E+02  0.00000000000E+00 0. -1.
</event>
<event>
 7    1  0.4432754E-010  0.4778727E+02  0.7816164E-02  0.1312668E+00
        -11   -1    0    0    0    0  0.00000000000E+00  0.00000000000E+00  0.45593999997E+02  0.45594000000E+02  0.51100000000E-03 0.  1.
         11   -1    0    0    0    0 -0.00000000000E+00 -0.00000000000E+00 -0.45593999997E+02  0.45594000000E+02  0.51100000000E-03 0. -1.
    9900012    2    1    2    0    0 -0.22366297957E+02  0.20649610476E+02 -0.30934859949E+02  0.47787271237E+02  0.20000000876E+02 0.  0.
        -12    1    1    2    0    0  0.22366297957E+02 -0.20649610476E+02  0.30934859949E+02  0.43400728763E+02  0.00000000000E+00 0.  1.
         11    1    3    3    0    0 -0.12987237320E+02  0.13101251229E+02 -0.13833541033E+02  0.23058143350E+02  0.51100000000E-03 0. -1.
        -11    1    3    3    0    0 -0.32920944227E+00  0.28246201190E+01  0.17157822782E+01  0.33212598154E+01  0.51100000000E-03 0.  1.
        -12    1    3    3    0    0 -0.90498511948E+01  0.47237391275E+01 -0.18817101194E+02  0.21407868071E+02  0.00000000000E+00 0.  1.
</event>
<event>
 7    1  0.4432754E-010  0.4778727E+02  0.7816164E-02  0.1312668E+00
        -11   -1    0    0    0    0  0.00000000000E+00  0.00000000000E+00  0.45593999997E+02  0.45594000000E+02  0.51100000000E-03 0. -1.
         11   -1    0    0    0    0 -0.00000000000E+00 -0.00000000000E+00 -0.45593999997E+02  0.45594000000E+02  0.51100000000E-03 0.  1.
    9900012    2    1    2    0    0  0.11520504846E+02 -0.22064645489E+02  0.35553519521E+02  0.47787270021E+02  0.19999995332E+02 0.  0.
        -12    1    1    2    0    0 -0.11520504846E+02  0.22064645489E+02 -0.35553519521E+02  0.43400729979E+02  0.00000000000E+00 0.  1.
         11    1    3    3    0    0  0.69150913821E+01 -0.69898856029E+01  0.11398522003E+02  0.15053348255E+02  0.51100000000E-03 0. -1.
        -11    1    3    3    0    0  0.94478774675E+01 -0.50607805890E+01  0.94011779264E+01  0.14256789101E+02  0.51100000000E-03 0.  1.
         12    1    3    3    0    0 -0.48424640039E+01 -0.10013979297E+02  0.14753819591E+02  0.18477132665E+02  0.00000000000E+00 0. -1.
</event>
<event>
 7    1  0.4432754E-010  0.4778727E+02  0.7816164E-02  0.1312668E+00
        -11   -1    0    0    0    0  0.00000000000E+00  0.00000000000E+00  0.45593999997E+02  0.45594000000E+02  0.51100000000E-03 0.  1.
         11   -1    0    0    0    0 -0.00000000000E+00 -0.00000000000E+00 -0.45593999997E+02  0.45594000000E+02  0.51100000000E-03 0. -1.
    9900012    2    1    2    0    0  0.24829798546E+02 -0.98826056048E+01 -0.34197052704E+02  0.47787271861E+02  0.20000003722E+02 0.  0.
        -12    1    1    2    0    0 -0.24829798546E+02  0.98826056048E+01  0.34197052704E+02  0.43400728139E+02  0.00000000000E+00 0.  1.
         11    1    3    3    0    0  0.14508983364E+02 -0.51341106509E+01 -0.12330208786E+02  0.19720642469E+02  0.51100000000E-03 0. -1.
        -11    1    3    3    0    0  0.13194586292E+02 -0.46057096540E+01 -0.20668190799E+02  0.24949624847E+02  0.51100000000E-03 0.  1.
        -12    1    3    3    0    0 -0.28737711096E+01 -0.14278529980E+00 -0.11986531184E+01  0.31170045445E+01  0.00000000000E+00 0.  1.
</event>
<event>
 7    1  0.4432754E-010  0.4778727E+02  0.7816164E-02  0.1312668E+00
        -11   -1    0    0    0    0  0.00000000000E+00  0.00000000000E+00  0.45593999997E+02  0.45594000000E+02  0.51100000000E-03 0.  1.
         11   -1    0    0    0    0 -0.00000000000E+00 -0.00000000000E+00 -0.45593999997E+02  0.45594000000E+02  0.51100000000E-03 0. -1.
    9900012    2    1    2    0    0 -0.24824277360E+02  0.26535131405E+02 -0.23733211195E+02  0.47787271219E+02  0.20000000796E+02 0.  0.
        -12    1    1    2    0    0  0.24824277360E+02 -0.26535131405E+02  0.23733211195E+02  0.43400728781E+02  0.00000000000E+00 0.  1.
         11    1    3    3    0    0 -0.63542629593E+01  0.10143414252E+02 -0.12634673857E+02  0.17404036721E+02  0.51100000000E-03 0. -1.
        -11    1    3    3    0    0 -0.55803712598E+01  0.10024796849E+02 -0.11161433038E+02  0.16006707438E+02  0.51100000000E-03 0.  1.
        -12    1    3    3    0    0 -0.12889643141E+02  0.63669203037E+01  0.62895700575E-01  0.14376527061E+02  0.00000000000E+00 0.  1.
</event>
<event>
 7    1  0.4432754E-010  0.4778727E+02  0.7816164E-02  0.1312668E+00
        -11   -1    0    0    0    0  0.00000000000E+00  0.00000000000E+00  0.45593999997E+02  0.45594000000E+02  0.51100000000E-03 0. -1.
         11   -1    0    0    0    0 -0.00000000000E+00 -0.00000000000E+00 -0.45593999997E+02  0.45594000000E+02  0.51100000000E-03 0.  1.
    9900012    2    1    2    0    0 -0.25201508243E+01  0.15004284420E+01  0.43301510037E+02  0.47787271698E+02  0.20000002979E+02 0.  0.
        -12    1    1    2    0    0  0.25201508243E+01 -0.15004284420E+01 -0.43301510037E+02  0.43400728302E+02  0.00000000000E+00 0.  1.
         11    1    3    3    0    0 -0.21691600950E+01  0.56896919456E+01  0.98511871087E+01  0.11581180323E+02  0.51100000000E-03 0. -1.
        -11    1    3    3    0    0  0.23898197816E+01  0.39705714464E+01  0.70401746814E+01  0.84285666638E+01  0.51100000000E-03 0.  1.
        -12    1    3    3    0    0 -0.27408105109E+01 -0.81598349500E+01  0.26410148247E+02  0.27777524711E+02  0.00000000000E+00 0.  1.
</event>
<event>
 7    1  0.4432754E-010  0.4778726E+02  0.7816164E-02  0.1312668E+00
        -11   -1    0    0    0    0  0.00000000000E+00  0.00000000000E+00  0.45593999997E+02  0.45594000000E+02  0.51100000000E-03 0.  1.
         11   -1    0    0    0    0 -0.00000000000E+00 -0.00000000000E+00 -0.45593999997E+02  0.45594000000E+02  0.51100000000E-03 0. -1.
    9900012    2    1    2    0    0 -0.87075062987E+01  0.14795166831E+02 -0.39861087323E+02  0.47787263715E+02  0.19999966582E+02 0.  0.
        -12    1    1    2    0    0  0.87075062987E+01 -0.14795166831E+02  0.39861087323E+02  0.43400736285E+02  0.00000000000E+00 0.  1.
         11    1    3    3    0    0 -0.86705980987E+01  0.77338857100E+01 -0.21664681241E+02  0.24583544762E+02  0.51100000000E-03 0. -1.
        -11    1    3    3    0    0 -0.44954853232E+01  0.78165569016E+01 -0.80194093543E+01  0.12067264675E+02  0.51100000000E-03 0.  1.
         12    1    3    3    0    0  0.44585771232E+01 -0.75527578075E+00 -0.10176996728E+02  0.11136454277E+02  0.00000000000E+00 0. -1.
</event>
<event>
 7    1  0.4432754E-010  0.4778728E+02  0.7816164E-02  0.1312668E+00
        -11   -1    0    0    0    0  0.00000000000E+00  0.00000000000E+00  0.45593999997E+02  0.45594000000E+02  0.51100000000E-03 0. -1.
         11   -1    0    0    0    0 -0.00000000000E+00 -0.00000000000E+00 -0.45593999997E+02  0.45594000000E+02  0.51100000000E-03 0.  1.
    9900012    2    1    2    0    0  0.27701032621E+02 -0.20564436581E+02  0.26332101213E+02  0.47787276337E+02  0.20000024131E+02 0.  0.
        -12    1    1    2    0    0 -0.27701032621E+02  0.20564436581E+02 -0.26332101213E+02  0.43400723663E+02  0.00000000000E+00 0.  1.
         11    1    3    3    0    0  0.58050544163E+01 -0.11575328045E+01 -0.22557097916E+01  0.63345691168E+01  0.51100000000E-03 0. -1.
        -11    1    3    3    0    0  0.37910735249E+01 -0.70261844066E+01  0.61714798716E+01  0.10090920169E+02  0.51100000000E-03 0.  1.
         12    1    3    3    0    0  0.18104904680E+02 -0.12380719370E+02  0.22416331133E+02  0.31361787051E+02  0.00000000000E+00 0. -1.
</event>
<event>
 7    1  0.4432754E-010  0.4778726E+02  0.7816164E-02  0.1312668E+00
        -11   -1    0    0    0    0  0.00000000000E+00  0.00000000000E+00  0.45593999997E+02  0.45594000000E+02  0.51100000000E-03 0. -1.
         11   -1    0    0    0    0 -0.00000000000E+00 -0.00000000000E+00 -0.45593999997E+02  0.45594000000E+02  0.51100000000E-03 0.  1.
    9900012    2    1    2    0    0 -0.26065815896E+01 -0.15583721504E+02  0.40422484391E+02  0.47787263971E+02  0.19999967750E+02 0.  0.
        -12    1    1    2    0    0  0.26065815896E+01  0.15583721504E+02 -0.40422484391E+02  0.43400736029E+02  0.00000000000E+00 0.  1.
         11    1    3    3    0    0 -0.89523492097E+00 -0.12030634238E+02  0.16250213785E+02  0.20238751296E+02  0.51100000000E-03 0. -1.
        -11    1    3    3    0    0 -0.52266661084E+01 -0.66876228209E+01  0.16202859031E+02  0.18291390834E+02  0.51100000000E-03 0.  1.
        -12    1    3    3    0    0  0.35153194398E+01  0.31345355551E+01  0.79694115753E+01  0.92571218403E+01  0.00000000000E+00 0.  1.
</event>
<event>
 7    1  0.4432754E-010  0.4778727E+02  0.7816164E-02  0.1312668E+00
        -11   -1    0    0    0    0  0.00000000000E+00  0.00000000000E+00  0.45593999997E+02  0.45594000000E+02  0.51100000000E-03 0. -1.
         11   -1    0    0    0    0 -0.00000000000E+00 -0.00000000000E+00 -0.45593999997E+02  0.45594000000E+02  0.51100000000E-03 0.  1.
    9900012    2    1    2    0    0 -0.34872487354E+02 -0.57693033046E+01  0.25184280696E+02  0.47787271561E+02  0.20000002353E+02 0.  0.
        -12    1    1    2    0    0  0.34872487354E+02  0.57693033046E+01 -0.25184280696E+02  0.43400728439E+02  0.00000000000E+00 0.  1.
         11    1    3    3    0    0 -0.14503587659E+02  0.18812950275E+00  0.13050795534E+02  0.19511860803E+02  0.51100000000E-03 0. -1.
        -11    1    3    3    0    0 -0.18731766710E+01 -0.36241614256E+01  0.82922473550E+01  0.92414665145E+01  0.51100000000E-03 0.  1.
         12    1    3    3    0    0 -0.18495723025E+02 -0.23332713817E+01  0.38412378074E+01  0.19033944243E+02  0.00000000000E+00 0. -1.
</event>
<event>
 7    1  0.4432754E-010  0.4778727E+02  0.7816164E-02  0.1312668E+00
        -11   -1    0    0    0    0  0.00000000000E+00  0.00000000000E+00  0.45593999997E+02  0.45594000000E+02  0.51100000000E-03 0.  1.
         11   -1    0    0    0    0 -0.00000000000E+00 -0.00000000000E+00 -0.45593999997E+02  0.45594000000E+02  0.51100000000E-03 0. -1.
    9900012    2    1    2    0    0  0.15550641456E+02  0.11920212556E+02 -0.38726080469E+02  0.47787271601E+02  0.20000002537E+02 0.  0.
        -12    1    1    2    0    0 -0.15550641456E+02 -0.11920212556E+02  0.38726080469E+02  0.43400728399E+02  0.00000000000E+00 0.  1.
         11    1    3    3    0    0  0.32272342252E+01  0.56391257455E+01 -0.12626210274E+02  0.14199857959E+02  0.51100000000E-03 0. -1.
        -11    1    3    3    0    0  0.31851012768E+01  0.53471795197E+01 -0.33379853300E+00  0.62328661690E+01  0.51100000000E-03 0.  1.
        -12    1    3    3    0    0  0.91383059536E+01  0.93390729120E+00 -0.25766071662E+02  0.27354547472E+02  0.00000000000E+00 0.  1.
</event>
<event>
 7    1  0.4432754E-010  0.4778727E+02  0.7816164E-02  0.1312668E+00
        -11   -1    0    0    0    0  0.00000000000E+00  0.00000000000E+00  0.45593999997E+02  0.45594000000E+02  0.51100000000E-03 0.  1.
         11   -1    0    0    0    0 -0.00000000000E+00 -0.00000000000E+00 -0.45593999997E+02  0.45594000000E+02  0.51100000000E-03 0. -1.
    9900012    2    1    2    0    0 -0.61810184428E+01 -0.31519448802E+02 -0.29188059581E+02  0.47787268856E+02  0.19999990020E+02 0.  0.
        -12    1    1    2    0    0  0.61810184428E+01  0.31519448802E+02  0.29188059581E+02  0.43400731144E+02  0.00000000000E+00 0.  1.
         11    1    3    3    0    0 -0.68420310472E+01 -0.99102827850E+01 -0.90093768818E+01  0.15039812691E+02  0.51100000000E-03 0. -1.
        -11    1    3    3    0    0  0.46968837112E+00 -0.19806358382E+02 -0.96013214074E+01  0.22015853664E+02  0.51100000000E-03 0.  1.
         12    1    3    3    0    0  0.19132423333E+00 -0.18028076349E+01 -0.10577361292E+02  0.10731602500E+02  0.00000000000E+00 0. -1.
</event>
<event>
 7    1  0.4432754E-010  0.4778728E+02  0.7816164E-02  0.1312668E+00
        -11   -1    0    0    0    0  0.00000000000E+00  0.00000000000E+00  0.45593999997E+02  0.45594000000E+02  0.51100000000E-03 0.  1.
         11   -1    0    0    0    0 -0.00000000000E+00 -0.00000000000E+00 -0.45593999997E+02  0.45594000000E+02  0.51100000000E-03 0. -1.
    9900012    2    1    2    0    0  0.37223528601E+02  0.91957625813E+01  0.20333938944E+02  0.47787283371E+02  0.20000056200E+02 0.  0.
        -12    1    1    2    0    0 -0.37223528601E+02 -0.91957625813E+01 -0.20333938944E+02  0.43400716629E+02  0.00000000000E+00 0.  1.
         11    1    3    3    0    0  0.23476731825E+02  0.49185144553E+01  0.20243800930E+01  0.24071701989E+02  0.51100000000E-03 0. -1.
        -11    1    3    3    0    0  0.19413559959E+01 -0.84331848592E+00  0.35597230889E+01  0.41414584269E+01  0.51100000000E-03 0.  1.
         12    1    3    3    0    0  0.11805440780E+02  0.51205666119E+01  0.14749835762E+02  0.19574122955E+02  0.00000000000E+00 0. -1.
</event>
<event>
 7    1  0.4432754E-010  0.4778727E+02  0.7816164E-02  0.1312668E+00
        -11   -1    0    0    0    0  0.00000000000E+00  0.00000000000E+00  0.45593999997E+02  0.45594000000E+02  0.51100000000E-03 0.  1.
         11   -1    0    0    0    0 -0.00000000000E+00 -0.00000000000E+00 -0.45593999997E+02  0.45594000000E+02  0.51100000000E-03 0. -1.
    9900012    2    1    2    0    0  0.22515506346E+02 -0.30902243541E+02 -0.20535975293E+02  0.47787274624E+02  0.20000016322E+02 0.  0.
        -12    1    1    2    0    0 -0.22515506346E+02  0.30902243541E+02  0.20535975293E+02  0.43400725376E+02  0.00000000000E+00 0.  1.
         11    1    3    3    0    0  0.21195380161E+02 -0.16855244422E+02 -0.99396812786E+01  0.28846848508E+02  0.51100000000E-03 0. -1.
        -11    1    3    3    0    0  0.32990961873E+01 -0.33671870947E+01 -0.43299578768E+01  0.64008218269E+01  0.51100000000E-03 0.  1.
        -12    1    3    3    0    0 -0.19789700016E+01 -0.10679812024E+02 -0.62663361372E+01  0.12539604289E+02  0.00000000000E+00 0.  1.
</event>
<event>
 7    1  0.4432754E-010  0.4778725E+02  0.7816164E-02  0.1312668E+00
        -11   -1    0    0    0    0  0.00000000000E+00  0.00000000000E+00  0.45593999997E+02  0.45594000000E+02  0.51100000000E-03 0.  1.
         11   -1    0    0    0    0 -0.00000000000E+00 -0.00000000000E+00 -0.45593999997E+02  0.45594000000E+02  0.51100000000E-03 0. -1.
    9900012    2    1    2    0    0  0.32595694792E+02 -0.18534687448E+02 -0.21854315468E+02  0.47787250440E+02  0.19999906057E+02 0.  0.
        -12    1    1    2    0    0 -0.32595694792E+02  0.18534687448E+02  0.21854315468E+02  0.43400749560E+02  0.00000000000E+00 0.  1.
         11    1    3    3    0    0  0.62254752908E+01 -0.85676292779E+00  0.54039973363E+00  0.63073463076E+01  0.51100000000E-03 0. -1.
        -11    1    3    3    0    0  0.15933326801E+01 -0.67606237963E+01 -0.10973730398E+01  0.70319962311E+01  0.51100000000E-03 0.  1.
         12    1    3    3    0    0  0.24776886821E+02 -0.10917300724E+02 -0.21297342162E+02  0.34447907902E+02  0.00000000000E+00 0. -1.
</event>
<event>
 7    1  0.4432754E-010  0.4778727E+02  0.7816164E-02  0.1312668E+00
        -11   -1    0    0    0    0  0.00000000000E+00  0.00000000000E+00  0.45593999997E+02  0.45594000000E+02  0.51100000000E-03 0.  1.
         11   -1    0    0    0    0 -0.00000000000E+00 -0.00000000000E+00 -0.45593999997E+02  0.45594000000E+02  0.51100000000E-03 0. -1.
    9900012    2    1    2    0    0 -0.29101249888E+02  0.11621880911E+02 -0.30027861240E+02  0.47787270610E+02  0.19999998019E+02 0.  0.
        -12    1    1    2    0    0  0.29101249888E+02 -0.11621880911E+02  0.30027861240E+02  0.43400729390E+02  0.00000000000E+00 0.  1.
         11    1    3    3    0    0 -0.15501557169E+02  0.82576756278E+01 -0.15850937629E+02  0.23658818766E+02  0.51100000000E-03 0. -1.
        -11    1    3    3    0    0 -0.14443727454E+02  0.61436216167E+01 -0.87427843329E+01  0.17966681037E+02  0.51100000000E-03 0.  1.
         12    1    3    3    0    0  0.84403473445E+00 -0.27794163332E+01 -0.54341392782E+01  0.61617708073E+01  0.00000000000E+00 0. -1.
</event>
<event>
 7    1  0.4432754E-010  0.4778727E+02  0.7816164E-02  0.1312668E+00
        -11   -1    0    0    0    0  0.00000000000E+00  0.00000000000E+00  0.45593999997E+02  0.45594000000E+02  0.51100000000E-03 0. -1.
         11   -1    0    0    0    0 -0.00000000000E+00 -0.00000000000E+00 -0.45593999997E+02  0.45594000000E+02  0.51100000000E-03 0.  1.
    9900012    2    1    2    0    0  0.32556915855E+02 -0.19215570503E+02  0.21317417895E+02  0.47787271602E+02  0.20000002544E+02 0.  0.
        -12    1    1    2    0    0 -0.32556915855E+02  0.19215570503E+02 -0.21317417895E+02  0.43400728398E+02  0.00000000000E+00 0.  1.
         11    1    3    3    0    0  0.47852043302E+01  0.15718281745E+00  0.31806243407E+01  0.57479786340E+01  0.51100000000E-03 0. -1.
        -11    1    3    3    0    0  0.59262437402E+01  0.10062195032E+01  0.89542084165E+01  0.10784743445E+02  0.51100000000E-03 0.  1.
         12    1    3    3    0    0  0.21845467784E+02 -0.20378972823E+02  0.91825851383E+01  0.31254549523E+02  0.00000000000E+00 0. -1.
</event>
<event>
 7    1  0.4432754E-010  0.4778727E+02  0.7816164E-02  0.1312668E+00
        -11   -1    0    0    0    0  0.00000000000E+00  0.00000000000E+00  0.45593999997E+02  0.45594000000E+02  0.51100000000E-03 0.  1.
         11   -1    0    0    0    0 -0.00000000000E+00 -0.00000000000E+00 -0.45593999997E+02  0.45594000000E+02  0.51100000000E-03 0. -1.
    9900012    2    1    2    0    0 -0.77759154281E+01 -0.34599272534E+02 -0.25020961911E+02  0.47787273559E+02  0.20000011466E+02 0.  0.
        -12    1    1    2    0    0  0.77759154281E+01  0.34599272534E+02  0.25020961911E+02  0.43400726441E+02  0.00000000000E+00 0.  1.
         11    1    3    3    0    0 -0.48610320751E+01 -0.29448173024E+01 -0.81811816268E+01  0.99615919838E+01  0.51100000000E-03 0. -1.
        -11    1    3    3    0    0 -0.19679281039E+01 -0.47798543965E+00  0.57149546856E+00  0.21042382076E+01  0.51100000000E-03 0.  1.
        -12    1    3    3    0    0 -0.94695524913E+00 -0.31176469792E+02 -0.17411275753E+02  0.35721443368E+02  0.00000000000E+00 0.  1.
</event>
<event>
 7    1  0.4432754E-010  0.4778726E+02  0.7816164E-02  0.1312668E+00
        -11   -1    0    0    0    0  0.00000000000E+00  0.00000000000E+00  0.45593999997E+02  0.45594000000E+02  0.51100000000E-03 0. -1.
         11   -1    0    0    0    0 -0.00000000000E+00 -0.00000000000E+00 -0.45593999997E+02  0.45594000000E+02  0.51100000000E-03 0.  1.
    9900012    2    1    2    0    0  0.16001900758E+02 -0.40236534908E+02  0.29298862554E+01  0.47787264952E+02  0.19999972221E+02 0.  0.
        -12    1    1    2    0    0 -0.16001900758E+02  0.40236534908E+02 -0.29298862554E+01  0.43400735048E+02  0.00000000000E+00 0.  1.
         11    1    3    3    0    0  0.45808802736E+01 -0.30783942851E+01  0.15312178085E+01  0.57276176281E+01  0.51100000000E-03 0. -1.
        -11    1    3    3    0    0  0.59932910511E+01 -0.18460988624E+01  0.85142712215E+00  0.63287081650E+01  0.51100000000E-03 0.  1.
         12    1    3    3    0    0  0.54277294337E+01 -0.35312041760E+02  0.54724132467E+00  0.35730939159E+02  0.00000000000E+00 0. -1.
</event>
<event>
 7    1  0.4432754E-010  0.4778727E+02  0.7816164E-02  0.1312668E+00
        -11   -1    0    0    0    0  0.00000000000E+00  0.00000000000E+00  0.45593999997E+02  0.45594000000E+02  0.51100000000E-03 0.  1.
         11   -1    0    0    0    0 -0.00000000000E+00 -0.00000000000E+00 -0.45593999997E+02  0.45594000000E+02  0.51100000000E-03 0. -1.
    9900012    2    1    2    0    0  0.58101755222E+01  0.27214545338E+02  0.33305160033E+02  0.47787270716E+02  0.19999998503E+02 0.  0.
        -12    1    1    2    0    0 -0.58101755222E+01 -0.27214545338E+02 -0.33305160033E+02  0.43400729284E+02  0.00000000000E+00 0.  1.
         11    1    3    3    0    0  0.10948851296E+02  0.15996490734E+02  0.23477387376E+02  0.30445899211E+02  0.51100000000E-03 0. -1.
        -11    1    3    3    0    0 -0.23627732279E+00 -0.39660768746E+00  0.29391700613E+01  0.29752051259E+01  0.51100000000E-03 0.  1.
         12    1    3    3    0    0 -0.49023984509E+01  0.11614662291E+02  0.68886025954E+01  0.14366166379E+02  0.00000000000E+00 0. -1.
</event>
<event>
 7    1  0.4432754E-010  0.4778727E+02  0.7816164E-02  0.1312668E+00
        -11   -1    0    0    0    0  0.00000000000E+00  0.00000000000E+00  0.45593999997E+02  0.45594000000E+02  0.51100000000E-03 0.  1.
         11   -1    0    0    0    0 -0.00000000000E+00 -0.00000000000E+00 -0.45593999997E+02  0.45594000000E+02  0.51100000000E-03 0. -1.
    9900012    2    1    2    0    0  0.49555897066E+01  0.33004126249E+02 -0.27745140456E+02  0.47787273765E+02  0.20000012404E+02 0.  0.
        -12    1    1    2    0    0 -0.49555897066E+01 -0.33004126249E+02  0.27745140456E+02  0.43400726235E+02  0.00000000000E+00 0.  1.
         11    1    3    3    0    0  0.40295193480E+01  0.38265547242E+01  0.17539205849E+01  0.58271592489E+01  0.51100000000E-03 0. -1.
        -11    1    3    3    0    0  0.42804185623E+00 -0.15405592638E-01 -0.12997320602E+01  0.13684885284E+01  0.51100000000E-03 0.  1.
         12    1    3    3    0    0  0.49802850239E+00  0.29192977117E+02 -0.28199328981E+02  0.40591625988E+02  0.00000000000E+00 0. -1.
</event>
<event>
 7    1  0.4432754E-010  0.4778727E+02  0.7816164E-02  0.1312668E+00
        -11   -1    0    0    0    0  0.00000000000E+00  0.00000000000E+00  0.45593999997E+02  0.45594000000E+02  0.51100000000E-03 0.  1.
         11   -1    0    0    0    0 -0.00000000000E+00 -0.00000000000E+00 -0.45593999997E+02  0.45594000000E+02  0.51100000000E-03 0. -1.
    9900012    2    1    2    0    0  0.27864939932E+02 -0.26253692268E+02 -0.20442908352E+02  0.47787265709E+02  0.19999975675E+02 0.  0.
        -12    1    1    2    0    0 -0.27864939932E+02  0.26253692268E+02  0.20442908352E+02  0.43400734291E+02  0.00000000000E+00 0.  1.
         11    1    3    3    0    0  0.15118739570E+02 -0.69386222072E+01 -0.79542693247E+01  0.18438849342E+02  0.51100000000E-03 0. -1.
        -11    1    3    3    0    0  0.35916113582E+01 -0.59815511172E+00 -0.68589649406E+01  0.77654917426E+01  0.51100000000E-03 0.  1.
        -12    1    3    3    0    0  0.91545890042E+01 -0.18716914949E+02 -0.56296740866E+01  0.21582924625E+02  0.00000000000E+00 0.  1.
</event>
<event>
 7    1  0.4432754E-010  0.4778727E+02  0.7816164E-02  0.1312668E+00
        -11   -1    0    0    0    0  0.00000000000E+00  0.00000000000E+00  0.45593999997E+02  0.45594000000E+02  0.51100000000E-03 0.  1.
         11   -1    0    0    0    0 -0.00000000000E+00 -0.00000000000E+00 -0.45593999997E+02  0.45594000000E+02  0.51100000000E-03 0. -1.
    9900012    2    1    2    0    0  0.27955233610E+02 -0.13394582115E+02 -0.30376203894E+02  0.47787266374E+02  0.19999978708E+02 0.  0.
        -12    1    1    2    0    0 -0.27955233610E+02  0.13394582115E+02  0.30376203894E+02  0.43400733626E+02  0.00000000000E+00 0.  1.
         11    1    3    3    0    0  0.17867798587E+02 -0.13702294971E+02 -0.14349428771E+02  0.26700509735E+02  0.51100000000E-03 0. -1.
        -11    1    3    3    0    0  0.64121126338E+01 -0.42044701483E+01 -0.72271207469E+01  0.10536794209E+02  0.51100000000E-03 0.  1.
        -12    1    3    3    0    0  0.36753223889E+01  0.45121830041E+01 -0.87996543764E+01  0.10549962430E+02  0.00000000000E+00 0.  1.
</event>
<event>
 7    1  0.4432754E-010  0.4778728E+02  0.7816164E-02  0.1312668E+00
        -11   -1    0    0    0    0  0.00000000000E+00  0.00000000000E+00  0.45593999997E+02  0.45594000000E+02  0.51100000000E-03 0.  1.
         11   -1    0    0    0    0 -0.00000000000E+00 -0.00000000000E+00 -0.45593999997E+02  0.45594000000E+02  0.51100000000E-03 0. -1.
    9900012    2    1    2    0    0  0.13473365641E+02  0.34207501994E+02 -0.23063768969E+02  0.47787283261E+02  0.20000055699E+02 0.  0.
        -12    1    1    2    0    0 -0.13473365641E+02 -0.34207501994E+02  0.23063768969E+02  0.43400716739E+02  0.00000000000E+00 0.  1.
         11    1    3    3    0    0  0.14364867194E+01 -0.66638215480E+00 -0.36407456685E+01  0.39702126587E+01  0.51100000000E-03 0. -1.
        -11    1    3    3    0    0  0.10135612447E+02  0.18820727978E+02 -0.17326156798E+02  0.27516288830E+02  0.51100000000E-03 0.  1.
        -12    1    3    3    0    0  0.19012664746E+01  0.16053156171E+02 -0.20968665025E+01  0.16300781772E+02  0.00000000000E+00 0.  1.
</event>
<event>
 7    1  0.4432754E-010  0.4778726E+02  0.7816164E-02  0.1312668E+00
        -11   -1    0    0    0    0  0.00000000000E+00  0.00000000000E+00  0.45593999997E+02  0.45594000000E+02  0.51100000000E-03 0.  1.
         11   -1    0    0    0    0 -0.00000000000E+00 -0.00000000000E+00 -0.45593999997E+02  0.45594000000E+02  0.51100000000E-03 0. -1.
    9900012    2    1    2    0    0  0.62676856520E+01  0.58451403949E+01 -0.42546143564E+02  0.47787264041E+02  0.19999968066E+02 0.  0.
        -12    1    1    2    0    0 -0.62676856520E+01 -0.58451403949E+01  0.42546143564E+02  0.43400735959E+02  0.00000000000E+00 0.  1.
         11    1    3    3    0    0  0.11147734228E+02  0.63699641531E+01 -0.27198765684E+02  0.30076922661E+02  0.51100000000E-03 0. -1.
        -11    1    3    3    0    0 -0.22514814279E+01  0.31215051904E+01 -0.10056500025E+02  0.10767829692E+02  0.51100000000E-03 0.  1.
        -12    1    3    3    0    0 -0.26285671485E+01 -0.36463289485E+01 -0.52908778548E+01  0.69425116873E+01  0.00000000000E+00 0.  1.
</event>
<event>
 7    1  0.4432754E-010  0.4778727E+02  0.7816164E-02  0.1312668E+00
        -11   -1    0    0    0    0  0.00000000000E+00  0.00000000000E+00  0.45593999997E+02  0.45594000000E+02  0.51100000000E-03 0.  1.
         11   -1    0    0    0    0 -0.00000000000E+00 -0.00000000000E+00 -0.45593999997E+02  0.45594000000E+02  0.51100000000E-03 0. -1.
    9900012    2    1    2    0    0 -0.37325598403E+02  0.44703984033E+01 -0.21689588981E+02  0.47787273875E+02  0.20000012905E+02 0.  0.
        -12    1    1    2    0    0  0.37325598403E+02 -0.44703984033E+01  0.21689588981E+02  0.43400726125E+02  0.00000000000E+00 0.  1.
         11    1    3    3    0    0 -0.52821523696E+01  0.60801322580E+01 -0.10964100668E+02  0.13604434778E+02  0.51100000000E-03 0. -1.
        -11    1    3    3    0    0 -0.80276627892E+01 -0.16047342289E+01 -0.46320253131E+01  0.94060725366E+01  0.51100000000E-03 0.  1.
         12    1    3    3    0    0 -0.24015783244E+02 -0.49996258695E-02 -0.60934630004E+01  0.24776766560E+02  0.00000000000E+00 0. -1.
</event>
<event>
 7    1  0.4432754E-010  0.4778725E+02  0.7816164E-02  0.1312668E+00
        -11   -1    0    0    0    0  0.00000000000E+00  0.00000000000E+00  0.45593999997E+02  0.45594000000E+02  0.51100000000E-03 0.  1.
         11   -1    0    0    0    0 -0.00000000000E+00 -0.00000000000E+00 -0.45593999997E+02  0.45594000000E+02  0.51100000000E-03 0. -1.
    9900012    2    1    2    0    0 -0.31403153612E+02  0.35326010487E+00 -0.29955678185E+02  0.47787245341E+02  0.19999882808E+02 0.  0.
        -12    1    1    2    0    0  0.31403153612E+02 -0.35326010487E+00  0.29955678185E+02  0.43400754659E+02  0.00000000000E+00 0.  1.
         11    1    3    3    0    0 -0.13749680648E+02 -0.19366111169E+01 -0.99811030892E+01  0.17100485364E+02  0.51100000000E-03 0. -1.
        -11    1    3    3    0    0 -0.32195022189E+01 -0.45750269446E+01 -0.68552344848E+00  0.56361342018E+01  0.51100000000E-03 0.  1.
        -12    1    3    3    0    0 -0.14433970745E+02  0.68648981664E+01 -0.19289051647E+02  0.25050625775E+02  0.00000000000E+00 0.  1.
</event>
<event>
 7    1  0.4432754E-010  0.4778727E+02  0.7816164E-02  0.1312668E+00
        -11   -1    0    0    0    0  0.00000000000E+00  0.00000000000E+00  0.45593999997E+02  0.45594000000E+02  0.51100000000E-03 0. -1.
         11   -1    0    0    0    0 -0.00000000000E+00 -0.00000000000E+00 -0.45593999997E+02  0.45594000000E+02  0.51100000000E-03 0.  1.
    9900012    2    1    2    0    0 -0.15699455609E+02  0.31516226220E+02  0.25374748418E+02  0.47787270987E+02  0.19999999738E+02 0.  0.
        -12    1    1    2    0    0  0.15699455609E+02 -0.31516226220E+02 -0.25374748418E+02  0.43400729013E+02  0.00000000000E+00 0.  1.
         11    1    3    3    0    0  0.20590101992E+00  0.36722537340E+01  0.58960597750E+01  0.69491987918E+01  0.51100000000E-03 0. -1.
        -11    1    3    3    0    0 -0.13195394461E+02  0.74320355376E+01  0.63773381425E+01  0.16432407896E+02  0.51100000000E-03 0.  1.
        -12    1    3    3    0    0 -0.27099621678E+01  0.20411936948E+02  0.13101350500E+02  0.24405664299E+02  0.00000000000E+00 0.  1.
</event>
<event>
 7    1  0.4432754E-010  0.4778727E+02  0.7816164E-02  0.1312668E+00
        -11   -1    0    0    0    0  0.00000000000E+00  0.00000000000E+00  0.45593999997E+02  0.45594000000E+02  0.51100000000E-03 0.  1.
         11   -1    0    0    0    0 -0.00000000000E+00 -0.00000000000E+00 -0.45593999997E+02  0.45594000000E+02  0.51100000000E-03 0. -1.
    9900012    2    1    2    0    0 -0.17543500151E+02  0.18847179576E+02 -0.34937555511E+02  0.47787270045E+02  0.19999995444E+02 0.  0.
        -12    1    1    2    0    0  0.17543500151E+02 -0.18847179576E+02  0.34937555511E+02  0.43400729955E+02  0.00000000000E+00 0.  1.
         11    1    3    3    0    0 -0.14817462786E+02  0.89832626774E+01 -0.27089069155E+02  0.32157019135E+02  0.51100000000E-03 0. -1.
        -11    1    3    3    0    0 -0.48122451864E+01  0.92724838508E+01 -0.83858516718E+01  0.13396237122E+02  0.51100000000E-03 0.  1.
        -12    1    3    3    0    0  0.20862078216E+01  0.59143304732E+00  0.53736531501E+00  0.22340137883E+01  0.00000000000E+00 0.  1.
</event>
<event>
 7    1  0.4432754E-010  0.4778727E+02  0.7816164E-02  0.1312668E+00
        -11   -1    0    0    0    0  0.00000000000E+00  0.00000000000E+00  0.45593999997E+02  0.45594000000E+02  0.51100000000E-03 0. -1.
         11   -1    0    0    0    0 -0.00000000000E+00 -0.00000000000E+00 -0.45593999997E+02  0.45594000000E+02  0.51100000000E-03 0.  1.
    9900012    2    1    2    0    0  0.33250003644E+01  0.41133607562E+02  0.13438515895E+02  0.47787274108E+02  0.20000013970E+02 0.  0.
        -12    1    1    2    0    0 -0.33250003644E+01 -0.41133607562E+02 -0.13438515895E+02  0.43400725892E+02  0.00000000000E+00 0.  1.
         11    1    3    3    0    0 -0.26947207878E+01  0.17947895173E+02  0.49486543279E+01  0.18811635792E+02  0.51100000000E-03 0. -1.
        -11    1    3    3    0    0  0.65291734845E+01  0.24728203895E+02  0.92304296138E+01  0.27190347651E+02  0.51100000000E-03 0.  1.
        -12    1    3    3    0    0 -0.50945233236E+00 -0.15424915063E+01 -0.74056804725E+00  0.17852906650E+01  0.00000000000E+00 0.  1.
</event>
<event>
 7    1  0.4432754E-010  0.4778726E+02  0.7816164E-02  0.1312668E+00
        -11   -1    0    0    0    0  0.00000000000E+00  0.00000000000E+00  0.45593999997E+02  0.45594000000E+02  0.51100000000E-03 0.  1.
         11   -1    0    0    0    0 -0.00000000000E+00 -0.00000000000E+00 -0.45593999997E+02  0.45594000000E+02  0.51100000000E-03 0. -1.
    9900012    2    1    2    0    0 -0.65726637841E+01  0.17742416714E+02 -0.39059331340E+02  0.47787255481E+02  0.19999929040E+02 0.  0.
        -12    1    1    2    0    0  0.65726637841E+01 -0.17742416714E+02  0.39059331340E+02  0.43400744519E+02  0.00000000000E+00 0.  1.
         11    1    3    3    0    0 -0.20542634325E+01  0.14674480426E+01  0.10835048227E+01  0.27472504381E+01  0.51100000000E-03 0.  1.
        -11    1    3    3    0    0  0.66214451031E-02  0.94289251911E+01 -0.97690367814E+01  0.13577140863E+02  0.51100000000E-03 0. -1.
        -12    1    3    3    0    0 -0.45250217968E+01  0.68460434807E+01 -0.30373799381E+02  0.31462864180E+02  0.00000000000E+00 0.  1.
</event>
<event>
 7    1  0.4432754E-010  0.4778728E+02  0.7816164E-02  0.1312668E+00
        -11   -1    0    0    0    0  0.00000000000E+00  0.00000000000E+00  0.45593999997E+02  0.45594000000E+02  0.51100000000E-03 0.  1.
         11   -1    0    0    0    0 -0.00000000000E+00 -0.00000000000E+00 -0.45593999997E+02  0.45594000000E+02  0.51100000000E-03 0. -1.
    9900012    2    1    2    0    0 -0.42778948898E+02  0.72728321320E+01  0.83077997482E+00  0.47787277064E+02  0.20000027445E+02 0.  0.
        -12    1    1    2    0    0  0.42778948898E+02 -0.72728321320E+01 -0.83077997482E+00  0.43400722936E+02  0.00000000000E+00 0.  1.
         11    1    3    3    0    0 -0.24975363571E+02 -0.79753359823E-01 -0.45633810515E+01  0.25388965969E+02  0.51100000000E-03 0. -1.
        -11    1    3    3    0    0 -0.73159410855E+01 -0.19095308787E+01  0.50966288220E+00  0.75781962668E+01  0.51100000000E-03 0.  1.
        -12    1    3    3    0    0 -0.10487644242E+02  0.92621163705E+01  0.48844981442E+01  0.14820114828E+02  0.00000000000E+00 0.  1.
</event>
<event>
 7    1  0.4432754E-010  0.4778727E+02  0.7816164E-02  0.1312668E+00
        -11   -1    0    0    0    0  0.00000000000E+00  0.00000000000E+00  0.45593999997E+02  0.45594000000E+02  0.51100000000E-03 0.  1.
         11   -1    0    0    0    0 -0.00000000000E+00 -0.00000000000E+00 -0.45593999997E+02  0.45594000000E+02  0.51100000000E-03 0. -1.
    9900012    2    1    2    0    0 -0.37846133485E+02 -0.20980963245E+02  0.33305857190E+01  0.47787269134E+02  0.19999991290E+02 0.  0.
        -12    1    1    2    0    0  0.37846133485E+02  0.20980963245E+02 -0.33305857190E+01  0.43400730866E+02  0.00000000000E+00 0.  1.
         11    1    3    3    0    0 -0.96159121653E+01 -0.50180107951E+01  0.31081284222E+01  0.11283025377E+02  0.51100000000E-03 0. -1.
        -11    1    3    3    0    0 -0.13217034880E+02 -0.10616648448E+02  0.80291009506E+01  0.18758190148E+02  0.51100000000E-03 0.  1.
         12    1    3    3    0    0 -0.15013186440E+02 -0.53463040023E+01 -0.78066436538E+01  0.17746053609E+02  0.00000000000E+00 0. -1.
</event>
<event>
 7    1  0.4432754E-010  0.4778727E+02  0.7816164E-02  0.1312668E+00
        -11   -1    0    0    0    0  0.00000000000E+00  0.00000000000E+00  0.45593999997E+02  0.45594000000E+02  0.51100000000E-03 0.  1.
         11   -1    0    0    0    0 -0.00000000000E+00 -0.00000000000E+00 -0.45593999997E+02  0.45594000000E+02  0.51100000000E-03 0. -1.
    9900012    2    1    2    0    0 -0.11516502105E+01 -0.42906995553E+02 -0.64254738164E+01  0.47787270982E+02  0.19999999713E+02 0.  0.
        -12    1    1    2    0    0  0.11516502105E+01  0.42906995553E+02  0.64254738164E+01  0.43400729018E+02  0.00000000000E+00 0.  1.
         11    1    3    3    0    0  0.30570584996E+01 -0.16901179177E+02 -0.11526085900E+01  0.17214063177E+02  0.51100000000E-03 0. -1.
        -11    1    3    3    0    0  0.89872085860E+00 -0.76411210548E+01 -0.82495602373E+01  0.11280499746E+02  0.51100000000E-03 0.  1.
         12    1    3    3    0    0 -0.51074295688E+01 -0.18364695321E+02  0.29766950109E+01  0.19292708059E+02  0.00000000000E+00 0. -1.
</event>
<event>
 7    1  0.4432754E-010  0.4778727E+02  0.7816164E-02  0.1312668E+00
        -11   -1    0    0    0    0  0.00000000000E+00  0.00000000000E+00  0.45593999997E+02  0.45594000000E+02  0.51100000000E-03 0.  1.
         11   -1    0    0    0    0 -0.00000000000E+00 -0.00000000000E+00 -0.45593999997E+02  0.45594000000E+02  0.51100000000E-03 0. -1.
    9900012    2    1    2    0    0 -0.18613713723E+02 -0.36474224027E+02  0.14379971331E+02  0.47787274978E+02  0.20000017935E+02 0.  0.
        -12    1    1    2    0    0  0.18613713723E+02  0.36474224027E+02 -0.14379971331E+02  0.43400725022E+02  0.00000000000E+00 0.  1.
         11    1    3    3    0    0 -0.47900320030E+01 -0.24253908198E+02  0.14920444222E+01  0.24767371001E+02  0.51100000000E-03 0. -1.
        -11    1    3    3    0    0 -0.54623798472E+01 -0.63984101673E+01  0.33238470891E+01  0.90457286051E+01  0.51100000000E-03 0.  1.
         12    1    3    3    0    0 -0.83613018725E+01 -0.58219056617E+01  0.95640798195E+01  0.13974175372E+02  0.00000000000E+00 0. -1.
</event>
<event>
 7    1  0.4432754E-010  0.4778727E+02  0.7816164E-02  0.1312668E+00
        -11   -1    0    0    0    0  0.00000000000E+00  0.00000000000E+00  0.45593999997E+02  0.45594000000E+02  0.51100000000E-03 0.  1.
         11   -1    0    0    0    0 -0.00000000000E+00 -0.00000000000E+00 -0.45593999997E+02  0.45594000000E+02  0.51100000000E-03 0. -1.
    9900012    2    1    2    0    0 -0.33943086783E+02  0.19031356726E+02 -0.19217122649E+02  0.47787268645E+02  0.19999989061E+02 0.  0.
        -12    1    1    2    0    0  0.33943086783E+02 -0.19031356726E+02  0.19217122649E+02  0.43400731355E+02  0.00000000000E+00 0.  1.
         11    1    3    3    0    0 -0.13504254356E+02  0.23785654974E+01 -0.91454040092E+01  0.16482138037E+02  0.51100000000E-03 0.  1.
        -11    1    3    3    0    0 -0.18367200092E+02  0.11600503286E+02 -0.12785918415E+02  0.25207249467E+02  0.51100000000E-03 0. -1.
        -12    1    3    3    0    0 -0.20716323356E+01  0.50522879431E+01  0.27141997751E+01  0.60978811413E+01  0.00000000000E+00 0.  1.
</event>
<event>
 7    1  0.4432754E-010  0.4778727E+02  0.7816164E-02  0.1312668E+00
        -11   -1    0    0    0    0  0.00000000000E+00  0.00000000000E+00  0.45593999997E+02  0.45594000000E+02  0.51100000000E-03 0. -1.
         11   -1    0    0    0    0 -0.00000000000E+00 -0.00000000000E+00 -0.45593999997E+02  0.45594000000E+02  0.51100000000E-03 0.  1.
    9900012    2    1    2    0    0  0.20736059999E+01 -0.33370613245E+02  0.27671745080E+02  0.47787272518E+02  0.20000006718E+02 0.  0.
        -12    1    1    2    0    0 -0.20736059999E+01  0.33370613245E+02 -0.27671745080E+02  0.43400727482E+02  0.00000000000E+00 0.  1.
         11    1    3    3    0    0  0.32547103715E+01 -0.79169761745E+01  0.91525973863E+01  0.12531627609E+02  0.51100000000E-03 0. -1.
        -11    1    3    3    0    0  0.10301160155E+01 -0.55179700256E+01  0.13439277338E+02  0.14564453572E+02  0.51100000000E-03 0.  1.
         12    1    3    3    0    0 -0.22112203870E+01 -0.19935667045E+02  0.50798703559E+01  0.20691191337E+02  0.00000000000E+00 0. -1.
</event>
<event>
 7    1  0.4837221E-010  0.4778727E+02  0.7816164E-02  0.1312668E+00
        -11   -1    0    0    0    0  0.00000000000E+00  0.00000000000E+00  0.45593999997E+02  0.45594000000E+02  0.51100000000E-03 0. -1.
         11   -1    0    0    0    0 -0.00000000000E+00 -0.00000000000E+00 -0.45593999997E+02  0.45594000000E+02  0.51100000000E-03 0.  1.
    9900012    2    1    2    0    0  0.62879553608E+01 -0.13128989935E+02  0.40886603908E+02  0.47787272604E+02  0.20000007113E+02 0.  0.
        -12    1    1    2    0    0 -0.62879553608E+01  0.13128989935E+02 -0.40886603908E+02  0.43400727396E+02  0.00000000000E+00 0.  1.
         11    1    3    3    0    0  0.17603833600E+01 -0.48958239798E+01  0.17628071184E+02  0.18379796951E+02  0.51100000000E-03 0. -1.
        -11    1    3    3    0    0 -0.55467926245E+01 -0.24034062626E+01  0.54898430275E+01  0.81658831005E+01  0.51100000000E-03 0.  1.
        -12    1    3    3    0    0  0.10074364625E+02 -0.58297596930E+01  0.17768689696E+02  0.21241592553E+02  0.00000000000E+00 0.  1.
</event>
<event>
 7    1  0.4432754E-010  0.4778727E+02  0.7816164E-02  0.1312668E+00
        -11   -1    0    0    0    0  0.00000000000E+00  0.00000000000E+00  0.45593999997E+02  0.45594000000E+02  0.51100000000E-03 0.  1.
         11   -1    0    0    0    0 -0.00000000000E+00 -0.00000000000E+00 -0.45593999997E+02  0.45594000000E+02  0.51100000000E-03 0. -1.
    9900012    2    1    2    0    0  0.69367247166E+01  0.42732967094E+02 -0.30657709102E+01  0.47787267544E+02  0.19999984041E+02 0.  0.
        -12    1    1    2    0    0 -0.69367247166E+01 -0.42732967094E+02  0.30657709102E+01  0.43400732456E+02  0.00000000000E+00 0.  1.
         11    1    3    3    0    0  0.23107723878E+01  0.94362456709E-01  0.14929171404E+01  0.27527032442E+01  0.51100000000E-03 0. -1.
        -11    1    3    3    0    0  0.19778345570E+00  0.19196037165E+01 -0.35762756004E+01  0.40637106386E+01  0.51100000000E-03 0.  1.
         12    1    3    3    0    0  0.44281688731E+01  0.40719000920E+02 -0.98241245019E+00  0.40970853661E+02  0.00000000000E+00 0. -1.
</event>
<event>
 7    1  0.4432754E-010  0.4778727E+02  0.7816164E-02  0.1312668E+00
        -11   -1    0    0    0    0  0.00000000000E+00  0.00000000000E+00  0.45593999997E+02  0.45594000000E+02  0.51100000000E-03 0.  1.
         11   -1    0    0    0    0 -0.00000000000E+00 -0.00000000000E+00 -0.45593999997E+02  0.45594000000E+02  0.51100000000E-03 0. -1.
    9900012    2    1    2    0    0 -0.12152980834E+02 -0.19942743019E+02 -0.36581628525E+02  0.47787268580E+02  0.19999988763E+02 0.  0.
        -12    1    1    2    0    0  0.12152980834E+02  0.19942743019E+02  0.36581628525E+02  0.43400731420E+02  0.00000000000E+00 0.  1.
         11    1    3    3    0    0  0.14905843752E+01 -0.82366400219E+01 -0.26876668479E+01  0.87913385770E+01  0.51100000000E-03 0.  1.
        -11    1    3    3    0    0 -0.32448549434E+01 -0.72579330526E+01 -0.13043731102E+02  0.15275653738E+02  0.51100000000E-03 0. -1.
        -12    1    3    3    0    0 -0.10398710266E+02 -0.44481699446E+01 -0.20850230575E+02  0.23720276265E+02  0.00000000000E+00 0.  1.
</event>
<event>
 7    1  0.4432754E-010  0.4778730E+02  0.7816164E-02  0.1312668E+00
        -11   -1    0    0    0    0  0.00000000000E+00  0.00000000000E+00  0.45593999997E+02  0.45594000000E+02  0.51100000000E-03 0. -1.
         11   -1    0    0    0    0 -0.00000000000E+00 -0.00000000000E+00 -0.45593999997E+02  0.45594000000E+02  0.51100000000E-03 0.  1.
    9900012    2    1    2    0    0  0.27263402900E+02  0.47065868412E+01  0.33439132926E+02  0.47787300602E+02  0.20000134765E+02 0.  0.
        -12    1    1    2    0    0 -0.27263402900E+02 -0.47065868412E+01 -0.33439132926E+02  0.43400699398E+02  0.00000000000E+00 0.  1.
         11    1    3    3    0    0  0.25522503026E+01  0.25097944673E+01 -0.22763376185E+00  0.35867627836E+01  0.51100000000E-03 0. -1.
        -11    1    3    3    0    0  0.16190764898E+01  0.50434956472E+01  0.50474627172E+01  0.73167709521E+01  0.51100000000E-03 0.  1.
         12    1    3    3    0    0  0.23092076108E+02 -0.28467032734E+01  0.28619303970E+02  0.36883766866E+02  0.00000000000E+00 0. -1.
</event>
<event>
 7    1  0.4432754E-010  0.4778727E+02  0.7816164E-02  0.1312668E+00
        -11   -1    0    0    0    0  0.00000000000E+00  0.00000000000E+00  0.45593999997E+02  0.45594000000E+02  0.51100000000E-03 0. -1.
         11   -1    0    0    0    0 -0.00000000000E+00 -0.00000000000E+00 -0.45593999997E+02  0.45594000000E+02  0.51100000000E-03 0.  1.
    9900012    2    1    2    0    0 -0.35703220349E+02  0.11957365075E+02  0.21585289129E+02  0.47787271554E+02  0.20000002325E+02 0.  0.
        -12    1    1    2    0    0  0.35703220349E+02 -0.11957365075E+02 -0.21585289129E+02  0.43400728446E+02  0.00000000000E+00 0.  1.
         11    1    3    3    0    0 -0.23946019824E+02  0.15647358281E+02  0.13830485934E+02  0.31773165218E+02  0.51100000000E-03 0. -1.
        -11    1    3    3    0    0 -0.70121493750E+01  0.11453602656E+00  0.12766019911E+01  0.71283287146E+01  0.51100000000E-03 0.  1.
        -12    1    3    3    0    0 -0.47450511498E+01 -0.38045292320E+01  0.64782012044E+01  0.88857776214E+01  0.00000000000E+00 0.  1.
</event>
<event>
 7    1  0.4432754E-010  0.4778727E+02  0.7816164E-02  0.1312668E+00
        -11   -1    0    0    0    0  0.00000000000E+00  0.00000000000E+00  0.45593999997E+02  0.45594000000E+02  0.51100000000E-03 0.  1.
         11   -1    0    0    0    0 -0.00000000000E+00 -0.00000000000E+00 -0.45593999997E+02  0.45594000000E+02  0.51100000000E-03 0. -1.
    9900012    2    1    2    0    0 -0.24834531174E+00 -0.26210337570E+02 -0.34591616146E+02  0.47787269839E+02  0.19999994504E+02 0.  0.
        -12    1    1    2    0    0  0.24834531174E+00  0.26210337570E+02  0.34591616146E+02  0.43400730161E+02  0.00000000000E+00 0.  1.
         11    1    3    3    0    0  0.50945268349E+01 -0.54724790896E+01 -0.44899471151E+01  0.87213448742E+01  0.51100000000E-03 0. -1.
        -11    1    3    3    0    0  0.70449293000E+00 -0.43904664650E+01 -0.19529780840E+00  0.44509153625E+01  0.51100000000E-03 0.  1.
        -12    1    3    3    0    0 -0.60473650767E+01 -0.16347392015E+02 -0.29906371223E+02  0.34615009602E+02  0.00000000000E+00 0.  1.
</event>
<event>
 7    1  0.4432754E-010  0.4778727E+02  0.7816164E-02  0.1312668E+00
        -11   -1    0    0    0    0  0.00000000000E+00  0.00000000000E+00  0.45593999997E+02  0.45594000000E+02  0.51100000000E-03 0.  1.
         11   -1    0    0    0    0 -0.00000000000E+00 -0.00000000000E+00 -0.45593999997E+02  0.45594000000E+02  0.51100000000E-03 0. -1.
    9900012    2    1    2    0    0  0.16002244853E+02 -0.29967342376E+02 -0.27009441204E+02  0.47787270011E+02  0.19999995288E+02 0.  0.
        -12    1    1    2    0    0 -0.16002244853E+02  0.29967342376E+02  0.27009441204E+02  0.43400729989E+02  0.00000000000E+00 0.  1.
         11    1    3    3    0    0  0.62963644116E+01 -0.52032540842E+01 -0.17239504708E+02  0.19076650144E+02  0.51100000000E-03 0. -1.
        -11    1    3    3    0    0 -0.14535319223E+00 -0.34862168746E+01 -0.63625212837E+00  0.35467806077E+01  0.51100000000E-03 0.  1.
         12    1    3    3    0    0  0.98512336339E+01 -0.21277871417E+02 -0.91336843682E+01  0.25163839260E+02  0.00000000000E+00 0. -1.
</event>
<event>
 7    1  0.4432754E-010  0.4778727E+02  0.7816164E-02  0.1312668E+00
        -11   -1    0    0    0    0  0.00000000000E+00  0.00000000000E+00  0.45593999997E+02  0.45594000000E+02  0.51100000000E-03 0.  1.
         11   -1    0    0    0    0 -0.00000000000E+00 -0.00000000000E+00 -0.45593999997E+02  0.45594000000E+02  0.51100000000E-03 0. -1.
    9900012    2    1    2    0    0  0.30987208623E+02  0.58348586297E+01 -0.29822314250E+02  0.47787273039E+02  0.20000009093E+02 0.  0.
        -12    1    1    2    0    0 -0.30987208623E+02 -0.58348586297E+01  0.29822314250E+02  0.43400726961E+02  0.00000000000E+00 0.  1.
         11    1    3    3    0    0  0.72157019041E+00  0.21691267655E+01 -0.79219025128E+00  0.24193677107E+01  0.51100000000E-03 0. -1.
        -11    1    3    3    0    0  0.95581164849E+01  0.75635866079E+01 -0.44101017269E+01  0.12962038058E+02  0.51100000000E-03 0.  1.
         12    1    3    3    0    0  0.20707521948E+02 -0.38978547437E+01 -0.24620022272E+02  0.32405867270E+02  0.00000000000E+00 0. -1.
</event>
<event>
 7    1  0.4432754E-010  0.4778726E+02  0.7816164E-02  0.1312668E+00
        -11   -1    0    0    0    0  0.00000000000E+00  0.00000000000E+00  0.45593999997E+02  0.45594000000E+02  0.51100000000E-03 0.  1.
         11   -1    0    0    0    0 -0.00000000000E+00 -0.00000000000E+00 -0.45593999997E+02  0.45594000000E+02  0.51100000000E-03 0. -1.
    9900012    2    1    2    0    0  0.20178342182E+02 -0.24851385739E+02 -0.29306435738E+02  0.47787262195E+02  0.19999959653E+02 0.  0.
        -12    1    1    2    0    0 -0.20178342182E+02  0.24851385739E+02  0.29306435738E+02  0.43400737805E+02  0.00000000000E+00 0.  1.
         11    1    3    3    0    0 -0.96778140257E+00 -0.74370386149E+01 -0.85599048152E+01  0.11380602572E+02  0.51100000000E-03 0. -1.
        -11    1    3    3    0    0  0.27510284013E+00 -0.40728440067E+01  0.20678207988E-01  0.40821768366E+01  0.51100000000E-03 0.  1.
        -12    1    3    3    0    0  0.20871020744E+02 -0.13341503117E+02 -0.20767209131E+02  0.32324482786E+02  0.00000000000E+00 0.  1.
</event>
<event>
 7    1  0.4432754E-010  0.4778727E+02  0.7816164E-02  0.1312668E+00
        -11   -1    0    0    0    0  0.00000000000E+00  0.00000000000E+00  0.45593999997E+02  0.45594000000E+02  0.51100000000E-03 0.  1.
         11   -1    0    0    0    0 -0.00000000000E+00 -0.00000000000E+00 -0.45593999997E+02  0.45594000000E+02  0.51100000000E-03 0. -1.
    9900012    2    1    2    0    0  0.28787237251E+02 -0.16896965339E+00 -0.32479066637E+02  0.47787270180E+02  0.19999996058E+02 0.  0.
        -12    1    1    2    0    0 -0.28787237251E+02  0.16896965339E+00  0.32479066637E+02  0.43400729820E+02  0.00000000000E+00 0.  1.
         11    1    3    3    0    0  0.15760934713E+02  0.82135551240E-01 -0.18978645892E+02  0.24669876559E+02  0.51100000000E-03 0. -1.
        -11    1    3    3    0    0  0.41946224929E+00 -0.20221483629E+01 -0.95751806466E+01  0.97953620278E+01  0.51100000000E-03 0.  1.
        -12    1    3    3    0    0  0.12606840289E+02  0.17710431583E+01 -0.39252400986E+01  0.13322031593E+02  0.00000000000E+00 0.  1.
</event>
<event>
 7    1  0.4432754E-010  0.4778727E+02  0.7816164E-02  0.1312668E+00
        -11   -1    0    0    0    0  0.00000000000E+00  0.00000000000E+00  0.45593999997E+02  0.45594000000E+02  0.51100000000E-03 0.  1.
         11   -1    0    0    0    0 -0.00000000000E+00 -0.00000000000E+00 -0.45593999997E+02  0.45594000000E+02  0.51100000000E-03 0. -1.
    9900012    2    1    2    0    0  0.37460367787E+02 -0.15069765864E+02 -0.15913726393E+02  0.47787266301E+02  0.19999978372E+02 0.  0.
        -12    1    1    2    0    0 -0.37460367787E+02  0.15069765864E+02  0.15913726393E+02  0.43400733699E+02  0.00000000000E+00 0.  1.
         11    1    3    3    0    0  0.28500565681E+02 -0.11533590332E+02 -0.10994350500E+02  0.32652437784E+02  0.51100000000E-03 0. -1.
        -11    1    3    3    0    0  0.80125481523E+01 -0.55757259513E+00  0.13357738748E+01  0.81422421480E+01  0.51100000000E-03 0.  1.
         12    1    3    3    0    0  0.94725395400E+00 -0.29786029367E+01 -0.62551497679E+01  0.69925863689E+01  0.00000000000E+00 0. -1.
</event>
<event>
 7    1  0.4432754E-010  0.4778727E+02  0.7816164E-02  0.1312668E+00
        -11   -1    0    0    0    0  0.00000000000E+00  0.00000000000E+00  0.45593999997E+02  0.45594000000E+02  0.51100000000E-03 0.  1.
         11   -1    0    0    0    0 -0.00000000000E+00 -0.00000000000E+00 -0.45593999997E+02  0.45594000000E+02  0.51100000000E-03 0. -1.
    9900012    2    1    2    0    0  0.26168643422E+01  0.42670830934E+02 -0.74816757180E+01  0.47787271168E+02  0.20000000565E+02 0.  0.
        -12    1    1    2    0    0 -0.26168643422E+01 -0.42670830934E+02  0.74816757180E+01  0.43400728832E+02  0.00000000000E+00 0.  1.
         11    1    3    3    0    0  0.25267312229E+01  0.66863779086E+01 -0.23132642304E+01  0.75128697493E+01  0.51100000000E-03 0. -1.
        -11    1    3    3    0    0  0.48431617740E+01  0.25313974845E+02 -0.99842232416E+01  0.27639432925E+02  0.51100000000E-03 0.  1.
         12    1    3    3    0    0 -0.47530286547E+01  0.10670478180E+02  0.48158117541E+01  0.12634968494E+02  0.00000000000E+00 0. -1.
</event>
<event>
 7    1  0.4432754E-010  0.4778727E+02  0.7816164E-02  0.1312668E+00
        -11   -1    0    0    0    0  0.00000000000E+00  0.00000000000E+00  0.45593999997E+02  0.45594000000E+02  0.51100000000E-03 0.  1.
         11   -1    0    0    0    0 -0.00000000000E+00 -0.00000000000E+00 -0.45593999997E+02  0.45594000000E+02  0.51100000000E-03 0. -1.
    9900012    2    1    2    0    0 -0.19831550728E+02  0.38158665686E+02 -0.58522499887E+01  0.47787274187E+02  0.20000014327E+02 0.  0.
        -12    1    1    2    0    0  0.19831550728E+02 -0.38158665686E+02  0.58522499887E+01  0.43400725813E+02  0.00000000000E+00 0.  1.
         11    1    3    3    0    0 -0.64804746838E+01  0.98706554327E+01 -0.20430527818E+01  0.11983340758E+02  0.51100000000E-03 0. -1.
        -11    1    3    3    0    0 -0.55546049840E+00 -0.12381409993E+01  0.26548817315E+01  0.29815980226E+01  0.51100000000E-03 0.  1.
        -12    1    3    3    0    0 -0.12795615545E+02  0.29526151253E+02 -0.64640789383E+01  0.32822335406E+02  0.00000000000E+00 0.  1.
</event>
<event>
 7    1  0.4432754E-010  0.4778727E+02  0.7816164E-02  0.1312668E+00
        -11   -1    0    0    0    0  0.00000000000E+00  0.00000000000E+00  0.45593999997E+02  0.45594000000E+02  0.51100000000E-03 0. -1.
         11   -1    0    0    0    0 -0.00000000000E+00 -0.00000000000E+00 -0.45593999997E+02  0.45594000000E+02  0.51100000000E-03 0.  1.
    9900012    2    1    2    0    0  0.18610812729E+02 -0.38192600650E+02 -0.88648852823E+01  0.47787270906E+02  0.19999999368E+02 0.  0.
        -12    1    1    2    0    0 -0.18610812729E+02  0.38192600650E+02  0.88648852823E+01  0.43400729094E+02  0.00000000000E+00 0.  1.
         11    1    3    3    0    0  0.14415696654E+02 -0.25470768478E+02 -0.10034010226E+02  0.30939517099E+02  0.51100000000E-03 0. -1.
        -11    1    3    3    0    0  0.64698235235E+01 -0.12977419248E+02  0.74586489554E+00  0.14519929114E+02  0.51100000000E-03 0.  1.
        -12    1    3    3    0    0 -0.22747074486E+01  0.25558707582E+00  0.42326004853E+00  0.23278246925E+01  0.00000000000E+00 0.  1.
</event>
<event>
 7    1  0.4432754E-010  0.4778726E+02  0.7816164E-02  0.1312668E+00
        -11   -1    0    0    0    0  0.00000000000E+00  0.00000000000E+00  0.45593999997E+02  0.45594000000E+02  0.51100000000E-03 0.  1.
         11   -1    0    0    0    0 -0.00000000000E+00 -0.00000000000E+00 -0.45593999997E+02  0.45594000000E+02  0.51100000000E-03 0. -1.
    9900012    2    1    2    0    0 -0.22519440242E+02 -0.92115587988E+01 -0.35939481425E+02  0.47787258884E+02  0.19999944555E+02 0.  0.
        -12    1    1    2    0    0  0.22519440242E+02  0.92115587988E+01  0.35939481425E+02  0.43400741116E+02  0.00000000000E+00 0.  1.
         11    1    3    3    0    0 -0.77874666686E+01 -0.41312316016E+01 -0.83879835763E+01  0.12168400897E+02  0.51100000000E-03 0. -1.
        -11    1    3    3    0    0 -0.42532080855E+01  0.34653746199E+01 -0.66843603754E+00  0.55267899609E+01  0.51100000000E-03 0.  1.
        -12    1    3    3    0    0 -0.10478765488E+02 -0.85457018171E+01 -0.26883061811E+02  0.30092068025E+02  0.00000000000E+00 0.  1.
</event>
<event>
 7    1  0.4432754E-010  0.4778727E+02  0.7816164E-02  0.1312668E+00
        -11   -1    0    0    0    0  0.00000000000E+00  0.00000000000E+00  0.45593999997E+02  0.45594000000E+02  0.51100000000E-03 0.  1.
         11   -1    0    0    0    0 -0.00000000000E+00 -0.00000000000E+00 -0.45593999997E+02  0.45594000000E+02  0.51100000000E-03 0. -1.
    9900012    2    1    2    0    0  0.18819157571E+02  0.92955072538E+01 -0.37987576282E+02  0.47787273064E+02  0.20000009209E+02 0.  0.
        -12    1    1    2    0    0 -0.18819157571E+02 -0.92955072538E+01  0.37987576282E+02  0.43400726936E+02  0.00000000000E+00 0.  1.
         11    1    3    3    0    0  0.14025378086E+02  0.27738022098E+01 -0.13780280069E+02  0.19857022138E+02  0.51100000000E-03 0. -1.
        -11    1    3    3    0    0  0.31198604838E+01 -0.27060531266E+01 -0.45159666957E+01  0.61196575411E+01  0.51100000000E-03 0.  1.
        -12    1    3    3    0    0  0.16739190020E+01  0.92277581707E+01 -0.19691329517E+02  0.21810593385E+02  0.00000000000E+00 0.  1.
</event>
<event>
 7    1  0.4432754E-010  0.4778727E+02  0.7816164E-02  0.1312668E+00
        -11   -1    0    0    0    0  0.00000000000E+00  0.00000000000E+00  0.45593999997E+02  0.45594000000E+02  0.51100000000E-03 0.  1.
         11   -1    0    0    0    0 -0.00000000000E+00 -0.00000000000E+00 -0.45593999997E+02  0.45594000000E+02  0.51100000000E-03 0. -1.
    9900012    2    1    2    0    0  0.13896536779E+01  0.10631861531E+02 -0.42055386546E+02  0.47787272419E+02  0.20000006269E+02 0.  0.
        -12    1    1    2    0    0 -0.13896536779E+01 -0.10631861531E+02  0.42055386546E+02  0.43400727581E+02  0.00000000000E+00 0.  1.
         11    1    3    3    0    0  0.41862734632E+01  0.90973204548E+01 -0.22717869472E+02  0.24827156877E+02  0.51100000000E-03 0. -1.
        -11    1    3    3    0    0  0.80243284619E+00  0.48194158185E+01 -0.26138299976E+01  0.55410084662E+01  0.51100000000E-03 0.  1.
         12    1    3    3    0    0 -0.35990526315E+01 -0.32848747421E+01 -0.16723687076E+02  0.17419107077E+02  0.00000000000E+00 0. -1.
</event>
<event>
 7    1  0.4432754E-010  0.4778727E+02  0.7816164E-02  0.1312668E+00
        -11   -1    0    0    0    0  0.00000000000E+00  0.00000000000E+00  0.45593999997E+02  0.45594000000E+02  0.51100000000E-03 0.  1.
         11   -1    0    0    0    0 -0.00000000000E+00 -0.00000000000E+00 -0.45593999997E+02  0.45594000000E+02  0.51100000000E-03 0. -1.
    9900012    2    1    2    0    0 -0.23169148451E+02 -0.18580620979E+02 -0.31647666914E+02  0.47787265709E+02  0.19999975676E+02 0.  0.
        -12    1    1    2    0    0  0.23169148451E+02  0.18580620979E+02  0.31647666914E+02  0.43400734291E+02  0.00000000000E+00 0.  1.
         11    1    3    3    0    0 -0.21671985768E+01 -0.49787197062E+01 -0.51372896489E+00  0.54542018018E+01  0.51100000000E-03 0. -1.
        -11    1    3    3    0    0 -0.76073556915E+00  0.23378145933E+01 -0.91788662576E+00  0.26242354692E+01  0.51100000000E-03 0.  1.
        -12    1    3    3    0    0 -0.20241214305E+02 -0.15939715866E+02 -0.30216051323E+02  0.39708828439E+02  0.00000000000E+00 0.  1.
</event>
<event>
 7    1  0.4432754E-010  0.4778728E+02  0.7816164E-02  0.1312668E+00
        -11   -1    0    0    0    0  0.00000000000E+00  0.00000000000E+00  0.45593999997E+02  0.45594000000E+02  0.51100000000E-03 0. -1.
         11   -1    0    0    0    0 -0.00000000000E+00 -0.00000000000E+00 -0.45593999997E+02  0.45594000000E+02  0.51100000000E-03 0.  1.
    9900012    2    1    2    0    0  0.42159730011E+02  0.10163945481E+02 -0.16952459397E+01  0.47787280177E+02  0.20000041640E+02 0.  0.
        -12    1    1    2    0    0 -0.42159730011E+02 -0.10163945481E+02  0.16952459397E+01  0.43400719823E+02  0.00000000000E+00 0.  1.
         11    1    3    3    0    0  0.22193317403E+02  0.15075657444E+01  0.18120925242E+01  0.22318148925E+02  0.51100000000E-03 0. -1.
        -11    1    3    3    0    0  0.21208423219E+02  0.98516135039E+01 -0.26221218805E+01  0.23531405132E+02  0.51100000000E-03 0.  1.
        -12    1    3    3    0    0 -0.12420106120E+01 -0.11952337668E+01 -0.88521658338E+00  0.19377261203E+01  0.00000000000E+00 0.  1.
</event>
<event>
 7    1  0.4432754E-010  0.4778727E+02  0.7816164E-02  0.1312668E+00
        -11   -1    0    0    0    0  0.00000000000E+00  0.00000000000E+00  0.45593999997E+02  0.45594000000E+02  0.51100000000E-03 0. -1.
         11   -1    0    0    0    0 -0.00000000000E+00 -0.00000000000E+00 -0.45593999997E+02  0.45594000000E+02  0.51100000000E-03 0.  1.
    9900012    2    1    2    0    0 -0.92456867837E+01 -0.13852814601E+02  0.40077925596E+02  0.47787270553E+02  0.19999997757E+02 0.  0.
        -12    1    1    2    0    0  0.92456867837E+01  0.13852814601E+02 -0.40077925596E+02  0.43400729447E+02  0.00000000000E+00 0.  1.
         11    1    3    3    0    0 -0.69289976907E+01 -0.10578734144E+02  0.26174114854E+02  0.29068968227E+02  0.51100000000E-03 0. -1.
        -11    1    3    3    0    0 -0.26377117824E+01 -0.76425249184E+01  0.80714000079E+01  0.11424237783E+02  0.51100000000E-03 0.  1.
        -12    1    3    3    0    0  0.32102268951E+00  0.43684444618E+01  0.58324107339E+01  0.72940645426E+01  0.00000000000E+00 0.  1.
</event>
<event>
 7    1  0.4432754E-010  0.4778727E+02  0.7816164E-02  0.1312668E+00
        -11   -1    0    0    0    0  0.00000000000E+00  0.00000000000E+00  0.45593999997E+02  0.45594000000E+02  0.51100000000E-03 0. -1.
         11   -1    0    0    0    0 -0.00000000000E+00 -0.00000000000E+00 -0.45593999997E+02  0.45594000000E+02  0.51100000000E-03 0.  1.
    9900012    2    1    2    0    0  0.21673767832E+02 -0.31278107127E+02 -0.20869862654E+02  0.47787269998E+02  0.19999995231E+02 0.  0.
        -12    1    1    2    0    0 -0.21673767832E+02  0.31278107127E+02  0.20869862654E+02  0.43400730002E+02  0.00000000000E+00 0.  1.
         11    1    3    3    0    0  0.78431845276E+01 -0.77746633031E+01 -0.95691742776E+01  0.14612666753E+02  0.51100000000E-03 0. -1.
        -11    1    3    3    0    0  0.11123498073E+02 -0.23269569011E+02 -0.13998524877E+02  0.29345591668E+02  0.51100000000E-03 0.  1.
        -12    1    3    3    0    0  0.27070852317E+01 -0.23387481219E+00  0.26978365004E+01  0.38290115777E+01  0.00000000000E+00 0.  1.
</event>
<event>
 7    1  0.4432754E-010  0.4778727E+02  0.7816164E-02  0.1312668E+00
        -11   -1    0    0    0    0  0.00000000000E+00  0.00000000000E+00  0.45593999997E+02  0.45594000000E+02  0.51100000000E-03 0. -1.
         11   -1    0    0    0    0 -0.00000000000E+00 -0.00000000000E+00 -0.45593999997E+02  0.45594000000E+02  0.51100000000E-03 0.  1.
    9900012    2    1    2    0    0  0.18226886038E+02  0.25180545126E+02  0.30287695744E+02  0.47787265664E+02  0.19999975466E+02 0.  0.
        -12    1    1    2    0    0 -0.18226886038E+02 -0.25180545126E+02 -0.30287695744E+02  0.43400734336E+02  0.00000000000E+00 0.  1.
         11    1    3    3    0    0  0.69731675678E+01  0.13021238128E+01  0.93957120159E+01  0.11772849990E+02  0.51100000000E-03 0.  1.
        -11    1    3    3    0    0 -0.19782995254E+00  0.61664811869E+01  0.11234343358E+02  0.12816984741E+02  0.51100000000E-03 0. -1.
         12    1    3    3    0    0  0.11451548423E+02  0.17711940126E+02  0.96576403702E+01  0.23197430932E+02  0.00000000000E+00 0. -1.
</event>
<event>
 7    1  0.4432754E-010  0.4778728E+02  0.7816164E-02  0.1312668E+00
        -11   -1    0    0    0    0  0.00000000000E+00  0.00000000000E+00  0.45593999997E+02  0.45594000000E+02  0.51100000000E-03 0.  1.
         11   -1    0    0    0    0 -0.00000000000E+00 -0.00000000000E+00 -0.45593999997E+02  0.45594000000E+02  0.51100000000E-03 0. -1.
    9900012    2    1    2    0    0 -0.17908946668E+02  0.34729344645E+02 -0.18888223673E+02  0.47787277152E+02  0.20000027846E+02 0.  0.
        -12    1    1    2    0    0  0.17908946668E+02 -0.34729344645E+02  0.18888223673E+02  0.43400722848E+02  0.00000000000E+00 0.  1.
         11    1    3    3    0    0 -0.15281985256E+02  0.29365107352E+02 -0.14721276802E+02  0.36229333338E+02  0.51100000000E-03 0. -1.
        -11    1    3    3    0    0 -0.40111159217E+01  0.54046108161E+01 -0.61648216557E+01  0.91270967628E+01  0.51100000000E-03 0.  1.
        -12    1    3    3    0    0  0.13841545096E+01 -0.40373523372E-01  0.19978747851E+01  0.24308470509E+01  0.00000000000E+00 0.  1.
</event>
<event>
 7    1  0.4432754E-010  0.4778727E+02  0.7816164E-02  0.1312668E+00
        -11   -1    0    0    0    0  0.00000000000E+00  0.00000000000E+00  0.45593999997E+02  0.45594000000E+02  0.51100000000E-03 0. -1.
         11   -1    0    0    0    0 -0.00000000000E+00 -0.00000000000E+00 -0.45593999997E+02  0.45594000000E+02  0.51100000000E-03 0.  1.
    9900012    2    1    2    0    0 -0.67693284583E+01 -0.26189556965E+02  0.33939751637E+02  0.47787269096E+02  0.19999991118E+02 0.  0.
        -12    1    1    2    0    0  0.67693284583E+01  0.26189556965E+02 -0.33939751637E+02  0.43400730904E+02  0.00000000000E+00 0.  1.
         11    1    3    3    0    0 -0.30335353244E+01 -0.21080112809E+01  0.44796661865E+01  0.58063290923E+01  0.51100000000E-03 0. -1.
        -11    1    3    3    0    0 -0.26442179991E+01 -0.23513139092E+01 -0.17403770871E+01  0.39432827178E+01  0.51100000000E-03 0.  1.
         12    1    3    3    0    0 -0.10915751347E+01 -0.21730231775E+02  0.31200462538E+02  0.38037657286E+02  0.00000000000E+00 0. -1.
</event>
<event>
 7    1  0.4432754E-010  0.4778727E+02  0.7816164E-02  0.1312668E+00
        -11   -1    0    0    0    0  0.00000000000E+00  0.00000000000E+00  0.45593999997E+02  0.45594000000E+02  0.51100000000E-03 0.  1.
         11   -1    0    0    0    0 -0.00000000000E+00 -0.00000000000E+00 -0.45593999997E+02  0.45594000000E+02  0.51100000000E-03 0. -1.
    9900012    2    1    2    0    0  0.18600852120E+02  0.22604704824E+02 -0.32041515754E+02  0.47787272914E+02  0.20000008524E+02 0.  0.
        -12    1    1    2    0    0 -0.18600852120E+02 -0.22604704824E+02  0.32041515754E+02  0.43400727086E+02  0.00000000000E+00 0.  1.
         11    1    3    3    0    0  0.72257989422E+01  0.65183714607E+01 -0.21370889661E+01  0.99633571834E+01  0.51100000000E-03 0. -1.
        -11    1    3    3    0    0 -0.56460401033E+00 -0.12646041658E+01 -0.18401021085E+00  0.13970903347E+01  0.51100000000E-03 0.  1.
         12    1    3    3    0    0  0.11939657189E+02  0.17350937530E+02 -0.29720416577E+02  0.36426825396E+02  0.00000000000E+00 0. -1.
</event>
<event>
 7    1  0.4432754E-010  0.4778727E+02  0.7816164E-02  0.1312668E+00
        -11   -1    0    0    0    0  0.00000000000E+00  0.00000000000E+00  0.45593999997E+02  0.45594000000E+02  0.51100000000E-03 0. -1.
         11   -1    0    0    0    0 -0.00000000000E+00 -0.00000000000E+00 -0.45593999997E+02  0.45594000000E+02  0.51100000000E-03 0.  1.
    9900012    2    1    2    0    0 -0.28702136796E+02  0.23979975901E+02  0.22017524140E+02  0.47787271087E+02  0.20000000196E+02 0.  0.
        -12    1    1    2    0    0  0.28702136796E+02 -0.23979975901E+02 -0.22017524140E+02  0.43400728913E+02  0.00000000000E+00 0.  1.
         11    1    3    3    0    0 -0.61203820537E+01  0.58647549454E+01  0.15416677002E+01  0.86157510765E+01  0.51100000000E-03 0. -1.
        -11    1    3    3    0    0 -0.13367478825E+02  0.16555402417E+02  0.62983080860E+01  0.22190978445E+02  0.51100000000E-03 0.  1.
         12    1    3    3    0    0 -0.92142759173E+01  0.15598185384E+01  0.14177548354E+02  0.16980541566E+02  0.00000000000E+00 0. -1.
</event>
<event>
 7    1  0.4432754E-010  0.4778727E+02  0.7816164E-02  0.1312668E+00
        -11   -1    0    0    0    0  0.00000000000E+00  0.00000000000E+00  0.45593999997E+02  0.45594000000E+02  0.51100000000E-03 0. -1.
         11   -1    0    0    0    0 -0.00000000000E+00 -0.00000000000E+00 -0.45593999997E+02  0.45594000000E+02  0.51100000000E-03 0.  1.
    9900012    2    1    2    0    0  0.26379726441E+02  0.33345878911E+02  0.87055058635E+01  0.47787269133E+02  0.19999991286E+02 0.  0.
        -12    1    1    2    0    0 -0.26379726441E+02 -0.33345878911E+02 -0.87055058635E+01  0.43400730867E+02  0.00000000000E+00 0.  1.
         11    1    3    3    0    0 -0.69097300147E+00  0.28688009172E+01  0.77994683920E+00  0.30521762277E+01  0.51100000000E-03 0. -1.
        -11    1    3    3    0    0  0.14701188369E+02  0.49724306089E+01  0.97782975048E+00  0.15550117585E+02  0.51100000000E-03 0.  1.
         12    1    3    3    0    0  0.12369511073E+02  0.25504647385E+02  0.69477292738E+01  0.29184975321E+02  0.00000000000E+00 0. -1.
</event>
<event>
 7    1  0.4432754E-010  0.4778728E+02  0.7816164E-02  0.1312668E+00
        -11   -1    0    0    0    0  0.00000000000E+00  0.00000000000E+00  0.45593999997E+02  0.45594000000E+02  0.51100000000E-03 0. -1.
         11   -1    0    0    0    0 -0.00000000000E+00 -0.00000000000E+00 -0.45593999997E+02  0.45594000000E+02  0.51100000000E-03 0.  1.
    9900012    2    1    2    0    0 -0.38819432571E+02  0.15175646509E+02 -0.12098507926E+02  0.47787280120E+02  0.20000041378E+02 0.  0.
        -12    1    1    2    0    0  0.38819432571E+02 -0.15175646509E+02  0.12098507926E+02  0.43400719880E+02  0.00000000000E+00 0.  1.
         11    1    3    3    0    0 -0.42151146810E+01  0.48524166133E+01 -0.30228906393E+01  0.71028872187E+01  0.51100000000E-03 0.  1.
        -11    1    3    3    0    0 -0.10408478269E+02  0.90011303858E+01  0.22379295655E+01  0.13941488339E+02  0.51100000000E-03 0. -1.
         12    1    3    3    0    0 -0.24195839621E+02  0.13220995103E+01 -0.11313546852E+02  0.26742904562E+02  0.00000000000E+00 0. -1.
</event>
<event>
 7    1  0.4432754E-010  0.4778727E+02  0.7816164E-02  0.1312668E+00
        -11   -1    0    0    0    0  0.00000000000E+00  0.00000000000E+00  0.45593999997E+02  0.45594000000E+02  0.51100000000E-03 0. -1.
         11   -1    0    0    0    0 -0.00000000000E+00 -0.00000000000E+00 -0.45593999997E+02  0.45594000000E+02  0.51100000000E-03 0.  1.
    9900012    2    1    2    0    0 -0.32104903098E+02 -0.20735033354E+02  0.20565912760E+02  0.47787272140E+02  0.20000004995E+02 0.  0.
        -12    1    1    2    0    0  0.32104903098E+02  0.20735033354E+02 -0.20565912760E+02  0.43400727860E+02  0.00000000000E+00 0.  1.
         11    1    3    3    0    0 -0.17352621385E+01  0.11226576928E+01  0.13485082854E+01  0.24677864254E+01  0.51100000000E-03 0. -1.
        -11    1    3    3    0    0 -0.61823620294E+01 -0.11935678228E+02  0.12433233744E+02  0.18310306295E+02  0.51100000000E-03 0.  1.
        -12    1    3    3    0    0 -0.24187278930E+02 -0.99220128191E+01  0.67841707311E+01  0.27009179420E+02  0.00000000000E+00 0.  1.
</event>
<event>
 7    1  0.4432754E-010  0.4778727E+02  0.7816164E-02  0.1312668E+00
        -11   -1    0    0    0    0  0.00000000000E+00  0.00000000000E+00  0.45593999997E+02  0.45594000000E+02  0.51100000000E-03 0.  1.
         11   -1    0    0    0    0 -0.00000000000E+00 -0.00000000000E+00 -0.45593999997E+02  0.45594000000E+02  0.51100000000E-03 0. -1.
    9900012    2    1    2    0    0 -0.29253227570E+02  0.12976885585E+02 -0.29316756003E+02  0.47787273447E+02  0.20000010956E+02 0.  0.
        -12    1    1    2    0    0  0.29253227570E+02 -0.12976885585E+02  0.29316756003E+02  0.43400726553E+02  0.00000000000E+00 0.  1.
         11    1    3    3    0    0  0.12163282413E+00  0.16097394514E+01 -0.23181796673E+01  0.28248916575E+01  0.51100000000E-03 0. -1.
        -11    1    3    3    0    0 -0.22671121710E+02  0.68763795554E+01 -0.91898667691E+01  0.25410982013E+02  0.51100000000E-03 0.  1.
        -12    1    3    3    0    0 -0.67037386842E+01  0.44907665780E+01 -0.17808709567E+02  0.19551399777E+02  0.00000000000E+00 0.  1.
</event>
<event>
 7    1  0.4432754E-010  0.4778728E+02  0.7816164E-02  0.1312668E+00
        -11   -1    0    0    0    0  0.00000000000E+00  0.00000000000E+00  0.45593999997E+02  0.45594000000E+02  0.51100000000E-03 0. -1.
         11   -1    0    0    0    0 -0.00000000000E+00 -0.00000000000E+00 -0.45593999997E+02  0.45594000000E+02  0.51100000000E-03 0.  1.
    9900012    2    1    2    0    0 -0.23800729620E+02 -0.30452149944E+02  0.19743725905E+02  0.47787275590E+02  0.20000020727E+02 0.  0.
        -12    1    1    2    0    0  0.23800729620E+02  0.30452149944E+02 -0.19743725905E+02  0.43400724410E+02  0.00000000000E+00 0.  1.
         11    1    3    3    0    0 -0.48457791804E+01 -0.18829425808E+02  0.74280359430E+01  0.20813566978E+02  0.51100000000E-03 0. -1.
        -11    1    3    3    0    0 -0.14143855081E+01 -0.31260878564E+01 -0.74631276195E+00  0.35113949722E+01  0.51100000000E-03 0.  1.
        -12    1    3    3    0    0 -0.17540564931E+02 -0.84966362797E+01  0.13062002724E+02  0.23462313640E+02  0.00000000000E+00 0.  1.
</event>
<event>
 7    1  0.4432754E-010  0.4778727E+02  0.7816164E-02  0.1312668E+00
        -11   -1    0    0    0    0  0.00000000000E+00  0.00000000000E+00  0.45593999997E+02  0.45594000000E+02  0.51100000000E-03 0.  1.
         11   -1    0    0    0    0 -0.00000000000E+00 -0.00000000000E+00 -0.45593999997E+02  0.45594000000E+02  0.51100000000E-03 0. -1.
    9900012    2    1    2    0    0  0.34411764586E+01  0.67872197149E+01 -0.42728390610E+02  0.47787269465E+02  0.19999992797E+02 0.  0.
        -12    1    1    2    0    0 -0.34411764586E+01 -0.67872197149E+01  0.42728390610E+02  0.43400730535E+02  0.00000000000E+00 0.  1.
         11    1    3    3    0    0  0.25734033492E+00  0.53767154543E+00 -0.17442359653E+02  0.17452542086E+02  0.51100000000E-03 0. -1.
        -11    1    3    3    0    0  0.61036905482E+01 -0.29439824773E+01 -0.75491362637E+01  0.10144532011E+02  0.51100000000E-03 0.  1.
         12    1    3    3    0    0 -0.29198544244E+01  0.91935306468E+01 -0.17736894694E+02  0.20190195368E+02  0.00000000000E+00 0. -1.
</event>
<event>
 7    1  0.4432754E-010  0.4778731E+02  0.7816164E-02  0.1312668E+00
        -11   -1    0    0    0    0  0.00000000000E+00  0.00000000000E+00  0.45593999997E+02  0.45594000000E+02  0.51100000000E-03 0.  1.
         11   -1    0    0    0    0 -0.00000000000E+00 -0.00000000000E+00 -0.45593999997E+02  0.45594000000E+02  0.51100000000E-03 0. -1.
    9900012    2    1    2    0    0 -0.11502860812E+02  0.25789474598E+02 -0.32957661589E+02  0.47787305716E+02  0.20000158081E+02 0.  0.
        -12    1    1    2    0    0  0.11502860812E+02 -0.25789474598E+02  0.32957661589E+02  0.43400694284E+02  0.00000000000E+00 0.  1.
         11    1    3    3    0    0  0.19559035314E+01 -0.33987602298E+00  0.33880572600E-01  0.19855030822E+01  0.51100000000E-03 0. -1.
        -11    1    3    3    0    0 -0.60881472936E+01  0.52823832776E+01 -0.31341038520E+01  0.86482204977E+01  0.51100000000E-03 0.  1.
         12    1    3    3    0    0 -0.73706170496E+01  0.20846967343E+02 -0.29857438310E+02  0.37153582136E+02  0.00000000000E+00 0. -1.
</event>
<event>
 7    1  0.4432754E-010  0.4778727E+02  0.7816164E-02  0.1312668E+00
        -11   -1    0    0    0    0  0.00000000000E+00  0.00000000000E+00  0.45593999997E+02  0.45594000000E+02  0.51100000000E-03 0.  1.
         11   -1    0    0    0    0 -0.00000000000E+00 -0.00000000000E+00 -0.45593999997E+02  0.45594000000E+02  0.51100000000E-03 0. -1.
    9900012    2    1    2    0    0  0.41915293643E+02  0.11248254099E+02 -0.45610291835E+00  0.47787273147E+02  0.20000009588E+02 0.  0.
        -12    1    1    2    0    0 -0.41915293643E+02 -0.11248254099E+02  0.45610291835E+00  0.43400726853E+02  0.00000000000E+00 0.  1.
         11    1    3    3    0    0  0.30391171925E+02  0.92169500978E+01  0.52558361387E+01  0.32190049920E+02  0.51100000000E-03 0. -1.
        -11    1    3    3    0    0  0.64308325474E+01  0.19472038244E+01  0.13859268301E+01  0.68606124673E+01  0.51100000000E-03 0.  1.
        -12    1    3    3    0    0  0.50932891703E+01  0.84100177205E-01 -0.70978658871E+01  0.87366107595E+01  0.00000000000E+00 0.  1.
</event>
<event>
 7    1  0.4432754E-010  0.4778727E+02  0.7816164E-02  0.1312668E+00
        -11   -1    0    0    0    0  0.00000000000E+00  0.00000000000E+00  0.45593999997E+02  0.45594000000E+02  0.51100000000E-03 0.  1.
         11   -1    0    0    0    0 -0.00000000000E+00 -0.00000000000E+00 -0.45593999997E+02  0.45594000000E+02  0.51100000000E-03 0. -1.
    9900012    2    1    2    0    0  0.22995495989E+02 -0.17499611460E+02 -0.32382005980E+02  0.47787267883E+02  0.19999985584E+02 0.  0.
        -12    1    1    2    0    0 -0.22995495989E+02  0.17499611460E+02  0.32382005980E+02  0.43400732117E+02  0.00000000000E+00 0.  1.
         11    1    3    3    0    0  0.12646764280E+02 -0.57004409191E+01 -0.13633621308E+02  0.19450226314E+02  0.51100000000E-03 0. -1.
        -11    1    3    3    0    0  0.59069345492E+01 -0.16181497906E+01  0.46678242873E+00  0.61423261563E+01  0.51100000000E-03 0.  1.
        -12    1    3    3    0    0  0.44417971593E+01 -0.10181020750E+02 -0.19215167100E+02  0.22194715412E+02  0.00000000000E+00 0.  1.
</event>
<event>
 7    1  0.4432754E-010  0.4778728E+02  0.7816164E-02  0.1312668E+00
        -11   -1    0    0    0    0  0.00000000000E+00  0.00000000000E+00  0.45593999997E+02  0.45594000000E+02  0.51100000000E-03 0.  1.
         11   -1    0    0    0    0 -0.00000000000E+00 -0.00000000000E+00 -0.45593999997E+02  0.45594000000E+02  0.51100000000E-03 0. -1.
    9900012    2    1    2    0    0  0.20436210223E+02 -0.25538703184E+02 -0.28526452752E+02  0.47787279324E+02  0.20000037749E+02 0.  0.
        -12    1    1    2    0    0 -0.20436210223E+02  0.25538703184E+02  0.28526452752E+02  0.43400720676E+02  0.00000000000E+00 0.  1.
         11    1    3    3    0    0  0.20392271078E+02 -0.23098679264E+02 -0.16613409787E+02  0.35005700799E+02  0.51100000000E-03 0. -1.
        -11    1    3    3    0    0  0.13844789621E+01 -0.25570174734E+01 -0.54217192733E+01  0.61522484098E+01  0.51100000000E-03 0.  1.
        -12    1    3    3    0    0 -0.13405398172E+01  0.11699355299E+00 -0.64913236922E+01  0.66293301147E+01  0.00000000000E+00 0.  1.
</event>
<event>
 7    1  0.4432754E-010  0.4778727E+02  0.7816164E-02  0.1312668E+00
        -11   -1    0    0    0    0  0.00000000000E+00  0.00000000000E+00  0.45593999997E+02  0.45594000000E+02  0.51100000000E-03 0.  1.
         11   -1    0    0    0    0 -0.00000000000E+00 -0.00000000000E+00 -0.45593999997E+02  0.45594000000E+02  0.51100000000E-03 0. -1.
    9900012    2    1    2    0    0  0.80826933130E-01 -0.11671782092E+02 -0.41801747728E+02  0.47787272549E+02  0.20000006859E+02 0.  0.
        -12    1    1    2    0    0 -0.80826933130E-01  0.11671782092E+02  0.41801747728E+02  0.43400727451E+02  0.00000000000E+00 0.  1.
         11    1    3    3    0    0 -0.31137262940E+01 -0.47925981975E+01 -0.34874132448E+01  0.66952475920E+01  0.51100000000E-03 0. -1.
        -11    1    3    3    0    0  0.24212929936E+01 -0.10288265181E+02 -0.21997511556E+02  0.24404949807E+02  0.51100000000E-03 0.  1.
         12    1    3    3    0    0  0.77326023355E+00  0.34090812866E+01 -0.16316822927E+02  0.16687075150E+02  0.00000000000E+00 0. -1.
</event>
<event>
 7    1  0.4432754E-010  0.4778727E+02  0.7816164E-02  0.1312668E+00
        -11   -1    0    0    0    0  0.00000000000E+00  0.00000000000E+00  0.45593999997E+02  0.45594000000E+02  0.51100000000E-03 0.  1.
         11   -1    0    0    0    0 -0.00000000000E+00 -0.00000000000E+00 -0.45593999997E+02  0.45594000000E+02  0.51100000000E-03 0. -1.
    9900012    2    1    2    0    0 -0.28328179633E+02 -0.32878365604E+02  0.38793883593E+00  0.47787272096E+02  0.20000004794E+02 0.  0.
        -12    1    1    2    0    0  0.28328179633E+02  0.32878365604E+02 -0.38793883593E+00  0.43400727904E+02  0.00000000000E+00 0.  1.
         11    1    3    3    0    0 -0.49022288105E+01 -0.42663719041E+01 -0.29534292204E+01  0.71383836375E+01  0.51100000000E-03 0. -1.
        -11    1    3    3    0    0 -0.18727696757E+02 -0.30031052627E+02  0.42872619390E+01  0.35650685307E+02  0.51100000000E-03 0.  1.
        -12    1    3    3    0    0 -0.46982540652E+01  0.14190589273E+01 -0.94589388268E+00  0.49982031509E+01  0.00000000000E+00 0.  1.
</event>
<event>
 7    1  0.4432754E-010  0.4778727E+02  0.7816164E-02  0.1312668E+00
        -11   -1    0    0    0    0  0.00000000000E+00  0.00000000000E+00  0.45593999997E+02  0.45594000000E+02  0.51100000000E-03 0.  1.
         11   -1    0    0    0    0 -0.00000000000E+00 -0.00000000000E+00 -0.45593999997E+02  0.45594000000E+02  0.51100000000E-03 0. -1.
    9900012    2    1    2    0    0  0.24866388603E+02  0.33605683002E+02 -0.11659505926E+02  0.47787270852E+02  0.19999999122E+02 0.  0.
        -12    1    1    2    0    0 -0.24866388603E+02 -0.33605683002E+02  0.11659505926E+02  0.43400729148E+02  0.00000000000E+00 0.  1.
         11    1    3    3    0    0  0.31288710954E+01  0.66615673343E+01  0.96250211929E+00  0.74224473236E+01  0.51100000000E-03 0. -1.
        -11    1    3    3    0    0 -0.19078180331E+01  0.74529621081E+01 -0.27713106400E+01  0.81771985886E+01  0.51100000000E-03 0.  1.
         12    1    3    3    0    0  0.23645335540E+02  0.19491153559E+02 -0.98506974055E+01  0.32187624940E+02  0.00000000000E+00 0. -1.
</event>
<event>
 7    1  0.4432754E-010  0.4778727E+02  0.7816164E-02  0.1312668E+00
        -11   -1    0    0    0    0  0.00000000000E+00  0.00000000000E+00  0.45593999997E+02  0.45594000000E+02  0.51100000000E-03 0. -1.
         11   -1    0    0    0    0 -0.00000000000E+00 -0.00000000000E+00 -0.45593999997E+02  0.45594000000E+02  0.51100000000E-03 0.  1.
    9900012    2    1    2    0    0  0.40743616587E+02  0.10310357179E+02 -0.10829469406E+02  0.47787272294E+02  0.20000005699E+02 0.  0.
        -12    1    1    2    0    0 -0.40743616587E+02 -0.10310357179E+02  0.10829469406E+02  0.43400727706E+02  0.00000000000E+00 0.  1.
         11    1    3    3    0    0  0.55388784751E+01  0.63614773931E+01  0.14559930137E+01  0.85596428256E+01  0.51100000000E-03 0. -1.
        -11    1    3    3    0    0  0.18930101769E+02  0.48580702415E+01 -0.13313698067E+01  0.19588827052E+02  0.51100000000E-03 0.  1.
        -12    1    3    3    0    0  0.16274636343E+02 -0.90919045539E+00 -0.10954092613E+02  0.19638802417E+02  0.00000000000E+00 0.  1.
</event>
<event>
 7    1  0.4432754E-010  0.4778727E+02  0.7816164E-02  0.1312668E+00
        -11   -1    0    0    0    0  0.00000000000E+00  0.00000000000E+00  0.45593999997E+02  0.45594000000E+02  0.51100000000E-03 0.  1.
         11   -1    0    0    0    0 -0.00000000000E+00 -0.00000000000E+00 -0.45593999997E+02  0.45594000000E+02  0.51100000000E-03 0. -1.
    9900012    2    1    2    0    0  0.40440963190E+02 -0.87937099373E+01 -0.13069902104E+02  0.47787272135E+02  0.20000004973E+02 0.  0.
        -12    1    1    2    0    0 -0.40440963190E+02  0.87937099373E+01  0.13069902104E+02  0.43400727865E+02  0.00000000000E+00 0.  1.
         11    1    3    3    0    0  0.28744804128E+02 -0.25504715287E+01 -0.53954178130E+01  0.29357779259E+02  0.51100000000E-03 0. -1.
        -11    1    3    3    0    0  0.23443267696E+01  0.26713707538E+01 -0.33399873794E+00  0.35698242428E+01  0.51100000000E-03 0.  1.
         12    1    3    3    0    0  0.93518322920E+01 -0.89146091623E+01 -0.73404855530E+01  0.14859668633E+02  0.00000000000E+00 0. -1.
</event>
<event>
 7    1  0.4432754E-010  0.4778727E+02  0.7816164E-02  0.1312668E+00
        -11   -1    0    0    0    0  0.00000000000E+00  0.00000000000E+00  0.45593999997E+02  0.45594000000E+02  0.51100000000E-03 0. -1.
         11   -1    0    0    0    0 -0.00000000000E+00 -0.00000000000E+00 -0.45593999997E+02  0.45594000000E+02  0.51100000000E-03 0.  1.
    9900012    2    1    2    0    0  0.70909679175E+01  0.32771739671E+02  0.27556383492E+02  0.47787273990E+02  0.20000013429E+02 0.  0.
        -12    1    1    2    0    0 -0.70909679175E+01 -0.32771739671E+02 -0.27556383492E+02  0.43400726010E+02  0.00000000000E+00 0.  1.
         11    1    3    3    0    0  0.83196404594E+01  0.10448104056E+02  0.84688263218E+01  0.15814560230E+02  0.51100000000E-03 0. -1.
        -11    1    3    3    0    0  0.39868497525E+01  0.77582305043E+01  0.20526129121E+01  0.89609336308E+01  0.51100000000E-03 0.  1.
         12    1    3    3    0    0 -0.52155222944E+01  0.14565405111E+02  0.17034944258E+02  0.23011780129E+02  0.00000000000E+00 0. -1.
</event>
<event>
 7    1  0.4432754E-010  0.4778727E+02  0.7816164E-02  0.1312668E+00
        -11   -1    0    0    0    0  0.00000000000E+00  0.00000000000E+00  0.45593999997E+02  0.45594000000E+02  0.51100000000E-03 0. -1.
         11   -1    0    0    0    0 -0.00000000000E+00 -0.00000000000E+00 -0.45593999997E+02  0.45594000000E+02  0.51100000000E-03 0.  1.
    9900012    2    1    2    0    0 -0.24075325627E+02  0.25250616429E+02  0.25814882779E+02  0.47787272967E+02  0.20000008766E+02 0.  0.
        -12    1    1    2    0    0  0.24075325627E+02 -0.25250616429E+02 -0.25814882779E+02  0.43400727033E+02  0.00000000000E+00 0.  1.
         11    1    3    3    0    0 -0.14819900992E+02  0.15346508496E+02  0.16237946033E+02  0.26810738148E+02  0.51100000000E-03 0. -1.
        -11    1    3    3    0    0 -0.49852045287E+01  0.12505843178E+02  0.82997156879E+01  0.15815614390E+02  0.51100000000E-03 0.  1.
         12    1    3    3    0    0 -0.42702201062E+01 -0.26017352449E+01  0.12772210587E+01  0.51609204288E+01  0.00000000000E+00 0. -1.
</event>
<event>
 7    1  0.4432754E-010  0.4778727E+02  0.7816164E-02  0.1312668E+00
        -11   -1    0    0    0    0  0.00000000000E+00  0.00000000000E+00  0.45593999997E+02  0.45594000000E+02  0.51100000000E-03 0.  1.
         11   -1    0    0    0    0 -0.00000000000E+00 -0.00000000000E+00 -0.45593999997E+02  0.45594000000E+02  0.51100000000E-03 0. -1.
    9900012    2    1    2    0    0  0.13079845357E+02 -0.15295259010E+01 -0.41354581888E+02  0.47787271352E+02  0.20000001403E+02 0.  0.
        -12    1    1    2    0    0 -0.13079845357E+02  0.15295259010E+01  0.41354581888E+02  0.43400728648E+02  0.00000000000E+00 0.  1.
         11    1    3    3    0    0  0.68116111641E+01 -0.38943830720E+01 -0.18939895039E+02  0.20500826581E+02  0.51100000000E-03 0. -1.
        -11    1    3    3    0    0 -0.47085142341E+00 -0.51376539819E+01 -0.10329304044E+02  0.11546069106E+02  0.51100000000E-03 0.  1.
        -12    1    3    3    0    0  0.67390856158E+01  0.75025111529E+01 -0.12085382805E+02  0.15740375665E+02  0.00000000000E+00 0.  1.
</event>
<event>
 7    1  0.4432754E-010  0.4778729E+02  0.7816164E-02  0.1312668E+00
        -11   -1    0    0    0    0  0.00000000000E+00  0.00000000000E+00  0.45593999997E+02  0.45594000000E+02  0.51100000000E-03 0.  1.
         11   -1    0    0    0    0 -0.00000000000E+00 -0.00000000000E+00 -0.45593999997E+02  0.45594000000E+02  0.51100000000E-03 0. -1.
    9900012    2    1    2    0    0 -0.14913890428E+02 -0.14387494275E+02 -0.38133943683E+02  0.47787288254E+02  0.20000078467E+02 0.  0.
        -12    1    1    2    0    0  0.14913890428E+02  0.14387494275E+02  0.38133943683E+02  0.43400711746E+02  0.00000000000E+00 0.  1.
         11    1    3    3    0    0 -0.34081416133E+01 -0.29129678208E+01  0.10437855819E+00  0.44846076669E+01  0.51100000000E-03 0. -1.
        -11    1    3    3    0    0  0.21805410090E+01 -0.13040316924E+01 -0.99800946911E+01  0.10298424542E+02  0.51100000000E-03 0.  1.
         12    1    3    3    0    0 -0.13686289823E+02 -0.10170494761E+02 -0.28258227550E+02  0.33004256045E+02  0.00000000000E+00 0. -1.
</event>
<event>
 7    1  0.4432754E-010  0.4778727E+02  0.7816164E-02  0.1312668E+00
        -11   -1    0    0    0    0  0.00000000000E+00  0.00000000000E+00  0.45593999997E+02  0.45594000000E+02  0.51100000000E-03 0.  1.
         11   -1    0    0    0    0 -0.00000000000E+00 -0.00000000000E+00 -0.45593999997E+02  0.45594000000E+02  0.51100000000E-03 0. -1.
    9900012    2    1    2    0    0  0.41096831668E+02 -0.96241032174E+01 -0.10102006953E+02  0.47787268666E+02  0.19999989155E+02 0.  0.
        -12    1    1    2    0    0 -0.41096831668E+02  0.96241032174E+01  0.10102006953E+02  0.43400731334E+02  0.00000000000E+00 0.  1.
         11    1    3    3    0    0  0.17506595989E+02  0.13504844825E+01 -0.35128289660E+01  0.17906554081E+02  0.51100000000E-03 0. -1.
        -11    1    3    3    0    0  0.18435175211E+02 -0.72102533553E+01  0.11745211119E+01  0.19829849687E+02  0.51100000000E-03 0.  1.
        -12    1    3    3    0    0  0.51550604677E+01 -0.37643343446E+01 -0.77636990993E+01  0.10050864898E+02  0.00000000000E+00 0.  1.
</event>
<event>
 7    1  0.4432754E-010  0.4778727E+02  0.7816164E-02  0.1312668E+00
        -11   -1    0    0    0    0  0.00000000000E+00  0.00000000000E+00  0.45593999997E+02  0.45594000000E+02  0.51100000000E-03 0.  1.
         11   -1    0    0    0    0 -0.00000000000E+00 -0.00000000000E+00 -0.45593999997E+02  0.45594000000E+02  0.51100000000E-03 0. -1.
    9900012    2    1    2    0    0 -0.40850460494E+01  0.24532059750E+01 -0.43138350584E+02  0.47787272911E+02  0.20000008511E+02 0.  0.
        -12    1    1    2    0    0  0.40850460494E+01 -0.24532059750E+01  0.43138350584E+02  0.43400727089E+02  0.00000000000E+00 0.  1.
         11    1    3    3    0    0 -0.10131411147E+02 -0.43078120482E+01 -0.21367139035E+02  0.24036583935E+02  0.51100000000E-03 0. -1.
        -11    1    3    3    0    0  0.49325660763E+00  0.21686913872E+01 -0.40519459315E+01  0.46222062380E+01  0.51100000000E-03 0.  1.
         12    1    3    3    0    0  0.55531084904E+01  0.45923266361E+01 -0.17719265617E+02  0.19128482738E+02  0.00000000000E+00 0. -1.
</event>
<event>
 7    1  0.4432754E-010  0.4778728E+02  0.7816164E-02  0.1312668E+00
        -11   -1    0    0    0    0  0.00000000000E+00  0.00000000000E+00  0.45593999997E+02  0.45594000000E+02  0.51100000000E-03 0.  1.
         11   -1    0    0    0    0 -0.00000000000E+00 -0.00000000000E+00 -0.45593999997E+02  0.45594000000E+02  0.51100000000E-03 0. -1.
    9900012    2    1    2    0    0 -0.10728737021E+02  0.16733019258E+02 -0.38581378682E+02  0.47787279815E+02  0.20000039988E+02 0.  0.
        -12    1    1    2    0    0  0.10728737021E+02 -0.16733019258E+02  0.38581378682E+02  0.43400720185E+02  0.00000000000E+00 0.  1.
         11    1    3    3    0    0 -0.41468692997E+01 -0.36149313752E+01 -0.34782173642E+01  0.65086288978E+01  0.51100000000E-03 0. -1.
        -11    1    3    3    0    0 -0.69207837337E+00  0.47624693918E+01 -0.54942968473E+01  0.73039294417E+01  0.51100000000E-03 0.  1.
        -12    1    3    3    0    0 -0.58897893479E+01  0.15585481241E+02 -0.29608864471E+02  0.33974721475E+02  0.00000000000E+00 0.  1.
</event>
<event>
 7    1  0.4432754E-010  0.4778727E+02  0.7816164E-02  0.1312668E+00
        -11   -1    0    0    0    0  0.00000000000E+00  0.00000000000E+00  0.45593999997E+02  0.45594000000E+02  0.51100000000E-03 0.  1.
         11   -1    0    0    0    0 -0.00000000000E+00 -0.00000000000E+00 -0.45593999997E+02  0.45594000000E+02  0.51100000000E-03 0. -1.
    9900012    2    1    2    0    0  0.38970165935E+02  0.18944406363E+02  0.24615545939E+01  0.47787267097E+02  0.19999982004E+02 0.  0.
        -12    1    1    2    0    0 -0.38970165935E+02 -0.18944406363E+02 -0.24615545939E+01  0.43400732903E+02  0.00000000000E+00 0.  1.
         11    1    3    3    0    0  0.10494739379E+02 -0.56164767320E+00  0.12282828339E+01  0.10581289227E+02  0.51100000000E-03 0. -1.
        -11    1    3    3    0    0  0.27436688286E+02  0.12699196532E+02  0.13590157687E+00  0.30233423990E+02  0.51100000000E-03 0.  1.
        -12    1    3    3    0    0  0.10387382700E+01  0.68068575048E+01  0.10973701831E+01  0.69725538795E+01  0.00000000000E+00 0.  1.
</event>
<event>
 7    1  0.4432754E-010  0.4778727E+02  0.7816164E-02  0.1312668E+00
        -11   -1    0    0    0    0  0.00000000000E+00  0.00000000000E+00  0.45593999997E+02  0.45594000000E+02  0.51100000000E-03 0.  1.
         11   -1    0    0    0    0 -0.00000000000E+00 -0.00000000000E+00 -0.45593999997E+02  0.45594000000E+02  0.51100000000E-03 0. -1.
    9900012    2    1    2    0    0  0.42870389791E+02  0.24345342238E+00 -0.67597420631E+01  0.47787266099E+02  0.19999977451E+02 0.  0.
        -12    1    1    2    0    0 -0.42870389791E+02 -0.24345342238E+00  0.67597420631E+01  0.43400733901E+02  0.00000000000E+00 0.  1.
         11    1    3    3    0    0  0.54716424104E+01 -0.44164993919E+01  0.77592355689E+00  0.70743476853E+01  0.51100000000E-03 0. -1.
        -11    1    3    3    0    0  0.18779631092E+01  0.12639584293E+01  0.27647096995E+01  0.35732277193E+01  0.51100000000E-03 0.  1.
        -12    1    3    3    0    0  0.35520784272E+02  0.33959943850E+01 -0.10300375320E+02  0.37139690694E+02  0.00000000000E+00 0.  1.
</event>
<event>
 7    1  0.4432754E-010  0.4778727E+02  0.7816164E-02  0.1312668E+00
        -11   -1    0    0    0    0  0.00000000000E+00  0.00000000000E+00  0.45593999997E+02  0.45594000000E+02  0.51100000000E-03 0.  1.
         11   -1    0    0    0    0 -0.00000000000E+00 -0.00000000000E+00 -0.45593999997E+02  0.45594000000E+02  0.51100000000E-03 0. -1.
    9900012    2    1    2    0    0  0.25368490710E+02  0.14977176726E+02 -0.31870788736E+02  0.47787270533E+02  0.19999997670E+02 0.  0.
        -12    1    1    2    0    0 -0.25368490710E+02 -0.14977176726E+02  0.31870788736E+02  0.43400729467E+02  0.00000000000E+00 0.  1.
         11    1    3    3    0    0  0.10410084489E+02  0.66980148078E+01 -0.12544438958E+02  0.17623739968E+02  0.51100000000E-03 0. -1.
        -11    1    3    3    0    0  0.34723167002E+01 -0.43807651418E+00 -0.14563055334E+02  0.14977699263E+02  0.51100000000E-03 0.  1.
         12    1    3    3    0    0  0.11486089521E+02  0.87172384325E+01 -0.47632944435E+01  0.15185831302E+02  0.00000000000E+00 0. -1.
</event>
<event>
 7    1  0.4432754E-010  0.4778727E+02  0.7816164E-02  0.1312668E+00
        -11   -1    0    0    0    0  0.00000000000E+00  0.00000000000E+00  0.45593999997E+02  0.45594000000E+02  0.51100000000E-03 0.  1.
         11   -1    0    0    0    0 -0.00000000000E+00 -0.00000000000E+00 -0.45593999997E+02  0.45594000000E+02  0.51100000000E-03 0. -1.
    9900012    2    1    2    0    0  0.96594331236E+01 -0.15025924286E+02 -0.39554265815E+02  0.47787274279E+02  0.20000014750E+02 0.  0.
        -12    1    1    2    0    0 -0.96594331236E+01  0.15025924286E+02  0.39554265815E+02  0.43400725721E+02  0.00000000000E+00 0.  1.
         11    1    3    3    0    0 -0.21440232122E+01 -0.11982853467E+02 -0.18594322481E+02  0.22224635914E+02  0.51100000000E-03 0. -1.
        -11    1    3    3    0    0  0.87954533631E+01 -0.52709799747E+01 -0.11602222809E+02  0.15484017700E+02  0.51100000000E-03 0.  1.
        -12    1    3    3    0    0  0.30080029727E+01  0.22279091558E+01 -0.93577205253E+01  0.10078620666E+02  0.00000000000E+00 0.  1.
</event>
<event>
 7    1  0.4432754E-010  0.4778728E+02  0.7816164E-02  0.1312668E+00
        -11   -1    0    0    0    0  0.00000000000E+00  0.00000000000E+00  0.45593999997E+02  0.45594000000E+02  0.51100000000E-03 0.  1.
         11   -1    0    0    0    0 -0.00000000000E+00 -0.00000000000E+00 -0.45593999997E+02  0.45594000000E+02  0.51100000000E-03 0. -1.
    9900012    2    1    2    0    0  0.39907235081E+02  0.16813137160E+02 -0.28902912688E+01  0.47787276773E+02  0.20000026119E+02 0.  0.
        -12    1    1    2    0    0 -0.39907235081E+02 -0.16813137160E+02  0.28902912688E+01  0.43400723227E+02  0.00000000000E+00 0.  1.
         11    1    3    3    0    0  0.72639935619E+01  0.43924142703E+01 -0.67141929815E+01  0.10823090744E+02  0.51100000000E-03 0. -1.
        -11    1    3    3    0    0  0.81087417604E+00 -0.47008270641E+00 -0.19267275429E+01  0.21426091492E+01  0.51100000000E-03 0.  1.
         12    1    3    3    0    0  0.31832367344E+02  0.12890805596E+02  0.57506292557E+01  0.34821576880E+02  0.00000000000E+00 0. -1.
</event>
<event>
 7    1  0.4432754E-010  0.4778727E+02  0.7816164E-02  0.1312668E+00
        -11   -1    0    0    0    0  0.00000000000E+00  0.00000000000E+00  0.45593999997E+02  0.45594000000E+02  0.51100000000E-03 0.  1.
         11   -1    0    0    0    0 -0.00000000000E+00 -0.00000000000E+00 -0.45593999997E+02  0.45594000000E+02  0.51100000000E-03 0. -1.
    9900012    2    1    2    0    0 -0.33761291363E+02  0.13086355492E+02 -0.23927928124E+02  0.47787271448E+02  0.20000001840E+02 0.  0.
        -12    1    1    2    0    0  0.33761291363E+02 -0.13086355492E+02  0.23927928124E+02  0.43400728552E+02  0.00000000000E+00 0.  1.
         11    1    3    3    0    0 -0.11009810859E+02  0.25972525436E+01 -0.10418654605E+02  0.15378882273E+02  0.51100000000E-03 0. -1.
        -11    1    3    3    0    0  0.20332417397E+01  0.10005533292E+01 -0.32357398084E+01  0.39503406568E+01  0.51100000000E-03 0.  1.
        -12    1    3    3    0    0 -0.24784722243E+02  0.94885496195E+01 -0.10273533710E+02  0.28458048518E+02  0.00000000000E+00 0.  1.
</event>
<event>
 7    1  0.4432754E-010  0.4778731E+02  0.7816164E-02  0.1312668E+00
        -11   -1    0    0    0    0  0.00000000000E+00  0.00000000000E+00  0.45593999997E+02  0.45594000000E+02  0.51100000000E-03 0.  1.
         11   -1    0    0    0    0 -0.00000000000E+00 -0.00000000000E+00 -0.45593999997E+02  0.45594000000E+02  0.51100000000E-03 0. -1.
    9900012    2    1    2    0    0 -0.12545769276E+02 -0.31052924646E+02 -0.27603251634E+02  0.47787309262E+02  0.20000174246E+02 0.  0.
        -12    1    1    2    0    0  0.12545769276E+02  0.31052924646E+02  0.27603251634E+02  0.43400690738E+02  0.00000000000E+00 0.  1.
         11    1    3    3    0    0 -0.80938966402E+01 -0.14091814500E+02 -0.13455282129E+02  0.21098223057E+02  0.51100000000E-03 0. -1.
        -11    1    3    3    0    0 -0.29984619409E+01 -0.82074841126E+00 -0.92514989110E+01  0.97598480688E+01  0.51100000000E-03 0.  1.
        -12    1    3    3    0    0 -0.14534106950E+01 -0.16140361735E+02 -0.48964705939E+01  0.16929238136E+02  0.00000000000E+00 0.  1.
</event>
<event>
 7    1  0.4432754E-010  0.4778727E+02  0.7816164E-02  0.1312668E+00
        -11   -1    0    0    0    0  0.00000000000E+00  0.00000000000E+00  0.45593999997E+02  0.45594000000E+02  0.51100000000E-03 0.  1.
         11   -1    0    0    0    0 -0.00000000000E+00 -0.00000000000E+00 -0.45593999997E+02  0.45594000000E+02  0.51100000000E-03 0. -1.
    9900012    2    1    2    0    0  0.24736434318E+02  0.27073864880E+02 -0.23210728150E+02  0.47787271394E+02  0.20000001592E+02 0.  0.
        -12    1    1    2    0    0 -0.24736434318E+02 -0.27073864880E+02  0.23210728150E+02  0.43400728606E+02  0.00000000000E+00 0.  1.
         11    1    3    3    0    0  0.20495370844E+01  0.10349834107E+02 -0.42056333014E+01  0.11358125727E+02  0.51100000000E-03 0. -1.
        -11    1    3    3    0    0  0.25440384832E+01 -0.10605240568E+01  0.99725115742E+00  0.29311010237E+01  0.51100000000E-03 0.  1.
         12    1    3    3    0    0  0.20142858751E+02  0.17784554829E+02 -0.20002346006E+02  0.33498044643E+02  0.00000000000E+00 0. -1.
</event>
<event>
 7    1  0.4432754E-010  0.4778727E+02  0.7816164E-02  0.1312668E+00
        -11   -1    0    0    0    0  0.00000000000E+00  0.00000000000E+00  0.45593999997E+02  0.45594000000E+02  0.51100000000E-03 0.  1.
         11   -1    0    0    0    0 -0.00000000000E+00 -0.00000000000E+00 -0.45593999997E+02  0.45594000000E+02  0.51100000000E-03 0. -1.
    9900012    2    1    2    0    0  0.58621699539E+01  0.25565281862E+02 -0.34578532385E+02  0.47787267573E+02  0.19999984174E+02 0.  0.
        -12    1    1    2    0    0 -0.58621699539E+01 -0.25565281862E+02  0.34578532385E+02  0.43400732427E+02  0.00000000000E+00 0.  1.
         11    1    3    3    0    0  0.52840737937E+01  0.26265827101E+02 -0.22077583132E+02  0.34716491562E+02  0.51100000000E-03 0. -1.
        -11    1    3    3    0    0  0.17970551449E+01  0.20225204039E+00 -0.34662983009E+01  0.39096722693E+01  0.51100000000E-03 0.  1.
         12    1    3    3    0    0 -0.12189589847E+01 -0.90279727967E+00 -0.90346509528E+01  0.91611037421E+01  0.00000000000E+00 0. -1.
</event>
<event>
 7    1  0.4432754E-010  0.4778730E+02  0.7816164E-02  0.1312668E+00
        -11   -1    0    0    0    0  0.00000000000E+00  0.00000000000E+00  0.45593999997E+02  0.45594000000E+02  0.51100000000E-03 0.  1.
         11   -1    0    0    0    0 -0.00000000000E+00 -0.00000000000E+00 -0.45593999997E+02  0.45594000000E+02  0.51100000000E-03 0. -1.
    9900012    2    1    2    0    0 -0.20918573810E+02 -0.35591717842E+02 -0.13388953389E+02  0.47787295143E+02  0.20000109876E+02 0.  0.
        -12    1    1    2    0    0  0.20918573810E+02  0.35591717842E+02  0.13388953389E+02  0.43400704857E+02  0.00000000000E+00 0.  1.
         11    1    3    3    0    0 -0.12238812189E+02 -0.22838122881E+02 -0.55180526950E+01  0.26491834333E+02  0.51100000000E-03 0. -1.
        -11    1    3    3    0    0 -0.79657956585E+01 -0.84252330025E+01  0.75376661978E+00  0.11619234742E+02  0.51100000000E-03 0.  1.
         12    1    3    3    0    0 -0.71396596217E+00 -0.43283619590E+01 -0.86246673137E+01  0.96762260678E+01  0.00000000000E+00 0. -1.
</event>
<event>
 7    1  0.4432754E-010  0.4778726E+02  0.7816164E-02  0.1312668E+00
        -11   -1    0    0    0    0  0.00000000000E+00  0.00000000000E+00  0.45593999997E+02  0.45594000000E+02  0.51100000000E-03 0.  1.
         11   -1    0    0    0    0 -0.00000000000E+00 -0.00000000000E+00 -0.45593999997E+02  0.45594000000E+02  0.51100000000E-03 0. -1.
    9900012    2    1    2    0    0 -0.16679858972E+02  0.37664703995E+02 -0.13666624975E+02  0.47787259678E+02  0.19999948175E+02 0.  0.
        -12    1    1    2    0    0  0.16679858972E+02 -0.37664703995E+02  0.13666624975E+02  0.43400740322E+02  0.00000000000E+00 0.  1.
         11    1    3    3    0    0 -0.41121002368E+01  0.18143670975E+01 -0.10283047188E+01  0.46107165580E+01  0.51100000000E-03 0.  1.
        -11    1    3    3    0    0 -0.13035526912E+02  0.17716935389E+02 -0.18547940093E+01  0.22073853821E+02  0.51100000000E-03 0. -1.
        -12    1    3    3    0    0  0.46776817686E+00  0.18133401508E+02 -0.10783526247E+02  0.21102689299E+02  0.00000000000E+00 0.  1.
</event>
<event>
 7    1  0.4626621E-010  0.4778728E+02  0.7816164E-02  0.1312668E+00
        -11   -1    0    0    0    0  0.00000000000E+00  0.00000000000E+00  0.45593999997E+02  0.45594000000E+02  0.51100000000E-03 0.  1.
         11   -1    0    0    0    0 -0.00000000000E+00 -0.00000000000E+00 -0.45593999997E+02  0.45594000000E+02  0.51100000000E-03 0. -1.
    9900012    2    1    2    0    0 -0.19549712458E+02 -0.38617174518E+02  0.31851893768E+01  0.47787275855E+02  0.20000021934E+02 0.  0.
        -12    1    1    2    0    0  0.19549712458E+02  0.38617174518E+02 -0.31851893768E+01  0.43400724145E+02  0.00000000000E+00 0.  1.
         11    1    3    3    0    0 -0.15491735511E+02 -0.26861699630E+02  0.62775019982E+01  0.31637822424E+02  0.51100000000E-03 0.  1.
        -11    1    3    3    0    0 -0.76744637761E+00 -0.12412501273E+02 -0.29988658608E+01  0.12792668154E+02  0.51100000000E-03 0. -1.
        -12    1    3    3    0    0 -0.32905305691E+01  0.65702638491E+00 -0.93446760522E-01  0.33567852767E+01  0.00000000000E+00 0.  1.
</event>
<event>
 7    1  0.4432754E-010  0.4778727E+02  0.7816164E-02  0.1312668E+00
        -11   -1    0    0    0    0  0.00000000000E+00  0.00000000000E+00  0.45593999997E+02  0.45594000000E+02  0.51100000000E-03 0.  1.
         11   -1    0    0    0    0 -0.00000000000E+00 -0.00000000000E+00 -0.45593999997E+02  0.45594000000E+02  0.51100000000E-03 0. -1.
    9900012    2    1    2    0    0 -0.43052737071E+02  0.42687824060E+01 -0.34442073849E+01  0.47787271469E+02  0.20000001935E+02 0.  0.
        -12    1    1    2    0    0  0.43052737071E+02 -0.42687824060E+01  0.34442073849E+01  0.43400728531E+02  0.00000000000E+00 0.  1.
         11    1    3    3    0    0 -0.26757266216E+02  0.22950671188E+01 -0.38727648981E+01  0.27133317834E+02  0.51100000000E-03 0. -1.
        -11    1    3    3    0    0 -0.78166647764E+01  0.39797114498E+01 -0.52795567936E+01  0.10237776695E+02  0.51100000000E-03 0.  1.
         12    1    3    3    0    0 -0.84788060781E+01 -0.20059961626E+01  0.57081143067E+01  0.10416176940E+02  0.00000000000E+00 0. -1.
</event>
<event>
 7    1  0.4432754E-010  0.4778727E+02  0.7816164E-02  0.1312668E+00
        -11   -1    0    0    0    0  0.00000000000E+00  0.00000000000E+00  0.45593999997E+02  0.45594000000E+02  0.51100000000E-03 0.  1.
         11   -1    0    0    0    0 -0.00000000000E+00 -0.00000000000E+00 -0.45593999997E+02  0.45594000000E+02  0.51100000000E-03 0. -1.
    9900012    2    1    2    0    0 -0.31753970229E+02 -0.16047061073E+02  0.24855599556E+02  0.47787267014E+02  0.19999981625E+02 0.  0.
        -12    1    1    2    0    0  0.31753970229E+02  0.16047061073E+02 -0.24855599556E+02  0.43400732986E+02  0.00000000000E+00 0.  1.
         11    1    3    3    0    0 -0.12056805478E+02 -0.29085449541E+00  0.41553917697E+01  0.12756113659E+02  0.51100000000E-03 0. -1.
        -11    1    3    3    0    0 -0.17353044692E+01  0.15393288209E+01  0.51401659924E+01  0.56393369744E+01  0.51100000000E-03 0.  1.
         12    1    3    3    0    0 -0.17961860282E+02 -0.17295535398E+02  0.15560041794E+02  0.29391816381E+02  0.00000000000E+00 0. -1.
</event>
<event>
 7    1  0.4432754E-010  0.4778728E+02  0.7816164E-02  0.1312668E+00
        -11   -1    0    0    0    0  0.00000000000E+00  0.00000000000E+00  0.45593999997E+02  0.45594000000E+02  0.51100000000E-03 0.  1.
         11   -1    0    0    0    0 -0.00000000000E+00 -0.00000000000E+00 -0.45593999997E+02  0.45594000000E+02  0.51100000000E-03 0. -1.
    9900012    2    1    2    0    0  0.27081293099E+02  0.42483616668E+01 -0.33647844608E+02  0.47787280427E+02  0.20000042777E+02 0.  0.
        -12    1    1    2    0    0 -0.27081293099E+02 -0.42483616668E+01  0.33647844608E+02  0.43400719573E+02  0.00000000000E+00 0.  1.
         11    1    3    3    0    0  0.10077319480E+02  0.58223796286E+01 -0.21155461181E+02  0.24145517400E+02  0.51100000000E-03 0. -1.
        -11    1    3    3    0    0  0.49570108931E+01 -0.38675344375E+01 -0.88367020952E+01  0.10845141023E+02  0.51100000000E-03 0.  1.
        -12    1    3    3    0    0  0.12046962725E+02  0.22935164758E+01 -0.36556813314E+01  0.12796622004E+02  0.00000000000E+00 0.  1.
</event>
<event>
 7    1  0.4432754E-010  0.4778727E+02  0.7816164E-02  0.1312668E+00
        -11   -1    0    0    0    0  0.00000000000E+00  0.00000000000E+00  0.45593999997E+02  0.45594000000E+02  0.51100000000E-03 0. -1.
         11   -1    0    0    0    0 -0.00000000000E+00 -0.00000000000E+00 -0.45593999997E+02  0.45594000000E+02  0.51100000000E-03 0.  1.
    9900012    2    1    2    0    0 -0.12720435342E+02 -0.19343183151E+02 -0.36710424942E+02  0.47787268334E+02  0.19999987642E+02 0.  0.
        -12    1    1    2    0    0  0.12720435342E+02  0.19343183151E+02  0.36710424942E+02  0.43400731666E+02  0.00000000000E+00 0.  1.
         11    1    3    3    0    0 -0.41497157939E+01 -0.21350378417E+00 -0.10245664731E+02  0.11056191527E+02  0.51100000000E-03 0. -1.
        -11    1    3    3    0    0 -0.10379117794E+02 -0.67688021760E+01 -0.17103129954E+02  0.21120128398E+02  0.51100000000E-03 0.  1.
        -12    1    3    3    0    0  0.18083982455E+01 -0.12360877191E+02 -0.93616302566E+01  0.15610948408E+02  0.00000000000E+00 0.  1.
</event>
<event>
 7    1  0.4432754E-010  0.4778727E+02  0.7816164E-02  0.1312668E+00
        -11   -1    0    0    0    0  0.00000000000E+00  0.00000000000E+00  0.45593999997E+02  0.45594000000E+02  0.51100000000E-03 0.  1.
         11   -1    0    0    0    0 -0.00000000000E+00 -0.00000000000E+00 -0.45593999997E+02  0.45594000000E+02  0.51100000000E-03 0. -1.
    9900012    2    1    2    0    0 -0.10636030971E+02 -0.17393155168E+02 -0.38314175544E+02  0.47787273634E+02  0.20000011806E+02 0.  0.
        -12    1    1    2    0    0  0.10636030971E+02  0.17393155168E+02  0.38314175544E+02  0.43400726366E+02  0.00000000000E+00 0.  1.
         11    1    3    3    0    0 -0.57766006889E+01 -0.10326334661E+02 -0.16971031615E+02  0.20688601146E+02  0.51100000000E-03 0. -1.
        -11    1    3    3    0    0 -0.41080951324E+01 -0.73061454292E+01 -0.23421291246E+02  0.24875954063E+02  0.51100000000E-03 0.  1.
        -12    1    3    3    0    0 -0.75133514933E+00  0.23932492191E+00  0.20781473170E+01  0.22227184248E+01  0.00000000000E+00 0.  1.
</event>
<event>
 7    1  0.4432754E-010  0.4778727E+02  0.7816164E-02  0.1312668E+00
        -11   -1    0    0    0    0  0.00000000000E+00  0.00000000000E+00  0.45593999997E+02  0.45594000000E+02  0.51100000000E-03 0. -1.
         11   -1    0    0    0    0 -0.00000000000E+00 -0.00000000000E+00 -0.45593999997E+02  0.45594000000E+02  0.51100000000E-03 0.  1.
    9900012    2    1    2    0    0  0.69318105138E+01  0.76031168652E+01  0.42163562459E+02  0.47787269795E+02  0.19999994304E+02 0.  0.
        -12    1    1    2    0    0 -0.69318105138E+01 -0.76031168652E+01 -0.42163562459E+02  0.43400730205E+02  0.00000000000E+00 0.  1.
         11    1    3    3    0    0  0.50861080523E+01  0.10030093923E+02  0.16936709550E+02  0.20330356855E+02  0.51100000000E-03 0. -1.
        -11    1    3    3    0    0  0.10122984239E+01  0.23327179090E+01  0.20634699711E+02  0.20790794919E+02  0.51100000000E-03 0.  1.
        -12    1    3    3    0    0  0.83340403759E+00 -0.47596949671E+01  0.45921531988E+01  0.66661180211E+01  0.00000000000E+00 0.  1.
</event>
<event>
 7    1  0.4432754E-010  0.4778727E+02  0.7816164E-02  0.1312668E+00
        -11   -1    0    0    0    0  0.00000000000E+00  0.00000000000E+00  0.45593999997E+02  0.45594000000E+02  0.51100000000E-03 0.  1.
         11   -1    0    0    0    0 -0.00000000000E+00 -0.00000000000E+00 -0.45593999997E+02  0.45594000000E+02  0.51100000000E-03 0. -1.
    9900012    2    1    2    0    0  0.38860088895E+02  0.26580746325E+01 -0.19142914297E+02  0.47787273768E+02  0.20000012416E+02 0.  0.
        -12    1    1    2    0    0 -0.38860088895E+02 -0.26580746325E+01  0.19142914297E+02  0.43400726232E+02  0.00000000000E+00 0.  1.
         11    1    3    3    0    0  0.12935988537E+02 -0.11079268367E+01 -0.28679867283E+01  0.13296339701E+02  0.51100000000E-03 0. -1.
        -11    1    3    3    0    0  0.15386111219E+02  0.50230152916E+01 -0.14378721968E+01  0.16249017748E+02  0.51100000000E-03 0.  1.
         12    1    3    3    0    0  0.10537989139E+02 -0.12570138224E+01 -0.14837055372E+02  0.18241916318E+02  0.00000000000E+00 0. -1.
</event>
<event>
 7    1  0.4432754E-010  0.4778727E+02  0.7816164E-02  0.1312668E+00
        -11   -1    0    0    0    0  0.00000000000E+00  0.00000000000E+00  0.45593999997E+02  0.45594000000E+02  0.51100000000E-03 0.  1.
         11   -1    0    0    0    0 -0.00000000000E+00 -0.00000000000E+00 -0.45593999997E+02  0.45594000000E+02  0.51100000000E-03 0. -1.
    9900012    2    1    2    0    0  0.37370888384E+02  0.31987072448E+01 -0.21835950196E+02  0.47787265587E+02  0.19999975117E+02 0.  0.
        -12    1    1    2    0    0 -0.37370888384E+02 -0.31987072448E+01  0.21835950196E+02  0.43400734413E+02  0.00000000000E+00 0.  1.
         11    1    3    3    0    0  0.24387405715E+02  0.38138254402E+01 -0.23767446037E+02  0.34266343741E+02  0.51100000000E-03 0. -1.
        -11    1    3    3    0    0  0.14136268168E+01  0.95457715833E+00  0.20159143527E+00  0.17176139544E+01  0.51100000000E-03 0.  1.
        -12    1    3    3    0    0  0.11569855852E+02 -0.15696953537E+01  0.17299044052E+01  0.11803307892E+02  0.00000000000E+00 0.  1.
</event>
<event>
 7    1  0.4432754E-010  0.4778727E+02  0.7816164E-02  0.1312668E+00
        -11   -1    0    0    0    0  0.00000000000E+00  0.00000000000E+00  0.45593999997E+02  0.45594000000E+02  0.51100000000E-03 0.  1.
         11   -1    0    0    0    0 -0.00000000000E+00 -0.00000000000E+00 -0.45593999997E+02  0.45594000000E+02  0.51100000000E-03 0. -1.
    9900012    2    1    2    0    0  0.10593716118E+02  0.10412166494E+02 -0.40779693347E+02  0.47787269340E+02  0.19999992231E+02 0.  0.
        -12    1    1    2    0    0 -0.10593716118E+02 -0.10412166494E+02  0.40779693347E+02  0.43400730660E+02  0.00000000000E+00 0.  1.
         11    1    3    3    0    0  0.31705432985E+01  0.61286235706E+01 -0.20996867835E+02  0.22101602449E+02  0.51100000000E-03 0. -1.
        -11    1    3    3    0    0  0.75512028974E+01  0.27344881262E+01 -0.21746038428E+02  0.23181636656E+02  0.51100000000E-03 0.  1.
        -12    1    3    3    0    0 -0.12803007740E+00  0.15490547976E+01  0.19632129155E+01  0.25040302351E+01  0.00000000000E+00 0.  1.
</event>
<event>
 7    1  0.4432754E-010  0.4778727E+02  0.7816164E-02  0.1312668E+00
        -11   -1    0    0    0    0  0.00000000000E+00  0.00000000000E+00  0.45593999997E+02  0.45594000000E+02  0.51100000000E-03 0.  1.
         11   -1    0    0    0    0 -0.00000000000E+00 -0.00000000000E+00 -0.45593999997E+02  0.45594000000E+02  0.51100000000E-03 0. -1.
    9900012    2    1    2    0    0 -0.20082353139E+02  0.24198528588E+02 -0.29912429026E+02  0.47787273006E+02  0.20000008942E+02 0.  0.
        -12    1    1    2    0    0  0.20082353139E+02 -0.24198528588E+02  0.29912429026E+02  0.43400726994E+02  0.00000000000E+00 0.  1.
         11    1    3    3    0    0 -0.13549884320E+02  0.20053071773E+02 -0.28058273714E+02  0.37053903663E+02  0.51100000000E-03 0. -1.
        -11    1    3    3    0    0 -0.36254446252E+01  0.60461211485E+01 -0.17249115612E+01  0.72577372388E+01  0.51100000000E-03 0.  1.
        -12    1    3    3    0    0 -0.29070241941E+01 -0.19006643337E+01 -0.12924375073E+00  0.34756321038E+01  0.00000000000E+00 0.  1.
</event>
<event>
 7    1  0.4432754E-010  0.4778727E+02  0.7816164E-02  0.1312668E+00
        -11   -1    0    0    0    0  0.00000000000E+00  0.00000000000E+00  0.45593999997E+02  0.45594000000E+02  0.51100000000E-03 0. -1.
         11   -1    0    0    0    0 -0.00000000000E+00 -0.00000000000E+00 -0.45593999997E+02  0.45594000000E+02  0.51100000000E-03 0.  1.
    9900012    2    1    2    0    0 -0.40765784423E+02 -0.49343535028E+01 -0.14050839879E+02  0.47787272754E+02  0.20000007796E+02 0.  0.
        -12    1    1    2    0    0  0.40765784423E+02  0.49343535028E+01  0.14050839879E+02  0.43400727246E+02  0.00000000000E+00 0.  1.
         11    1    3    3    0    0 -0.99047225078E+01 -0.22780635434E+01 -0.35109259356E+01  0.10752660259E+02  0.51100000000E-03 0. -1.
        -11    1    3    3    0    0 -0.43744110545E+01 -0.51017346400E+01 -0.77981429901E+01  0.10294377240E+02  0.51100000000E-03 0.  1.
         12    1    3    3    0    0 -0.26486650861E+02  0.24454446805E+01 -0.27417709534E+01  0.26740235255E+02  0.00000000000E+00 0. -1.
</event>
<event>
 7    1  0.4432754E-010  0.4778728E+02  0.7816164E-02  0.1312668E+00
        -11   -1    0    0    0    0  0.00000000000E+00  0.00000000000E+00  0.45593999997E+02  0.45594000000E+02  0.51100000000E-03 0.  1.
         11   -1    0    0    0    0 -0.00000000000E+00 -0.00000000000E+00 -0.45593999997E+02  0.45594000000E+02  0.51100000000E-03 0. -1.
    9900012    2    1    2    0    0 -0.31096559645E+02  0.51242320226E+01 -0.29839050733E+02  0.47787277377E+02  0.20000028873E+02 0.  0.
        -12    1    1    2    0    0  0.31096559645E+02 -0.51242320226E+01  0.29839050733E+02  0.43400722623E+02  0.00000000000E+00 0.  1.
         11    1    3    3    0    0 -0.43801599125E+01  0.60877303946E+00 -0.57483326986E+01  0.72525674453E+01  0.51100000000E-03 0. -1.
        -11    1    3    3    0    0 -0.11529893707E+02  0.11120785347E+02 -0.12540935152E+02  0.20344172885E+02  0.51100000000E-03 0.  1.
        -12    1    3    3    0    0 -0.15186506025E+02 -0.66053263635E+01 -0.11549782882E+02  0.20190537047E+02  0.00000000000E+00 0.  1.
</event>
<event>
 7    1  0.4432754E-010  0.4778727E+02  0.7816164E-02  0.1312668E+00
        -11   -1    0    0    0    0  0.00000000000E+00  0.00000000000E+00  0.45593999997E+02  0.45594000000E+02  0.51100000000E-03 0.  1.
         11   -1    0    0    0    0 -0.00000000000E+00 -0.00000000000E+00 -0.45593999997E+02  0.45594000000E+02  0.51100000000E-03 0. -1.
    9900012    2    1    2    0    0  0.20916573797E+02 -0.62851024842E+01 -0.37504905966E+02  0.47787267931E+02  0.19999985804E+02 0.  0.
        -12    1    1    2    0    0 -0.20916573797E+02  0.62851024842E+01  0.37504905966E+02  0.43400732069E+02  0.00000000000E+00 0.  1.
         11    1    3    3    0    0  0.14549153114E+02  0.10783152735E+01 -0.93596601317E+01  0.17333316423E+02  0.51100000000E-03 0. -1.
        -11    1    3    3    0    0  0.16360418939E+01 -0.18824834610E+01 -0.16580217835E+01  0.29948979207E+01  0.51100000000E-03 0.  1.
        -12    1    3    3    0    0  0.47313787889E+01 -0.54809342967E+01 -0.26487224051E+02  0.27459053587E+02  0.00000000000E+00 0.  1.
</event>
<event>
 7    1  0.4432754E-010  0.4778728E+02  0.7816164E-02  0.1312668E+00
        -11   -1    0    0    0    0  0.00000000000E+00  0.00000000000E+00  0.45593999997E+02  0.45594000000E+02  0.51100000000E-03 0.  1.
         11   -1    0    0    0    0 -0.00000000000E+00 -0.00000000000E+00 -0.45593999997E+02  0.45594000000E+02  0.51100000000E-03 0. -1.
    9900012    2    1    2    0    0  0.29589326925E+02  0.17585709350E+02 -0.26435519833E+02  0.47787283992E+02  0.20000059031E+02 0.  0.
        -12    1    1    2    0    0 -0.29589326925E+02 -0.17585709350E+02  0.26435519833E+02  0.43400716008E+02  0.00000000000E+00 0.  1.
         11    1    3    3    0    0  0.69180870112E+01  0.40899349864E-01 -0.33549755046E+00  0.69263381031E+01  0.51100000000E-03 0.  1.
        -11    1    3    3    0    0  0.72192373638E+00  0.50509293873E+01 -0.90475904772E+01  0.10387105240E+02  0.51100000000E-03 0. -1.
         12    1    3    3    0    0  0.21949316177E+02  0.12493880613E+02 -0.17052431805E+02  0.30473840649E+02  0.00000000000E+00 0. -1.
</event>
<event>
 7    1  0.4432754E-010  0.4778727E+02  0.7816164E-02  0.1312668E+00
        -11   -1    0    0    0    0  0.00000000000E+00  0.00000000000E+00  0.45593999997E+02  0.45594000000E+02  0.51100000000E-03 0. -1.
         11   -1    0    0    0    0 -0.00000000000E+00 -0.00000000000E+00 -0.45593999997E+02  0.45594000000E+02  0.51100000000E-03 0.  1.
    9900012    2    1    2    0    0  0.41185386125E+02  0.54983343970E+01  0.12536176896E+02  0.47787269101E+02  0.19999991141E+02 0.  0.
        -12    1    1    2    0    0 -0.41185386125E+02 -0.54983343970E+01 -0.12536176896E+02  0.43400730899E+02  0.00000000000E+00 0.  1.
         11    1    3    3    0    0  0.11533506235E+02  0.23775693985E+01  0.92877660680E+01  0.14997906558E+02  0.51100000000E-03 0. -1.
        -11    1    3    3    0    0  0.19007468410E+02  0.67787448721E+01  0.62767165242E+01  0.21133679471E+02  0.51100000000E-03 0.  1.
        -12    1    3    3    0    0  0.10644411479E+02 -0.36579798736E+01 -0.30283056962E+01  0.11655683073E+02  0.00000000000E+00 0.  1.
</event>
<event>
 7    1  0.4432754E-010  0.4778727E+02  0.7816164E-02  0.1312668E+00
        -11   -1    0    0    0    0  0.00000000000E+00  0.00000000000E+00  0.45593999997E+02  0.45594000000E+02  0.51100000000E-03 0.  1.
         11   -1    0    0    0    0 -0.00000000000E+00 -0.00000000000E+00 -0.45593999997E+02  0.45594000000E+02  0.51100000000E-03 0. -1.
    9900012    2    1    2    0    0  0.12990903966E+01  0.29080206641E+02 -0.32191255167E+02  0.47787274622E+02  0.20000016311E+02 0.  0.
        -12    1    1    2    0    0 -0.12990903966E+01 -0.29080206641E+02  0.32191255167E+02  0.43400725378E+02  0.00000000000E+00 0.  1.
         11    1    3    3    0    0 -0.31465695851E+01  0.84169566021E+01 -0.71957712465E+01  0.11511958247E+02  0.51100000000E-03 0. -1.
        -11    1    3    3    0    0 -0.40984991358E+01  0.15268657669E+02 -0.18152396177E+02  0.24071541068E+02  0.51100000000E-03 0.  1.
        -12    1    3    3    0    0  0.85441591175E+01  0.53945923699E+01 -0.68430877441E+01  0.12203775307E+02  0.00000000000E+00 0.  1.
</event>
<event>
 7    1  0.4432754E-010  0.4778728E+02  0.7816164E-02  0.1312668E+00
        -11   -1    0    0    0    0  0.00000000000E+00  0.00000000000E+00  0.45593999997E+02  0.45594000000E+02  0.51100000000E-03 0. -1.
         11   -1    0    0    0    0 -0.00000000000E+00 -0.00000000000E+00 -0.45593999997E+02  0.45594000000E+02  0.51100000000E-03 0.  1.
    9900012    2    1    2    0    0 -0.29945231177E+01  0.11626350294E+02  0.41707114849E+02  0.47787278591E+02  0.20000034406E+02 0.  0.
        -12    1    1    2    0    0  0.29945231177E+01 -0.11626350294E+02 -0.41707114849E+02  0.43400721409E+02  0.00000000000E+00 0.  1.
         11    1    3    3    0    0  0.24127358117E+01 -0.24261180273E+01  0.80464980790E+01  0.87437677449E+01  0.51100000000E-03 0. -1.
        -11    1    3    3    0    0  0.36380053647E+01  0.78014435676E+00  0.64489452660E+01  0.74453074856E+01  0.51100000000E-03 0.  1.
        -12    1    3    3    0    0 -0.90452642942E+01  0.13272323964E+02  0.27211671504E+02  0.31598203360E+02  0.00000000000E+00 0.  1.
</event>
<event>
 7    1  0.4432754E-010  0.4778730E+02  0.7816164E-02  0.1312668E+00
        -11   -1    0    0    0    0  0.00000000000E+00  0.00000000000E+00  0.45593999997E+02  0.45594000000E+02  0.51100000000E-03 0.  1.
         11   -1    0    0    0    0 -0.00000000000E+00 -0.00000000000E+00 -0.45593999997E+02  0.45594000000E+02  0.51100000000E-03 0. -1.
    9900012    2    1    2    0    0  0.14849048848E+02 -0.24848351860E+02 -0.32337064202E+02  0.47787302275E+02  0.20000142390E+02 0.  0.
        -12    1    1    2    0    0 -0.14849048848E+02  0.24848351860E+02  0.32337064202E+02  0.43400697725E+02  0.00000000000E+00 0.  1.
         11    1    3    3    0    0  0.56728469371E+01 -0.15527423616E+01 -0.67943387711E+01  0.89863919796E+01  0.51100000000E-03 0. -1.
        -11    1    3    3    0    0  0.61066679054E+01 -0.20303392878E+01 -0.16000542609E+01  0.66312777373E+01  0.51100000000E-03 0.  1.
         12    1    3    3    0    0  0.30695340057E+01 -0.21265270211E+02 -0.23942671170E+02  0.32169632558E+02  0.00000000000E+00 0. -1.
</event>
<event>
 7    1  0.4432754E-010  0.4778727E+02  0.7816164E-02  0.1312668E+00
        -11   -1    0    0    0    0  0.00000000000E+00  0.00000000000E+00  0.45593999997E+02  0.45594000000E+02  0.51100000000E-03 0.  1.
         11   -1    0    0    0    0 -0.00000000000E+00 -0.00000000000E+00 -0.45593999997E+02  0.45594000000E+02  0.51100000000E-03 0. -1.
    9900012    2    1    2    0    0 -0.18060034372E+02  0.36294069168E+02 -0.15498368778E+02  0.47787265754E+02  0.19999975880E+02 0.  0.
        -12    1    1    2    0    0  0.18060034372E+02 -0.36294069168E+02  0.15498368778E+02  0.43400734246E+02  0.00000000000E+00 0.  1.
         11    1    3    3    0    0 -0.87906978068E+01  0.24434958781E+02 -0.94253865019E+00  0.25985225762E+02  0.51100000000E-03 0. -1.
        -11    1    3    3    0    0  0.66480091941E+00  0.17005920309E+01 -0.28875132366E+01  0.34163879274E+01  0.51100000000E-03 0.  1.
         12    1    3    3    0    0 -0.99341374848E+01  0.10158518356E+02 -0.11668316892E+02  0.18385652065E+02  0.00000000000E+00 0. -1.
</event>
<event>
 7    1  0.4432754E-010  0.4778730E+02  0.7816164E-02  0.1312668E+00
        -11   -1    0    0    0    0  0.00000000000E+00  0.00000000000E+00  0.45593999997E+02  0.45594000000E+02  0.51100000000E-03 0. -1.
         11   -1    0    0    0    0 -0.00000000000E+00 -0.00000000000E+00 -0.45593999997E+02  0.45594000000E+02  0.51100000000E-03 0.  1.
    9900012    2    1    2    0    0  0.19526675174E+02 -0.32297265692E+02  0.21429332421E+02  0.47787300668E+02  0.20000135065E+02 0.  0.
        -12    1    1    2    0    0 -0.19526675174E+02  0.32297265692E+02 -0.21429332421E+02  0.43400699332E+02  0.00000000000E+00 0.  1.
         11    1    3    3    0    0  0.12243715613E+01 -0.71778823025E+01  0.89271644064E+00  0.73360768108E+01  0.51100000000E-03 0.  1.
        -11    1    3    3    0    0  0.12959258007E+02 -0.13103039818E+02  0.32218796032E+01  0.18708621783E+02  0.51100000000E-03 0. -1.
         12    1    3    3    0    0  0.53430456049E+01 -0.12016343571E+02  0.17314736377E+02  0.21742602074E+02  0.00000000000E+00 0. -1.
</event>
<event>
 7    1  0.4432754E-010  0.4778727E+02  0.7816164E-02  0.1312668E+00
        -11   -1    0    0    0    0  0.00000000000E+00  0.00000000000E+00  0.45593999997E+02  0.45594000000E+02  0.51100000000E-03 0.  1.
         11   -1    0    0    0    0 -0.00000000000E+00 -0.00000000000E+00 -0.45593999997E+02  0.45594000000E+02  0.51100000000E-03 0. -1.
    9900012    2    1    2    0    0 -0.80181179704E+01 -0.27354121972E+02 -0.32727433755E+02  0.47787272761E+02  0.20000007828E+02 0.  0.
        -12    1    1    2    0    0  0.80181179704E+01  0.27354121972E+02  0.32727433755E+02  0.43400727239E+02  0.00000000000E+00 0.  1.
         11    1    3    3    0    0  0.21298552618E-01 -0.12848029603E+02 -0.98090226173E+01  0.16164443797E+02  0.51100000000E-03 0. -1.
        -11    1    3    3    0    0  0.81219034264E+00 -0.10131898072E+02 -0.53903902179E+01  0.11505273515E+02  0.51100000000E-03 0.  1.
         12    1    3    3    0    0 -0.88516068656E+01 -0.43741942965E+01 -0.17528020920E+02  0.20117555448E+02  0.00000000000E+00 0. -1.
</event>
<event>
 7    1  0.4432754E-010  0.4778727E+02  0.7816164E-02  0.1312668E+00
        -11   -1    0    0    0    0  0.00000000000E+00  0.00000000000E+00  0.45593999997E+02  0.45594000000E+02  0.51100000000E-03 0.  1.
         11   -1    0    0    0    0 -0.00000000000E+00 -0.00000000000E+00 -0.45593999997E+02  0.45594000000E+02  0.51100000000E-03 0. -1.
    9900012    2    1    2    0    0 -0.91053894679E+01 -0.19811846946E+02 -0.37526072655E+02  0.47787268143E+02  0.19999986773E+02 0.  0.
        -12    1    1    2    0    0  0.91053894679E+01  0.19811846946E+02  0.37526072655E+02  0.43400731857E+02  0.00000000000E+00 0.  1.
         11    1    3    3    0    0 -0.44316967013E+01 -0.10308539628E+01 -0.42141221080E+01  0.62017272551E+01  0.51100000000E-03 0. -1.
        -11    1    3    3    0    0 -0.97874759246E+01 -0.16436567963E+02 -0.27476164240E+02  0.33479770802E+02  0.51100000000E-03 0.  1.
         12    1    3    3    0    0  0.51137831581E+01 -0.23444250208E+01 -0.58357863071E+01  0.81057700860E+01  0.00000000000E+00 0. -1.
</event>
<event>
 7    1  0.4432754E-010  0.4778727E+02  0.7816164E-02  0.1312668E+00
        -11   -1    0    0    0    0  0.00000000000E+00  0.00000000000E+00  0.45593999997E+02  0.45594000000E+02  0.51100000000E-03 0.  1.
         11   -1    0    0    0    0 -0.00000000000E+00 -0.00000000000E+00 -0.45593999997E+02  0.45594000000E+02  0.51100000000E-03 0. -1.
    9900012    2    1    2    0    0 -0.15744896965E+02  0.61799119199E+01 -0.39969115527E+02  0.47787270884E+02  0.19999999270E+02 0.  0.
        -12    1    1    2    0    0  0.15744896965E+02 -0.61799119199E+01  0.39969115527E+02  0.43400729116E+02  0.00000000000E+00 0.  1.
         11    1    3    3    0    0 -0.37700415042E+01  0.98853180832E+01 -0.22906442381E+02  0.25231683046E+02  0.51100000000E-03 0. -1.
        -11    1    3    3    0    0 -0.10355443415E+01 -0.36214430214E+00  0.79054594566E+00  0.13522069857E+01  0.51100000000E-03 0.  1.
         12    1    3    3    0    0 -0.10939311119E+02 -0.33432618612E+01 -0.17853219092E+02  0.21203380853E+02  0.00000000000E+00 0. -1.
</event>
<event>
 7    1  0.4432754E-010  0.4778727E+02  0.7816164E-02  0.1312668E+00
        -11   -1    0    0    0    0  0.00000000000E+00  0.00000000000E+00  0.45593999997E+02  0.45594000000E+02  0.51100000000E-03 0.  1.
         11   -1    0    0    0    0 -0.00000000000E+00 -0.00000000000E+00 -0.45593999997E+02  0.45594000000E+02  0.51100000000E-03 0. -1.
    9900012    2    1    2    0    0  0.28463962249E+02  0.32547141289E+02 -0.37563487101E+01  0.47787266035E+02  0.19999977162E+02 0.  0.
        -12    1    1    2    0    0 -0.28463962249E+02 -0.32547141289E+02  0.37563487101E+01  0.43400733965E+02  0.00000000000E+00 0.  1.
         11    1    3    3    0    0  0.19127663375E+02  0.26175725483E+02 -0.14563060728E+01  0.32452379550E+02  0.51100000000E-03 0. -1.
        -11    1    3    3    0    0  0.42919850031E+01  0.63840800387E+01  0.27763970215E+01  0.81783857753E+01  0.51100000000E-03 0.  1.
        -12    1    3    3    0    0  0.50443138709E+01 -0.12664232894E-01 -0.50764396588E+01  0.71565007106E+01  0.00000000000E+00 0.  1.
</event>
<event>
 7    1  0.4432754E-010  0.4778727E+02  0.7816164E-02  0.1312668E+00
        -11   -1    0    0    0    0  0.00000000000E+00  0.00000000000E+00  0.45593999997E+02  0.45594000000E+02  0.51100000000E-03 0.  1.
         11   -1    0    0    0    0 -0.00000000000E+00 -0.00000000000E+00 -0.45593999997E+02  0.45594000000E+02  0.51100000000E-03 0. -1.
    9900012    2    1    2    0    0  0.29502220313E+02  0.51557053933E+01 -0.31411158358E+02  0.47787272231E+02  0.20000005408E+02 0.  0.
        -12    1    1    2    0    0 -0.29502220313E+02 -0.51557053933E+01  0.31411158358E+02  0.43400727769E+02  0.00000000000E+00 0.  1.
         11    1    3    3    0    0  0.35117251669E+01 -0.31189637924E+01 -0.51847186250E+01  0.69958170551E+01  0.51100000000E-03 0. -1.
        -11    1    3    3    0    0  0.24420299691E+02  0.31020608205E+01 -0.16409352697E+02  0.29584466778E+02  0.51100000000E-03 0.  1.
        -12    1    3    3    0    0  0.15701954550E+01  0.51726083652E+01 -0.98170870359E+01  0.11206988397E+02  0.00000000000E+00 0.  1.
</event>
<event>
 7    1  0.4432754E-010  0.4778727E+02  0.7816164E-02  0.1312668E+00
        -11   -1    0    0    0    0  0.00000000000E+00  0.00000000000E+00  0.45593999997E+02  0.45594000000E+02  0.51100000000E-03 0.  1.
         11   -1    0    0    0    0 -0.00000000000E+00 -0.00000000000E+00 -0.45593999997E+02  0.45594000000E+02  0.51100000000E-03 0. -1.
    9900012    2    1    2    0    0 -0.33368431638E+02 -0.27108066281E+02 -0.59433726938E+01  0.47787272282E+02  0.20000005642E+02 0.  0.
        -12    1    1    2    0    0  0.33368431638E+02  0.27108066281E+02  0.59433726938E+01  0.43400727718E+02  0.00000000000E+00 0.  1.
         11    1    3    3    0    0 -0.20989035149E+02 -0.24239832730E+02 -0.55077673123E+01  0.32533745378E+02  0.51100000000E-03 0. -1.
        -11    1    3    3    0    0 -0.37562943544E+01 -0.44515420756E+01 -0.23481144995E+01  0.62800968219E+01  0.51100000000E-03 0.  1.
        -12    1    3    3    0    0 -0.86231021347E+01  0.15833085251E+01  0.19125091180E+01  0.89734300820E+01  0.00000000000E+00 0.  1.
</event>
<event>
 7    1  0.4432754E-010  0.4778728E+02  0.7816164E-02  0.1312668E+00
        -11   -1    0    0    0    0  0.00000000000E+00  0.00000000000E+00  0.45593999997E+02  0.45594000000E+02  0.51100000000E-03 0.  1.
         11   -1    0    0    0    0 -0.00000000000E+00 -0.00000000000E+00 -0.45593999997E+02  0.45594000000E+02  0.51100000000E-03 0. -1.
    9900012    2    1    2    0    0 -0.25675721114E+01  0.29909331977E+02 -0.31344255305E+02  0.47787275277E+02  0.20000019296E+02 0.  0.
        -12    1    1    2    0    0  0.25675721114E+01 -0.29909331977E+02  0.31344255305E+02  0.43400724723E+02  0.00000000000E+00 0.  1.
         11    1    3    3    0    0  0.66041134638E+01  0.21576795402E+02 -0.23751687698E+02  0.32761487805E+02  0.51100000000E-03 0. -1.
        -11    1    3    3    0    0 -0.10351952381E+01  0.30013171803E+01 -0.12436825614E+01  0.34097332113E+01  0.51100000000E-03 0.  1.
         12    1    3    3    0    0 -0.81364903372E+01  0.53312193946E+01 -0.63488850463E+01  0.11616054260E+02  0.00000000000E+00 0. -1.
</event>
<event>
 7    1  0.4432754E-010  0.4778726E+02  0.7816164E-02  0.1312668E+00
        -11   -1    0    0    0    0  0.00000000000E+00  0.00000000000E+00  0.45593999997E+02  0.45594000000E+02  0.51100000000E-03 0. -1.
         11   -1    0    0    0    0 -0.00000000000E+00 -0.00000000000E+00 -0.45593999997E+02  0.45594000000E+02  0.51100000000E-03 0.  1.
    9900012    2    1    2    0    0 -0.30631029339E+02 -0.16409090123E+02  0.26002032208E+02  0.47787264108E+02  0.19999968372E+02 0.  0.
        -12    1    1    2    0    0  0.30631029339E+02  0.16409090123E+02 -0.26002032208E+02  0.43400735892E+02  0.00000000000E+00 0.  1.
         11    1    3    3    0    0 -0.18013335400E+02 -0.71712106099E+01  0.20812325935E+02  0.28443969922E+02  0.51100000000E-03 0. -1.
        -11    1    3    3    0    0 -0.42357977548E+01 -0.38997424602E+01  0.71852767230E+01  0.92075064878E+01  0.51100000000E-03 0.  1.
        -12    1    3    3    0    0 -0.83818961843E+01 -0.53381370533E+01 -0.19955704492E+01  0.10135787698E+02  0.00000000000E+00 0.  1.
</event>
<event>
 7    1  0.4432754E-010  0.4778727E+02  0.7816164E-02  0.1312668E+00
        -11   -1    0    0    0    0  0.00000000000E+00  0.00000000000E+00  0.45593999997E+02  0.45594000000E+02  0.51100000000E-03 0.  1.
         11   -1    0    0    0    0 -0.00000000000E+00 -0.00000000000E+00 -0.45593999997E+02  0.45594000000E+02  0.51100000000E-03 0. -1.
    9900012    2    1    2    0    0  0.14877121503E+02 -0.35849227179E+01 -0.40613334174E+02  0.47787270423E+02  0.19999997166E+02 0.  0.
        -12    1    1    2    0    0 -0.14877121503E+02  0.35849227179E+01  0.40613334174E+02  0.43400729577E+02  0.00000000000E+00 0.  1.
         11    1    3    3    0    0 -0.69274723235E+00 -0.94847723417E-01 -0.11012454619E+01  0.13044679555E+01  0.51100000000E-03 0. -1.
        -11    1    3    3    0    0  0.49799525153E+01 -0.10065762275E+02 -0.12950348949E+02  0.17141500383E+02  0.51100000000E-03 0.  1.
         12    1    3    3    0    0  0.10589916220E+02  0.65756872800E+01 -0.26561739763E+02  0.29341302084E+02  0.00000000000E+00 0. -1.
</event>
<event>
 7    1  0.4432754E-010  0.4778727E+02  0.7816164E-02  0.1312668E+00
        -11   -1    0    0    0    0  0.00000000000E+00  0.00000000000E+00  0.45593999997E+02  0.45594000000E+02  0.51100000000E-03 0.  1.
         11   -1    0    0    0    0 -0.00000000000E+00 -0.00000000000E+00 -0.45593999997E+02  0.45594000000E+02  0.51100000000E-03 0. -1.
    9900012    2    1    2    0    0  0.38435438652E+02 -0.34528540327E+01 -0.19859968566E+02  0.47787268476E+02  0.19999988290E+02 0.  0.
        -12    1    1    2    0    0 -0.38435438652E+02  0.34528540327E+01  0.19859968566E+02  0.43400731524E+02  0.00000000000E+00 0.  1.
         11    1    3    3    0    0  0.11568310539E+02 -0.44279192734E+01 -0.70108360129E+01  0.14233204126E+02  0.51100000000E-03 0. -1.
        -11    1    3    3    0    0  0.19859337032E+02 -0.60509620524E+01 -0.64227710013E+01  0.21731530013E+02  0.51100000000E-03 0.  1.
        -12    1    3    3    0    0  0.70077910804E+01  0.70260272931E+01 -0.64263615523E+01  0.11822534337E+02  0.00000000000E+00 0.  1.
</event>
<event>
 7    1  0.5748156E-010  0.4778727E+02  0.7816164E-02  0.1312668E+00
        -11   -1    0    0    0    0  0.00000000000E+00  0.00000000000E+00  0.45593999997E+02  0.45594000000E+02  0.51100000000E-03 0.  1.
         11   -1    0    0    0    0 -0.00000000000E+00 -0.00000000000E+00 -0.45593999997E+02  0.45594000000E+02  0.51100000000E-03 0. -1.
    9900012    2    1    2    0    0 -0.37415398273E+02 -0.81729340576E+01 -0.20418478538E+02  0.47787272531E+02  0.20000006780E+02 0.  0.
        -12    1    1    2    0    0  0.37415398273E+02  0.81729340576E+01  0.20418478538E+02  0.43400727469E+02  0.00000000000E+00 0.  1.
         11    1    3    3    0    0 -0.16841378609E+02  0.94074111343E+00 -0.45466735275E+01  0.17469667076E+02  0.51100000000E-03 0. -1.
        -11    1    3    3    0    0  0.12497410371E+01  0.10603737586E+01 -0.36967499154E+00  0.16801502993E+01  0.51100000000E-03 0.  1.
         12    1    3    3    0    0 -0.21823760700E+02 -0.10174048930E+02 -0.15502130019E+02  0.28637455157E+02  0.00000000000E+00 0. -1.
</event>
<event>
 7    1  0.4432754E-010  0.4778727E+02  0.7816164E-02  0.1312668E+00
        -11   -1    0    0    0    0  0.00000000000E+00  0.00000000000E+00  0.45593999997E+02  0.45594000000E+02  0.51100000000E-03 0. -1.
         11   -1    0    0    0    0 -0.00000000000E+00 -0.00000000000E+00 -0.45593999997E+02  0.45594000000E+02  0.51100000000E-03 0.  1.
    9900012    2    1    2    0    0  0.24259077424E+02 -0.41188694399E+01  0.35751301070E+02  0.47787269002E+02  0.19999990688E+02 0.  0.
        -12    1    1    2    0    0 -0.24259077424E+02  0.41188694399E+01 -0.35751301070E+02  0.43400730998E+02  0.00000000000E+00 0.  1.
         11    1    3    3    0    0  0.10407471456E+02  0.20465769207E+00  0.97367380971E+01  0.14253470311E+02  0.51100000000E-03 0. -1.
        -11    1    3    3    0    0  0.10566317891E+02 -0.10026616327E+02  0.17384921054E+02  0.22680731669E+02  0.51100000000E-03 0.  1.
         12    1    3    3    0    0  0.32852880772E+01  0.57030891952E+01  0.86296419195E+01  0.10853067022E+02  0.00000000000E+00 0. -1.
</event>
<event>
 7    1  0.4432754E-010  0.4778727E+02  0.7816164E-02  0.1312668E+00
        -11   -1    0    0    0    0  0.00000000000E+00  0.00000000000E+00  0.45593999997E+02  0.45594000000E+02  0.51100000000E-03 0.  1.
         11   -1    0    0    0    0 -0.00000000000E+00 -0.00000000000E+00 -0.45593999997E+02  0.45594000000E+02  0.51100000000E-03 0. -1.
    9900012    2    1    2    0    0 -0.24691191956E+01 -0.21178879111E+02 -0.37801874494E+02  0.47787272065E+02  0.20000004653E+02 0.  0.
        -12    1    1    2    0    0  0.24691191956E+01  0.21178879111E+02  0.37801874494E+02  0.43400727935E+02  0.00000000000E+00 0.  1.
         11    1    3    3    0    0 -0.32841244010E+01 -0.10558280023E+02 -0.17961357993E+02  0.21092015820E+02  0.51100000000E-03 0. -1.
        -11    1    3    3    0    0 -0.31305555970E+01 -0.49148698197E+01 -0.18797779718E+02  0.19680265402E+02  0.51100000000E-03 0.  1.
        -12    1    3    3    0    0  0.39455608024E+01 -0.57057292683E+01 -0.10427367828E+01  0.70149908429E+01  0.00000000000E+00 0.  1.
</event>
<event>
 7    1  0.4432754E-010  0.4778728E+02  0.7816164E-02  0.1312668E+00
        -11   -1    0    0    0    0  0.00000000000E+00  0.00000000000E+00  0.45593999997E+02  0.45594000000E+02  0.51100000000E-03 0.  1.
         11   -1    0    0    0    0 -0.00000000000E+00 -0.00000000000E+00 -0.45593999997E+02  0.45594000000E+02  0.51100000000E-03 0. -1.
    9900012    2    1    2    0    0 -0.30210088871E+01 -0.12329974131E+02 -0.41502627483E+02  0.47787275988E+02  0.20000022542E+02 0.  0.
        -12    1    1    2    0    0  0.30210088871E+01  0.12329974131E+02  0.41502627483E+02  0.43400724012E+02  0.00000000000E+00 0.  1.
         11    1    3    3    0    0 -0.26071134158E+01 -0.32092480701E+01 -0.16343245425E+02  0.16858172642E+02  0.51100000000E-03 0. -1.
        -11    1    3    3    0    0 -0.47865752789E+01 -0.49505768906E+01 -0.23745032839E+02  0.24723391743E+02  0.51100000000E-03 0.  1.
        -12    1    3    3    0    0  0.43726798077E+01 -0.41701491704E+01 -0.14143492183E+01  0.62057116043E+01  0.00000000000E+00 0.  1.
</event>
<event>
 7    1  0.4432754E-010  0.4778727E+02  0.7816164E-02  0.1312668E+00
        -11   -1    0    0    0    0  0.00000000000E+00  0.00000000000E+00  0.45593999997E+02  0.45594000000E+02  0.51100000000E-03 0.  1.
         11   -1    0    0    0    0 -0.00000000000E+00 -0.00000000000E+00 -0.45593999997E+02  0.45594000000E+02  0.51100000000E-03 0. -1.
    9900012    2    1    2    0    0  0.24145088610E+02  0.51012241269E+01 -0.35701757738E+02  0.47787270776E+02  0.19999998777E+02 0.  0.
        -12    1    1    2    0    0 -0.24145088610E+02 -0.51012241269E+01  0.35701757738E+02  0.43400729224E+02  0.00000000000E+00 0.  1.
         11    1    3    3    0    0  0.50049435165E+01 -0.35408715646E+00 -0.38274299886E+01  0.63106305467E+01  0.51100000000E-03 0. -1.
        -11    1    3    3    0    0  0.36141236251E+01 -0.48822808675E+01 -0.22672399377E+01  0.64837437675E+01  0.51100000000E-03 0.  1.
         12    1    3    3    0    0  0.15526021469E+02  0.10337592151E+02 -0.29607087812E+02  0.34992896462E+02  0.00000000000E+00 0. -1.
</event>
<event>
 7    1  0.4432754E-010  0.4778728E+02  0.7816164E-02  0.1312668E+00
        -11   -1    0    0    0    0  0.00000000000E+00  0.00000000000E+00  0.45593999997E+02  0.45594000000E+02  0.51100000000E-03 0.  1.
         11   -1    0    0    0    0 -0.00000000000E+00 -0.00000000000E+00 -0.45593999997E+02  0.45594000000E+02  0.51100000000E-03 0. -1.
    9900012    2    1    2    0    0  0.11806703607E+02  0.13948228367E+01 -0.41740608720E+02  0.47787283449E+02  0.20000056559E+02 0.  0.
        -12    1    1    2    0    0 -0.11806703607E+02 -0.13948228367E+01  0.41740608720E+02  0.43400716551E+02  0.00000000000E+00 0.  1.
         11    1    3    3    0    0 -0.37517676439E+01  0.18500491355E+01 -0.13836962884E+02  0.14455448259E+02  0.51100000000E-03 0. -1.
        -11    1    3    3    0    0  0.35454402598E+01 -0.17209315267E+01 -0.15597999316E+02  0.16088173758E+02  0.51100000000E-03 0.  1.
        -12    1    3    3    0    0  0.12013030991E+02  0.12657052278E+01 -0.12305646521E+02  0.17243661433E+02  0.00000000000E+00 0.  1.
</event>
<event>
 7    1  0.4432754E-010  0.4778727E+02  0.7816164E-02  0.1312668E+00
        -11   -1    0    0    0    0  0.00000000000E+00  0.00000000000E+00  0.45593999997E+02  0.45594000000E+02  0.51100000000E-03 0.  1.
         11   -1    0    0    0    0 -0.00000000000E+00 -0.00000000000E+00 -0.45593999997E+02  0.45594000000E+02  0.51100000000E-03 0. -1.
    9900012    2    1    2    0    0  0.28272014813E+02  0.26943118979E+02 -0.18931053195E+02  0.47787271239E+02  0.20000000888E+02 0.  0.
        -12    1    1    2    0    0 -0.28272014813E+02 -0.26943118979E+02  0.18931053195E+02  0.43400728761E+02  0.00000000000E+00 0.  1.
         11    1    3    3    0    0  0.64429756847E+01  0.10854973599E+02 -0.84007937780E+01  0.15162972132E+02  0.51100000000E-03 0. -1.
        -11    1    3    3    0    0  0.13671561992E+02  0.58228817034E+01 -0.12432953933E+02  0.19375136191E+02  0.51100000000E-03 0.  1.
         12    1    3    3    0    0  0.81574771363E+01  0.10265263677E+02  0.19026945162E+01  0.13249162917E+02  0.00000000000E+00 0. -1.
</event>
<event>
 7    1  0.4432754E-010  0.4778726E+02  0.7816164E-02  0.1312668E+00
        -11   -1    0    0    0    0  0.00000000000E+00  0.00000000000E+00  0.45593999997E+02  0.45594000000E+02  0.51100000000E-03 0.  1.
         11   -1    0    0    0    0 -0.00000000000E+00 -0.00000000000E+00 -0.45593999997E+02  0.45594000000E+02  0.51100000000E-03 0. -1.
    9900012    2    1    2    0    0 -0.30401876826E+02  0.28312621789E+01 -0.30843700081E+02  0.47787262740E+02  0.19999962135E+02 0.  0.
        -12    1    1    2    0    0  0.30401876826E+02 -0.28312621789E+01  0.30843700081E+02  0.43400737260E+02  0.00000000000E+00 0.  1.
         11    1    3    3    0    0 -0.51055046744E+01  0.30952379575E+01 -0.54011347600E+01  0.80510206155E+01  0.51100000000E-03 0. -1.
        -11    1    3    3    0    0 -0.82637238066E+01 -0.43890168119E+01 -0.65588350828E+00  0.93799138143E+01  0.51100000000E-03 0.  1.
        -12    1    3    3    0    0 -0.17032648345E+02  0.41250410332E+01 -0.24786681813E+02  0.30356328310E+02  0.00000000000E+00 0.  1.
</event>
<event>
 7    1  0.4432754E-010  0.4778728E+02  0.7816164E-02  0.1312668E+00
        -11   -1    0    0    0    0  0.00000000000E+00  0.00000000000E+00  0.45593999997E+02  0.45594000000E+02  0.51100000000E-03 0.  1.
         11   -1    0    0    0    0 -0.00000000000E+00 -0.00000000000E+00 -0.45593999997E+02  0.45594000000E+02  0.51100000000E-03 0. -1.
    9900012    2    1    2    0    0 -0.87378114782E+01 -0.11314445771E+02 -0.40978729395E+02  0.47787282317E+02  0.20000051397E+02 0.  0.
        -12    1    1    2    0    0  0.87378114782E+01  0.11314445771E+02  0.40978729395E+02  0.43400717683E+02  0.00000000000E+00 0.  1.
         11    1    3    3    0    0 -0.53519150770E+01  0.34932599299E+00 -0.10499705449E+02  0.11790200949E+02  0.51100000000E-03 0. -1.
        -11    1    3    3    0    0  0.43743108972E+01  0.82274939620E+00 -0.70689425242E+01  0.83535298566E+01  0.51100000000E-03 0.  1.
         12    1    3    3    0    0 -0.77602072985E+01 -0.12486521160E+02 -0.23410081422E+02  0.27643551511E+02  0.00000000000E+00 0. -1.
</event>
<event>
 7    1  0.4432754E-010  0.4778728E+02  0.7816164E-02  0.1312668E+00
        -11   -1    0    0    0    0  0.00000000000E+00  0.00000000000E+00  0.45593999997E+02  0.45594000000E+02  0.51100000000E-03 0. -1.
         11   -1    0    0    0    0 -0.00000000000E+00 -0.00000000000E+00 -0.45593999997E+02  0.45594000000E+02  0.51100000000E-03 0.  1.
    9900012    2    1    2    0    0 -0.23618452726E+02 -0.13730127675E+02  0.33723509356E+02  0.47787276522E+02  0.20000024974E+02 0.  0.
        -12    1    1    2    0    0  0.23618452726E+02  0.13730127675E+02 -0.33723509356E+02  0.43400723478E+02  0.00000000000E+00 0.  1.
         11    1    3    3    0    0 -0.15500634995E+01 -0.14580810236E+01  0.94501339534E+01  0.96867811538E+01  0.51100000000E-03 0. -1.
        -11    1    3    3    0    0 -0.79676446331E+01  0.18101784300E+01  0.12562559492E+02  0.14985927005E+02  0.51100000000E-03 0.  1.
        -12    1    3    3    0    0 -0.14100744593E+02 -0.14082225081E+02  0.11710815911E+02  0.23114568363E+02  0.00000000000E+00 0.  1.
</event>
<event>
 7    1  0.4432754E-010  0.4778727E+02  0.7816164E-02  0.1312668E+00
        -11   -1    0    0    0    0  0.00000000000E+00  0.00000000000E+00  0.45593999997E+02  0.45594000000E+02  0.51100000000E-03 0.  1.
         11   -1    0    0    0    0 -0.00000000000E+00 -0.00000000000E+00 -0.45593999997E+02  0.45594000000E+02  0.51100000000E-03 0. -1.
    9900012    2    1    2    0    0 -0.26305868034E+02  0.17096731611E+02 -0.29988773918E+02  0.47787268601E+02  0.19999988862E+02 0.  0.
        -12    1    1    2    0    0  0.26305868034E+02 -0.17096731611E+02  0.29988773918E+02  0.43400731399E+02  0.00000000000E+00 0.  1.
         11    1    3    3    0    0 -0.10241381767E+02  0.15249055602E+02 -0.19530302031E+02  0.26811420979E+02  0.51100000000E-03 0.  1.
        -11    1    3    3    0    0 -0.77885017827E+01  0.42409551305E+01 -0.24190363886E+01  0.91922901254E+01  0.51100000000E-03 0. -1.
        -12    1    3    3    0    0 -0.82759844849E+01 -0.23932791216E+01 -0.80394354988E+01  0.11783557497E+02  0.00000000000E+00 0.  1.
</event>
<event>
 7    1  0.4432754E-010  0.4778727E+02  0.7816164E-02  0.1312668E+00
        -11   -1    0    0    0    0  0.00000000000E+00  0.00000000000E+00  0.45593999997E+02  0.45594000000E+02  0.51100000000E-03 0.  1.
         11   -1    0    0    0    0 -0.00000000000E+00 -0.00000000000E+00 -0.45593999997E+02  0.45594000000E+02  0.51100000000E-03 0. -1.
    9900012    2    1    2    0    0 -0.26870018170E+02  0.21310415177E+02 -0.26598709849E+02  0.47787273772E+02  0.20000012437E+02 0.  0.
        -12    1    1    2    0    0  0.26870018170E+02 -0.21310415177E+02  0.26598709849E+02  0.43400726228E+02  0.00000000000E+00 0.  1.
         11    1    3    3    0    0 -0.10680063249E+02  0.14687313601E+02 -0.13936523005E+02  0.22891212409E+02  0.51100000000E-03 0. -1.
        -11    1    3    3    0    0  0.38915913575E+00  0.45392750571E+01 -0.40590178629E+01  0.61018103174E+01  0.51100000000E-03 0.  1.
         12    1    3    3    0    0 -0.16579114057E+02  0.20838265186E+01 -0.86031689810E+01  0.18794251046E+02  0.00000000000E+00 0. -1.
</event>
