<event>
 7    1  0.3863655E-015  0.9000776E+02  0.7816164E-02  0.1186339E+00
        -11   -1    0    0    0    0  0.00000000000E+00  0.00000000000E+00  0.45593999997E+02  0.45594000000E+02  0.51100000000E-03 0.  1.
         11   -1    0    0    0    0 -0.00000000000E+00 -0.00000000000E+00 -0.45593999997E+02  0.45594000000E+02  0.51100000000E-03 0. -1.
    9900012    2    1    2    0    0  0.35505842390E+00  0.11252090321E+01 -0.28543103987E-01  0.90007755721E+02  0.90000017296E+02 0.  0.
        -12    1    1    2    0    0 -0.35505842390E+00 -0.11252090321E+01  0.28543103987E-01  0.11802442794E+01  0.00000000000E+00 0.  1.
         11    1    3    3    0    0 -0.17134624879E+02 -0.31368089703E+02  0.79172333648E+00  0.35751632794E+02  0.51100000000E-03 0. -1.
        -11    1    3    3    0    0 -0.70777133756E+01 -0.54871750981E+01  0.81818292260E+00  0.89929161422E+01  0.51100000000E-03 0.  1.
        -12    1    3    3    0    0  0.24567396678E+02  0.37980473833E+02 -0.16384493631E+01  0.45263206785E+02  0.00000000000E+00 0.  1.
</event>
<event>
 7    1  0.3863655E-015  0.9000776E+02  0.7816164E-02  0.1186339E+00
        -11   -1    0    0    0    0  0.00000000000E+00  0.00000000000E+00  0.45593999997E+02  0.45594000000E+02  0.51100000000E-03 0.  1.
         11   -1    0    0    0    0 -0.00000000000E+00 -0.00000000000E+00 -0.45593999997E+02  0.45594000000E+02  0.51100000000E-03 0. -1.
    9900012    2    1    2    0    0  0.10333678580E+01 -0.57004434034E+00 -0.12747760467E-01  0.90007761810E+02  0.90000023466E+02 0.  0.
        -12    1    1    2    0    0 -0.10333678580E+01  0.57004434034E+00  0.12747760467E-01  0.11802381900E+01  0.00000000000E+00 0.  1.
         11    1    3    3    0    0  0.34080483770E+02 -0.18597025357E+02  0.10613599759E+02  0.40248940685E+02  0.51100000000E-03 0. -1.
        -11    1    3    3    0    0 -0.50441973838E+01 -0.36140340045E+01  0.77125465604E+01  0.98989162911E+01  0.51100000000E-03 0.  1.
        -12    1    3    3    0    0 -0.28002918528E+02  0.21641015022E+02 -0.18338894080E+02  0.39859904834E+02  0.00000000000E+00 0.  1.
</event>
<event>
 7    1  0.3863655E-015  0.9000786E+02  0.7816164E-02  0.1186339E+00
        -11   -1    0    0    0    0  0.00000000000E+00  0.00000000000E+00  0.45593999997E+02  0.45594000000E+02  0.51100000000E-03 0. -1.
         11   -1    0    0    0    0 -0.00000000000E+00 -0.00000000000E+00 -0.45593999997E+02  0.45594000000E+02  0.51100000000E-03 0.  1.
    9900012    2    1    2    0    0 -0.11533692894E+01 -0.17241503004E+00  0.18092942261E+00  0.90007863094E+02  0.90000126087E+02 0.  0.
        -12    1    1    2    0    0  0.11533692894E+01  0.17241503004E+00 -0.18092942261E+00  0.11801369058E+01  0.00000000000E+00 0.  1.
         11    1    3    3    0    0 -0.65662305374E+01 -0.22496983800E+01 -0.90269799061E+01  0.11386961524E+02  0.51100000000E-03 0. -1.
        -11    1    3    3    0    0 -0.27112209783E+02 -0.11434370959E+00 -0.20909791163E+02  0.34238930482E+02  0.51100000000E-03 0.  1.
         12    1    3    3    0    0  0.32525071031E+02  0.21916270596E+01  0.30117700492E+02  0.44381971088E+02  0.00000000000E+00 0. -1.
</event>
<event>
 7    1  0.3863655E-015  0.9000785E+02  0.7816164E-02  0.1186339E+00
        -11   -1    0    0    0    0  0.00000000000E+00  0.00000000000E+00  0.45593999997E+02  0.45594000000E+02  0.51100000000E-03 0.  1.
         11   -1    0    0    0    0 -0.00000000000E+00 -0.00000000000E+00 -0.45593999997E+02  0.45594000000E+02  0.51100000000E-03 0. -1.
    9900012    2    1    2    0    0  0.76857461586E+00 -0.33834532343E+00 -0.82920236592E+00  0.90007847018E+02  0.90000109798E+02 0.  0.
        -12    1    1    2    0    0 -0.76857461586E+00  0.33834532343E+00  0.82920236592E+00  0.11801529823E+01  0.00000000000E+00 0.  1.
         11    1    3    3    0    0 -0.36988972224E+02 -0.36543861899E+01  0.43345594002E+01  0.37420943469E+02  0.51100000000E-03 0. -1.
        -11    1    3    3    0    0 -0.69885159912E+01 -0.16386373596E+00 -0.31313434056E+01  0.76597336029E+01  0.51100000000E-03 0.  1.
        -12    1    3    3    0    0  0.44746062831E+02  0.34799046024E+01 -0.20324183604E+01  0.44927169946E+02  0.00000000000E+00 0.  1.
</event>
<event>
 7    1  0.3863655E-015  0.9000772E+02  0.7816164E-02  0.1186339E+00
        -11   -1    0    0    0    0  0.00000000000E+00  0.00000000000E+00  0.45593999997E+02  0.45594000000E+02  0.51100000000E-03 0.  1.
         11   -1    0    0    0    0 -0.00000000000E+00 -0.00000000000E+00 -0.45593999997E+02  0.45594000000E+02  0.51100000000E-03 0. -1.
    9900012    2    1    2    0    0 -0.93529329518E+00 -0.71787590418E+00  0.54244316283E-01  0.90007719606E+02  0.89999980705E+02 0.  0.
        -12    1    1    2    0    0  0.93529329518E+00  0.71787590418E+00 -0.54244316283E-01  0.11802803937E+01  0.00000000000E+00 0.  1.
         11    1    3    3    0    0 -0.51976621932E+01 -0.79682859235E+01  0.94084154879E+00  0.95600447653E+01  0.51100000000E-03 0. -1.
        -11    1    3    3    0    0 -0.35034298172E+02 -0.18313662737E+01  0.13551997716E+02  0.37608677099E+02  0.51100000000E-03 0.  1.
         12    1    3    3    0    0  0.39296667070E+02  0.90817762931E+01 -0.14438594948E+02  0.42838997742E+02  0.00000000000E+00 0. -1.
</event>
<event>
 7    1  0.3863655E-015  0.9000781E+02  0.7816164E-02  0.1186339E+00
        -11   -1    0    0    0    0  0.00000000000E+00  0.00000000000E+00  0.45593999997E+02  0.45594000000E+02  0.51100000000E-03 0.  1.
         11   -1    0    0    0    0 -0.00000000000E+00 -0.00000000000E+00 -0.45593999997E+02  0.45594000000E+02  0.51100000000E-03 0. -1.
    9900012    2    1    2    0    0  0.21944245241E+00 -0.69584758545E+00 -0.92763173357E+00  0.90007805319E+02  0.90000067549E+02 0.  0.
        -12    1    1    2    0    0 -0.21944245241E+00  0.69584758545E+00  0.92763173357E+00  0.11801946811E+01  0.00000000000E+00 0.  1.
         11    1    3    3    0    0 -0.14181526389E+02  0.30084727427E+02 -0.24093259276E+02  0.41069351808E+02  0.51100000000E-03 0. -1.
        -11    1    3    3    0    0 -0.14187017894E+01 -0.75710325430E+01 -0.49821579217E+01  0.91736114128E+01  0.51100000000E-03 0.  1.
        -12    1    3    3    0    0  0.15819670631E+02 -0.23209542470E+02  0.28147785465E+02  0.39764842098E+02  0.00000000000E+00 0.  1.
</event>
<event>
 7    1  0.3863655E-015  0.9000696E+02  0.7816164E-02  0.1186341E+00
        -11   -1    0    0    0    0  0.00000000000E+00  0.00000000000E+00  0.45593999997E+02  0.45594000000E+02  0.51100000000E-03 0.  1.
         11   -1    0    0    0    0 -0.00000000000E+00 -0.00000000000E+00 -0.45593999997E+02  0.45594000000E+02  0.51100000000E-03 0. -1.
    9900012    2    1    2    0    0 -0.32772870160E+00 -0.11311118666E+01 -0.89598097933E-01  0.90006963178E+02  0.89999214288E+02 0.  0.
        -12    1    1    2    0    0  0.32772870160E+00  0.11311118666E+01  0.89598097933E-01  0.11810368223E+01  0.00000000000E+00 0.  1.
         11    1    3    3    0    0  0.36266896385E+02  0.14403801596E+02  0.17077555990E+01  0.39059873313E+02  0.51100000000E-03 0. -1.
        -11    1    3    3    0    0  0.65071961886E+00 -0.17632344610E+01  0.94819075366E+01  0.96663851869E+01  0.51100000000E-03 0.  1.
        -12    1    3    3    0    0 -0.37245344705E+02 -0.13771679001E+02 -0.11279261234E+02  0.41280704678E+02  0.00000000000E+00 0.  1.
</event>
<event>
 7    1  0.3863655E-015  0.9000778E+02  0.7816164E-02  0.1186339E+00
        -11   -1    0    0    0    0  0.00000000000E+00  0.00000000000E+00  0.45593999997E+02  0.45594000000E+02  0.51100000000E-03 0.  1.
         11   -1    0    0    0    0 -0.00000000000E+00 -0.00000000000E+00 -0.45593999997E+02  0.45594000000E+02  0.51100000000E-03 0. -1.
    9900012    2    1    2    0    0 -0.83890595249E+00 -0.61343145100E+00 -0.55934148376E+00  0.90007777886E+02  0.90000039754E+02 0.  0.
        -12    1    1    2    0    0  0.83890595249E+00  0.61343145100E+00  0.55934148376E+00  0.11802221137E+01  0.00000000000E+00 0.  1.
         11    1    3    3    0    0  0.33541712664E+02  0.26118006425E+01  0.14146683360E+02  0.36496529169E+02  0.51100000000E-03 0. -1.
        -11    1    3    3    0    0  0.67223917536E+01  0.60048592212E+01 -0.48952535635E+01  0.10257309241E+02  0.51100000000E-03 0.  1.
        -12    1    3    3    0    0 -0.41103010370E+02 -0.92300913147E+01 -0.98107712803E+01  0.43253939477E+02  0.00000000000E+00 0.  1.
</event>
<event>
 7    1  0.3863655E-015  0.9000767E+02  0.7816164E-02  0.1186339E+00
        -11   -1    0    0    0    0  0.00000000000E+00  0.00000000000E+00  0.45593999997E+02  0.45594000000E+02  0.51100000000E-03 0. -1.
         11   -1    0    0    0    0 -0.00000000000E+00 -0.00000000000E+00 -0.45593999997E+02  0.45594000000E+02  0.51100000000E-03 0.  1.
    9900012    2    1    2    0    0 -0.64423215671E+00 -0.64515573106E+00 -0.74961533944E+00  0.90007667781E+02  0.89999928196E+02 0.  0.
        -12    1    1    2    0    0  0.64423215671E+00  0.64515573106E+00  0.74961533944E+00  0.11803322186E+01  0.00000000000E+00 0.  1.
         11    1    3    3    0    0 -0.13741850628E+02 -0.63849293182E+01  0.14428839168E+01  0.15221290857E+02  0.51100000000E-03 0. -1.
        -11    1    3    3    0    0 -0.15720442059E+02 -0.14967223119E+02 -0.24608330335E+02  0.32813411718E+02  0.51100000000E-03 0.  1.
         12    1    3    3    0    0  0.28818060530E+02  0.20706996707E+02  0.22415831078E+02  0.41972965207E+02  0.00000000000E+00 0. -1.
</event>
<event>
 7    1  0.3863655E-015  0.9000773E+02  0.7816164E-02  0.1186339E+00
        -11   -1    0    0    0    0  0.00000000000E+00  0.00000000000E+00  0.45593999997E+02  0.45594000000E+02  0.51100000000E-03 0.  1.
         11   -1    0    0    0    0 -0.00000000000E+00 -0.00000000000E+00 -0.45593999997E+02  0.45594000000E+02  0.51100000000E-03 0. -1.
    9900012    2    1    2    0    0 -0.76330151709E+00  0.84415099786E+00 -0.31277098337E+00  0.90007726387E+02  0.89999987575E+02 0.  0.
        -12    1    1    2    0    0  0.76330151709E+00 -0.84415099786E+00  0.31277098337E+00  0.11802736129E+01  0.00000000000E+00 0.  1.
         11    1    3    3    0    0 -0.11757384700E+02  0.15856851692E+02  0.20824765744E+01  0.19849749356E+02  0.51100000000E-03 0. -1.
        -11    1    3    3    0    0 -0.15365844860E+02  0.16445582652E+02 -0.15206626375E+02  0.27162618854E+02  0.51100000000E-03 0.  1.
         12    1    3    3    0    0  0.26359928043E+02 -0.31458283346E+02  0.12811378818E+02  0.42995358177E+02  0.00000000000E+00 0. -1.
</event>
<event>
 8    1  0.3863655E-015  0.9000781E+02  0.7816164E-02  0.1186339E+00
        -11   -1    0    0    0    0  0.00000000000E+00  0.00000000000E+00  0.45593999997E+02  0.45594000000E+02  0.51100000000E-03 0.  1.
         11   -1    0    0    0    0 -0.00000000000E+00 -0.00000000000E+00 -0.45593999997E+02  0.45594000000E+02  0.51100000000E-03 0. -1.
    9900012    2    1    2    0    0 -0.39400545988E+00 -0.96583680555E+00  0.55206478416E+00  0.90007806557E+02  0.90000068803E+02 0.  0.
         23    2    3    3    0    0  0.27487152943E+02 -0.64534780057E+01  0.60765664051E+01  0.61059692318E+02  0.53797494472E+02 0.  0.
        -12    1    1    2    0    0  0.39400545988E+00  0.96583680555E+00 -0.55206478416E+00  0.11801934432E+01  0.00000000000E+00 0.  1.
         11    1    4    4    0    0 -0.65589247373E+01 -0.16670372553E+02 -0.11619270337E+02  0.21352476629E+02  0.51100000000E-03 0. -1.
        -11    1    4    4    0    0  0.34046077680E+02  0.10216894547E+02  0.17695836742E+02  0.39707215690E+02  0.51100000000E-03 0.  1.
         12    1    3    3    0    0 -0.27881158402E+02  0.54876412002E+01 -0.55245016209E+01  0.28948114238E+02  0.00000000000E+00 0. -1.
</event>
<event>
 7    1  0.3863655E-015  0.9000775E+02  0.7816164E-02  0.1186339E+00
        -11   -1    0    0    0    0  0.00000000000E+00  0.00000000000E+00  0.45593999997E+02  0.45594000000E+02  0.51100000000E-03 0.  1.
         11   -1    0    0    0    0 -0.00000000000E+00 -0.00000000000E+00 -0.45593999997E+02  0.45594000000E+02  0.51100000000E-03 0. -1.
    9900012    2    1    2    0    0 -0.22474421448E+00 -0.46314543137E+00 -0.10620590467E+01  0.90007752962E+02  0.90000014501E+02 0.  0.
        -12    1    1    2    0    0  0.22474421448E+00  0.46314543137E+00  0.10620590467E+01  0.11802470382E+01  0.00000000000E+00 0.  1.
         11    1    3    3    0    0  0.25011022740E+02 -0.40018799749E+01 -0.21019488323E+02  0.32914817202E+02  0.51100000000E-03 0. -1.
        -11    1    3    3    0    0  0.98341111659E+01  0.17185794326E+01 -0.75240609968E+01  0.12500990034E+02  0.51100000000E-03 0.  1.
        -12    1    3    3    0    0 -0.35069878120E+02  0.18201551109E+01  0.27481490273E+02  0.44591945726E+02  0.00000000000E+00 0.  1.
</event>
<event>
 7    1  0.3863655E-015  0.9000777E+02  0.7816164E-02  0.1186339E+00
        -11   -1    0    0    0    0  0.00000000000E+00  0.00000000000E+00  0.45593999997E+02  0.45594000000E+02  0.51100000000E-03 0.  1.
         11   -1    0    0    0    0 -0.00000000000E+00 -0.00000000000E+00 -0.45593999997E+02  0.45594000000E+02  0.51100000000E-03 0. -1.
    9900012    2    1    2    0    0 -0.11075523118E+00 -0.11747213524E+01 -0.26432878243E-01  0.90007773041E+02  0.90000034845E+02 0.  0.
        -12    1    1    2    0    0  0.11075523118E+00  0.11747213524E+01  0.26432878243E-01  0.11802269587E+01  0.00000000000E+00 0.  1.
         11    1    3    3    0    0  0.50062625617E+01  0.12872883057E+02 -0.30040747031E+02  0.33063881585E+02  0.51100000000E-03 0. -1.
        -11    1    3    3    0    0 -0.16289823456E+01  0.25233999047E+01 -0.11617663883E+02  0.11999635200E+02  0.51100000000E-03 0.  1.
        -12    1    3    3    0    0 -0.34880354473E+01 -0.16571004314E+02  0.41631978036E+02  0.44944256256E+02  0.00000000000E+00 0.  1.
</event>
<event>
 7    1  0.3863655E-015  0.9000773E+02  0.7816164E-02  0.1186339E+00
        -11   -1    0    0    0    0  0.00000000000E+00  0.00000000000E+00  0.45593999997E+02  0.45594000000E+02  0.51100000000E-03 0.  1.
         11   -1    0    0    0    0 -0.00000000000E+00 -0.00000000000E+00 -0.45593999997E+02  0.45594000000E+02  0.51100000000E-03 0. -1.
    9900012    2    1    2    0    0  0.74849096107E+00 -0.54969163181E+00 -0.72844898503E+00  0.90007729890E+02  0.89999991124E+02 0.  0.
        -12    1    1    2    0    0 -0.74849096107E+00  0.54969163181E+00  0.72844898503E+00  0.11802701101E+01  0.00000000000E+00 0.  1.
         11    1    3    3    0    0 -0.20475351314E+02  0.26538872477E+02 -0.19795286611E+02  0.38928204891E+02  0.51100000000E-03 0. -1.
        -11    1    3    3    0    0  0.41104420811E+01  0.90171806229E+00 -0.76756824435E+01  0.87535667474E+01  0.51100000000E-03 0.  1.
        -12    1    3    3    0    0  0.17113400194E+02 -0.27990282171E+02  0.26742520070E+02  0.42325958251E+02  0.00000000000E+00 0.  1.
</event>
<event>
 7    1  0.3863655E-015  0.9000782E+02  0.7816164E-02  0.1186339E+00
        -11   -1    0    0    0    0  0.00000000000E+00  0.00000000000E+00  0.45593999997E+02  0.45594000000E+02  0.51100000000E-03 0.  1.
         11   -1    0    0    0    0 -0.00000000000E+00 -0.00000000000E+00 -0.45593999997E+02  0.45594000000E+02  0.51100000000E-03 0. -1.
    9900012    2    1    2    0    0 -0.10040236899E+01 -0.61686033964E+00  0.65064834025E-01  0.90007824724E+02  0.90000087211E+02 0.  0.
        -12    1    1    2    0    0  0.10040236899E+01  0.61686033964E+00 -0.65064834025E-01  0.11801752756E+01  0.00000000000E+00 0.  1.
         11    1    3    3    0    0 -0.17312585031E+02  0.15137796670E+01 -0.32530725862E+02  0.36881774018E+02  0.51100000000E-03 0. -1.
        -11    1    3    3    0    0 -0.61735321662E+01  0.17449342390E+01 -0.56790558464E+01  0.85679035051E+01  0.51100000000E-03 0.  1.
        -12    1    3    3    0    0  0.22482093507E+02 -0.38755742457E+01  0.38274846542E+02  0.44558147202E+02  0.00000000000E+00 0.  1.
</event>
<event>
 7    1  0.3863655E-015  0.9000771E+02  0.7816164E-02  0.1186339E+00
        -11   -1    0    0    0    0  0.00000000000E+00  0.00000000000E+00  0.45593999997E+02  0.45594000000E+02  0.51100000000E-03 0.  1.
         11   -1    0    0    0    0 -0.00000000000E+00 -0.00000000000E+00 -0.45593999997E+02  0.45594000000E+02  0.51100000000E-03 0. -1.
    9900012    2    1    2    0    0  0.31422445201E+00 -0.92510509636E+00 -0.66221249542E+00  0.90007711122E+02  0.89999972109E+02 0.  0.
        -12    1    1    2    0    0 -0.31422445201E+00  0.92510509636E+00  0.66221249542E+00  0.11802888776E+01  0.00000000000E+00 0.  1.
         11    1    3    3    0    0 -0.72693291964E+01 -0.34585408678E+01  0.45635975205E+01  0.92537059868E+01  0.51100000000E-03 0. -1.
        -11    1    3    3    0    0 -0.32330497831E+02  0.16888690818E+02 -0.10632112331E+02  0.37993825556E+02  0.51100000000E-03 0.  1.
         12    1    3    3    0    0  0.39914051479E+02 -0.14355255047E+02  0.54063023152E+01  0.42760179579E+02  0.00000000000E+00 0. -1.
</event>
<event>
 7    1  0.3863655E-015  0.9000665E+02  0.7816164E-02  0.1186341E+00
        -11   -1    0    0    0    0  0.00000000000E+00  0.00000000000E+00  0.45593999997E+02  0.45594000000E+02  0.51100000000E-03 0. -1.
         11   -1    0    0    0    0 -0.00000000000E+00 -0.00000000000E+00 -0.45593999997E+02  0.45594000000E+02  0.51100000000E-03 0.  1.
    9900012    2    1    2    0    0  0.36411977719E+00 -0.11024717668E+01  0.21805822432E+00  0.90006654751E+02  0.89998901787E+02 0.  0.
        -12    1    1    2    0    0 -0.36411977719E+00  0.11024717668E+01 -0.21805822432E+00  0.11813452493E+01  0.00000000000E+00 0.  1.
         11    1    3    3    0    0 -0.29184740488E+02  0.22333257663E+02 -0.13363102307E+02  0.39103656846E+02  0.51100000000E-03 0. -1.
        -11    1    3    3    0    0 -0.55632837540E+01 -0.59755946732E+01 -0.24721688384E+01  0.85305027315E+01  0.51100000000E-03 0.  1.
        -12    1    3    3    0    0  0.35112144019E+02 -0.17460134757E+02  0.16053329370E+02  0.42372495173E+02  0.00000000000E+00 0.  1.
</event>
<event>
 7    1  0.4874548E-015  0.9000772E+02  0.7816164E-02  0.1186339E+00
        -11   -1    0    0    0    0  0.00000000000E+00  0.00000000000E+00  0.45593999997E+02  0.45594000000E+02  0.51100000000E-03 0.  1.
         11   -1    0    0    0    0 -0.00000000000E+00 -0.00000000000E+00 -0.45593999997E+02  0.45594000000E+02  0.51100000000E-03 0. -1.
    9900012    2    1    2    0    0 -0.33945405027E+00 -0.10180752343E+01 -0.49127322655E+00  0.90007722228E+02  0.89999983362E+02 0.  0.
        -12    1    1    2    0    0  0.33945405027E+00  0.10180752343E+01  0.49127322655E+00  0.11802777715E+01  0.00000000000E+00 0.  1.
         11    1    3    3    0    0 -0.97924851124E+01 -0.24437413680E+00 -0.37999321292E+02  0.39241571099E+02  0.51100000000E-03 0. -1.
        -11    1    3    3    0    0  0.42715020549E+01 -0.83970233323E+01 -0.24698379349E+01  0.97393957889E+01  0.51100000000E-03 0.  1.
        -12    1    3    3    0    0  0.51815290073E+01  0.76233222348E+01  0.39977886000E+02  0.41026755341E+02  0.00000000000E+00 0.  1.
</event>
<event>
 7    1  0.3863655E-015  0.9000771E+02  0.7816164E-02  0.1186339E+00
        -11   -1    0    0    0    0  0.00000000000E+00  0.00000000000E+00  0.45593999997E+02  0.45594000000E+02  0.51100000000E-03 0.  1.
         11   -1    0    0    0    0 -0.00000000000E+00 -0.00000000000E+00 -0.45593999997E+02  0.45594000000E+02  0.51100000000E-03 0. -1.
    9900012    2    1    2    0    0  0.41118301844E+00  0.10223913871E+01 -0.42275739629E+00  0.90007712137E+02  0.89999973137E+02 0.  0.
        -12    1    1    2    0    0 -0.41118301844E+00 -0.10223913871E+01  0.42275739629E+00  0.11802878629E+01  0.00000000000E+00 0.  1.
         11    1    3    3    0    0 -0.48783874209E+00 -0.71077444607E+01  0.68883889428E+01  0.99099909407E+01  0.51100000000E-03 0. -1.
        -11    1    3    3    0    0 -0.89434185702E+01 -0.34405964319E+02 -0.79741689452E+01  0.36432711772E+02  0.51100000000E-03 0.  1.
         12    1    3    3    0    0  0.98424403307E+01  0.42536100167E+02  0.66302260610E+00  0.43665009424E+02  0.00000000000E+00 0. -1.
</event>
<event>
 7    1  0.3863655E-015  0.9000770E+02  0.7816164E-02  0.1186339E+00
        -11   -1    0    0    0    0  0.00000000000E+00  0.00000000000E+00  0.45593999997E+02  0.45594000000E+02  0.51100000000E-03 0. -1.
         11   -1    0    0    0    0 -0.00000000000E+00 -0.00000000000E+00 -0.45593999997E+02  0.45594000000E+02  0.51100000000E-03 0.  1.
    9900012    2    1    2    0    0 -0.90265989300E+00 -0.45654132796E+00  0.60818472607E+00  0.90007697697E+02  0.89999958506E+02 0.  0.
        -12    1    1    2    0    0  0.90265989300E+00  0.45654132796E+00 -0.60818472607E+00  0.11803023035E+01  0.00000000000E+00 0.  1.
         11    1    3    3    0    0  0.65541838579E+00 -0.79358781368E+01 -0.33988434608E+01  0.86579369480E+01  0.51100000000E-03 0. -1.
        -11    1    3    3    0    0  0.31282424712E+02  0.11289720020E+02 -0.21492432812E+02  0.39597633041E+02  0.51100000000E-03 0.  1.
         12    1    3    3    0    0 -0.32840502991E+02 -0.38103832114E+01  0.25499460999E+02  0.41752127708E+02  0.00000000000E+00 0. -1.
</event>
<event>
 7    1  0.3863655E-015  0.9000775E+02  0.7816164E-02  0.1186339E+00
        -11   -1    0    0    0    0  0.00000000000E+00  0.00000000000E+00  0.45593999997E+02  0.45594000000E+02  0.51100000000E-03 0. -1.
         11   -1    0    0    0    0 -0.00000000000E+00 -0.00000000000E+00 -0.45593999997E+02  0.45594000000E+02  0.51100000000E-03 0.  1.
    9900012    2    1    2    0    0 -0.11454125254E+01 -0.66533369292E-01 -0.27675474362E+00  0.90007750141E+02  0.90000011642E+02 0.  0.
        -12    1    1    2    0    0  0.11454125254E+01  0.66533369292E-01  0.27675474362E+00  0.11802498594E+01  0.00000000000E+00 0.  1.
         11    1    3    3    0    0 -0.93575677427E+01  0.16273139708E+01 -0.57999839074E+01  0.11128883071E+02  0.51100000000E-03 0. -1.
        -11    1    3    3    0    0  0.20444964104E+02  0.27552893136E+02 -0.18614094175E+02  0.39033869646E+02  0.51100000000E-03 0.  1.
         12    1    3    3    0    0 -0.12232808887E+02 -0.29246740476E+02  0.24137323338E+02  0.39844997423E+02  0.00000000000E+00 0. -1.
</event>
<event>
 7    1  0.3863655E-015  0.9000769E+02  0.7816164E-02  0.1186339E+00
        -11   -1    0    0    0    0  0.00000000000E+00  0.00000000000E+00  0.45593999997E+02  0.45594000000E+02  0.51100000000E-03 0. -1.
         11   -1    0    0    0    0 -0.00000000000E+00 -0.00000000000E+00 -0.45593999997E+02  0.45594000000E+02  0.51100000000E-03 0.  1.
    9900012    2    1    2    0    0 -0.84366894755E+00 -0.78016205974E+00  0.26964035491E+00  0.90007688154E+02  0.89999948838E+02 0.  0.
        -12    1    1    2    0    0  0.84366894755E+00  0.78016205974E+00 -0.26964035491E+00  0.11803118459E+01  0.00000000000E+00 0.  1.
         11    1    3    3    0    0 -0.81001040588E+01 -0.20935571484E+00  0.38984927457E+02  0.39818087406E+02  0.51100000000E-03 0. -1.
        -11    1    3    3    0    0 -0.40828838120E+01 -0.79629391698E+01  0.23765852415E+00  0.89518055318E+01  0.51100000000E-03 0.  1.
        -12    1    3    3    0    0  0.11339318923E+02  0.73921328249E+01 -0.38952945626E+02  0.41237795216E+02  0.00000000000E+00 0.  1.
</event>
<event>
 7    1  0.3863655E-015  0.9000782E+02  0.7816164E-02  0.1186339E+00
        -11   -1    0    0    0    0  0.00000000000E+00  0.00000000000E+00  0.45593999997E+02  0.45594000000E+02  0.51100000000E-03 0. -1.
         11   -1    0    0    0    0 -0.00000000000E+00 -0.00000000000E+00 -0.45593999997E+02  0.45594000000E+02  0.51100000000E-03 0.  1.
    9900012    2    1    2    0    0 -0.61069921861E+00 -0.97592677689E+00 -0.25966816385E+00  0.90007824520E+02  0.90000087003E+02 0.  0.
        -12    1    1    2    0    0  0.61069921861E+00  0.97592677689E+00  0.25966816385E+00  0.11801754805E+01  0.00000000000E+00 0.  1.
         11    1    3    3    0    0  0.29507255199E+01 -0.92009381739E+01 -0.86199187995E+01  0.12948630999E+02  0.51100000000E-03 0. -1.
        -11    1    3    3    0    0 -0.24226095827E+00 -0.33987735334E+02  0.49702706833E+00  0.33992232638E+02  0.51100000000E-03 0.  1.
         12    1    3    3    0    0 -0.33191637803E+01  0.42212746731E+02  0.78632235673E+01  0.43066960883E+02  0.00000000000E+00 0. -1.
</event>
<event>
 7    1  0.3863655E-015  0.9000768E+02  0.7816164E-02  0.1186339E+00
        -11   -1    0    0    0    0  0.00000000000E+00  0.00000000000E+00  0.45593999997E+02  0.45594000000E+02  0.51100000000E-03 0.  1.
         11   -1    0    0    0    0 -0.00000000000E+00 -0.00000000000E+00 -0.45593999997E+02  0.45594000000E+02  0.51100000000E-03 0. -1.
    9900012    2    1    2    0    0 -0.68100025283E+00  0.68103323495E+00 -0.68233692319E+00  0.90007681700E+02  0.89999942299E+02 0.  0.
        -12    1    1    2    0    0  0.68100025283E+00 -0.68103323495E+00  0.68233692319E+00  0.11803182995E+01  0.00000000000E+00 0.  1.
         11    1    3    3    0    0  0.18495174864E+02 -0.89095641526E+01 -0.60962724265E+01  0.21415330126E+02  0.51100000000E-03 0. -1.
        -11    1    3    3    0    0  0.20547900225E+02  0.31254526275E+01  0.16845494155E+02  0.26753604082E+02  0.51100000000E-03 0.  1.
        -12    1    3    3    0    0 -0.39724075342E+02  0.64651447600E+01 -0.11431558651E+02  0.41838747493E+02  0.00000000000E+00 0.  1.
</event>
<event>
 7    1  0.3863655E-015  0.9000773E+02  0.7816164E-02  0.1186339E+00
        -11   -1    0    0    0    0  0.00000000000E+00  0.00000000000E+00  0.45593999997E+02  0.45594000000E+02  0.51100000000E-03 0. -1.
         11   -1    0    0    0    0 -0.00000000000E+00 -0.00000000000E+00 -0.45593999997E+02  0.45594000000E+02  0.51100000000E-03 0.  1.
    9900012    2    1    2    0    0 -0.46441882366E+00 -0.83786306293E+00  0.68945048181E+00  0.90007728284E+02  0.89999989498E+02 0.  0.
        -12    1    1    2    0    0  0.46441882366E+00  0.83786306293E+00 -0.68945048181E+00  0.11802717157E+01  0.00000000000E+00 0.  1.
         11    1    3    3    0    0 -0.11753112340E+02 -0.43182691545E+01 -0.54021486680E+01  0.13636946457E+02  0.51100000000E-03 0. -1.
        -11    1    3    3    0    0  0.79351167993E+01 -0.34099053563E+02 -0.83166211641E+01  0.35984409407E+02  0.51100000000E-03 0.  1.
         12    1    3    3    0    0  0.33535767174E+01  0.37579459654E+02  0.14408220314E+02  0.40386372421E+02  0.00000000000E+00 0. -1.
</event>
<event>
 7    1  0.3863655E-015  0.9000772E+02  0.7816164E-02  0.1186339E+00
        -11   -1    0    0    0    0  0.00000000000E+00  0.00000000000E+00  0.45593999997E+02  0.45594000000E+02  0.51100000000E-03 0. -1.
         11   -1    0    0    0    0 -0.00000000000E+00 -0.00000000000E+00 -0.45593999997E+02  0.45594000000E+02  0.51100000000E-03 0.  1.
    9900012    2    1    2    0    0 -0.40908551280E+00  0.44659019644E+00  0.10130542078E+01  0.90007715039E+02  0.89999976078E+02 0.  0.
        -12    1    1    2    0    0  0.40908551280E+00 -0.44659019644E+00 -0.10130542078E+01  0.11802849606E+01  0.00000000000E+00 0.  1.
         11    1    3    3    0    0 -0.34511273640E+01 -0.41457946877E+02 -0.38806515483E+01  0.41781947011E+02  0.51100000000E-03 0. -1.
        -11    1    3    3    0    0 -0.72941107669E+01  0.63851228265E+01  0.56593747566E+01  0.11225077652E+02  0.51100000000E-03 0.  1.
        -12    1    3    3    0    0  0.10336152618E+02  0.35519414247E+02 -0.76566900053E+00  0.37000690377E+02  0.00000000000E+00 0.  1.
</event>
<event>
 7    1  0.3863655E-015  0.9000786E+02  0.7816164E-02  0.1186339E+00
        -11   -1    0    0    0    0  0.00000000000E+00  0.00000000000E+00  0.45593999997E+02  0.45594000000E+02  0.51100000000E-03 0. -1.
         11   -1    0    0    0    0 -0.00000000000E+00 -0.00000000000E+00 -0.45593999997E+02  0.45594000000E+02  0.51100000000E-03 0.  1.
    9900012    2    1    2    0    0 -0.57606865851E+00 -0.57671082641E+00  0.85338714855E+00  0.90007864371E+02  0.90000127381E+02 0.  0.
        -12    1    1    2    0    0  0.57606865851E+00  0.57671082641E+00 -0.85338714855E+00  0.11801356286E+01  0.00000000000E+00 0.  1.
         11    1    3    3    0    0  0.31292225233E+02 -0.15525828705E+02  0.36049439736E+01  0.35117664193E+02  0.51100000000E-03 0. -1.
        -11    1    3    3    0    0  0.87330051304E+01 -0.19990937933E+01  0.49333606992E+01  0.10227404492E+02  0.51100000000E-03 0.  1.
        -12    1    3    3    0    0 -0.40601299022E+02  0.16948211672E+02 -0.76849175242E+01  0.44662795686E+02  0.00000000000E+00 0.  1.
</event>
<event>
 7    1  0.3863655E-015  0.9000774E+02  0.7816164E-02  0.1186339E+00
        -11   -1    0    0    0    0  0.00000000000E+00  0.00000000000E+00  0.45593999997E+02  0.45594000000E+02  0.51100000000E-03 0.  1.
         11   -1    0    0    0    0 -0.00000000000E+00 -0.00000000000E+00 -0.45593999997E+02  0.45594000000E+02  0.51100000000E-03 0. -1.
    9900012    2    1    2    0    0 -0.11468779756E+01  0.22750160500E+00 -0.16103659410E+00  0.90007737802E+02  0.89999999141E+02 0.  0.
        -12    1    1    2    0    0  0.11468779756E+01 -0.22750160500E+00  0.16103659410E+00  0.11802621979E+01  0.00000000000E+00 0.  1.
         11    1    3    3    0    0  0.20559218368E+02  0.14622419431E+02  0.25279592323E+02  0.35714904427E+02  0.51100000000E-03 0. -1.
        -11    1    3    3    0    0  0.49434591869E+01  0.75509561787E+01  0.30555355679E+01  0.95284324950E+01  0.51100000000E-03 0.  1.
        -12    1    3    3    0    0 -0.26649555530E+02 -0.21945874005E+02 -0.28496164485E+02  0.44764400880E+02  0.00000000000E+00 0.  1.
</event>
<event>
 7    1  0.3863655E-015  0.9000773E+02  0.7816164E-02  0.1186339E+00
        -11   -1    0    0    0    0  0.00000000000E+00  0.00000000000E+00  0.45593999997E+02  0.45594000000E+02  0.51100000000E-03 0. -1.
         11   -1    0    0    0    0 -0.00000000000E+00 -0.00000000000E+00 -0.45593999997E+02  0.45594000000E+02  0.51100000000E-03 0.  1.
    9900012    2    1    2    0    0  0.33420206283E+00  0.73579878971E+00  0.86019902202E+00  0.90007731710E+02  0.89999992969E+02 0.  0.
        -12    1    1    2    0    0 -0.33420206283E+00 -0.73579878971E+00 -0.86019902202E+00  0.11802682895E+01  0.00000000000E+00 0.  1.
         11    1    3    3    0    0  0.42673369960E+01  0.24899779219E+01  0.73902555101E+01  0.88896587029E+01  0.51100000000E-03 0. -1.
        -11    1    3    3    0    0 -0.13473095162E+00  0.39289798930E+02 -0.69314188189E+01  0.39896754498E+02  0.51100000000E-03 0.  1.
         12    1    3    3    0    0 -0.37984039816E+01 -0.41043978062E+02  0.40136233089E+00  0.41221318510E+02  0.00000000000E+00 0. -1.
</event>
<event>
 7    1  0.3863655E-015  0.9000778E+02  0.7816164E-02  0.1186339E+00
        -11   -1    0    0    0    0  0.00000000000E+00  0.00000000000E+00  0.45593999997E+02  0.45594000000E+02  0.51100000000E-03 0. -1.
         11   -1    0    0    0    0 -0.00000000000E+00 -0.00000000000E+00 -0.45593999997E+02  0.45594000000E+02  0.51100000000E-03 0.  1.
    9900012    2    1    2    0    0 -0.49537178778E+00 -0.95216289432E+00  0.49083897288E+00  0.90007775325E+02  0.90000037160E+02 0.  0.
        -12    1    1    2    0    0  0.49537178778E+00  0.95216289432E+00 -0.49083897288E+00  0.11802246747E+01  0.00000000000E+00 0.  1.
         11    1    3    3    0    0  0.14702855030E+02  0.35969971897E+02  0.21253166967E+02  0.44291194731E+02  0.51100000000E-03 0. -1.
        -11    1    3    3    0    0 -0.64340361924E+01 -0.71663964944E+01 -0.37254725355E+01  0.10326335570E+02  0.51100000000E-03 0.  1.
        -12    1    3    3    0    0 -0.87641906252E+01 -0.29755738297E+02 -0.17036855459E+02  0.35390245024E+02  0.00000000000E+00 0.  1.
</event>
<event>
 7    1  0.3863655E-015  0.9000782E+02  0.7816164E-02  0.1186339E+00
        -11   -1    0    0    0    0  0.00000000000E+00  0.00000000000E+00  0.45593999997E+02  0.45594000000E+02  0.51100000000E-03 0.  1.
         11   -1    0    0    0    0 -0.00000000000E+00 -0.00000000000E+00 -0.45593999997E+02  0.45594000000E+02  0.51100000000E-03 0. -1.
    9900012    2    1    2    0    0 -0.29162426513E+00 -0.80361552446E+00  0.81362471456E+00  0.90007818743E+02  0.90000081150E+02 0.  0.
        -12    1    1    2    0    0  0.29162426513E+00  0.80361552446E+00 -0.81362471456E+00  0.11801812570E+01  0.00000000000E+00 0.  1.
         11    1    3    3    0    0 -0.24090795186E+02 -0.16826424121E+02 -0.24974128186E+02  0.38564258586E+02  0.51100000000E-03 0. -1.
        -11    1    3    3    0    0  0.74771690642E+01 -0.89218912825E+01 -0.56598526019E+00  0.11654550221E+02  0.51100000000E-03 0.  1.
        -12    1    3    3    0    0  0.16322001857E+02  0.24944699879E+02  0.26353738161E+02  0.39789009936E+02  0.00000000000E+00 0.  1.
</event>
<event>
 7    1  0.3863655E-015  0.9000819E+02  0.7816164E-02  0.1186338E+00
        -11   -1    0    0    0    0  0.00000000000E+00  0.00000000000E+00  0.45593999997E+02  0.45594000000E+02  0.51100000000E-03 0. -1.
         11   -1    0    0    0    0 -0.00000000000E+00 -0.00000000000E+00 -0.45593999997E+02  0.45594000000E+02  0.51100000000E-03 0.  1.
    9900012    2    1    2    0    0  0.78624753126E+00  0.38858727356E+00  0.78915135992E+00  0.90008192762E+02  0.90000460105E+02 0.  0.
        -12    1    1    2    0    0 -0.78624753126E+00 -0.38858727356E+00 -0.78915135992E+00  0.11798072378E+01  0.00000000000E+00 0.  1.
         11    1    3    3    0    0  0.21050691223E+02 -0.28076653367E+02 -0.42285768884E+01  0.35345592766E+02  0.51100000000E-03 0. -1.
        -11    1    3    3    0    0 -0.22118409890E+00 -0.70518898392E+01 -0.90920465139E+01  0.11508404876E+02  0.51100000000E-03 0.  1.
        -12    1    3    3    0    0 -0.20043259593E+02  0.35517130480E+02  0.14109774762E+02  0.43154195120E+02  0.00000000000E+00 0.  1.
</event>
<event>
 7    1  0.3863655E-015  0.9000769E+02  0.7816164E-02  0.1186339E+00
        -11   -1    0    0    0    0  0.00000000000E+00  0.00000000000E+00  0.45593999997E+02  0.45594000000E+02  0.51100000000E-03 0.  1.
         11   -1    0    0    0    0 -0.00000000000E+00 -0.00000000000E+00 -0.45593999997E+02  0.45594000000E+02  0.51100000000E-03 0. -1.
    9900012    2    1    2    0    0  0.77433611291E+00  0.76399068784E+00  0.45809573111E+00  0.90007690767E+02  0.89999951485E+02 0.  0.
        -12    1    1    2    0    0 -0.77433611291E+00 -0.76399068784E+00 -0.45809573111E+00  0.11803092331E+01  0.00000000000E+00 0.  1.
         11    1    3    3    0    0 -0.91419090591E+01  0.27910694167E+02 -0.23534098611E+02  0.37635556962E+02  0.51100000000E-03 0. -1.
        -11    1    3    3    0    0  0.49173057869E+01 -0.41031549733E+01 -0.94726708370E+01  0.11434477250E+02  0.51100000000E-03 0.  1.
        -12    1    3    3    0    0  0.49989393851E+01 -0.23043548506E+02  0.33464865180E+02  0.40937656555E+02  0.00000000000E+00 0.  1.
</event>
<event>
 7    1  0.3863655E-015  0.9000776E+02  0.7816164E-02  0.1186339E+00
        -11   -1    0    0    0    0  0.00000000000E+00  0.00000000000E+00  0.45593999997E+02  0.45594000000E+02  0.51100000000E-03 0. -1.
         11   -1    0    0    0    0 -0.00000000000E+00 -0.00000000000E+00 -0.45593999997E+02  0.45594000000E+02  0.51100000000E-03 0.  1.
    9900012    2    1    2    0    0 -0.70350890822E+00  0.92520900886E+00 -0.20499830840E+00  0.90007762397E+02  0.90000024060E+02 0.  0.
        -12    1    1    2    0    0  0.70350890822E+00 -0.92520900886E+00  0.20499830840E+00  0.11802376034E+01  0.00000000000E+00 0.  1.
         11    1    3    3    0    0  0.76414526390E+01  0.62060383643E+01 -0.22169122499E+01  0.10090659582E+02  0.51100000000E-03 0. -1.
        -11    1    3    3    0    0 -0.70395922082E+01 -0.10938361550E+02  0.39703962849E+02  0.41780477236E+02  0.51100000000E-03 0.  1.
         12    1    3    3    0    0 -0.13053693391E+01  0.56575321946E+01 -0.37692048908E+02  0.38136625579E+02  0.00000000000E+00 0. -1.
</event>
<event>
 7    1  0.3863655E-015  0.9000775E+02  0.7816164E-02  0.1186339E+00
        -11   -1    0    0    0    0  0.00000000000E+00  0.00000000000E+00  0.45593999997E+02  0.45594000000E+02  0.51100000000E-03 0.  1.
         11   -1    0    0    0    0 -0.00000000000E+00 -0.00000000000E+00 -0.45593999997E+02  0.45594000000E+02  0.51100000000E-03 0. -1.
    9900012    2    1    2    0    0  0.16642803410E+00 -0.36670461894E+00 -0.11094267769E+01  0.90007746493E+02  0.90000007946E+02 0.  0.
        -12    1    1    2    0    0 -0.16642803410E+00  0.36670461894E+00  0.11094267769E+01  0.11802535073E+01  0.00000000000E+00 0.  1.
         11    1    3    3    0    0 -0.34595039752E+01  0.15573803989E+02 -0.56099264618E+01  0.16911026391E+02  0.51100000000E-03 0. -1.
        -11    1    3    3    0    0 -0.14816798232E+02  0.45277872307E+01  0.31134453437E+02  0.34776321803E+02  0.51100000000E-03 0.  1.
         12    1    3    3    0    0  0.18442730241E+02 -0.20468295838E+02 -0.26633953753E+02  0.38320398299E+02  0.00000000000E+00 0. -1.
</event>
<event>
 7    1  0.3863655E-015  0.9000785E+02  0.7816164E-02  0.1186339E+00
        -11   -1    0    0    0    0  0.00000000000E+00  0.00000000000E+00  0.45593999997E+02  0.45594000000E+02  0.51100000000E-03 0. -1.
         11   -1    0    0    0    0 -0.00000000000E+00 -0.00000000000E+00 -0.45593999997E+02  0.45594000000E+02  0.51100000000E-03 0.  1.
    9900012    2    1    2    0    0  0.11612922032E+01  0.97402398971E-01  0.18619468543E+00  0.90007849472E+02  0.90000112285E+02 0.  0.
        -12    1    1    2    0    0 -0.11612922032E+01 -0.97402398971E-01 -0.18619468543E+00  0.11801505283E+01  0.00000000000E+00 0.  1.
         11    1    3    3    0    0 -0.23845305778E+02 -0.13989099993E+02  0.10989911290E+02  0.29750154230E+02  0.51100000000E-03 0. -1.
        -11    1    3    3    0    0 -0.11898400707E+02 -0.18796098543E+01  0.93785472234E+01  0.15266368948E+02  0.51100000000E-03 0.  1.
        -12    1    3    3    0    0  0.36904998688E+02  0.15966112246E+02 -0.20182263828E+02  0.44991326294E+02  0.00000000000E+00 0.  1.
</event>
<event>
 7    1  0.4571542E-015  0.9000772E+02  0.7816164E-02  0.1186339E+00
        -11   -1    0    0    0    0  0.00000000000E+00  0.00000000000E+00  0.45593999997E+02  0.45594000000E+02  0.51100000000E-03 0. -1.
         11   -1    0    0    0    0 -0.00000000000E+00 -0.00000000000E+00 -0.45593999997E+02  0.45594000000E+02  0.51100000000E-03 0.  1.
    9900012    2    1    2    0    0  0.46562241630E+00  0.20949352745E+00  0.10641259232E+01  0.90007722171E+02  0.89999983304E+02 0.  0.
        -12    1    1    2    0    0 -0.46562241630E+00 -0.20949352745E+00 -0.10641259232E+01  0.11802778287E+01  0.00000000000E+00 0.  1.
         11    1    3    3    0    0  0.18121847059E+02  0.30013694722E+02  0.15791969269E+02  0.38452691783E+02  0.51100000000E-03 0. -1.
        -11    1    3    3    0    0 -0.32175981806E+01  0.78001890026E+01 -0.59609884951E+01  0.10330985947E+02  0.51100000000E-03 0.  1.
        -12    1    3    3    0    0 -0.14438626462E+02 -0.37604390197E+02 -0.87668548503E+01  0.41224044442E+02  0.00000000000E+00 0.  1.
</event>
<event>
 7    1  0.3863655E-015  0.9000824E+02  0.7816164E-02  0.1186338E+00
        -11   -1    0    0    0    0  0.00000000000E+00  0.00000000000E+00  0.45593999997E+02  0.45594000000E+02  0.51100000000E-03 0. -1.
         11   -1    0    0    0    0 -0.00000000000E+00 -0.00000000000E+00 -0.45593999997E+02  0.45594000000E+02  0.51100000000E-03 0.  1.
    9900012    2    1    2    0    0 -0.76917829568E+00 -0.45734736712E+00 -0.76877984132E+00  0.90008243962E+02  0.90000511981E+02 0.  0.
        -12    1    1    2    0    0  0.76917829568E+00  0.45734736712E+00  0.76877984132E+00  0.11797560380E+01  0.00000000000E+00 0.  1.
         11    1    3    3    0    0 -0.15174192793E+01  0.29663779743E+01 -0.11900920228E+02  0.12358554207E+02  0.51100000000E-03 0. -1.
        -11    1    3    3    0    0 -0.37833441974E+02  0.19916935823E+01  0.57579543880E+01  0.38320884827E+02  0.51100000000E-03 0.  1.
         12    1    3    3    0    0  0.38581682957E+02 -0.54154189237E+01  0.53741859985E+01  0.39328804928E+02  0.00000000000E+00 0. -1.
</event>
<event>
 7    1  0.3898361E-015  0.9000774E+02  0.7816164E-02  0.1186339E+00
        -11   -1    0    0    0    0  0.00000000000E+00  0.00000000000E+00  0.45593999997E+02  0.45594000000E+02  0.51100000000E-03 0.  1.
         11   -1    0    0    0    0 -0.00000000000E+00 -0.00000000000E+00 -0.45593999997E+02  0.45594000000E+02  0.51100000000E-03 0. -1.
    9900012    2    1    2    0    0 -0.47541253278E+00 -0.78808390472E+00  0.73886102961E+00  0.90007742004E+02  0.90000003398E+02 0.  0.
        -12    1    1    2    0    0  0.47541253278E+00  0.78808390472E+00 -0.73886102961E+00  0.11802579965E+01  0.00000000000E+00 0.  1.
         11    1    3    3    0    0  0.47446310918E+01  0.71362507996E+01 -0.48807892907E+01  0.98620334634E+01  0.51100000000E-03 0. -1.
        -11    1    3    3    0    0  0.36559799341E+02 -0.35584272071E+00 -0.34634365849E+01  0.36725208579E+02  0.51100000000E-03 0.  1.
         12    1    3    3    0    0 -0.41779842966E+02 -0.75684919836E+01  0.90830869052E+01  0.43420499961E+02  0.00000000000E+00 0. -1.
</event>
<event>
 7    1  0.3863655E-015  0.9000773E+02  0.7816164E-02  0.1186339E+00
        -11   -1    0    0    0    0  0.00000000000E+00  0.00000000000E+00  0.45593999997E+02  0.45594000000E+02  0.51100000000E-03 0.  1.
         11   -1    0    0    0    0 -0.00000000000E+00 -0.00000000000E+00 -0.45593999997E+02  0.45594000000E+02  0.51100000000E-03 0. -1.
    9900012    2    1    2    0    0 -0.10645336381E+01  0.50152327747E+00 -0.91004775290E-01  0.90007729127E+02  0.89999990352E+02 0.  0.
        -12    1    1    2    0    0  0.10645336381E+01 -0.50152327747E+00  0.91004775289E-01  0.11802708730E+01  0.00000000000E+00 0.  1.
         11    1    3    3    0    0 -0.38444073108E+01  0.46633588831E+01  0.69140504918E+01  0.91831627509E+01  0.51100000000E-03 0. -1.
        -11    1    3    3    0    0 -0.27308258986E+02 -0.22463758832E+02  0.15945101975E+02  0.38789273608E+02  0.51100000000E-03 0.  1.
         12    1    3    3    0    0  0.30088132659E+02  0.18301923227E+02 -0.22950157242E+02  0.42035292769E+02  0.00000000000E+00 0. -1.
</event>
<event>
 7    1  0.3863655E-015  0.9000779E+02  0.7816164E-02  0.1186339E+00
        -11   -1    0    0    0    0  0.00000000000E+00  0.00000000000E+00  0.45593999997E+02  0.45594000000E+02  0.51100000000E-03 0. -1.
         11   -1    0    0    0    0 -0.00000000000E+00 -0.00000000000E+00 -0.45593999997E+02  0.45594000000E+02  0.51100000000E-03 0.  1.
    9900012    2    1    2    0    0 -0.90676608193E+00 -0.73179615236E+00  0.18746101171E+00  0.90007791558E+02  0.90000053606E+02 0.  0.
        -12    1    1    2    0    0  0.90676608193E+00  0.73179615236E+00 -0.18746101171E+00  0.11802084421E+01  0.00000000000E+00 0.  1.
         11    1    3    3    0    0 -0.60786263407E+01  0.85139109463E+01  0.26570981384E+01  0.10793356687E+02  0.51100000000E-03 0. -1.
        -11    1    3    3    0    0  0.36597034350E+02 -0.15425996047E+02 -0.18019458730E+02  0.43611984252E+02  0.51100000000E-03 0.  1.
         12    1    3    3    0    0 -0.31425174091E+02  0.61802889478E+01  0.15549821603E+02  0.35602450619E+02  0.00000000000E+00 0. -1.
</event>
<event>
 7    1  0.3863655E-015  0.9000764E+02  0.7816164E-02  0.1186339E+00
        -11   -1    0    0    0    0  0.00000000000E+00  0.00000000000E+00  0.45593999997E+02  0.45594000000E+02  0.51100000000E-03 0.  1.
         11   -1    0    0    0    0 -0.00000000000E+00 -0.00000000000E+00 -0.45593999997E+02  0.45594000000E+02  0.51100000000E-03 0. -1.
    9900012    2    1    2    0    0  0.27655159122E+00 -0.47073723080E+00 -0.10465020526E+01  0.90007643753E+02  0.89999903851E+02 0.  0.
        -12    1    1    2    0    0 -0.27655159122E+00  0.47073723080E+00  0.10465020526E+01  0.11803562467E+01  0.00000000000E+00 0.  1.
         11    1    3    3    0    0 -0.92869942969E+01 -0.50121638800E+01 -0.68572672514E+01  0.12585394879E+02  0.51100000000E-03 0. -1.
        -11    1    3    3    0    0 -0.11535301108E+02 -0.26835759018E+02  0.21720123945E+02  0.36400342280E+02  0.51100000000E-03 0.  1.
         12    1    3    3    0    0  0.21098846996E+02  0.31377185667E+02 -0.15909358746E+02  0.41021906594E+02  0.00000000000E+00 0. -1.
</event>
<event>
 7    1  0.3863655E-015  0.9000771E+02  0.7816164E-02  0.1186339E+00
        -11   -1    0    0    0    0  0.00000000000E+00  0.00000000000E+00  0.45593999997E+02  0.45594000000E+02  0.51100000000E-03 0. -1.
         11   -1    0    0    0    0 -0.00000000000E+00 -0.00000000000E+00 -0.45593999997E+02  0.45594000000E+02  0.51100000000E-03 0.  1.
    9900012    2    1    2    0    0 -0.46939515310E+00 -0.82475649962E+00  0.70180123666E+00  0.90007711870E+02  0.89999972867E+02 0.  0.
        -12    1    1    2    0    0  0.46939515310E+00  0.82475649962E+00 -0.70180123666E+00  0.11802881297E+01  0.00000000000E+00 0.  1.
         11    1    3    3    0    0  0.29853121362E+02  0.19100758155E+02 -0.42610768044E+00  0.35443326383E+02  0.51100000000E-03 0. -1.
        -11    1    3    3    0    0  0.82531175990E+01  0.15654386725E+01  0.57279555441E+01  0.10167301673E+02  0.51100000000E-03 0.  1.
        -12    1    3    3    0    0 -0.38575634114E+02 -0.21490953327E+02 -0.46000466270E+01  0.44397083813E+02  0.00000000000E+00 0.  1.
</event>
<event>
 7    1  0.3863655E-015  0.9000856E+02  0.7816164E-02  0.1186337E+00
        -11   -1    0    0    0    0  0.00000000000E+00  0.00000000000E+00  0.45593999997E+02  0.45594000000E+02  0.51100000000E-03 0. -1.
         11   -1    0    0    0    0 -0.00000000000E+00 -0.00000000000E+00 -0.45593999997E+02  0.45594000000E+02  0.51100000000E-03 0.  1.
    9900012    2    1    2    0    0  0.87164768582E+00  0.19738617770E+00  0.76964551172E+00  0.90008557248E+02  0.90000829400E+02 0.  0.
        -12    1    1    2    0    0 -0.87164768582E+00 -0.19738617770E+00 -0.76964551172E+00  0.11794427519E+01  0.00000000000E+00 0.  1.
         11    1    3    3    0    0  0.28859879701E+02 -0.21658315506E+02  0.67964987148E+01  0.36717402985E+02  0.51100000000E-03 0. -1.
        -11    1    3    3    0    0  0.28086190394E+01 -0.61977053534E+01  0.68824265057E+01  0.96782068289E+01  0.51100000000E-03 0.  1.
        -12    1    3    3    0    0 -0.30796851055E+02  0.28053407037E+02 -0.12909279709E+02  0.43612947434E+02  0.00000000000E+00 0.  1.
</event>
<event>
 7    1  0.3863655E-015  0.9000772E+02  0.7816164E-02  0.1186339E+00
        -11   -1    0    0    0    0  0.00000000000E+00  0.00000000000E+00  0.45593999997E+02  0.45594000000E+02  0.51100000000E-03 0. -1.
         11   -1    0    0    0    0 -0.00000000000E+00 -0.00000000000E+00 -0.45593999997E+02  0.45594000000E+02  0.51100000000E-03 0.  1.
    9900012    2    1    2    0    0  0.45752403544E+00  0.91807174147E+00  0.58385049641E+00  0.90007718098E+02  0.89999979177E+02 0.  0.
        -12    1    1    2    0    0 -0.45752403544E+00 -0.91807174147E+00 -0.58385049641E+00  0.11802819018E+01  0.00000000000E+00 0.  1.
         11    1    3    3    0    0 -0.91463318166E+01 -0.10291815596E+02  0.26203410617E+02  0.29600601045E+02  0.51100000000E-03 0. -1.
        -11    1    3    3    0    0 -0.76586024824E+01 -0.82500713354E+01  0.10834213223E+02  0.15623637395E+02  0.51100000000E-03 0.  1.
        -12    1    3    3    0    0  0.17262458334E+02  0.19459958673E+02 -0.36453773344E+02  0.44783479659E+02  0.00000000000E+00 0.  1.
</event>
<event>
 7    1  0.3863655E-015  0.9000785E+02  0.7816164E-02  0.1186339E+00
        -11   -1    0    0    0    0  0.00000000000E+00  0.00000000000E+00  0.45593999997E+02  0.45594000000E+02  0.51100000000E-03 0.  1.
         11   -1    0    0    0    0 -0.00000000000E+00 -0.00000000000E+00 -0.45593999997E+02  0.45594000000E+02  0.51100000000E-03 0. -1.
    9900012    2    1    2    0    0  0.10524087639E+01  0.37899641824E+00 -0.37624799052E+00  0.90007845331E+02  0.90000108090E+02 0.  0.
        -12    1    1    2    0    0 -0.10524087639E+01 -0.37899641824E+00  0.37624799052E+00  0.11801546686E+01  0.00000000000E+00 0.  1.
         11    1    3    3    0    0  0.33922890951E+02 -0.89227521791E+01 -0.13267895144E+02  0.37502200985E+02  0.51100000000E-03 0. -1.
        -11    1    3    3    0    0  0.24368510010E+01 -0.10174750220E+02  0.12570968322E+01  0.10537745373E+02  0.51100000000E-03 0.  1.
        -12    1    3    3    0    0 -0.35307333188E+02  0.19476498818E+02  0.11634550322E+02  0.41967898973E+02  0.00000000000E+00 0.  1.
</event>
<event>
 7    1  0.3863655E-015  0.9000775E+02  0.7816164E-02  0.1186339E+00
        -11   -1    0    0    0    0  0.00000000000E+00  0.00000000000E+00  0.45593999997E+02  0.45594000000E+02  0.51100000000E-03 0.  1.
         11   -1    0    0    0    0 -0.00000000000E+00 -0.00000000000E+00 -0.45593999997E+02  0.45594000000E+02  0.51100000000E-03 0. -1.
    9900012    2    1    2    0    0  0.10711922989E+01 -0.13856405307E+00 -0.47574082853E+00  0.90007753300E+02  0.90000014843E+02 0.  0.
        -12    1    1    2    0    0 -0.10711922989E+01  0.13856405307E+00  0.47574082853E+00  0.11802467005E+01  0.00000000000E+00 0.  1.
         11    1    3    3    0    0 -0.88177713110E+01  0.12014694288E+01  0.34731858207E+01  0.95529911382E+01  0.51100000000E-03 0. -1.
        -11    1    3    3    0    0  0.20689966420E+02  0.28360336048E+02 -0.24453205352E+02  0.42782503707E+02  0.51100000000E-03 0.  1.
         12    1    3    3    0    0 -0.10801002810E+02 -0.29700369530E+02  0.20504278703E+02  0.37672258454E+02  0.00000000000E+00 0. -1.
</event>
<event>
 7    1  0.3863655E-015  0.9000780E+02  0.7816164E-02  0.1186339E+00
        -11   -1    0    0    0    0  0.00000000000E+00  0.00000000000E+00  0.45593999997E+02  0.45594000000E+02  0.51100000000E-03 0.  1.
         11   -1    0    0    0    0 -0.00000000000E+00 -0.00000000000E+00 -0.45593999997E+02  0.45594000000E+02  0.51100000000E-03 0. -1.
    9900012    2    1    2    0    0 -0.10081121285E+01 -0.57502189046E+00  0.21429282560E+00  0.90007804400E+02  0.90000066618E+02 0.  0.
        -12    1    1    2    0    0  0.10081121285E+01  0.57502189046E+00 -0.21429282560E+00  0.11801955996E+01  0.00000000000E+00 0.  1.
         11    1    3    3    0    0 -0.23686768234E+02  0.24897999180E+02 -0.12559493740E+02  0.36588444019E+02  0.51100000000E-03 0. -1.
        -11    1    3    3    0    0 -0.24388804754E+01  0.83509776124E+01 -0.17152538724E+01  0.88673029250E+01  0.51100000000E-03 0.  1.
        -12    1    3    3    0    0  0.25117536581E+02 -0.33823998682E+02  0.14489040438E+02  0.44552057456E+02  0.00000000000E+00 0.  1.
</event>
<event>
 7    1  0.3863655E-015  0.9000780E+02  0.7816164E-02  0.1186339E+00
        -11   -1    0    0    0    0  0.00000000000E+00  0.00000000000E+00  0.45593999997E+02  0.45594000000E+02  0.51100000000E-03 0. -1.
         11   -1    0    0    0    0 -0.00000000000E+00 -0.00000000000E+00 -0.45593999997E+02  0.45594000000E+02  0.51100000000E-03 0.  1.
    9900012    2    1    2    0    0 -0.65872014090E+00  0.92045839437E+00 -0.33423742856E+00  0.90007800636E+02  0.90000062805E+02 0.  0.
        -12    1    1    2    0    0  0.65872014090E+00 -0.92045839437E+00  0.33423742856E+00  0.11801993639E+01  0.00000000000E+00 0.  1.
         11    1    3    3    0    0  0.44796432937E+01 -0.46248279948E+01  0.66314240304E+01  0.92429444958E+01  0.51100000000E-03 0. -1.
        -11    1    3    3    0    0  0.33774779896E+02  0.92269196607E+01 -0.19041073444E+02  0.39855166310E+02  0.51100000000E-03 0.  1.
         12    1    3    3    0    0 -0.38913143331E+02 -0.36816332716E+01  0.12075411985E+02  0.40909689830E+02  0.00000000000E+00 0. -1.
</event>
<event>
 7    1  0.3863655E-015  0.9000766E+02  0.7816164E-02  0.1186339E+00
        -11   -1    0    0    0    0  0.00000000000E+00  0.00000000000E+00  0.45593999997E+02  0.45594000000E+02  0.51100000000E-03 0. -1.
         11   -1    0    0    0    0 -0.00000000000E+00 -0.00000000000E+00 -0.45593999997E+02  0.45594000000E+02  0.51100000000E-03 0.  1.
    9900012    2    1    2    0    0  0.21866540905E+00  0.10995082059E+01  0.36941065169E+00  0.90007662300E+02  0.89999922643E+02 0.  0.
        -12    1    1    2    0    0 -0.21866540905E+00 -0.10995082059E+01 -0.36941065169E+00  0.11803376998E+01  0.00000000000E+00 0.  1.
         11    1    3    3    0    0  0.22641159461E+02  0.31184147107E+02  0.10155004564E+02  0.39852192543E+02  0.51100000000E-03 0. -1.
        -11    1    3    3    0    0  0.80592153377E+01 -0.36883428173E+01 -0.14619213797E+01  0.89828747614E+01  0.51100000000E-03 0.  1.
        -12    1    3    3    0    0 -0.30481709389E+02 -0.26396296084E+02 -0.83236725326E+01  0.41172594996E+02  0.00000000000E+00 0.  1.
</event>
<event>
 7    1  0.3863655E-015  0.9000775E+02  0.7816164E-02  0.1186339E+00
        -11   -1    0    0    0    0  0.00000000000E+00  0.00000000000E+00  0.45593999997E+02  0.45594000000E+02  0.51100000000E-03 0.  1.
         11   -1    0    0    0    0 -0.00000000000E+00 -0.00000000000E+00 -0.45593999997E+02  0.45594000000E+02  0.51100000000E-03 0. -1.
    9900012    2    1    2    0    0  0.44687830881E+00 -0.72561842744E+00 -0.81655701545E+00  0.90007751007E+02  0.90000012521E+02 0.  0.
        -12    1    1    2    0    0 -0.44687830881E+00  0.72561842744E+00  0.81655701545E+00  0.11802489926E+01  0.00000000000E+00 0.  1.
         11    1    3    3    0    0 -0.18731511730E+02  0.10850511467E+02 -0.30470074995E+02  0.37376845791E+02  0.51100000000E-03 0. -1.
        -11    1    3    3    0    0 -0.46827474950E+01  0.18632109149E+00 -0.63333128688E+01  0.78786859187E+01  0.51100000000E-03 0.  1.
        -12    1    3    3    0    0  0.23861137534E+02 -0.11762450986E+02  0.35986830848E+02  0.44752219298E+02  0.00000000000E+00 0.  1.
</event>
<event>
 7    1  0.3863655E-015  0.9000773E+02  0.7816164E-02  0.1186339E+00
        -11   -1    0    0    0    0  0.00000000000E+00  0.00000000000E+00  0.45593999997E+02  0.45594000000E+02  0.51100000000E-03 0.  1.
         11   -1    0    0    0    0 -0.00000000000E+00 -0.00000000000E+00 -0.45593999997E+02  0.45594000000E+02  0.51100000000E-03 0. -1.
    9900012    2    1    2    0    0  0.26568214444E+00  0.18431947334E+00 -0.11351079239E+01  0.90007732798E+02  0.89999994071E+02 0.  0.
        -12    1    1    2    0    0 -0.26568214444E+00 -0.18431947334E+00  0.11351079239E+01  0.11802672024E+01  0.00000000000E+00 0.  1.
         11    1    3    3    0    0 -0.71752760762E+01  0.71113335755E+00 -0.77440414066E+01  0.10581137698E+02  0.51100000000E-03 0. -1.
        -11    1    3    3    0    0 -0.74100226990E+01 -0.37047346690E+02 -0.55112475664E+01  0.38180992433E+02  0.51100000000E-03 0.  1.
         12    1    3    3    0    0  0.14850980920E+02  0.36520532805E+02  0.12120181049E+02  0.41245602667E+02  0.00000000000E+00 0. -1.
</event>
<event>
 7    1  0.3863655E-015  0.9000817E+02  0.7816164E-02  0.1186338E+00
        -11   -1    0    0    0    0  0.00000000000E+00  0.00000000000E+00  0.45593999997E+02  0.45594000000E+02  0.51100000000E-03 0.  1.
         11   -1    0    0    0    0 -0.00000000000E+00 -0.00000000000E+00 -0.45593999997E+02  0.45594000000E+02  0.51100000000E-03 0. -1.
    9900012    2    1    2    0    0 -0.89430291221E+00  0.76219423439E+00  0.10620697383E+00  0.90008170491E+02  0.90000437540E+02 0.  0.
        -12    1    1    2    0    0  0.89430291221E+00 -0.76219423439E+00 -0.10620697383E+00  0.11798295093E+01  0.00000000000E+00 0.  1.
         11    1    3    3    0    0  0.33870582412E+02  0.85180052137E+01 -0.13448486934E+02  0.37425052663E+02  0.51100000000E-03 0. -1.
        -11    1    3    3    0    0  0.75364530141E+01  0.77469332175E-01  0.20759226591E+00  0.75397095661E+01  0.51100000000E-03 0.  1.
        -12    1    3    3    0    0 -0.42301338338E+02 -0.78332803115E+01  0.13347101641E+02  0.45043408262E+02  0.00000000000E+00 0.  1.
</event>
<event>
 7    1  0.3863655E-015  0.9000788E+02  0.7816164E-02  0.1186339E+00
        -11   -1    0    0    0    0  0.00000000000E+00  0.00000000000E+00  0.45593999997E+02  0.45594000000E+02  0.51100000000E-03 0.  1.
         11   -1    0    0    0    0 -0.00000000000E+00 -0.00000000000E+00 -0.45593999997E+02  0.45594000000E+02  0.51100000000E-03 0. -1.
    9900012    2    1    2    0    0  0.96756759064E+00  0.65894022456E+00 -0.14932759205E+00  0.90007877976E+02  0.90000141165E+02 0.  0.
        -12    1    1    2    0    0 -0.96756759064E+00 -0.65894022456E+00  0.14932759205E+00  0.11801220241E+01  0.00000000000E+00 0.  1.
         11    1    3    3    0    0  0.45793017341E+00  0.81201750545E+01  0.13279926288E+01  0.82407831936E+01  0.51100000000E-03 0. -1.
        -11    1    3    3    0    0  0.15056989447E+02  0.45168654797E+01  0.36296169234E+02  0.39554101005E+02  0.51100000000E-03 0.  1.
         12    1    3    3    0    0 -0.14547352030E+02 -0.11978100310E+02 -0.37773489455E+02  0.42212993778E+02  0.00000000000E+00 0. -1.
</event>
<event>
 7    1  0.3863655E-015  0.9000750E+02  0.7816164E-02  0.1186340E+00
        -11   -1    0    0    0    0  0.00000000000E+00  0.00000000000E+00  0.45593999997E+02  0.45594000000E+02  0.51100000000E-03 0.  1.
         11   -1    0    0    0    0 -0.00000000000E+00 -0.00000000000E+00 -0.45593999997E+02  0.45594000000E+02  0.51100000000E-03 0. -1.
    9900012    2    1    2    0    0 -0.74910738418E+00  0.48947184159E+00 -0.76995963354E+00  0.90007499092E+02  0.89999757280E+02 0.  0.
        -12    1    1    2    0    0  0.74910738418E+00 -0.48947184159E+00  0.76995963354E+00  0.11805009081E+01  0.00000000000E+00 0.  1.
         11    1    3    3    0    0 -0.11723528738E+01  0.94588403470E+01  0.21923276463E+01  0.97801008553E+01  0.51100000000E-03 0. -1.
        -11    1    3    3    0    0 -0.32312067962E+02  0.18017408503E+02  0.40858903262E+01  0.37220844229E+02  0.51100000000E-03 0.  1.
         12    1    3    3    0    0  0.32735313451E+02 -0.26986777008E+02 -0.70481776060E+01  0.43006554007E+02  0.00000000000E+00 0. -1.
</event>
<event>
 7    1  0.3863655E-015  0.9000772E+02  0.7816164E-02  0.1186339E+00
        -11   -1    0    0    0    0  0.00000000000E+00  0.00000000000E+00  0.45593999997E+02  0.45594000000E+02  0.51100000000E-03 0.  1.
         11   -1    0    0    0    0 -0.00000000000E+00 -0.00000000000E+00 -0.45593999997E+02  0.45594000000E+02  0.51100000000E-03 0. -1.
    9900012    2    1    2    0    0  0.96910658688E+00 -0.36698082253E+00  0.56499524541E+00  0.90007719471E+02  0.89999980568E+02 0.  0.
        -12    1    1    2    0    0 -0.96910658688E+00  0.36698082253E+00 -0.56499524541E+00  0.11802805294E+01  0.00000000000E+00 0.  1.
         11    1    3    3    0    0 -0.13537215781E+02  0.88445593095E+01 -0.32191240254E+02  0.36024413803E+02  0.51100000000E-03 0. -1.
        -11    1    3    3    0    0 -0.82808289722E+01  0.99621651622E+00 -0.42346416009E+01  0.93539705775E+01  0.51100000000E-03 0.  1.
        -12    1    3    3    0    0  0.22787151340E+02 -0.10207756648E+02  0.36990877100E+02  0.44629335091E+02  0.00000000000E+00 0.  1.
</event>
<event>
 7    1  0.3863655E-015  0.9000763E+02  0.7816164E-02  0.1186339E+00
        -11   -1    0    0    0    0  0.00000000000E+00  0.00000000000E+00  0.45593999997E+02  0.45594000000E+02  0.51100000000E-03 0. -1.
         11   -1    0    0    0    0 -0.00000000000E+00 -0.00000000000E+00 -0.45593999997E+02  0.45594000000E+02  0.51100000000E-03 0.  1.
    9900012    2    1    2    0    0  0.30606561849E+00 -0.44072207582E+00  0.10513586291E+01  0.90007632651E+02  0.89999892602E+02 0.  0.
        -12    1    1    2    0    0 -0.30606561849E+00  0.44072207582E+00 -0.10513586291E+01  0.11803673488E+01  0.00000000000E+00 0.  1.
         11    1    3    3    0    0 -0.30459662561E+01 -0.22514481871E+02 -0.34594402497E+02  0.41387830200E+02  0.51100000000E-03 0. -1.
        -11    1    3    3    0    0  0.59143602812E+01 -0.36150652207E+01  0.49862383783E+01  0.85387895812E+01  0.51100000000E-03 0.  1.
        -12    1    3    3    0    0 -0.25623284066E+01  0.25688825016E+02  0.30659522747E+02  0.40081012870E+02  0.00000000000E+00 0.  1.
</event>
<event>
 7    1  0.3863655E-015  0.9000776E+02  0.7816164E-02  0.1186339E+00
        -11   -1    0    0    0    0  0.00000000000E+00  0.00000000000E+00  0.45593999997E+02  0.45594000000E+02  0.51100000000E-03 0. -1.
         11   -1    0    0    0    0 -0.00000000000E+00 -0.00000000000E+00 -0.45593999997E+02  0.45594000000E+02  0.51100000000E-03 0.  1.
    9900012    2    1    2    0    0 -0.83271038675E+00 -0.50343132128E+00  0.66792592227E+00  0.90007756499E+02  0.90000018085E+02 0.  0.
        -12    1    1    2    0    0  0.83271038675E+00  0.50343132128E+00 -0.66792592227E+00  0.11802435008E+01  0.00000000000E+00 0.  1.
         11    1    3    3    0    0  0.12423448387E+01  0.11002366202E+02 -0.59544233446E+01  0.12571819295E+02  0.51100000000E-03 0. -1.
        -11    1    3    3    0    0  0.13793630222E+02 -0.25302342076E+01 -0.31883973177E+02  0.34831796762E+02  0.51100000000E-03 0.  1.
         12    1    3    3    0    0 -0.15868685448E+02 -0.89755633160E+01  0.38506322444E+02  0.42604140442E+02  0.00000000000E+00 0. -1.
</event>
<event>
 7    1  0.3863655E-015  0.9000770E+02  0.7816164E-02  0.1186339E+00
        -11   -1    0    0    0    0  0.00000000000E+00  0.00000000000E+00  0.45593999997E+02  0.45594000000E+02  0.51100000000E-03 0. -1.
         11   -1    0    0    0    0 -0.00000000000E+00 -0.00000000000E+00 -0.45593999997E+02  0.45594000000E+02  0.51100000000E-03 0.  1.
    9900012    2    1    2    0    0 -0.25888473929E+00 -0.10766536603E+01  0.40852466598E+00  0.90007704776E+02  0.89999965679E+02 0.  0.
        -12    1    1    2    0    0  0.25888473929E+00  0.10766536603E+01 -0.40852466598E+00  0.11802952237E+01  0.00000000000E+00 0.  1.
         11    1    3    3    0    0  0.33677722203E+02 -0.71121881928E+01 -0.21985439911E+02  0.40842768785E+02  0.51100000000E-03 0. -1.
        -11    1    3    3    0    0 -0.54768800324E+01 -0.85068752235E+01 -0.39516212086E-01  0.10117544304E+02  0.51100000000E-03 0.  1.
        -12    1    3    3    0    0 -0.28459726910E+02  0.14542409756E+02  0.22433480789E+02  0.39047391687E+02  0.00000000000E+00 0.  1.
</event>
<event>
 7    1  0.3863655E-015  0.9000781E+02  0.7816164E-02  0.1186339E+00
        -11   -1    0    0    0    0  0.00000000000E+00  0.00000000000E+00  0.45593999997E+02  0.45594000000E+02  0.51100000000E-03 0. -1.
         11   -1    0    0    0    0 -0.00000000000E+00 -0.00000000000E+00 -0.45593999997E+02  0.45594000000E+02  0.51100000000E-03 0.  1.
    9900012    2    1    2    0    0 -0.50112106168E+00  0.96615231876E+00 -0.45637021364E+00  0.90007810865E+02  0.90000073169E+02 0.  0.
        -12    1    1    2    0    0  0.50112106168E+00 -0.96615231876E+00  0.45637021364E+00  0.11801891346E+01  0.00000000000E+00 0.  1.
         11    1    3    3    0    0  0.30325614805E+02 -0.11418308460E+02  0.15039210921E+02  0.35723921212E+02  0.51100000000E-03 0. -1.
        -11    1    3    3    0    0  0.69417732081E+01  0.64777922371E+01 -0.12833137826E+02  0.15963691123E+02  0.51100000000E-03 0.  1.
        -12    1    3    3    0    0 -0.37768509075E+02  0.59066685417E+01 -0.26624433087E+01  0.38320198530E+02  0.00000000000E+00 0.  1.
</event>
<event>
 7    1  0.3863655E-015  0.9000769E+02  0.7816164E-02  0.1186339E+00
        -11   -1    0    0    0    0  0.00000000000E+00  0.00000000000E+00  0.45593999997E+02  0.45594000000E+02  0.51100000000E-03 0. -1.
         11   -1    0    0    0    0 -0.00000000000E+00 -0.00000000000E+00 -0.45593999997E+02  0.45594000000E+02  0.51100000000E-03 0.  1.
    9900012    2    1    2    0    0  0.90897714191E-01  0.81856427919E+00  0.84547264003E+00  0.90007689084E+02  0.89999949780E+02 0.  0.
        -12    1    1    2    0    0 -0.90897714191E-01 -0.81856427919E+00 -0.84547264003E+00  0.11803109161E+01  0.00000000000E+00 0.  1.
         11    1    3    3    0    0  0.31730703060E+02  0.26643765581E+02 -0.54263794954E+01  0.41787239149E+02  0.51100000000E-03 0. -1.
        -11    1    3    3    0    0 -0.16676706927E+01 -0.56842110498E+01 -0.75134768138E+01  0.95678479759E+01  0.51100000000E-03 0.  1.
        -12    1    3    3    0    0 -0.29972134653E+02 -0.20140990252E+02  0.13785328949E+02  0.38652601959E+02  0.00000000000E+00 0.  1.
</event>
<event>
 7    1  0.3863655E-015  0.9000776E+02  0.7816164E-02  0.1186339E+00
        -11   -1    0    0    0    0  0.00000000000E+00  0.00000000000E+00  0.45593999997E+02  0.45594000000E+02  0.51100000000E-03 0.  1.
         11   -1    0    0    0    0 -0.00000000000E+00 -0.00000000000E+00 -0.45593999997E+02  0.45594000000E+02  0.51100000000E-03 0. -1.
    9900012    2    1    2    0    0 -0.18552221009E+00 -0.21923970135E+00 -0.11447594010E+01  0.90007763319E+02  0.90000024995E+02 0.  0.
        -12    1    1    2    0    0  0.18552221009E+00  0.21923970135E+00  0.11447594010E+01  0.11802366810E+01  0.00000000000E+00 0.  1.
         11    1    3    3    0    0  0.75748152425E+01 -0.67466589508E+01 -0.38217507948E+01  0.10839788391E+02  0.51100000000E-03 0. -1.
        -11    1    3    3    0    0 -0.75568891038E+01 -0.27624509858E+02  0.25290263146E+02  0.38207558520E+02  0.51100000000E-03 0.  1.
         12    1    3    3    0    0 -0.20344834872E+00  0.34151929108E+02 -0.22613271752E+02  0.40960416408E+02  0.00000000000E+00 0. -1.
</event>
<event>
 7    1  0.3863655E-015  0.9000774E+02  0.7816164E-02  0.1186339E+00
        -11   -1    0    0    0    0  0.00000000000E+00  0.00000000000E+00  0.45593999997E+02  0.45594000000E+02  0.51100000000E-03 0.  1.
         11   -1    0    0    0    0 -0.00000000000E+00 -0.00000000000E+00 -0.45593999997E+02  0.45594000000E+02  0.51100000000E-03 0. -1.
    9900012    2    1    2    0    0 -0.89928259214E+00 -0.40058777990E+00 -0.65102394710E+00  0.90007740736E+02  0.90000002114E+02 0.  0.
        -12    1    1    2    0    0  0.89928259214E+00  0.40058777990E+00  0.65102394710E+00  0.11802592637E+01  0.00000000000E+00 0.  1.
         11    1    3    3    0    0 -0.32427835744E+01 -0.15725516997E+01 -0.93733189068E+01  0.10042294148E+02  0.51100000000E-03 0. -1.
        -11    1    3    3    0    0  0.26559874014E+02  0.24259760398E+02 -0.14975715950E+02  0.38964534524E+02  0.51100000000E-03 0.  1.
         12    1    3    3    0    0 -0.24216373032E+02 -0.23087796478E+02  0.23698010910E+02  0.41000912064E+02  0.00000000000E+00 0. -1.
</event>
<event>
 7    1  0.3863655E-015  0.9000741E+02  0.7816164E-02  0.1186340E+00
        -11   -1    0    0    0    0  0.00000000000E+00  0.00000000000E+00  0.45593999997E+02  0.45594000000E+02  0.51100000000E-03 0.  1.
         11   -1    0    0    0    0 -0.00000000000E+00 -0.00000000000E+00 -0.45593999997E+02  0.45594000000E+02  0.51100000000E-03 0. -1.
    9900012    2    1    2    0    0 -0.11136839023E+01  0.31699968138E+00 -0.23023919854E+00  0.90007410859E+02  0.89999667881E+02 0.  0.
        -12    1    1    2    0    0  0.11136839023E+01 -0.31699968138E+00  0.23023919854E+00  0.11805891414E+01  0.00000000000E+00 0.  1.
         11    1    3    3    0    0 -0.39101319546E+01  0.24125153877E+01  0.25256431584E+01  0.52429224696E+01  0.51100000000E-03 0. -1.
        -11    1    3    3    0    0 -0.21879387825E+02  0.28981420185E+02 -0.20046641690E+02  0.41478888255E+02  0.51100000000E-03 0.  1.
         12    1    3    3    0    0  0.24675835877E+02 -0.31076935892E+02  0.17290759333E+02  0.43285600134E+02  0.00000000000E+00 0. -1.
</event>
<event>
 7    1  0.3863655E-015  0.9000763E+02  0.7816164E-02  0.1186339E+00
        -11   -1    0    0    0    0  0.00000000000E+00  0.00000000000E+00  0.45593999997E+02  0.45594000000E+02  0.51100000000E-03 0.  1.
         11   -1    0    0    0    0 -0.00000000000E+00 -0.00000000000E+00 -0.45593999997E+02  0.45594000000E+02  0.51100000000E-03 0. -1.
    9900012    2    1    2    0    0  0.77946666863E+00  0.75535468613E+00 -0.46383127016E+00  0.90007632076E+02  0.89999892019E+02 0.  0.
        -12    1    1    2    0    0 -0.77946666863E+00 -0.75535468613E+00  0.46383127016E+00  0.11803679242E+01  0.00000000000E+00 0.  1.
         11    1    3    3    0    0 -0.57880196528E+01 -0.14908437259E+02 -0.31748019895E+02  0.35548550470E+02  0.51100000000E-03 0. -1.
        -11    1    3    3    0    0 -0.28873901107E+00 -0.97825121027E+01 -0.38694025061E+01  0.10523934116E+02  0.51100000000E-03 0.  1.
        -12    1    3    3    0    0  0.68562253325E+01  0.25446304048E+02  0.35153591131E+02  0.43935147490E+02  0.00000000000E+00 0.  1.
</event>
<event>
 7    1  0.3863655E-015  0.9000776E+02  0.7816164E-02  0.1186339E+00
        -11   -1    0    0    0    0  0.00000000000E+00  0.00000000000E+00  0.45593999997E+02  0.45594000000E+02  0.51100000000E-03 0. -1.
         11   -1    0    0    0    0 -0.00000000000E+00 -0.00000000000E+00 -0.45593999997E+02  0.45594000000E+02  0.51100000000E-03 0.  1.
    9900012    2    1    2    0    0  0.11390685685E+01 -0.30759891067E-01 -0.30749644294E+00  0.90007755349E+02  0.90000016919E+02 0.  0.
        -12    1    1    2    0    0 -0.11390685685E+01  0.30759891067E-01  0.30749644294E+00  0.11802446514E+01  0.00000000000E+00 0.  1.
         11    1    3    3    0    0  0.17797491043E+01 -0.41655691232E+01  0.74544498424E+01  0.87228605233E+01  0.51100000000E-03 0. -1.
        -11    1    3    3    0    0  0.31841531705E+02 -0.19299820181E+02  0.82713810896E+01  0.38141603869E+02  0.51100000000E-03 0.  1.
         12    1    3    3    0    0 -0.32482212241E+02  0.23434629413E+02 -0.16033327375E+02  0.43143290956E+02  0.00000000000E+00 0. -1.
</event>
<event>
 7    1  0.3863655E-015  0.9000772E+02  0.7816164E-02  0.1186339E+00
        -11   -1    0    0    0    0  0.00000000000E+00  0.00000000000E+00  0.45593999997E+02  0.45594000000E+02  0.51100000000E-03 0.  1.
         11   -1    0    0    0    0 -0.00000000000E+00 -0.00000000000E+00 -0.45593999997E+02  0.45594000000E+02  0.51100000000E-03 0. -1.
    9900012    2    1    2    0    0  0.10861471582E+01 -0.27203487191E+00  0.37328191618E+00  0.90007721215E+02  0.89999982335E+02 0.  0.
        -12    1    1    2    0    0 -0.10861471582E+01  0.27203487191E+00 -0.37328191618E+00  0.11802787848E+01  0.00000000000E+00 0.  1.
         11    1    3    3    0    0 -0.19788196846E+00  0.34505506243E+01  0.18213832841E+02  0.18538855518E+02  0.51100000000E-03 0. -1.
        -11    1    3    3    0    0  0.26127735772E+02  0.19635280043E+02  0.62694795571E+00  0.32689384560E+02  0.51100000000E-03 0.  1.
         12    1    3    3    0    0 -0.24843706645E+02 -0.23357865539E+02 -0.18467498880E+02  0.38779481138E+02  0.00000000000E+00 0. -1.
</event>
<event>
 7    1  0.3863655E-015  0.9000784E+02  0.7816164E-02  0.1186339E+00
        -11   -1    0    0    0    0  0.00000000000E+00  0.00000000000E+00  0.45593999997E+02  0.45594000000E+02  0.51100000000E-03 0.  1.
         11   -1    0    0    0    0 -0.00000000000E+00 -0.00000000000E+00 -0.45593999997E+02  0.45594000000E+02  0.51100000000E-03 0. -1.
    9900012    2    1    2    0    0 -0.10375429378E+01 -0.46434358776E+00  0.31727759717E+00  0.90007840948E+02  0.90000103648E+02 0.  0.
        -12    1    1    2    0    0  0.10375429378E+01  0.46434358776E+00 -0.31727759717E+00  0.11801590524E+01  0.00000000000E+00 0.  1.
         11    1    3    3    0    0 -0.13539490687E+02  0.30453583008E+02 -0.17343504366E+02  0.37570409501E+02  0.51100000000E-03 0. -1.
        -11    1    3    3    0    0 -0.76653112890E+01 -0.43083684676E+01 -0.67432868107E+01  0.11081107945E+02  0.51100000000E-03 0.  1.
        -12    1    3    3    0    0  0.20167259038E+02 -0.26609558128E+02  0.24404068774E+02  0.41356323502E+02  0.00000000000E+00 0.  1.
</event>
<event>
 7    1  0.3863655E-015  0.9000752E+02  0.7816164E-02  0.1186339E+00
        -11   -1    0    0    0    0  0.00000000000E+00  0.00000000000E+00  0.45593999997E+02  0.45594000000E+02  0.51100000000E-03 0. -1.
         11   -1    0    0    0    0 -0.00000000000E+00 -0.00000000000E+00 -0.45593999997E+02  0.45594000000E+02  0.51100000000E-03 0.  1.
    9900012    2    1    2    0    0  0.88468601795E+00 -0.73262229973E+00  0.27226471146E+00  0.90007520073E+02  0.89999778538E+02 0.  0.
        -12    1    1    2    0    0 -0.88468601795E+00  0.73262229973E+00 -0.27226471146E+00  0.11804799268E+01  0.00000000000E+00 0.  1.
         11    1    3    3    0    0  0.96448248848E+01  0.25423346167E+01  0.16470501917E+01  0.10109346515E+02  0.51100000000E-03 0. -1.
        -11    1    3    3    0    0 -0.11356846048E+02  0.37393712396E+02 -0.21492811121E+01  0.39139329177E+02  0.51100000000E-03 0.  1.
         12    1    3    3    0    0  0.25967071807E+01 -0.40668669312E+02  0.77449563191E+00  0.40758844381E+02  0.00000000000E+00 0. -1.
</event>
<event>
 7    1  0.3863655E-015  0.9000777E+02  0.7816164E-02  0.1186339E+00
        -11   -1    0    0    0    0  0.00000000000E+00  0.00000000000E+00  0.45593999997E+02  0.45594000000E+02  0.51100000000E-03 0. -1.
         11   -1    0    0    0    0 -0.00000000000E+00 -0.00000000000E+00 -0.45593999997E+02  0.45594000000E+02  0.51100000000E-03 0.  1.
    9900012    2    1    2    0    0 -0.48924524927E+00 -0.10284717359E+01 -0.30955883781E+00  0.90007770489E+02  0.90000032259E+02 0.  0.
        -12    1    1    2    0    0  0.48924524927E+00  0.10284717359E+01  0.30955883781E+00  0.11802295114E+01  0.00000000000E+00 0.  1.
         11    1    3    3    0    0  0.59038994051E+01 -0.20723308195E+02  0.32393028102E+01  0.21790011787E+02  0.51100000000E-03 0. -1.
        -11    1    3    3    0    0 -0.15652111990E+02 -0.19941377265E+02 -0.95194375294E+01  0.27078900053E+02  0.51100000000E-03 0.  1.
         12    1    3    3    0    0  0.92589673353E+01  0.39636213724E+02  0.59705758813E+01  0.41138858648E+02  0.00000000000E+00 0. -1.
</event>
<event>
 7    1  0.3863655E-015  0.9000741E+02  0.7816164E-02  0.1186340E+00
        -11   -1    0    0    0    0  0.00000000000E+00  0.00000000000E+00  0.45593999997E+02  0.45594000000E+02  0.51100000000E-03 0.  1.
         11   -1    0    0    0    0 -0.00000000000E+00 -0.00000000000E+00 -0.45593999997E+02  0.45594000000E+02  0.51100000000E-03 0. -1.
    9900012    2    1    2    0    0  0.10466114886E+01  0.21634517004E+00 -0.50160040073E+00  0.90007405318E+02  0.89999662268E+02 0.  0.
        -12    1    1    2    0    0 -0.10466114886E+01 -0.21634517004E+00  0.50160040073E+00  0.11805946818E+01  0.00000000000E+00 0.  1.
         11    1    3    3    0    0 -0.23185796602E+02  0.24860074317E+02 -0.21789785362E+01  0.34063945849E+02  0.51100000000E-03 0. -1.
        -11    1    3    3    0    0 -0.75838277521E+01  0.74522775547E+01  0.15858499585E+01  0.10750153696E+02  0.51100000000E-03 0.  1.
        -12    1    3    3    0    0  0.31816235842E+02 -0.32096006701E+02  0.91528177041E-01  0.45193305774E+02  0.00000000000E+00 0.  1.
</event>
<event>
 7    1  0.3863655E-015  0.9000762E+02  0.7816164E-02  0.1186339E+00
        -11   -1    0    0    0    0  0.00000000000E+00  0.00000000000E+00  0.45593999997E+02  0.45594000000E+02  0.51100000000E-03 0. -1.
         11   -1    0    0    0    0 -0.00000000000E+00 -0.00000000000E+00 -0.45593999997E+02  0.45594000000E+02  0.51100000000E-03 0.  1.
    9900012    2    1    2    0    0 -0.10055605327E+01  0.54364330043E+00  0.29429004187E+00  0.90007615888E+02  0.89999875618E+02 0.  0.
        -12    1    1    2    0    0  0.10055605327E+01 -0.54364330043E+00 -0.29429004187E+00  0.11803841119E+01  0.00000000000E+00 0.  1.
         11    1    3    3    0    0  0.59567326165E+01  0.66832451746E+01  0.17436956472E+01  0.91207951572E+01  0.51100000000E-03 0. -1.
        -11    1    3    3    0    0  0.35177635050E+02  0.10662540001E+00  0.10375090966E+02  0.36675876125E+02  0.51100000000E-03 0.  1.
         12    1    3    3    0    0 -0.42139928199E+02 -0.62462272741E+01 -0.11824496572E+02  0.44210944606E+02  0.00000000000E+00 0. -1.
</event>
<event>
 7    1  0.3863655E-015  0.9000775E+02  0.7816164E-02  0.1186339E+00
        -11   -1    0    0    0    0  0.00000000000E+00  0.00000000000E+00  0.45593999997E+02  0.45594000000E+02  0.51100000000E-03 0. -1.
         11   -1    0    0    0    0 -0.00000000000E+00 -0.00000000000E+00 -0.45593999997E+02  0.45594000000E+02  0.51100000000E-03 0.  1.
    9900012    2    1    2    0    0 -0.77127145975E+00 -0.87323989206E+00  0.18864260626E+00  0.90007748499E+02  0.90000009979E+02 0.  0.
        -12    1    1    2    0    0  0.77127145975E+00  0.87323989206E+00 -0.18864260626E+00  0.11802515014E+01  0.00000000000E+00 0.  1.
         11    1    3    3    0    0 -0.29124100022E+02  0.31525603911E+02  0.44298600266E+01  0.43147428245E+02  0.51100000000E-03 0. -1.
        -11    1    3    3    0    0  0.36815377384E+00 -0.18295745251E+01  0.41723586931E+01  0.45707173911E+01  0.51100000000E-03 0.  1.
        -12    1    3    3    0    0  0.27984674788E+02 -0.30569269278E+02 -0.84135761135E+01  0.42289602862E+02  0.00000000000E+00 0.  1.
</event>
<event>
 7    1  0.3863655E-015  0.9000773E+02  0.7816164E-02  0.1186339E+00
        -11   -1    0    0    0    0  0.00000000000E+00  0.00000000000E+00  0.45593999997E+02  0.45594000000E+02  0.51100000000E-03 0.  1.
         11   -1    0    0    0    0 -0.00000000000E+00 -0.00000000000E+00 -0.45593999997E+02  0.45594000000E+02  0.51100000000E-03 0. -1.
    9900012    2    1    2    0    0 -0.32273681580E+00 -0.35667354509E+00 -0.10778061964E+01  0.90007728308E+02  0.89999989522E+02 0.  0.
        -12    1    1    2    0    0  0.32273681580E+00  0.35667354509E+00  0.10778061964E+01  0.11802716920E+01  0.00000000000E+00 0.  1.
         11    1    3    3    0    0  0.36522062779E+01 -0.66354100858E+01  0.52973805262E+01  0.92428090104E+01  0.51100000000E-03 0. -1.
        -11    1    3    3    0    0 -0.38431854045E+02 -0.33302487216E+01 -0.18778779300E+02  0.42903851973E+02  0.51100000000E-03 0.  1.
         12    1    3    3    0    0  0.34456910952E+02  0.96089852623E+01  0.12403592577E+02  0.37861067324E+02  0.00000000000E+00 0. -1.
</event>
<event>
 7    1  0.3863655E-015  0.9000773E+02  0.7816164E-02  0.1186339E+00
        -11   -1    0    0    0    0  0.00000000000E+00  0.00000000000E+00  0.45593999997E+02  0.45594000000E+02  0.51100000000E-03 0. -1.
         11   -1    0    0    0    0 -0.00000000000E+00 -0.00000000000E+00 -0.45593999997E+02  0.45594000000E+02  0.51100000000E-03 0.  1.
    9900012    2    1    2    0    0  0.97888172258E+00 -0.27655767133E+00 -0.59860920697E+00  0.90007734540E+02  0.89999995836E+02 0.  0.
        -12    1    1    2    0    0 -0.97888172258E+00  0.27655767133E+00  0.59860920697E+00  0.11802654596E+01  0.00000000000E+00 0.  1.
         11    1    3    3    0    0 -0.79836621861E+01 -0.39320502880E+02 -0.39015602975E-01  0.40122840517E+02  0.51100000000E-03 0. -1.
        -11    1    3    3    0    0  0.38929825997E+01  0.11497546299E+01 -0.97523763030E+01  0.10563431878E+02  0.51100000000E-03 0.  1.
        -12    1    3    3    0    0  0.50695613090E+01  0.37894190579E+02  0.91927826990E+01  0.39321462145E+02  0.00000000000E+00 0.  1.
</event>
<event>
 7    1  0.3863655E-015  0.9000775E+02  0.7816164E-02  0.1186339E+00
        -11   -1    0    0    0    0  0.00000000000E+00  0.00000000000E+00  0.45593999997E+02  0.45594000000E+02  0.51100000000E-03 0.  1.
         11   -1    0    0    0    0 -0.00000000000E+00 -0.00000000000E+00 -0.45593999997E+02  0.45594000000E+02  0.51100000000E-03 0. -1.
    9900012    2    1    2    0    0 -0.56817543912E+00 -0.37962225406E+00  0.96231705557E+00  0.90007749814E+02  0.90000011312E+02 0.  0.
        -12    1    1    2    0    0  0.56817543912E+00  0.37962225406E+00 -0.96231705557E+00  0.11802501857E+01  0.00000000000E+00 0.  1.
         11    1    3    3    0    0 -0.41528607934E+02 -0.46040351102E+01  0.22348581365E+01  0.41842765293E+02  0.51100000000E-03 0. -1.
        -11    1    3    3    0    0  0.30767569091E+01  0.90972429131E+01  0.20673911411E+01  0.98234600874E+01  0.51100000000E-03 0.  1.
        -12    1    3    3    0    0  0.37883675586E+02 -0.48728300570E+01 -0.33399322220E+01  0.38341524434E+02  0.00000000000E+00 0.  1.
</event>
<event>
 7    1  0.3863655E-015  0.9000771E+02  0.7816164E-02  0.1186339E+00
        -11   -1    0    0    0    0  0.00000000000E+00  0.00000000000E+00  0.45593999997E+02  0.45594000000E+02  0.51100000000E-03 0.  1.
         11   -1    0    0    0    0 -0.00000000000E+00 -0.00000000000E+00 -0.45593999997E+02  0.45594000000E+02  0.51100000000E-03 0. -1.
    9900012    2    1    2    0    0 -0.11650668010E+01 -0.26540077800E-01 -0.18708645634E+00  0.90007709202E+02  0.89999970163E+02 0.  0.
        -12    1    1    2    0    0  0.11650668010E+01  0.26540077800E-01  0.18708645634E+00  0.11802907983E+01  0.00000000000E+00 0.  1.
         11    1    3    3    0    0  0.73993501459E+01  0.16487805244E+01 -0.58810334932E+01  0.95945513188E+01  0.51100000000E-03 0. -1.
        -11    1    3    3    0    0  0.13260544467E+02 -0.13129017193E+02  0.36480153360E+02  0.40975782133E+02  0.51100000000E-03 0.  1.
         12    1    3    3    0    0 -0.21824961413E+02  0.11453696590E+02 -0.30786206323E+02  0.39437375750E+02  0.00000000000E+00 0. -1.
</event>
<event>
 7    1  0.3863655E-015  0.9000793E+02  0.7816164E-02  0.1186339E+00
        -11   -1    0    0    0    0  0.00000000000E+00  0.00000000000E+00  0.45593999997E+02  0.45594000000E+02  0.51100000000E-03 0.  1.
         11   -1    0    0    0    0 -0.00000000000E+00 -0.00000000000E+00 -0.45593999997E+02  0.45594000000E+02  0.51100000000E-03 0. -1.
    9900012    2    1    2    0    0 -0.70028030123E-01 -0.10810957532E+01 -0.46786070254E+00  0.90007929837E+02  0.90000193711E+02 0.  0.
        -12    1    1    2    0    0  0.70028030123E-01  0.10810957532E+01  0.46786070254E+00  0.11800701630E+01  0.00000000000E+00 0.  1.
         11    1    3    3    0    0 -0.67841029685E+01  0.73994278611E+01 -0.88675679362E+01  0.13394377444E+02  0.51100000000E-03 0. -1.
        -11    1    3    3    0    0 -0.29232320512E+02 -0.12147249910E+02  0.21402849181E+02  0.38212121064E+02  0.51100000000E-03 0.  1.
         12    1    3    3    0    0  0.35946395450E+02  0.36667262961E+01 -0.13003141948E+02  0.38401431329E+02  0.00000000000E+00 0. -1.
</event>
<event>
 7    1  0.3863655E-015  0.9000775E+02  0.7816164E-02  0.1186339E+00
        -11   -1    0    0    0    0  0.00000000000E+00  0.00000000000E+00  0.45593999997E+02  0.45594000000E+02  0.51100000000E-03 0.  1.
         11   -1    0    0    0    0 -0.00000000000E+00 -0.00000000000E+00 -0.45593999997E+02  0.45594000000E+02  0.51100000000E-03 0. -1.
    9900012    2    1    2    0    0  0.60720592979E+00  0.11095326043E+00 -0.10059727314E+01  0.90007749686E+02  0.90000011182E+02 0.  0.
        -12    1    1    2    0    0 -0.60720592979E+00 -0.11095326043E+00  0.10059727314E+01  0.11802503139E+01  0.00000000000E+00 0.  1.
         11    1    3    3    0    0  0.26891742909E+01 -0.95271131490E+00 -0.81803759289E+01  0.86635943935E+01  0.51100000000E-03 0. -1.
        -11    1    3    3    0    0 -0.18493340156E+02 -0.32933713224E+02  0.18323855450E+02  0.41980909657E+02  0.51100000000E-03 0.  1.
         12    1    3    3    0    0  0.16411371795E+02  0.33997377799E+02 -0.11149452252E+02  0.39363245635E+02  0.00000000000E+00 0. -1.
</event>
<event>
 7    1  0.3863655E-015  0.9000766E+02  0.7816164E-02  0.1186339E+00
        -11   -1    0    0    0    0  0.00000000000E+00  0.00000000000E+00  0.45593999997E+02  0.45594000000E+02  0.51100000000E-03 0.  1.
         11   -1    0    0    0    0 -0.00000000000E+00 -0.00000000000E+00 -0.45593999997E+02  0.45594000000E+02  0.51100000000E-03 0. -1.
    9900012    2    1    2    0    0 -0.10186475508E+01 -0.59629262661E+00 -0.10050501188E-02  0.90007657364E+02  0.89999917641E+02 0.  0.
        -12    1    1    2    0    0  0.10186475508E+01  0.59629262661E+00  0.10050501188E-02  0.11803426364E+01  0.00000000000E+00 0.  1.
         11    1    3    3    0    0  0.89984930561E+01 -0.11961076640E+02  0.46794972074E+01  0.15682408171E+02  0.51100000000E-03 0. -1.
        -11    1    3    3    0    0  0.20178055034E+02 -0.19462654951E+02 -0.12109995115E+02  0.30538513792E+02  0.51100000000E-03 0.  1.
         12    1    3    3    0    0 -0.30195195641E+02  0.30827438965E+02  0.74294928580E+01  0.43786735400E+02  0.00000000000E+00 0. -1.
</event>
<event>
 7    1  0.3863655E-015  0.9000772E+02  0.7816164E-02  0.1186339E+00
        -11   -1    0    0    0    0  0.00000000000E+00  0.00000000000E+00  0.45593999997E+02  0.45594000000E+02  0.51100000000E-03 0. -1.
         11   -1    0    0    0    0 -0.00000000000E+00 -0.00000000000E+00 -0.45593999997E+02  0.45594000000E+02  0.51100000000E-03 0.  1.
    9900012    2    1    2    0    0  0.11336329043E+01 -0.25780310118E+00  0.20363434934E+00  0.90007723359E+02  0.89999984507E+02 0.  0.
        -12    1    1    2    0    0 -0.11336329043E+01  0.25780310118E+00 -0.20363434934E+00  0.11802766409E+01  0.00000000000E+00 0.  1.
         11    1    3    3    0    0  0.23973489352E+02 -0.31246439901E+02 -0.25452388213E+01  0.39465762873E+02  0.51100000000E-03 0. -1.
        -11    1    3    3    0    0  0.54972529724E+01  0.30210153936E+01 -0.71540561374E+01  0.95145595657E+01  0.51100000000E-03 0.  1.
        -12    1    3    3    0    0 -0.28337109420E+02  0.27967621407E+02  0.99029293080E+01  0.41027400921E+02  0.00000000000E+00 0.  1.
</event>
<event>
 7    1  0.3863655E-015  0.9000774E+02  0.7816164E-02  0.1186339E+00
        -11   -1    0    0    0    0  0.00000000000E+00  0.00000000000E+00  0.45593999997E+02  0.45594000000E+02  0.51100000000E-03 0. -1.
         11   -1    0    0    0    0 -0.00000000000E+00 -0.00000000000E+00 -0.45593999997E+02  0.45594000000E+02  0.51100000000E-03 0.  1.
    9900012    2    1    2    0    0  0.11405860917E+01 -0.26800084041E+00 -0.14229868969E+00  0.90007741554E+02  0.90000002942E+02 0.  0.
        -12    1    1    2    0    0 -0.11405860917E+01  0.26800084041E+00  0.14229868969E+00  0.11802584463E+01  0.00000000000E+00 0.  1.
         11    1    3    3    0    0 -0.14544457299E+01  0.53854630387E+01  0.78116346636E+01  0.95989718669E+01  0.51100000000E-03 0. -1.
        -11    1    3    3    0    0 -0.14858570821E+02 -0.36072806464E+01 -0.40572295760E+02  0.43357822639E+02  0.51100000000E-03 0.  1.
         12    1    3    3    0    0  0.17453602643E+02 -0.20461832327E+01  0.32618362407E+02  0.37050947048E+02  0.00000000000E+00 0. -1.
</event>
<event>
 7    1  0.4489608E-015  0.9000777E+02  0.7816164E-02  0.1186339E+00
        -11   -1    0    0    0    0  0.00000000000E+00  0.00000000000E+00  0.45593999997E+02  0.45594000000E+02  0.51100000000E-03 0. -1.
         11   -1    0    0    0    0 -0.00000000000E+00 -0.00000000000E+00 -0.45593999997E+02  0.45594000000E+02  0.51100000000E-03 0.  1.
    9900012    2    1    2    0    0  0.51194518878E+00 -0.59965165123E+00  0.87822175426E+00  0.90007769756E+02  0.90000031517E+02 0.  0.
        -12    1    1    2    0    0 -0.51194518878E+00  0.59965165123E+00 -0.87822175426E+00  0.11802302440E+01  0.00000000000E+00 0.  1.
         11    1    3    3    0    0  0.37581600184E+00 -0.91982882099E+01  0.42776888881E+01  0.10151274114E+02  0.51100000000E-03 0. -1.
        -11    1    3    3    0    0 -0.13220352638E+02 -0.30977808899E+02 -0.14450305015E+02  0.36649879717E+02  0.51100000000E-03 0.  1.
         12    1    3    3    0    0  0.13356481825E+02  0.39576445457E+02  0.11050837881E+02  0.43206615924E+02  0.00000000000E+00 0. -1.
</event>
<event>
 7    1  0.3863655E-015  0.9000775E+02  0.7816164E-02  0.1186339E+00
        -11   -1    0    0    0    0  0.00000000000E+00  0.00000000000E+00  0.45593999997E+02  0.45594000000E+02  0.51100000000E-03 0.  1.
         11   -1    0    0    0    0 -0.00000000000E+00 -0.00000000000E+00 -0.45593999997E+02  0.45594000000E+02  0.51100000000E-03 0. -1.
    9900012    2    1    2    0    0 -0.33545124865E+00  0.10864803943E+01 -0.31626607757E+00  0.90007749425E+02  0.90000010918E+02 0.  0.
        -12    1    1    2    0    0  0.33545124865E+00 -0.10864803943E+01  0.31626607757E+00  0.11802505748E+01  0.00000000000E+00 0.  1.
         11    1    3    3    0    0 -0.20761666083E+02  0.18420539542E+02 -0.29370012374E+02  0.40409908224E+02  0.51100000000E-03 0. -1.
        -11    1    3    3    0    0  0.63166340112E+01  0.75152832175E+01  0.15545754727E+01  0.99396203264E+01  0.51100000000E-03 0.  1.
        -12    1    3    3    0    0  0.14109580823E+02 -0.24849342365E+02  0.27499170824E+02  0.39658220875E+02  0.00000000000E+00 0.  1.
</event>
<event>
 7    1  0.3863655E-015  0.9000773E+02  0.7816164E-02  0.1186339E+00
        -11   -1    0    0    0    0  0.00000000000E+00  0.00000000000E+00  0.45593999997E+02  0.45594000000E+02  0.51100000000E-03 0.  1.
         11   -1    0    0    0    0 -0.00000000000E+00 -0.00000000000E+00 -0.45593999997E+02  0.45594000000E+02  0.51100000000E-03 0. -1.
    9900012    2    1    2    0    0  0.30482554888E+00  0.10896454673E+01 -0.33585752558E+00  0.90007726245E+02  0.89999987431E+02 0.  0.
        -12    1    1    2    0    0 -0.30482554888E+00 -0.10896454673E+01  0.33585752558E+00  0.11802737551E+01  0.00000000000E+00 0.  1.
         11    1    3    3    0    0 -0.31673778736E+02  0.20791533513E+02  0.11174969313E+02  0.39501848876E+02  0.51100000000E-03 0. -1.
        -11    1    3    3    0    0  0.15342333672E+01  0.34245316273E+01  0.70651879653E+01  0.79998856328E+01  0.51100000000E-03 0.  1.
        -12    1    3    3    0    0  0.30444370918E+02 -0.23126419673E+02 -0.18576014804E+02  0.42505991736E+02  0.00000000000E+00 0.  1.
</event>
<event>
 7    1  0.3863655E-015  0.9000773E+02  0.7816164E-02  0.1186339E+00
        -11   -1    0    0    0    0  0.00000000000E+00  0.00000000000E+00  0.45593999997E+02  0.45594000000E+02  0.51100000000E-03 0. -1.
         11   -1    0    0    0    0 -0.00000000000E+00 -0.00000000000E+00 -0.45593999997E+02  0.45594000000E+02  0.51100000000E-03 0.  1.
    9900012    2    1    2    0    0  0.87342249981E+00 -0.72435174895E+00  0.32477862350E+00  0.90007731609E+02  0.89999992867E+02 0.  0.
        -12    1    1    2    0    0 -0.87342249981E+00  0.72435174895E+00 -0.32477862350E+00  0.11802683905E+01  0.00000000000E+00 0.  1.
         11    1    3    3    0    0 -0.20197135083E+02  0.30218267738E+02  0.67631903888E+01  0.36970376183E+02  0.51100000000E-03 0. -1.
        -11    1    3    3    0    0  0.19795139417E+01  0.49124608597E+01  0.82826996678E+01  0.98312695615E+01  0.51100000000E-03 0.  1.
        -12    1    3    3    0    0  0.19091043641E+02 -0.35855080346E+02 -0.14721111433E+02  0.43206085865E+02  0.00000000000E+00 0.  1.
</event>
<event>
 7    1  0.3863655E-015  0.9000772E+02  0.7816164E-02  0.1186339E+00
        -11   -1    0    0    0    0  0.00000000000E+00  0.00000000000E+00  0.45593999997E+02  0.45594000000E+02  0.51100000000E-03 0.  1.
         11   -1    0    0    0    0 -0.00000000000E+00 -0.00000000000E+00 -0.45593999997E+02  0.45594000000E+02  0.51100000000E-03 0. -1.
    9900012    2    1    2    0    0 -0.72345441281E+00  0.33255011847E+00 -0.87125534655E+00  0.90007719632E+02  0.89999980731E+02 0.  0.
        -12    1    1    2    0    0  0.72345441281E+00 -0.33255011847E+00  0.87125534655E+00  0.11802803682E+01  0.00000000000E+00 0.  1.
         11    1    3    3    0    0  0.72756999063E+01  0.50747392520E+01  0.41794565481E+00  0.88805104827E+01  0.51100000000E-03 0. -1.
        -11    1    3    3    0    0  0.24907856362E+02  0.16248719714E+02  0.20787773615E+02  0.36284345565E+02  0.51100000000E-03 0.  1.
         12    1    3    3    0    0 -0.32907010681E+02 -0.20990908848E+02 -0.22076974616E+02  0.44842863584E+02  0.00000000000E+00 0. -1.
</event>
<event>
 7    1  0.3863655E-015  0.9000773E+02  0.7816164E-02  0.1186339E+00
        -11   -1    0    0    0    0  0.00000000000E+00  0.00000000000E+00  0.45593999997E+02  0.45594000000E+02  0.51100000000E-03 0. -1.
         11   -1    0    0    0    0 -0.00000000000E+00 -0.00000000000E+00 -0.45593999997E+02  0.45594000000E+02  0.51100000000E-03 0.  1.
    9900012    2    1    2    0    0 -0.52315104254E+00 -0.79658553246E+00  0.69627408643E+00  0.90007731756E+02  0.89999993015E+02 0.  0.
        -12    1    1    2    0    0  0.52315104254E+00  0.79658553246E+00 -0.69627408643E+00  0.11802682438E+01  0.00000000000E+00 0.  1.
         11    1    3    3    0    0 -0.15787348714E+01 -0.41496225351E+02 -0.12789885788E+01  0.41545937638E+02  0.51100000000E-03 0. -1.
        -11    1    3    3    0    0 -0.81712233682E+00  0.12976414416E+01 -0.76957982414E+01  0.78470932871E+01  0.51100000000E-03 0.  1.
        -12    1    3    3    0    0  0.18727061657E+01  0.39401998377E+02  0.96710609066E+01  0.40614700831E+02  0.00000000000E+00 0.  1.
</event>
<event>
 7    1  0.3863655E-015  0.9000769E+02  0.7816164E-02  0.1186339E+00
        -11   -1    0    0    0    0  0.00000000000E+00  0.00000000000E+00  0.45593999997E+02  0.45594000000E+02  0.51100000000E-03 0. -1.
         11   -1    0    0    0    0 -0.00000000000E+00 -0.00000000000E+00 -0.45593999997E+02  0.45594000000E+02  0.51100000000E-03 0.  1.
    9900012    2    1    2    0    0  0.36243285286E+00 -0.10055367855E+00  0.11187801799E+01  0.90007687454E+02  0.89999948129E+02 0.  0.
        -12    1    1    2    0    0 -0.36243285286E+00  0.10055367855E+00 -0.11187801799E+01  0.11803125459E+01  0.00000000000E+00 0.  1.
         11    1    3    3    0    0 -0.82979513849E+01 -0.37704349173E+02  0.10997571481E+02  0.40142502693E+02  0.51100000000E-03 0. -1.
        -11    1    3    3    0    0  0.34653617984E+01  0.13550722934E+01  0.82160666837E+01  0.90193517132E+01  0.51100000000E-03 0.  1.
        -12    1    3    3    0    0  0.51950224394E+01  0.36248723201E+02 -0.18094857985E+02  0.40845833048E+02  0.00000000000E+00 0.  1.
</event>
<event>
 7    1  0.3863655E-015  0.9000772E+02  0.7816164E-02  0.1186339E+00
        -11   -1    0    0    0    0  0.00000000000E+00  0.00000000000E+00  0.45593999997E+02  0.45594000000E+02  0.51100000000E-03 0. -1.
         11   -1    0    0    0    0 -0.00000000000E+00 -0.00000000000E+00 -0.45593999997E+02  0.45594000000E+02  0.51100000000E-03 0.  1.
    9900012    2    1    2    0    0 -0.42836838215E+00  0.10903027091E+01  0.14421126991E+00  0.90007721915E+02  0.89999983044E+02 0.  0.
        -12    1    1    2    0    0  0.42836838215E+00 -0.10903027091E+01 -0.14421126991E+00  0.11802780853E+01  0.00000000000E+00 0.  1.
         11    1    3    3    0    0 -0.13786856458E+02 -0.63148204782E+01 -0.13920955933E+02  0.20585125285E+02  0.51100000000E-03 0. -1.
        -11    1    3    3    0    0  0.20618152333E+02 -0.24259028687E+02 -0.42659896703E+01  0.32121758149E+02  0.51100000000E-03 0.  1.
         12    1    3    3    0    0 -0.72596642571E+01  0.31664151874E+02  0.18331156873E+02  0.37300838480E+02  0.00000000000E+00 0. -1.
</event>
<event>
 7    1  0.3863655E-015  0.9000771E+02  0.7816164E-02  0.1186339E+00
        -11   -1    0    0    0    0  0.00000000000E+00  0.00000000000E+00  0.45593999997E+02  0.45594000000E+02  0.51100000000E-03 0.  1.
         11   -1    0    0    0    0 -0.00000000000E+00 -0.00000000000E+00 -0.45593999997E+02  0.45594000000E+02  0.51100000000E-03 0. -1.
    9900012    2    1    2    0    0  0.30364943975E+00  0.10344126258E+01  0.48049479564E+00  0.90007708633E+02  0.89999969587E+02 0.  0.
        -12    1    1    2    0    0 -0.30364943975E+00 -0.10344126258E+01 -0.48049479564E+00  0.11802913672E+01  0.00000000000E+00 0.  1.
         11    1    3    3    0    0 -0.19789420594E+02  0.28895735406E+02  0.38760197124E+00  0.35024775911E+02  0.51100000000E-03 0. -1.
        -11    1    3    3    0    0  0.17830556416E+01  0.53007875128E+01 -0.13598357901E+02  0.14703502084E+02  0.51100000000E-03 0.  1.
        -12    1    3    3    0    0  0.18310014392E+02 -0.33162110293E+02  0.13691250725E+02  0.40279430638E+02  0.00000000000E+00 0.  1.
</event>
<event>
 7    1  0.3863655E-015  0.9000755E+02  0.7816164E-02  0.1186339E+00
        -11   -1    0    0    0    0  0.00000000000E+00  0.00000000000E+00  0.45593999997E+02  0.45594000000E+02  0.51100000000E-03 0.  1.
         11   -1    0    0    0    0 -0.00000000000E+00 -0.00000000000E+00 -0.45593999997E+02  0.45594000000E+02  0.51100000000E-03 0. -1.
    9900012    2    1    2    0    0 -0.10899832234E+01 -0.39296738935E+00 -0.22576435021E+00  0.90007552484E+02  0.89999811376E+02 0.  0.
        -12    1    1    2    0    0  0.10899832234E+01  0.39296738935E+00  0.22576435021E+00  0.11804475161E+01  0.00000000000E+00 0.  1.
         11    1    3    3    0    0 -0.23800973233E+00  0.14064599483E+02 -0.34925403749E+02  0.37651738798E+02  0.51100000000E-03 0. -1.
        -11    1    3    3    0    0 -0.87108680431E+01  0.11868224440E+01 -0.41663720084E+01  0.97286394502E+01  0.51100000000E-03 0.  1.
        -12    1    3    3    0    0  0.78588945520E+01 -0.15644389316E+02  0.38866011407E+02  0.42627174236E+02  0.00000000000E+00 0.  1.
</event>
<event>
 7    1  0.3863655E-015  0.9000779E+02  0.7816164E-02  0.1186339E+00
        -11   -1    0    0    0    0  0.00000000000E+00  0.00000000000E+00  0.45593999997E+02  0.45594000000E+02  0.51100000000E-03 0. -1.
         11   -1    0    0    0    0 -0.00000000000E+00 -0.00000000000E+00 -0.45593999997E+02  0.45594000000E+02  0.51100000000E-03 0.  1.
    9900012    2    1    2    0    0 -0.66323928569E+00  0.40846802621E+00 -0.88665812083E+00  0.90007790230E+02  0.90000052261E+02 0.  0.
        -12    1    1    2    0    0  0.66323928569E+00 -0.40846802621E+00  0.88665812083E+00  0.11802097702E+01  0.00000000000E+00 0.  1.
         11    1    3    3    0    0  0.31707832154E+02  0.16413589308E+02  0.17181609151E+01  0.35745553725E+02  0.51100000000E-03 0. -1.
        -11    1    3    3    0    0  0.70333378995E+01  0.25596745606E+01  0.63230854115E+01  0.97980194553E+01  0.51100000000E-03 0.  1.
        -12    1    3    3    0    0 -0.39404409339E+02 -0.18564795843E+02 -0.89279044474E+01  0.44464217050E+02  0.00000000000E+00 0.  1.
</event>
<event>
 7    1  0.3863655E-015  0.9000778E+02  0.7816164E-02  0.1186339E+00
        -11   -1    0    0    0    0  0.00000000000E+00  0.00000000000E+00  0.45593999997E+02  0.45594000000E+02  0.51100000000E-03 0. -1.
         11   -1    0    0    0    0 -0.00000000000E+00 -0.00000000000E+00 -0.45593999997E+02  0.45594000000E+02  0.51100000000E-03 0.  1.
    9900012    2    1    2    0    0 -0.20145003140E+00  0.64706538623E+00  0.96624982026E+00  0.90007782035E+02  0.90000043958E+02 0.  0.
        -12    1    1    2    0    0  0.20145003140E+00 -0.64706538623E+00 -0.96624982026E+00  0.11802179648E+01  0.00000000000E+00 0.  1.
         11    1    3    3    0    0  0.48013323044E+01  0.11192991760E+02  0.31529540210E+02  0.33800114831E+02  0.51100000000E-03 0. -1.
        -11    1    3    3    0    0 -0.14074819034E+02  0.91765892770E+01  0.21577193423E+01  0.16940073041E+02  0.51100000000E-03 0.  1.
        -12    1    3    3    0    0  0.90720366986E+01 -0.19722515651E+02 -0.32721009732E+02  0.39267594163E+02  0.00000000000E+00 0.  1.
</event>
<event>
 7    1  0.3863655E-015  0.9000769E+02  0.7816164E-02  0.1186339E+00
        -11   -1    0    0    0    0  0.00000000000E+00  0.00000000000E+00  0.45593999997E+02  0.45594000000E+02  0.51100000000E-03 0. -1.
         11   -1    0    0    0    0 -0.00000000000E+00 -0.00000000000E+00 -0.45593999997E+02  0.45594000000E+02  0.51100000000E-03 0.  1.
    9900012    2    1    2    0    0  0.62288822245E+00  0.10003713213E+01  0.66377659383E-01  0.90007687113E+02  0.89999947783E+02 0.  0.
        -12    1    1    2    0    0 -0.62288822245E+00 -0.10003713213E+01 -0.66377659383E-01  0.11803128873E+01  0.00000000000E+00 0.  1.
         11    1    3    3    0    0 -0.14118468466E+02  0.28869791916E+02  0.16411183771E+02  0.36084941321E+02  0.51100000000E-03 0. -1.
        -11    1    3    3    0    0 -0.27688459723E+01  0.77179842704E+01  0.42466521455E+01  0.92340589083E+01  0.51100000000E-03 0.  1.
        -12    1    3    3    0    0  0.17510202661E+02 -0.35587404865E+02 -0.20591458257E+02  0.44688686884E+02  0.00000000000E+00 0.  1.
</event>
<event>
 7    1  0.3863655E-015  0.9000756E+02  0.7816164E-02  0.1186339E+00
        -11   -1    0    0    0    0  0.00000000000E+00  0.00000000000E+00  0.45593999997E+02  0.45594000000E+02  0.51100000000E-03 0. -1.
         11   -1    0    0    0    0 -0.00000000000E+00 -0.00000000000E+00 -0.45593999997E+02  0.45594000000E+02  0.51100000000E-03 0.  1.
    9900012    2    1    2    0    0 -0.27324739302E+00  0.94343428186E+00  0.65474945159E+00  0.90007563968E+02  0.89999823012E+02 0.  0.
        -12    1    1    2    0    0  0.27324739302E+00 -0.94343428186E+00 -0.65474945159E+00  0.11804360323E+01  0.00000000000E+00 0.  1.
         11    1    3    3    0    0  0.15325450097E+02  0.18216916306E+02  0.31505225167E+02  0.39488032028E+02  0.51100000000E-03 0. -1.
        -11    1    3    3    0    0 -0.63674906559E+01  0.53146021327E+00  0.58715541019E+01  0.86777033277E+01  0.51100000000E-03 0.  1.
        -12    1    3    3    0    0 -0.92312068337E+01 -0.17804942237E+02 -0.36722029817E+02  0.41841828612E+02  0.00000000000E+00 0.  1.
</event>
<event>
 7    1  0.3863655E-015  0.9000774E+02  0.7816164E-02  0.1186339E+00
        -11   -1    0    0    0    0  0.00000000000E+00  0.00000000000E+00  0.45593999997E+02  0.45594000000E+02  0.51100000000E-03 0. -1.
         11   -1    0    0    0    0 -0.00000000000E+00 -0.00000000000E+00 -0.45593999997E+02  0.45594000000E+02  0.51100000000E-03 0.  1.
    9900012    2    1    2    0    0 -0.58006995374E+00 -0.10275652987E+01  0.25377690905E-01  0.90007739172E+02  0.90000000529E+02 0.  0.
        -12    1    1    2    0    0  0.58006995374E+00  0.10275652987E+01 -0.25377690905E-01  0.11802608278E+01  0.00000000000E+00 0.  1.
         11    1    3    3    0    0 -0.24993317592E+01 -0.21759664319E+01  0.91797662885E+01  0.97595900799E+01  0.51100000000E-03 0. -1.
        -11    1    3    3    0    0 -0.12647174151E+02 -0.36297955553E+02  0.21812530712E+01  0.38500005929E+02  0.51100000000E-03 0.  1.
         12    1    3    3    0    0  0.14566435956E+02  0.37446356686E+02 -0.11335641669E+02  0.41748143163E+02  0.00000000000E+00 0. -1.
</event>
<event>
 7    1  0.3863655E-015  0.9000734E+02  0.7816164E-02  0.1186340E+00
        -11   -1    0    0    0    0  0.00000000000E+00  0.00000000000E+00  0.45593999997E+02  0.45594000000E+02  0.51100000000E-03 0.  1.
         11   -1    0    0    0    0 -0.00000000000E+00 -0.00000000000E+00 -0.45593999997E+02  0.45594000000E+02  0.51100000000E-03 0. -1.
    9900012    2    1    2    0    0 -0.65964104623E+00 -0.60256323141E-01 -0.97734881435E+00  0.90007335848E+02  0.89999591881E+02 0.  0.
        -12    1    1    2    0    0  0.65964104623E+00  0.60256323141E-01  0.97734881435E+00  0.11806641518E+01  0.00000000000E+00 0.  1.
         11    1    3    3    0    0  0.35991544689E+02  0.19036559665E+02 -0.22203463786E+01  0.40776363635E+02  0.51100000000E-03 0. -1.
        -11    1    3    3    0    0  0.11740056058E+01 -0.10194354644E+02 -0.98205035517E+00  0.10308616732E+02  0.51100000000E-03 0.  1.
        -12    1    3    3    0    0 -0.37825191341E+02 -0.89024613438E+01  0.22250479194E+01  0.38922355481E+02  0.00000000000E+00 0.  1.
</event>
<event>
 7    1  0.3863655E-015  0.9000774E+02  0.7816164E-02  0.1186339E+00
        -11   -1    0    0    0    0  0.00000000000E+00  0.00000000000E+00  0.45593999997E+02  0.45594000000E+02  0.51100000000E-03 0. -1.
         11   -1    0    0    0    0 -0.00000000000E+00 -0.00000000000E+00 -0.45593999997E+02  0.45594000000E+02  0.51100000000E-03 0.  1.
    9900012    2    1    2    0    0 -0.28447567261E+00 -0.84224057070E+00  0.77634874589E+00  0.90007740299E+02  0.90000001671E+02 0.  0.
        -12    1    1    2    0    0  0.28447567261E+00  0.84224057070E+00 -0.77634874589E+00  0.11802597013E+01  0.00000000000E+00 0.  1.
         11    1    3    3    0    0 -0.73755184082E+01 -0.10563630988E+02 -0.27334649988E+00  0.12886554622E+02  0.51100000000E-03 0. -1.
        -11    1    3    3    0    0 -0.11914148977E+01 -0.26742126059E+02 -0.20722241047E+02  0.33852208936E+02  0.51100000000E-03 0.  1.
         12    1    3    3    0    0  0.82824576332E+01  0.36463516476E+02  0.21771936293E+02  0.43268976741E+02  0.00000000000E+00 0. -1.
</event>
<event>
 7    1  0.3863655E-015  0.9000775E+02  0.7816164E-02  0.1186339E+00
        -11   -1    0    0    0    0  0.00000000000E+00  0.00000000000E+00  0.45593999997E+02  0.45594000000E+02  0.51100000000E-03 0.  1.
         11   -1    0    0    0    0 -0.00000000000E+00 -0.00000000000E+00 -0.45593999997E+02  0.45594000000E+02  0.51100000000E-03 0. -1.
    9900012    2    1    2    0    0  0.74104817264E+00 -0.37649864115E+00 -0.83791034743E+00  0.90007746904E+02  0.90000008363E+02 0.  0.
        -12    1    1    2    0    0 -0.74104817264E+00  0.37649864115E+00  0.83791034743E+00  0.11802530963E+01  0.00000000000E+00 0.  1.
         11    1    3    3    0    0 -0.48000829095E+01 -0.44153161249E+01 -0.58288537790E+01  0.87470766008E+01  0.51100000000E-03 0. -1.
        -11    1    3    3    0    0 -0.24984946723E+02 -0.19255026056E+01  0.31598781711E+02  0.40329122590E+02  0.51100000000E-03 0.  1.
         12    1    3    3    0    0  0.30526077805E+02  0.59643200893E+01 -0.26607838279E+02  0.40931547713E+02  0.00000000000E+00 0. -1.
</event>
<event>
 7    1  0.5725426E-015  0.9000776E+02  0.7816164E-02  0.1186339E+00
        -11   -1    0    0    0    0  0.00000000000E+00  0.00000000000E+00  0.45593999997E+02  0.45594000000E+02  0.51100000000E-03 0. -1.
         11   -1    0    0    0    0 -0.00000000000E+00 -0.00000000000E+00 -0.45593999997E+02  0.45594000000E+02  0.51100000000E-03 0.  1.
    9900012    2    1    2    0    0 -0.92194805774E+00  0.11392731569E+00  0.72801162745E+00  0.90007759099E+02  0.90000020719E+02 0.  0.
        -12    1    1    2    0    0  0.92194805774E+00 -0.11392731569E+00 -0.72801162745E+00  0.11802409009E+01  0.00000000000E+00 0.  1.
         11    1    3    3    0    0 -0.15313973290E+01  0.17230223944E+02  0.35487746561E+02  0.39479183771E+02  0.51100000000E-03 0. -1.
        -11    1    3    3    0    0  0.25038667961E+01 -0.72712599983E+01  0.52306930752E+01  0.93005763909E+01  0.51100000000E-03 0.  1.
        -12    1    3    3    0    0 -0.18944175249E+01 -0.98450366305E+01 -0.39990428009E+02  0.41227998937E+02  0.00000000000E+00 0.  1.
</event>
<event>
 7    1  0.3863655E-015  0.9000739E+02  0.7816164E-02  0.1186340E+00
        -11   -1    0    0    0    0  0.00000000000E+00  0.00000000000E+00  0.45593999997E+02  0.45594000000E+02  0.51100000000E-03 0.  1.
         11   -1    0    0    0    0 -0.00000000000E+00 -0.00000000000E+00 -0.45593999997E+02  0.45594000000E+02  0.51100000000E-03 0. -1.
    9900012    2    1    2    0    0  0.47188306367E+00  0.60463096754E+00 -0.89754202783E+00  0.90007392561E+02  0.89999649342E+02 0.  0.
        -12    1    1    2    0    0 -0.47188306367E+00 -0.60463096754E+00  0.89754202783E+00  0.11806074387E+01  0.00000000000E+00 0.  1.
         11    1    3    3    0    0  0.27565572279E+01  0.14366429643E+02 -0.18062892341E+01  0.14739592583E+02  0.51100000000E-03 0. -1.
        -11    1    3    3    0    0 -0.34328361411E+02 -0.13651897373E+02  0.15493771148E+02  0.40060799339E+02  0.51100000000E-03 0.  1.
         12    1    3    3    0    0  0.32043687247E+02 -0.10990130269E+00 -0.14585023942E+02  0.35207000640E+02  0.00000000000E+00 0. -1.
</event>
<event>
 7    1  0.3863655E-015  0.9000773E+02  0.7816164E-02  0.1186339E+00
        -11   -1    0    0    0    0  0.00000000000E+00  0.00000000000E+00  0.45593999997E+02  0.45594000000E+02  0.51100000000E-03 0.  1.
         11   -1    0    0    0    0 -0.00000000000E+00 -0.00000000000E+00 -0.45593999997E+02  0.45594000000E+02  0.51100000000E-03 0. -1.
    9900012    2    1    2    0    0 -0.41871589890E+00 -0.44487445253E-01 -0.11025991711E+01  0.90007734323E+02  0.89999995616E+02 0.  0.
        -12    1    1    2    0    0  0.41871589890E+00  0.44487445253E-01  0.11025991711E+01  0.11802656773E+01  0.00000000000E+00 0.  1.
         11    1    3    3    0    0  0.39438589964E+01  0.60364258697E+01  0.76697053123E+01  0.10526957818E+02  0.51100000000E-03 0. -1.
        -11    1    3    3    0    0 -0.35383635630E+02  0.12182562432E+02 -0.19121778585E+02  0.42024503737E+02  0.51100000000E-03 0.  1.
         12    1    3    3    0    0  0.31021060735E+02 -0.18263475746E+02  0.10349474102E+02  0.37456272768E+02  0.00000000000E+00 0. -1.
</event>
<event>
 7    1  0.3863655E-015  0.9000777E+02  0.7816164E-02  0.1186339E+00
        -11   -1    0    0    0    0  0.00000000000E+00  0.00000000000E+00  0.45593999997E+02  0.45594000000E+02  0.51100000000E-03 0.  1.
         11   -1    0    0    0    0 -0.00000000000E+00 -0.00000000000E+00 -0.45593999997E+02  0.45594000000E+02  0.51100000000E-03 0. -1.
    9900012    2    1    2    0    0 -0.93021152752E+00  0.53211386535E+00 -0.49446603868E+00  0.90007773193E+02  0.90000035000E+02 0.  0.
        -12    1    1    2    0    0  0.93021152752E+00 -0.53211386535E+00  0.49446603868E+00  0.11802268066E+01  0.00000000000E+00 0.  1.
         11    1    3    3    0    0 -0.95235704512E+00 -0.66078904717E+01 -0.42155352756E+01  0.78956911254E+01  0.51100000000E-03 0. -1.
        -11    1    3    3    0    0 -0.10668790303E+02 -0.14253768447E+02  0.37040746790E+02  0.41097565919E+02  0.51100000000E-03 0.  1.
         12    1    3    3    0    0  0.10690935821E+02  0.21393772784E+02 -0.33319677553E+02  0.41014516149E+02  0.00000000000E+00 0. -1.
</event>
<event>
 7    1  0.3863655E-015  0.9000776E+02  0.7816164E-02  0.1186339E+00
        -11   -1    0    0    0    0  0.00000000000E+00  0.00000000000E+00  0.45593999997E+02  0.45594000000E+02  0.51100000000E-03 0.  1.
         11   -1    0    0    0    0 -0.00000000000E+00 -0.00000000000E+00 -0.45593999997E+02  0.45594000000E+02  0.51100000000E-03 0. -1.
    9900012    2    1    2    0    0 -0.28758597781E+00  0.80911537940E+00 -0.80968800840E+00  0.90007759320E+02  0.90000020943E+02 0.  0.
        -12    1    1    2    0    0  0.28758597781E+00 -0.80911537940E+00  0.80968800840E+00  0.11802406800E+01  0.00000000000E+00 0.  1.
         11    1    3    3    0    0 -0.84816638220E+01  0.23119984293E+01  0.24055281738E+01  0.91143032638E+01  0.51100000000E-03 0. -1.
        -11    1    3    3    0    0 -0.13042371149E+02 -0.24199741621E+02 -0.29400758376E+02  0.40250907233E+02  0.51100000000E-03 0.  1.
         12    1    3    3    0    0  0.21236448993E+02  0.22696858571E+02  0.26185542194E+02  0.40642548823E+02  0.00000000000E+00 0. -1.
</event>
<event>
 7    1  0.3863655E-015  0.9000722E+02  0.7816164E-02  0.1186340E+00
        -11   -1    0    0    0    0  0.00000000000E+00  0.00000000000E+00  0.45593999997E+02  0.45594000000E+02  0.51100000000E-03 0. -1.
         11   -1    0    0    0    0 -0.00000000000E+00 -0.00000000000E+00 -0.45593999997E+02  0.45594000000E+02  0.51100000000E-03 0.  1.
    9900012    2    1    2    0    0  0.82968641439E+00  0.24749387838E+00  0.80287602293E+00  0.90007219464E+02  0.89999473959E+02 0.  0.
        -12    1    1    2    0    0 -0.82968641439E+00 -0.24749387838E+00 -0.80287602293E+00  0.11807805360E+01  0.00000000000E+00 0.  1.
         11    1    3    3    0    0  0.17291807132E+02  0.35446481521E+02  0.16064572426E+00  0.39439643170E+02  0.51100000000E-03 0. -1.
        -11    1    3    3    0    0  0.48950298296E+01  0.11825945890E+01  0.62314156668E+01  0.80118904429E+01  0.51100000000E-03 0.  1.
        -12    1    3    3    0    0 -0.21357150548E+02 -0.36381582231E+02 -0.55891853681E+01  0.42555685851E+02  0.00000000000E+00 0.  1.
</event>
<event>
 7    1  0.3863655E-015  0.9000774E+02  0.7816164E-02  0.1186339E+00
        -11   -1    0    0    0    0  0.00000000000E+00  0.00000000000E+00  0.45593999997E+02  0.45594000000E+02  0.51100000000E-03 0.  1.
         11   -1    0    0    0    0 -0.00000000000E+00 -0.00000000000E+00 -0.45593999997E+02  0.45594000000E+02  0.51100000000E-03 0. -1.
    9900012    2    1    2    0    0 -0.32565487931E+00 -0.90465970351E+00  0.68450297095E+00  0.90007743843E+02  0.90000005261E+02 0.  0.
        -12    1    1    2    0    0  0.32565487931E+00  0.90465970351E+00 -0.68450297095E+00  0.11802561573E+01  0.00000000000E+00 0.  1.
         11    1    3    3    0    0 -0.71637652633E+01 -0.36222754539E+02  0.17026614541E+02  0.40660952794E+02  0.51100000000E-03 0. -1.
        -11    1    3    3    0    0  0.64077443322E+01 -0.37920930576E+01 -0.23795317769E+01  0.78167339038E+01  0.51100000000E-03 0.  1.
        -12    1    3    3    0    0  0.43036605182E+00  0.39110187893E+02 -0.13962579793E+02  0.41530057145E+02  0.00000000000E+00 0.  1.
</event>
<event>
 7    1  0.3863655E-015  0.9000777E+02  0.7816164E-02  0.1186339E+00
        -11   -1    0    0    0    0  0.00000000000E+00  0.00000000000E+00  0.45593999997E+02  0.45594000000E+02  0.51100000000E-03 0. -1.
         11   -1    0    0    0    0 -0.00000000000E+00 -0.00000000000E+00 -0.45593999997E+02  0.45594000000E+02  0.51100000000E-03 0.  1.
    9900012    2    1    2    0    0 -0.71828766627E+00  0.10498453070E+00  0.93058791938E+00  0.90007765786E+02  0.90000027495E+02 0.  0.
        -12    1    1    2    0    0  0.71828766627E+00 -0.10498453070E+00 -0.93058791938E+00  0.11802342136E+01  0.00000000000E+00 0.  1.
         11    1    3    3    0    0 -0.87592354400E+01  0.15622746546E+01 -0.51609675802E+00  0.89124218771E+01  0.51100000000E-03 0. -1.
        -11    1    3    3    0    0 -0.32230275135E+02 -0.97415118801E+01 -0.14939503325E+02  0.36835803899E+02  0.51100000000E-03 0.  1.
         12    1    3    3    0    0  0.40271222909E+02  0.82842217562E+01  0.16386188003E+02  0.44259540011E+02  0.00000000000E+00 0. -1.
</event>
<event>
 7    1  0.3863655E-015  0.9000771E+02  0.7816164E-02  0.1186339E+00
        -11   -1    0    0    0    0  0.00000000000E+00  0.00000000000E+00  0.45593999997E+02  0.45594000000E+02  0.51100000000E-03 0. -1.
         11   -1    0    0    0    0 -0.00000000000E+00 -0.00000000000E+00 -0.45593999997E+02  0.45594000000E+02  0.51100000000E-03 0.  1.
    9900012    2    1    2    0    0  0.41227465340E+00 -0.94265708516E+00  0.57836505004E+00  0.90007712365E+02  0.89999973368E+02 0.  0.
        -12    1    1    2    0    0 -0.41227465340E+00  0.94265708516E+00 -0.57836505004E+00  0.11802876349E+01  0.00000000000E+00 0.  1.
         11    1    3    3    0    0  0.14640565589E+02 -0.42273463751E+01  0.15730524549E+01  0.15319631602E+02  0.51100000000E-03 0. -1.
        -11    1    3    3    0    0  0.55513745601E+01 -0.19751535738E+02 -0.27550413621E+02  0.34350636304E+02  0.51100000000E-03 0.  1.
         12    1    3    3    0    0 -0.19779665496E+02  0.23036225028E+02  0.26555726216E+02  0.40337444459E+02  0.00000000000E+00 0. -1.
</event>
<event>
 7    1  0.3863655E-015  0.9000769E+02  0.7816164E-02  0.1186339E+00
        -11   -1    0    0    0    0  0.00000000000E+00  0.00000000000E+00  0.45593999997E+02  0.45594000000E+02  0.51100000000E-03 0.  1.
         11   -1    0    0    0    0 -0.00000000000E+00 -0.00000000000E+00 -0.45593999997E+02  0.45594000000E+02  0.51100000000E-03 0. -1.
    9900012    2    1    2    0    0  0.59007941132E+00  0.10196468984E+01 -0.72458122267E-01  0.90007693392E+02  0.89999954145E+02 0.  0.
        -12    1    1    2    0    0 -0.59007941132E+00 -0.10196468984E+01  0.72458122267E-01  0.11803066078E+01  0.00000000000E+00 0.  1.
         11    1    3    3    0    0  0.18514814166E+02 -0.18538312121E+02 -0.24975785595E+02  0.36197475413E+02  0.51100000000E-03 0. -1.
        -11    1    3    3    0    0  0.78963778566E+01 -0.41444834691E+01 -0.25642704230E+01  0.92792785034E+01  0.51100000000E-03 0.  1.
        -12    1    3    3    0    0 -0.25821112612E+02  0.23702442489E+02  0.27467597896E+02  0.44530939476E+02  0.00000000000E+00 0.  1.
</event>
<event>
 7    1  0.4602263E-015  0.9000791E+02  0.7816164E-02  0.1186339E+00
        -11   -1    0    0    0    0  0.00000000000E+00  0.00000000000E+00  0.45593999997E+02  0.45594000000E+02  0.51100000000E-03 0.  1.
         11   -1    0    0    0    0 -0.00000000000E+00 -0.00000000000E+00 -0.45593999997E+02  0.45594000000E+02  0.51100000000E-03 0. -1.
    9900012    2    1    2    0    0 -0.89922236819E+00  0.14294771878E+00 -0.75072443617E+00  0.90007905895E+02  0.90000169453E+02 0.  0.
        -12    1    1    2    0    0  0.89922236819E+00 -0.14294771878E+00  0.75072443617E+00  0.11800941051E+01  0.00000000000E+00 0.  1.
         11    1    3    3    0    0  0.29983361324E+01  0.80095183053E+01  0.42759535905E+01  0.95617039494E+01  0.51100000000E-03 0. -1.
        -11    1    3    3    0    0 -0.27439438715E+02  0.99803748975E+01  0.24915339653E+02  0.38383653166E+02  0.51100000000E-03 0.  1.
         12    1    3    3    0    0  0.23541880214E+02 -0.17846945484E+02 -0.29942017679E+02  0.42062548780E+02  0.00000000000E+00 0. -1.
</event>
<event>
 7    1  0.3863655E-015  0.9000777E+02  0.7816164E-02  0.1186339E+00
        -11   -1    0    0    0    0  0.00000000000E+00  0.00000000000E+00  0.45593999997E+02  0.45594000000E+02  0.51100000000E-03 0.  1.
         11   -1    0    0    0    0 -0.00000000000E+00 -0.00000000000E+00 -0.45593999997E+02  0.45594000000E+02  0.51100000000E-03 0. -1.
    9900012    2    1    2    0    0 -0.36045904895E+00 -0.10221944449E+01 -0.46703345966E+00  0.90007774402E+02  0.90000036224E+02 0.  0.
        -12    1    1    2    0    0  0.36045904895E+00  0.10221944449E+01  0.46703345966E+00  0.11802255978E+01  0.00000000000E+00 0.  1.
         11    1    3    3    0    0  0.15919375578E+01 -0.82332342660E+01  0.79105494440E+01  0.11528104980E+02  0.51100000000E-03 0. -1.
        -11    1    3    3    0    0 -0.18651561463E+02 -0.30886553022E+02 -0.76140556314E+01  0.36875923663E+02  0.51100000000E-03 0.  1.
         12    1    3    3    0    0  0.16699164857E+02  0.38097592843E+02 -0.76352727226E+00  0.41603745759E+02  0.00000000000E+00 0. -1.
</event>
<event>
 7    1  0.3863655E-015  0.9000805E+02  0.7816164E-02  0.1186338E+00
        -11   -1    0    0    0    0  0.00000000000E+00  0.00000000000E+00  0.45593999997E+02  0.45594000000E+02  0.51100000000E-03 0. -1.
         11   -1    0    0    0    0 -0.00000000000E+00 -0.00000000000E+00 -0.45593999997E+02  0.45594000000E+02  0.51100000000E-03 0.  1.
    9900012    2    1    2    0    0  0.89077525511E+00  0.21838742518E+00  0.74237059146E+00  0.90008047578E+02  0.90000313006E+02 0.  0.
        -12    1    1    2    0    0 -0.89077525511E+00 -0.21838742518E+00 -0.74237059146E+00  0.11799524218E+01  0.00000000000E+00 0.  1.
         11    1    3    3    0    0 -0.12399753178E+02 -0.57075854610E+01  0.34733866825E+02  0.37319859533E+02  0.51100000000E-03 0. -1.
        -11    1    3    3    0    0  0.63126589708E+00 -0.45684076822E+01  0.70787106654E+01  0.84484904171E+01  0.51100000000E-03 0.  1.
        -12    1    3    3    0    0  0.12659262536E+02  0.10494380568E+02 -0.41070206899E+02  0.44239697628E+02  0.00000000000E+00 0.  1.
</event>
<event>
 7    1  0.3863655E-015  0.9000763E+02  0.7816164E-02  0.1186339E+00
        -11   -1    0    0    0    0  0.00000000000E+00  0.00000000000E+00  0.45593999997E+02  0.45594000000E+02  0.51100000000E-03 0.  1.
         11   -1    0    0    0    0 -0.00000000000E+00 -0.00000000000E+00 -0.45593999997E+02  0.45594000000E+02  0.51100000000E-03 0. -1.
    9900012    2    1    2    0    0  0.52304369244E+00 -0.92931550493E+00 -0.50603571168E+00  0.90007629654E+02  0.89999889566E+02 0.  0.
        -12    1    1    2    0    0 -0.52304369244E+00  0.92931550493E+00  0.50603571168E+00  0.11803703459E+01  0.00000000000E+00 0.  1.
         11    1    3    3    0    0  0.24828130085E+02  0.20309335978E+02 -0.21876892936E+02  0.38826583885E+02  0.51100000000E-03 0. -1.
        -11    1    3    3    0    0  0.73891593851E+01  0.72397560678E+00  0.64493903557E+01  0.98345540478E+01  0.51100000000E-03 0.  1.
        -12    1    3    3    0    0 -0.31694245778E+02 -0.21962627090E+02  0.14921466868E+02  0.41346491721E+02  0.00000000000E+00 0.  1.
</event>
<event>
 7    1  0.3863655E-015  0.9000806E+02  0.7816164E-02  0.1186338E+00
        -11   -1    0    0    0    0  0.00000000000E+00  0.00000000000E+00  0.45593999997E+02  0.45594000000E+02  0.51100000000E-03 0.  1.
         11   -1    0    0    0    0 -0.00000000000E+00 -0.00000000000E+00 -0.45593999997E+02  0.45594000000E+02  0.51100000000E-03 0. -1.
    9900012    2    1    2    0    0  0.24978234658E+00 -0.64553094237E+00 -0.95559036752E+00  0.90008061710E+02  0.90000327324E+02 0.  0.
        -12    1    1    2    0    0 -0.24978234658E+00  0.64553094237E+00  0.95559036752E+00  0.11799382902E+01  0.00000000000E+00 0.  1.
         11    1    3    3    0    0 -0.22952198544E+02  0.26738370181E+02 -0.17587338768E+02  0.39383478048E+02  0.51100000000E-03 0. -1.
        -11    1    3    3    0    0  0.61261761677E+01  0.34925218075E+01 -0.55272015838E+01  0.89597823981E+01  0.51100000000E-03 0.  1.
        -12    1    3    3    0    0  0.17075804723E+02 -0.30876422931E+02  0.22158949985E+02  0.41664801264E+02  0.00000000000E+00 0.  1.
</event>
<event>
 7    1  0.3863655E-015  0.9000772E+02  0.7816164E-02  0.1186339E+00
        -11   -1    0    0    0    0  0.00000000000E+00  0.00000000000E+00  0.45593999997E+02  0.45594000000E+02  0.51100000000E-03 0.  1.
         11   -1    0    0    0    0 -0.00000000000E+00 -0.00000000000E+00 -0.45593999997E+02  0.45594000000E+02  0.51100000000E-03 0. -1.
    9900012    2    1    2    0    0 -0.84043546747E+00 -0.97471807852E-01 -0.82294225876E+00  0.90007717623E+02  0.89999978696E+02 0.  0.
        -12    1    1    2    0    0  0.84043546747E+00  0.97471807852E-01  0.82294225876E+00  0.11802823770E+01  0.00000000000E+00 0.  1.
         11    1    3    3    0    0 -0.62595629639E+01 -0.76852199901E+01 -0.13078470695E+02  0.16410092345E+02  0.51100000000E-03 0. -1.
        -11    1    3    3    0    0  0.34379679223E+02  0.75078119192E+01 -0.10548032653E+02  0.36736774170E+02  0.51100000000E-03 0.  1.
         12    1    3    3    0    0 -0.28960551726E+02  0.79936263053E-01  0.22803561089E+02  0.36860851108E+02  0.00000000000E+00 0. -1.
</event>
<event>
 7    1  0.3863655E-015  0.9000769E+02  0.7816164E-02  0.1186339E+00
        -11   -1    0    0    0    0  0.00000000000E+00  0.00000000000E+00  0.45593999997E+02  0.45594000000E+02  0.51100000000E-03 0. -1.
         11   -1    0    0    0    0 -0.00000000000E+00 -0.00000000000E+00 -0.45593999997E+02  0.45594000000E+02  0.51100000000E-03 0.  1.
    9900012    2    1    2    0    0  0.38618270804E+00 -0.26194212865E+00  0.10841499035E+01  0.90007689966E+02  0.89999950674E+02 0.  0.
        -12    1    1    2    0    0 -0.38618270804E+00  0.26194212865E+00 -0.10841499035E+01  0.11803100339E+01  0.00000000000E+00 0.  1.
         11    1    3    3    0    0 -0.38691365189E+02 -0.12701400203E+02  0.97643828056E+01  0.41877087759E+02  0.51100000000E-03 0. -1.
        -11    1    3    3    0    0  0.56348198989E+00  0.54696196833E+01 -0.70717803384E+01  0.89579198952E+01  0.51100000000E-03 0.  1.
        -12    1    3    3    0    0  0.38514065907E+02  0.69698383907E+01 -0.16084525637E+01  0.39172682312E+02  0.00000000000E+00 0.  1.
</event>
<event>
 7    1  0.3863655E-015  0.9000831E+02  0.7816164E-02  0.1186338E+00
        -11   -1    0    0    0    0  0.00000000000E+00  0.00000000000E+00  0.45593999997E+02  0.45594000000E+02  0.51100000000E-03 0. -1.
         11   -1    0    0    0    0 -0.00000000000E+00 -0.00000000000E+00 -0.45593999997E+02  0.45594000000E+02  0.51100000000E-03 0.  1.
    9900012    2    1    2    0    0 -0.21704690541E+00  0.87696889258E+00  0.75859973447E+00  0.90008314722E+02  0.90000583675E+02 0.  0.
        -12    1    1    2    0    0  0.21704690541E+00 -0.87696889258E+00 -0.75859973447E+00  0.11796852779E+01  0.00000000000E+00 0.  1.
         11    1    3    3    0    0 -0.17349966327E+02  0.57469720786E+01 -0.35781104421E+01  0.18623960219E+02  0.51100000000E-03 0. -1.
        -11    1    3    3    0    0 -0.22543870392E+02  0.42606441617E+01  0.17213802982E+02  0.28682646222E+02  0.51100000000E-03 0.  1.
         12    1    3    3    0    0  0.39676789814E+02 -0.91306473478E+01 -0.12877092806E+02  0.42701708281E+02  0.00000000000E+00 0. -1.
</event>
<event>
 7    1  0.3863655E-015  0.9000775E+02  0.7816164E-02  0.1186339E+00
        -11   -1    0    0    0    0  0.00000000000E+00  0.00000000000E+00  0.45593999997E+02  0.45594000000E+02  0.51100000000E-03 0. -1.
         11   -1    0    0    0    0 -0.00000000000E+00 -0.00000000000E+00 -0.45593999997E+02  0.45594000000E+02  0.51100000000E-03 0.  1.
    9900012    2    1    2    0    0 -0.11743750473E+01 -0.10108574934E+00  0.60172843958E-01  0.90007747547E+02  0.90000009015E+02 0.  0.
        -12    1    1    2    0    0  0.11743750473E+01  0.10108574934E+00 -0.60172843958E-01  0.11802524525E+01  0.00000000000E+00 0.  1.
         11    1    3    3    0    0  0.43598787127E+00  0.31306971303E+02  0.29264523667E+02  0.42857075067E+02  0.51100000000E-03 0. -1.
        -11    1    3    3    0    0  0.37712154928E+01 -0.60496096206E+01  0.11633670808E+01  0.72231064011E+01  0.51100000000E-03 0.  1.
        -12    1    3    3    0    0 -0.53815784114E+01 -0.25358447432E+02 -0.30367717904E+02  0.39927566079E+02  0.00000000000E+00 0.  1.
</event>
<event>
 7    1  0.3863655E-015  0.9000772E+02  0.7816164E-02  0.1186339E+00
        -11   -1    0    0    0    0  0.00000000000E+00  0.00000000000E+00  0.45593999997E+02  0.45594000000E+02  0.51100000000E-03 0.  1.
         11   -1    0    0    0    0 -0.00000000000E+00 -0.00000000000E+00 -0.45593999997E+02  0.45594000000E+02  0.51100000000E-03 0. -1.
    9900012    2    1    2    0    0 -0.96341949006E+00  0.53838933012E+00 -0.41835156659E+00  0.90007721127E+02  0.89999982246E+02 0.  0.
        -12    1    1    2    0    0  0.96341949006E+00 -0.53838933012E+00  0.41835156659E+00  0.11802788729E+01  0.00000000000E+00 0.  1.
         11    1    3    3    0    0  0.43984123120E+01  0.49351129367E+01  0.80421397809E+01  0.10410445864E+02  0.51100000000E-03 0. -1.
        -11    1    3    3    0    0  0.11053708899E+01  0.11366793415E+02  0.32920812084E+02  0.34845454594E+02  0.51100000000E-03 0.  1.
         12    1    3    3    0    0 -0.64672026920E+01 -0.15763517022E+02 -0.41381303431E+02  0.44751820669E+02  0.00000000000E+00 0. -1.
</event>
<event>
 7    1  0.3863655E-015  0.9000814E+02  0.7816164E-02  0.1186338E+00
        -11   -1    0    0    0    0  0.00000000000E+00  0.00000000000E+00  0.45593999997E+02  0.45594000000E+02  0.51100000000E-03 0. -1.
         11   -1    0    0    0    0 -0.00000000000E+00 -0.00000000000E+00 -0.45593999997E+02  0.45594000000E+02  0.51100000000E-03 0.  1.
    9900012    2    1    2    0    0  0.45477733541E+00 -0.62525677087E+00  0.89124234310E+00  0.90008135021E+02  0.90000401602E+02 0.  0.
        -12    1    1    2    0    0 -0.45477733541E+00  0.62525677087E+00 -0.89124234310E+00  0.11798649789E+01  0.00000000000E+00 0.  1.
         11    1    3    3    0    0 -0.10279585011E+02  0.18903914859E+01  0.69638592598E+00  0.10475132534E+02  0.51100000000E-03 0. -1.
        -11    1    3    3    0    0  0.31622237531E+02  0.26008771237E+02  0.11300889769E+02  0.42475077370E+02  0.51100000000E-03 0.  1.
         12    1    3    3    0    0 -0.20887875185E+02 -0.28524419494E+02 -0.11106033352E+02  0.37057925117E+02  0.00000000000E+00 0. -1.
</event>
<event>
 7    1  0.3863655E-015  0.9000772E+02  0.7816164E-02  0.1186339E+00
        -11   -1    0    0    0    0  0.00000000000E+00  0.00000000000E+00  0.45593999997E+02  0.45594000000E+02  0.51100000000E-03 0.  1.
         11   -1    0    0    0    0 -0.00000000000E+00 -0.00000000000E+00 -0.45593999997E+02  0.45594000000E+02  0.51100000000E-03 0. -1.
    9900012    2    1    2    0    0  0.37051987173E+00  0.75872968443E+00  0.82468962091E+00  0.90007716695E+02  0.89999977755E+02 0.  0.
        -12    1    1    2    0    0 -0.37051987173E+00 -0.75872968443E+00 -0.82468962091E+00  0.11802833051E+01  0.00000000000E+00 0.  1.
         11    1    3    3    0    0 -0.15805254329E+02  0.85270579885E+01 -0.32062519242E+02  0.36749447924E+02  0.51100000000E-03 0. -1.
        -11    1    3    3    0    0 -0.48301148906E+01  0.11240495576E+02  0.41867729716E+01  0.12930886235E+02  0.51100000000E-03 0.  1.
        -12    1    3    3    0    0  0.21005889091E+02 -0.19008823880E+02  0.28700435891E+02  0.40327382535E+02  0.00000000000E+00 0.  1.
</event>
<event>
 7    1  0.3863655E-015  0.9000776E+02  0.7816164E-02  0.1186339E+00
        -11   -1    0    0    0    0  0.00000000000E+00  0.00000000000E+00  0.45593999997E+02  0.45594000000E+02  0.51100000000E-03 0.  1.
         11   -1    0    0    0    0 -0.00000000000E+00 -0.00000000000E+00 -0.45593999997E+02  0.45594000000E+02  0.51100000000E-03 0. -1.
    9900012    2    1    2    0    0  0.40715397678E+00 -0.50858900741E+00 -0.98413436355E+00  0.90007763759E+02  0.90000025441E+02 0.  0.
        -12    1    1    2    0    0 -0.40715397678E+00  0.50858900741E+00  0.98413436355E+00  0.11802362411E+01  0.00000000000E+00 0.  1.
         11    1    3    3    0    0 -0.16200291841E+02 -0.28941851072E+02 -0.22450559272E+02  0.40051314724E+02  0.51100000000E-03 0. -1.
        -11    1    3    3    0    0  0.76174865967E+01  0.52511355528E+00 -0.60535555247E+01  0.97440946757E+01  0.51100000000E-03 0.  1.
        -12    1    3    3    0    0  0.89899592214E+01  0.27908148509E+02  0.27519980434E+02  0.40212354359E+02  0.00000000000E+00 0.  1.
</event>
<event>
 7    1  0.3863655E-015  0.9000739E+02  0.7816164E-02  0.1186340E+00
        -11   -1    0    0    0    0  0.00000000000E+00  0.00000000000E+00  0.45593999997E+02  0.45594000000E+02  0.51100000000E-03 0. -1.
         11   -1    0    0    0    0 -0.00000000000E+00 -0.00000000000E+00 -0.45593999997E+02  0.45594000000E+02  0.51100000000E-03 0.  1.
    9900012    2    1    2    0    0 -0.69223144701E+00  0.90505171022E+00 -0.30907426680E+00  0.90007394275E+02  0.89999651079E+02 0.  0.
        -12    1    1    2    0    0  0.69223144701E+00 -0.90505171022E+00  0.30907426680E+00  0.11806057245E+01  0.00000000000E+00 0.  1.
         11    1    3    3    0    0  0.24955911996E+01  0.19675664565E+01  0.80279604850E+01  0.86340861129E+01  0.51100000000E-03 0. -1.
        -11    1    3    3    0    0 -0.29472557904E+02 -0.20337569050E+02  0.17428670821E+02  0.39824702775E+02  0.51100000000E-03 0.  1.
         12    1    3    3    0    0  0.26284735258E+02  0.19275054304E+02 -0.25765705573E+02  0.41548605387E+02  0.00000000000E+00 0. -1.
</event>
<event>
 7    1  0.3863655E-015  0.9000764E+02  0.7816164E-02  0.1186339E+00
        -11   -1    0    0    0    0  0.00000000000E+00  0.00000000000E+00  0.45593999997E+02  0.45594000000E+02  0.51100000000E-03 0.  1.
         11   -1    0    0    0    0 -0.00000000000E+00 -0.00000000000E+00 -0.45593999997E+02  0.45594000000E+02  0.51100000000E-03 0. -1.
    9900012    2    1    2    0    0  0.11297595466E+01  0.34175168052E+00 -0.97650235898E-02  0.90007641495E+02  0.89999901563E+02 0.  0.
        -12    1    1    2    0    0 -0.11297595466E+01 -0.34175168052E+00  0.97650235898E-02  0.11803585048E+01  0.00000000000E+00 0.  1.
         11    1    3    3    0    0  0.94132327354E+01 -0.12467404860E+01  0.48043081619E+01  0.10641648817E+02  0.51100000000E-03 0. -1.
        -11    1    3    3    0    0  0.27887020316E+02  0.20638606462E+02  0.96360483908E+01  0.36006824459E+02  0.51100000000E-03 0.  1.
         12    1    3    3    0    0 -0.36170493505E+02 -0.19050114296E+02 -0.14450121576E+02  0.43359168219E+02  0.00000000000E+00 0. -1.
</event>
<event>
 7    1  0.3863655E-015  0.9000775E+02  0.7816164E-02  0.1186339E+00
        -11   -1    0    0    0    0  0.00000000000E+00  0.00000000000E+00  0.45593999997E+02  0.45594000000E+02  0.51100000000E-03 0.  1.
         11   -1    0    0    0    0 -0.00000000000E+00 -0.00000000000E+00 -0.45593999997E+02  0.45594000000E+02  0.51100000000E-03 0. -1.
    9900012    2    1    2    0    0  0.89893551632E+00 -0.68883228145E+00 -0.33228073585E+00  0.90007751949E+02  0.90000013475E+02 0.  0.
        -12    1    1    2    0    0 -0.89893551632E+00  0.68883228145E+00  0.33228073585E+00  0.11802480510E+01  0.00000000000E+00 0.  1.
         11    1    3    3    0    0 -0.18790403670E+02 -0.21153850493E+02 -0.21699036062E+02  0.35656876294E+02  0.51100000000E-03 0. -1.
        -11    1    3    3    0    0 -0.29152205091E+01 -0.36229513858E+01 -0.85830288863E+01  0.97617965808E+01  0.51100000000E-03 0.  1.
        -12    1    3    3    0    0  0.22604559695E+02  0.24087969598E+02  0.29949784212E+02  0.44589079074E+02  0.00000000000E+00 0.  1.
</event>
<event>
 7    1  0.3863655E-015  0.9000783E+02  0.7816164E-02  0.1186339E+00
        -11   -1    0    0    0    0  0.00000000000E+00  0.00000000000E+00  0.45593999997E+02  0.45594000000E+02  0.51100000000E-03 0.  1.
         11   -1    0    0    0    0 -0.00000000000E+00 -0.00000000000E+00 -0.45593999997E+02  0.45594000000E+02  0.51100000000E-03 0. -1.
    9900012    2    1    2    0    0 -0.16161899385E-01  0.11622306044E+01  0.20434268558E+00  0.90007831742E+02  0.90000094321E+02 0.  0.
        -12    1    1    2    0    0  0.16161899385E-01 -0.11622306044E+01 -0.20434268558E+00  0.11801682583E+01  0.00000000000E+00 0.  1.
         11    1    3    3    0    0  0.29645436792E+02 -0.17924103687E+02  0.47333066990E+01  0.34964690877E+02  0.51100000000E-03 0. -1.
        -11    1    3    3    0    0  0.10174655733E+02  0.47911131365E+01  0.38715284572E+01  0.11893995007E+02  0.51100000000E-03 0.  1.
        -12    1    3    3    0    0 -0.39836254425E+02  0.14295221155E+02 -0.84004924706E+01  0.43149145857E+02  0.00000000000E+00 0.  1.
</event>
<event>
 7    1  0.3863655E-015  0.9000776E+02  0.7816164E-02  0.1186339E+00
        -11   -1    0    0    0    0  0.00000000000E+00  0.00000000000E+00  0.45593999997E+02  0.45594000000E+02  0.51100000000E-03 0. -1.
         11   -1    0    0    0    0 -0.00000000000E+00 -0.00000000000E+00 -0.45593999997E+02  0.45594000000E+02  0.51100000000E-03 0.  1.
    9900012    2    1    2    0    0 -0.36629688958E+00  0.46514351678E+00  0.10209939879E+01  0.90007762471E+02  0.90000024135E+02 0.  0.
        -12    1    1    2    0    0  0.36629688958E+00 -0.46514351678E+00 -0.10209939879E+01  0.11802375294E+01  0.00000000000E+00 0.  1.
         11    1    3    3    0    0  0.37212925242E+01  0.17954605063E+01 -0.77991370566E+01  0.88259977096E+01  0.51100000000E-03 0. -1.
        -11    1    3    3    0    0  0.26725091416E+02  0.24482174839E+01 -0.24001992294E+02  0.36004442982E+02  0.51100000000E-03 0.  1.
         12    1    3    3    0    0 -0.30812680830E+02 -0.37785344734E+01  0.32822123339E+02  0.45177321779E+02  0.00000000000E+00 0. -1.
</event>
<event>
 7    1  0.3863655E-015  0.9000776E+02  0.7816164E-02  0.1186339E+00
        -11   -1    0    0    0    0  0.00000000000E+00  0.00000000000E+00  0.45593999997E+02  0.45594000000E+02  0.51100000000E-03 0.  1.
         11   -1    0    0    0    0 -0.00000000000E+00 -0.00000000000E+00 -0.45593999997E+02  0.45594000000E+02  0.51100000000E-03 0. -1.
    9900012    2    1    2    0    0 -0.34822435144E+00 -0.10810631730E+01 -0.32093521727E+00  0.90007763923E+02  0.90000025607E+02 0.  0.
        -12    1    1    2    0    0  0.34822435144E+00  0.10810631730E+01  0.32093521727E+00  0.11802360766E+01  0.00000000000E+00 0.  1.
         11    1    3    3    0    0 -0.17577910807E+01  0.94743441833E+01  0.21581172386E+00  0.96384439692E+01  0.51100000000E-03 0. -1.
        -11    1    3    3    0    0 -0.22588259540E+02 -0.17250877911E+02  0.29754776459E+02  0.41148134589E+02  0.51100000000E-03 0.  1.
         12    1    3    3    0    0  0.23997826269E+02  0.66954705551E+01 -0.30291523400E+02  0.39221185366E+02  0.00000000000E+00 0. -1.
</event>
<event>
 8    1  0.3863655E-015  0.9000772E+02  0.7816164E-02  0.1186339E+00
        -11   -1    0    0    0    0  0.00000000000E+00  0.00000000000E+00  0.45593999997E+02  0.45594000000E+02  0.51100000000E-03 0. -1.
         11   -1    0    0    0    0 -0.00000000000E+00 -0.00000000000E+00 -0.45593999997E+02  0.45594000000E+02  0.51100000000E-03 0.  1.
    9900012    2    1    2    0    0 -0.84071745988E+00  0.42455476197E+00  0.71135074274E+00  0.90007715088E+02  0.89999976128E+02 0.  0.
         23    2    3    3    0    0  0.10600007942E+02 -0.52112786614E+01 -0.25152446261E+02  0.61170433463E+02  0.54494575726E+02 0.  0.
        -12    1    1    2    0    0  0.84071745988E+00 -0.42455476197E+00 -0.71135074274E+00  0.11802849116E+01  0.00000000000E+00 0.  1.
         11    1    4    4    0    0  0.29275040401E+02 -0.62719353708E+01 -0.29430448054E+02  0.41982334818E+02  0.51100000000E-03 0. -1.
        -11    1    4    4    0    0 -0.18675032460E+02  0.10606567094E+01  0.42780017933E+01  0.19188098646E+02  0.51100000000E-03 0.  1.
        -12    1    3    3    0    0 -0.11440725401E+02  0.56358334234E+01  0.25863797004E+02  0.28837281625E+02  0.00000000000E+00 0.  1.
</event>
<event>
 7    1  0.3863655E-015  0.9000842E+02  0.7816164E-02  0.1186338E+00
        -11   -1    0    0    0    0  0.00000000000E+00  0.00000000000E+00  0.45593999997E+02  0.45594000000E+02  0.51100000000E-03 0.  1.
         11   -1    0    0    0    0 -0.00000000000E+00 -0.00000000000E+00 -0.45593999997E+02  0.45594000000E+02  0.51100000000E-03 0. -1.
    9900012    2    1    2    0    0 -0.88310961782E+00 -0.69842482577E+00  0.35174390145E+00  0.90008422276E+02  0.90000692648E+02 0.  0.
        -12    1    1    2    0    0  0.88310961782E+00  0.69842482577E+00 -0.35174390145E+00  0.11795777238E+01  0.00000000000E+00 0.  1.
         11    1    3    3    0    0 -0.40862230420E+01  0.78376496001E+01 -0.31062991290E+01  0.93688347484E+01  0.51100000000E-03 0. -1.
        -11    1    3    3    0    0  0.40848643036E+02  0.36345506152E+00  0.82053965638E+01  0.41666200577E+02  0.51100000000E-03 0.  1.
         12    1    3    3    0    0 -0.37645529612E+02 -0.88995294873E+01 -0.47473535334E+01  0.38973386951E+02  0.00000000000E+00 0. -1.
</event>
<event>
 7    1  0.3863655E-015  0.9000774E+02  0.7816164E-02  0.1186339E+00
        -11   -1    0    0    0    0  0.00000000000E+00  0.00000000000E+00  0.45593999997E+02  0.45594000000E+02  0.51100000000E-03 0.  1.
         11   -1    0    0    0    0 -0.00000000000E+00 -0.00000000000E+00 -0.45593999997E+02  0.45594000000E+02  0.51100000000E-03 0. -1.
    9900012    2    1    2    0    0 -0.62776880270E+00 -0.48675871485E+00 -0.87292463756E+00  0.90007735140E+02  0.89999996444E+02 0.  0.
        -12    1    1    2    0    0  0.62776880270E+00  0.48675871485E+00  0.87292463756E+00  0.11802648597E+01  0.00000000000E+00 0.  1.
         11    1    3    3    0    0  0.20492408088E+02 -0.23074594775E+02 -0.21014740437E+02  0.37336242837E+02  0.51100000000E-03 0. -1.
        -11    1    3    3    0    0  0.67069428326E+01 -0.57356855491E+01  0.21718391385E+01  0.90883472855E+01  0.51100000000E-03 0.  1.
        -12    1    3    3    0    0 -0.27827119724E+02  0.28323521609E+02  0.17969976661E+02  0.43583145018E+02  0.00000000000E+00 0.  1.
</event>
<event>
 7    1  0.3863655E-015  0.9000758E+02  0.7816164E-02  0.1186339E+00
        -11   -1    0    0    0    0  0.00000000000E+00  0.00000000000E+00  0.45593999997E+02  0.45594000000E+02  0.51100000000E-03 0. -1.
         11   -1    0    0    0    0 -0.00000000000E+00 -0.00000000000E+00 -0.45593999997E+02  0.45594000000E+02  0.51100000000E-03 0.  1.
    9900012    2    1    2    0    0 -0.72075458765E+00 -0.92697166851E+00 -0.12097817485E+00  0.90007576615E+02  0.89999835826E+02 0.  0.
        -12    1    1    2    0    0  0.72075458765E+00  0.92697166851E+00  0.12097817485E+00  0.11804233853E+01  0.00000000000E+00 0.  1.
         11    1    3    3    0    0  0.50133915238E+01 -0.64315945044E+01 -0.46614811089E+01  0.93930244772E+01  0.51100000000E-03 0. -1.
        -11    1    3    3    0    0 -0.43714158645E+01 -0.27797836259E+02  0.28124186571E+02  0.39784404582E+02  0.51100000000E-03 0.  1.
         12    1    3    3    0    0 -0.13627302469E+01  0.33302459095E+02 -0.23583683637E+02  0.40830147556E+02  0.00000000000E+00 0. -1.
</event>
<event>
 7    1  0.3863655E-015  0.9000778E+02  0.7816164E-02  0.1186339E+00
        -11   -1    0    0    0    0  0.00000000000E+00  0.00000000000E+00  0.45593999997E+02  0.45594000000E+02  0.51100000000E-03 0.  1.
         11   -1    0    0    0    0 -0.00000000000E+00 -0.00000000000E+00 -0.45593999997E+02  0.45594000000E+02  0.51100000000E-03 0. -1.
    9900012    2    1    2    0    0  0.10364177922E-01 -0.11480955568E+01 -0.27327717770E+00  0.90007783393E+02  0.90000045334E+02 0.  0.
        -12    1    1    2    0    0 -0.10364177922E-01  0.11480955568E+01  0.27327717770E+00  0.11802166070E+01  0.00000000000E+00 0.  1.
         11    1    3    3    0    0  0.22941400149E+02 -0.71477545894E+00 -0.32668164568E+02  0.39925276721E+02  0.51100000000E-03 0. -1.
        -11    1    3    3    0    0  0.42232876382E+01 -0.55595083534E+01 -0.64293713023E+00  0.70112523860E+01  0.51100000000E-03 0.  1.
        -12    1    3    3    0    0 -0.27154323609E+02  0.51261882555E+01  0.33037824520E+02  0.43071254286E+02  0.00000000000E+00 0.  1.
</event>
<event>
 7    1  0.3863655E-015  0.9000772E+02  0.7816164E-02  0.1186339E+00
        -11   -1    0    0    0    0  0.00000000000E+00  0.00000000000E+00  0.45593999997E+02  0.45594000000E+02  0.51100000000E-03 0. -1.
         11   -1    0    0    0    0 -0.00000000000E+00 -0.00000000000E+00 -0.45593999997E+02  0.45594000000E+02  0.51100000000E-03 0.  1.
    9900012    2    1    2    0    0  0.96396267957E+00 -0.42940569007E+00 -0.52863894040E+00  0.90007715109E+02  0.89999976149E+02 0.  0.
        -12    1    1    2    0    0 -0.96396267957E+00  0.42940569007E+00  0.52863894040E+00  0.11802848909E+01  0.00000000000E+00 0.  1.
         11    1    3    3    0    0 -0.73490986267E+01  0.28798570982E+02  0.22042794398E+02  0.37003401551E+02  0.51100000000E-03 0. -1.
        -11    1    3    3    0    0 -0.12863092875E+02 -0.55316108277E+01 -0.14622976455E+02  0.20245723433E+02  0.51100000000E-03 0.  1.
        -12    1    3    3    0    0  0.21176154181E+02 -0.23696365844E+02 -0.79484568832E+01  0.32758590125E+02  0.00000000000E+00 0.  1.
</event>
<event>
 7    1  0.3863655E-015  0.9000777E+02  0.7816164E-02  0.1186339E+00
        -11   -1    0    0    0    0  0.00000000000E+00  0.00000000000E+00  0.45593999997E+02  0.45594000000E+02  0.51100000000E-03 0. -1.
         11   -1    0    0    0    0 -0.00000000000E+00 -0.00000000000E+00 -0.45593999997E+02  0.45594000000E+02  0.51100000000E-03 0.  1.
    9900012    2    1    2    0    0 -0.26852365811E+00 -0.11414767012E+01  0.13368686277E+00  0.90007768586E+02  0.90000030331E+02 0.  0.
        -12    1    1    2    0    0  0.26852365811E+00  0.11414767012E+01 -0.13368686277E+00  0.11802314144E+01  0.00000000000E+00 0.  1.
         11    1    3    3    0    0 -0.22590252963E+02  0.16203590745E+02  0.18186922711E+02  0.33221078247E+02  0.51100000000E-03 0. -1.
        -11    1    3    3    0    0 -0.12243343036E+02  0.63850649228E+00 -0.12360641871E+02  0.17409555048E+02  0.51100000000E-03 0.  1.
        -12    1    3    3    0    0  0.34565072341E+02 -0.17983573939E+02 -0.56925939775E+01  0.39377135291E+02  0.00000000000E+00 0.  1.
</event>
<event>
 7    1  0.3863655E-015  0.9000770E+02  0.7816164E-02  0.1186339E+00
        -11   -1    0    0    0    0  0.00000000000E+00  0.00000000000E+00  0.45593999997E+02  0.45594000000E+02  0.51100000000E-03 0. -1.
         11   -1    0    0    0    0 -0.00000000000E+00 -0.00000000000E+00 -0.45593999997E+02  0.45594000000E+02  0.51100000000E-03 0.  1.
    9900012    2    1    2    0    0  0.11652219606E+01 -0.12637889734E+00  0.13926860958E+00  0.90007699365E+02  0.89999960197E+02 0.  0.
        -12    1    1    2    0    0 -0.11652219606E+01  0.12637889734E+00 -0.13926860958E+00  0.11803006349E+01  0.00000000000E+00 0.  1.
         11    1    3    3    0    0 -0.44632213812E+01 -0.44422783080E+01 -0.68512615096E+01  0.93055879017E+01  0.51100000000E-03 0. -1.
        -11    1    3    3    0    0 -0.69439153467E+01 -0.23485248323E+02 -0.26032151089E+02  0.35741400920E+02  0.51100000000E-03 0.  1.
         12    1    3    3    0    0  0.12572358689E+02  0.27801147734E+02  0.33022681209E+02  0.44960710543E+02  0.00000000000E+00 0. -1.
</event>
<event>
 7    1  0.3863655E-015  0.9000776E+02  0.7816164E-02  0.1186339E+00
        -11   -1    0    0    0    0  0.00000000000E+00  0.00000000000E+00  0.45593999997E+02  0.45594000000E+02  0.51100000000E-03 0. -1.
         11   -1    0    0    0    0 -0.00000000000E+00 -0.00000000000E+00 -0.45593999997E+02  0.45594000000E+02  0.51100000000E-03 0.  1.
    9900012    2    1    2    0    0 -0.31238654468E+00  0.57190574978E+00  0.98402101607E+00  0.90007763202E+02  0.90000024876E+02 0.  0.
        -12    1    1    2    0    0  0.31238654468E+00 -0.57190574978E+00 -0.98402101607E+00  0.11802367983E+01  0.00000000000E+00 0.  1.
         11    1    3    3    0    0  0.69958670235E+01 -0.72980497529E+01  0.60657179106E+01  0.11789682762E+02  0.51100000000E-03 0. -1.
        -11    1    3    3    0    0 -0.30014169075E+02 -0.32432848933E+01 -0.30114767348E+02  0.42641159164E+02  0.51100000000E-03 0.  1.
         12    1    3    3    0    0  0.22705915507E+02  0.11113240396E+02  0.25033070454E+02  0.35576921275E+02  0.00000000000E+00 0. -1.
</event>
<event>
 7    1  0.3863655E-015  0.9000777E+02  0.7816164E-02  0.1186339E+00
        -11   -1    0    0    0    0  0.00000000000E+00  0.00000000000E+00  0.45593999997E+02  0.45594000000E+02  0.51100000000E-03 0.  1.
         11   -1    0    0    0    0 -0.00000000000E+00 -0.00000000000E+00 -0.45593999997E+02  0.45594000000E+02  0.51100000000E-03 0. -1.
    9900012    2    1    2    0    0  0.52215430188E+00  0.92692817906E+00 -0.51098893588E+00  0.90007766694E+02  0.90000028414E+02 0.  0.
        -12    1    1    2    0    0 -0.52215430188E+00 -0.92692817906E+00  0.51098893588E+00  0.11802333060E+01  0.00000000000E+00 0.  1.
         11    1    3    3    0    0  0.19149108489E+01 -0.79568921196E+01  0.61531580654E+01  0.10239158667E+02  0.51100000000E-03 0. -1.
        -11    1    3    3    0    0  0.49328679258E+01 -0.14451589323E+02 -0.37555135201E+02  0.40540964470E+02  0.51100000000E-03 0.  1.
         12    1    3    3    0    0 -0.63256244728E+01  0.23335409621E+02  0.30890988199E+02  0.39227643558E+02  0.00000000000E+00 0. -1.
</event>
<event>
 7    1  0.3863655E-015  0.9000789E+02  0.7816164E-02  0.1186339E+00
        -11   -1    0    0    0    0  0.00000000000E+00  0.00000000000E+00  0.45593999997E+02  0.45594000000E+02  0.51100000000E-03 0.  1.
         11   -1    0    0    0    0 -0.00000000000E+00 -0.00000000000E+00 -0.45593999997E+02  0.45594000000E+02  0.51100000000E-03 0. -1.
    9900012    2    1    2    0    0  0.14618181698E+00 -0.84502897825E+00 -0.81069393620E+00  0.90007886550E+02  0.90000149852E+02 0.  0.
        -12    1    1    2    0    0 -0.14618181698E+00  0.84502897825E+00  0.81069393620E+00  0.11801134504E+01  0.00000000000E+00 0.  1.
         11    1    3    3    0    0 -0.14353618226E+01  0.35717941662E+01 -0.97886474244E+01  0.10518345677E+02  0.51100000000E-03 0. -1.
        -11    1    3    3    0    0  0.21672014152E+02 -0.33360447705E+02  0.17150288471E+02  0.43321219551E+02  0.51100000000E-03 0.  1.
         12    1    3    3    0    0 -0.20090470512E+02  0.28943624561E+02 -0.81723349828E+01  0.36168321321E+02  0.00000000000E+00 0. -1.
</event>
<event>
 7    1  0.5298895E-015  0.9000774E+02  0.7816164E-02  0.1186339E+00
        -11   -1    0    0    0    0  0.00000000000E+00  0.00000000000E+00  0.45593999997E+02  0.45594000000E+02  0.51100000000E-03 0. -1.
         11   -1    0    0    0    0 -0.00000000000E+00 -0.00000000000E+00 -0.45593999997E+02  0.45594000000E+02  0.51100000000E-03 0.  1.
    9900012    2    1    2    0    0 -0.68307093383E+00  0.53280592506E+00  0.80158659448E+00  0.90007741925E+02  0.90000003319E+02 0.  0.
        -12    1    1    2    0    0  0.68307093383E+00 -0.53280592506E+00 -0.80158659448E+00  0.11802580747E+01  0.00000000000E+00 0.  1.
         11    1    3    3    0    0  0.17072816490E+02 -0.23342514966E+01  0.36175227182E+02  0.40069650047E+02  0.51100000000E-03 0. -1.
        -11    1    3    3    0    0 -0.90284486109E+01 -0.21783758479E+01  0.33886238404E+01  0.98864036660E+01  0.51100000000E-03 0.  1.
        -12    1    3    3    0    0 -0.87274388133E+01  0.50454332695E+01 -0.38762264428E+02  0.40051688213E+02  0.00000000000E+00 0.  1.
</event>
<event>
 7    1  0.3863655E-015  0.9000777E+02  0.7816164E-02  0.1186339E+00
        -11   -1    0    0    0    0  0.00000000000E+00  0.00000000000E+00  0.45593999997E+02  0.45594000000E+02  0.51100000000E-03 0. -1.
         11   -1    0    0    0    0 -0.00000000000E+00 -0.00000000000E+00 -0.45593999997E+02  0.45594000000E+02  0.51100000000E-03 0.  1.
    9900012    2    1    2    0    0  0.10608301465E+01  0.20317973735E+00  0.47571990062E+00  0.90007766112E+02  0.90000027825E+02 0.  0.
        -12    1    1    2    0    0 -0.10608301465E+01 -0.20317973735E+00 -0.47571990062E+00  0.11802338876E+01  0.00000000000E+00 0.  1.
         11    1    3    3    0    0 -0.13385061419E+02 -0.12732882247E+02  0.27762364971E+02  0.33347189815E+02  0.51100000000E-03 0. -1.
        -11    1    3    3    0    0 -0.96669811477E+01 -0.87408370558E+01  0.17320184521E+01  0.13147343653E+02  0.51100000000E-03 0.  1.
        -12    1    3    3    0    0  0.24112872713E+02  0.21676899041E+02 -0.29018663523E+02  0.43513232644E+02  0.00000000000E+00 0.  1.
</event>
<event>
 7    1  0.3863655E-015  0.9000767E+02  0.7816164E-02  0.1186339E+00
        -11   -1    0    0    0    0  0.00000000000E+00  0.00000000000E+00  0.45593999997E+02  0.45594000000E+02  0.51100000000E-03 0.  1.
         11   -1    0    0    0    0 -0.00000000000E+00 -0.00000000000E+00 -0.45593999997E+02  0.45594000000E+02  0.51100000000E-03 0. -1.
    9900012    2    1    2    0    0 -0.12284184978E+00  0.55237304453E+00  0.10358484996E+01  0.90007666058E+02  0.89999926450E+02 0.  0.
        -12    1    1    2    0    0  0.12284184978E+00 -0.55237304453E+00 -0.10358484996E+01  0.11803339419E+01  0.00000000000E+00 0.  1.
         11    1    3    3    0    0 -0.89167640523E-01  0.95763945790E+01 -0.38231383204E+01  0.10311724923E+02  0.51100000000E-03 0. -1.
        -11    1    3    3    0    0 -0.29578872151E+02  0.21860553939E+02  0.12211325437E+01  0.36800606805E+02  0.51100000000E-03 0.  1.
         12    1    3    3    0    0  0.29545197942E+02 -0.30884575474E+02  0.36378542764E+01  0.42895334331E+02  0.00000000000E+00 0. -1.
</event>
<event>
 7    1  0.3863655E-015  0.9000777E+02  0.7816164E-02  0.1186339E+00
        -11   -1    0    0    0    0  0.00000000000E+00  0.00000000000E+00  0.45593999997E+02  0.45594000000E+02  0.51100000000E-03 0. -1.
         11   -1    0    0    0    0 -0.00000000000E+00 -0.00000000000E+00 -0.45593999997E+02  0.45594000000E+02  0.51100000000E-03 0.  1.
    9900012    2    1    2    0    0  0.25242732646E+00  0.11503850269E+00  0.11471623346E+01  0.90007773397E+02  0.90000035206E+02 0.  0.
        -12    1    1    2    0    0 -0.25242732646E+00 -0.11503850269E+00 -0.11471623346E+01  0.11802266029E+01  0.00000000000E+00 0.  1.
         11    1    3    3    0    0  0.98544692284E+01  0.10997133633E+02 -0.48494992745E+01  0.15542366467E+02  0.51100000000E-03 0. -1.
        -11    1    3    3    0    0  0.14166620777E+02 -0.35134219644E+02 -0.61942376067E+01  0.38385871281E+02  0.51100000000E-03 0.  1.
         12    1    3    3    0    0 -0.23768662679E+02  0.24252124514E+02  0.12190899216E+02  0.36079535649E+02  0.00000000000E+00 0. -1.
</event>
<event>
 7    1  0.3863655E-015  0.9000778E+02  0.7816164E-02  0.1186339E+00
        -11   -1    0    0    0    0  0.00000000000E+00  0.00000000000E+00  0.45593999997E+02  0.45594000000E+02  0.51100000000E-03 0.  1.
         11   -1    0    0    0    0 -0.00000000000E+00 -0.00000000000E+00 -0.45593999997E+02  0.45594000000E+02  0.51100000000E-03 0. -1.
    9900012    2    1    2    0    0  0.24934807770E+00 -0.94498428990E+00  0.66161978695E+00  0.90007783700E+02  0.90000045645E+02 0.  0.
        -12    1    1    2    0    0 -0.24934807770E+00  0.94498428990E+00 -0.66161978695E+00  0.11802162999E+01  0.00000000000E+00 0.  1.
         11    1    3    3    0    0 -0.39282645352E+01 -0.12319514387E+02  0.35948593597E-01  0.12930699499E+02  0.51100000000E-03 0. -1.
        -11    1    3    3    0    0 -0.24572796090E+02  0.10500181551E+02  0.27046263719E+02  0.38020737785E+02  0.51100000000E-03 0.  1.
         12    1    3    3    0    0  0.28750408702E+02  0.87434854546E+00 -0.26420592526E+02  0.39056346416E+02  0.00000000000E+00 0. -1.
</event>
<event>
 7    1  0.3863655E-015  0.9000773E+02  0.7816164E-02  0.1186339E+00
        -11   -1    0    0    0    0  0.00000000000E+00  0.00000000000E+00  0.45593999997E+02  0.45594000000E+02  0.51100000000E-03 0. -1.
         11   -1    0    0    0    0 -0.00000000000E+00 -0.00000000000E+00 -0.45593999997E+02  0.45594000000E+02  0.51100000000E-03 0.  1.
    9900012    2    1    2    0    0 -0.11669188859E+01 -0.65175715060E-01 -0.16462178573E+00  0.90007725501E+02  0.89999986678E+02 0.  0.
        -12    1    1    2    0    0  0.11669188859E+01  0.65175715060E-01  0.16462178573E+00  0.11802744988E+01  0.00000000000E+00 0.  1.
         11    1    3    3    0    0  0.97980176964E+01  0.66140721788E+01 -0.24378147467E+00  0.11823981192E+02  0.51100000000E-03 0. -1.
        -11    1    3    3    0    0 -0.30577076076E+02  0.25343990456E+02  0.60085769852E+01  0.40166882269E+02  0.51100000000E-03 0.  1.
         12    1    3    3    0    0  0.19612139493E+02 -0.32023238350E+02 -0.59294172962E+01  0.38016862040E+02  0.00000000000E+00 0. -1.
</event>
<event>
 7    1  0.3863655E-015  0.9000765E+02  0.7816164E-02  0.1186339E+00
        -11   -1    0    0    0    0  0.00000000000E+00  0.00000000000E+00  0.45593999997E+02  0.45594000000E+02  0.51100000000E-03 0.  1.
         11   -1    0    0    0    0 -0.00000000000E+00 -0.00000000000E+00 -0.45593999997E+02  0.45594000000E+02  0.51100000000E-03 0. -1.
    9900012    2    1    2    0    0  0.38206424116E+00  0.74337302218E+00 -0.83345079251E+00  0.90007653967E+02  0.89999914199E+02 0.  0.
        -12    1    1    2    0    0 -0.38206424116E+00 -0.74337302218E+00  0.83345079251E+00  0.11803460332E+01  0.00000000000E+00 0.  1.
         11    1    3    3    0    0  0.26283302805E+02  0.29519394181E+02  0.40127665942E+01  0.39727936457E+02  0.51100000000E-03 0. -1.
        -11    1    3    3    0    0  0.38040688353E+01 -0.49846957249E+01  0.79523219892E+01  0.10127070477E+02  0.51100000000E-03 0.  1.
        -12    1    3    3    0    0 -0.29705307399E+02 -0.23791325434E+02 -0.12798539376E+02  0.40152647032E+02  0.00000000000E+00 0.  1.
</event>
<event>
 7    1  0.3863655E-015  0.9000751E+02  0.7816164E-02  0.1186340E+00
        -11   -1    0    0    0    0  0.00000000000E+00  0.00000000000E+00  0.45593999997E+02  0.45594000000E+02  0.51100000000E-03 0.  1.
         11   -1    0    0    0    0 -0.00000000000E+00 -0.00000000000E+00 -0.45593999997E+02  0.45594000000E+02  0.51100000000E-03 0. -1.
    9900012    2    1    2    0    0 -0.85387447793E+00 -0.79663948064E+00 -0.17268494737E+00  0.90007510196E+02  0.89999768530E+02 0.  0.
        -12    1    1    2    0    0  0.85387447793E+00  0.79663948064E+00  0.17268494737E+00  0.11804898039E+01  0.00000000000E+00 0.  1.
         11    1    3    3    0    0 -0.36901995411E+02 -0.22038437019E+01 -0.79492472837E+01  0.37812758760E+02  0.51100000000E-03 0. -1.
        -11    1    3    3    0    0 -0.56260758753E+01 -0.71159494063E+01  0.11204070452E+01  0.91402832514E+01  0.51100000000E-03 0.  1.
        -12    1    3    3    0    0  0.41674196809E+02  0.85231536276E+01  0.66561552912E+01  0.43054468185E+02  0.00000000000E+00 0.  1.
</event>
<event>
 7    1  0.3863655E-015  0.9000776E+02  0.7816164E-02  0.1186339E+00
        -11   -1    0    0    0    0  0.00000000000E+00  0.00000000000E+00  0.45593999997E+02  0.45594000000E+02  0.51100000000E-03 0.  1.
         11   -1    0    0    0    0 -0.00000000000E+00 -0.00000000000E+00 -0.45593999997E+02  0.45594000000E+02  0.51100000000E-03 0. -1.
    9900012    2    1    2    0    0 -0.60210454115E+00  0.92612308479E+00  0.41562414476E+00  0.90007755417E+02  0.90000016988E+02 0.  0.
        -12    1    1    2    0    0  0.60210454115E+00 -0.92612308479E+00 -0.41562414476E+00  0.11802445833E+01  0.00000000000E+00 0.  1.
         11    1    3    3    0    0  0.11231597117E+02  0.26366415183E+02  0.26508637378E+02  0.39039012273E+02  0.51100000000E-03 0. -1.
        -11    1    3    3    0    0  0.72561927395E+01  0.34023136806E+01 -0.66911721503E+00  0.80421259355E+01  0.51100000000E-03 0.  1.
        -12    1    3    3    0    0 -0.19089894397E+02 -0.28842605778E+02 -0.25423896018E+02  0.42926617208E+02  0.00000000000E+00 0.  1.
</event>
<event>
 7    1  0.3863655E-015  0.9000765E+02  0.7816164E-02  0.1186339E+00
        -11   -1    0    0    0    0  0.00000000000E+00  0.00000000000E+00  0.45593999997E+02  0.45594000000E+02  0.51100000000E-03 0.  1.
         11   -1    0    0    0    0 -0.00000000000E+00 -0.00000000000E+00 -0.45593999997E+02  0.45594000000E+02  0.51100000000E-03 0. -1.
    9900012    2    1    2    0    0 -0.64430532683E+00 -0.54300703313E+00 -0.82658793820E+00  0.90007646828E+02  0.89999906966E+02 0.  0.
        -12    1    1    2    0    0  0.64430532683E+00  0.54300703313E+00  0.82658793820E+00  0.11803531725E+01  0.00000000000E+00 0.  1.
         11    1    3    3    0    0 -0.81147297859E+01  0.36027777004E+01 -0.46021844616E+01  0.10000447427E+02  0.51100000000E-03 0. -1.
        -11    1    3    3    0    0  0.27579087053E+02 -0.19435362345E+02 -0.24795059567E+02  0.41870446992E+02  0.51100000000E-03 0.  1.
         12    1    3    3    0    0 -0.20108662593E+02  0.15289577612E+02  0.28570656090E+02  0.38136752409E+02  0.00000000000E+00 0. -1.
</event>
<event>
 7    1  0.3863655E-015  0.9000764E+02  0.7816164E-02  0.1186339E+00
        -11   -1    0    0    0    0  0.00000000000E+00  0.00000000000E+00  0.45593999997E+02  0.45594000000E+02  0.51100000000E-03 0.  1.
         11   -1    0    0    0    0 -0.00000000000E+00 -0.00000000000E+00 -0.45593999997E+02  0.45594000000E+02  0.51100000000E-03 0. -1.
    9900012    2    1    2    0    0  0.76653070173E+00  0.79368611970E+00  0.41922193273E+00  0.90007638190E+02  0.89999898214E+02 0.  0.
        -12    1    1    2    0    0 -0.76653070173E+00 -0.79368611970E+00 -0.41922193273E+00  0.11803618099E+01  0.00000000000E+00 0.  1.
         11    1    3    3    0    0  0.25978052497E+01 -0.59193732787E+01  0.50188460151E+01  0.81839102947E+01  0.51100000000E-03 0. -1.
        -11    1    3    3    0    0 -0.85975785443E+01 -0.28721693166E+02  0.21844180330E+02  0.37094773617E+02  0.51100000000E-03 0.  1.
         12    1    3    3    0    0  0.67663039964E+01  0.35434752564E+02 -0.26443804412E+02  0.44728954279E+02  0.00000000000E+00 0. -1.
</event>
<event>
 7    1  0.3863655E-015  0.9000774E+02  0.7816164E-02  0.1186339E+00
        -11   -1    0    0    0    0  0.00000000000E+00  0.00000000000E+00  0.45593999997E+02  0.45594000000E+02  0.51100000000E-03 0. -1.
         11   -1    0    0    0    0 -0.00000000000E+00 -0.00000000000E+00 -0.45593999997E+02  0.45594000000E+02  0.51100000000E-03 0.  1.
    9900012    2    1    2    0    0 -0.27156967671E+00 -0.57454179539E+00  0.99457010741E+00  0.90007738138E+02  0.89999999482E+02 0.  0.
        -12    1    1    2    0    0  0.27156967671E+00  0.57454179539E+00 -0.99457010741E+00  0.11802618618E+01  0.00000000000E+00 0.  1.
         11    1    3    3    0    0  0.29512800841E+02  0.56919668967E+01 -0.13830704922E+02  0.33086134551E+02  0.51100000000E-03 0. -1.
        -11    1    3    3    0    0  0.84683063190E+01  0.72960685672E+01 -0.43998336341E+01  0.12012633546E+02  0.51100000000E-03 0.  1.
        -12    1    3    3    0    0 -0.38252676836E+02 -0.13562577259E+02  0.19225108663E+02  0.44908970041E+02  0.00000000000E+00 0.  1.
</event>
<event>
 7    1  0.3863655E-015  0.9000786E+02  0.7816164E-02  0.1186339E+00
        -11   -1    0    0    0    0  0.00000000000E+00  0.00000000000E+00  0.45593999997E+02  0.45594000000E+02  0.51100000000E-03 0.  1.
         11   -1    0    0    0    0 -0.00000000000E+00 -0.00000000000E+00 -0.45593999997E+02  0.45594000000E+02  0.51100000000E-03 0. -1.
    9900012    2    1    2    0    0  0.22172490537E+00 -0.75844581594E+00 -0.87654004149E+00  0.90007862536E+02  0.90000125521E+02 0.  0.
        -12    1    1    2    0    0 -0.22172490537E+00  0.75844581594E+00  0.87654004149E+00  0.11801374639E+01  0.00000000000E+00 0.  1.
         11    1    3    3    0    0  0.35929636434E+02 -0.11055757945E+02  0.35474045883E+01  0.37759139789E+02  0.51100000000E-03 0. -1.
        -11    1    3    3    0    0  0.54412486013E+01  0.63904994015E+01 -0.68640606586E+01  0.10842554954E+02  0.51100000000E-03 0.  1.
        -12    1    3    3    0    0 -0.41149160130E+02  0.39068127275E+01  0.24401160288E+01  0.41406167793E+02  0.00000000000E+00 0.  1.
</event>
<event>
 7    1  0.3863655E-015  0.9000772E+02  0.7816164E-02  0.1186339E+00
        -11   -1    0    0    0    0  0.00000000000E+00  0.00000000000E+00  0.45593999997E+02  0.45594000000E+02  0.51100000000E-03 0. -1.
         11   -1    0    0    0    0 -0.00000000000E+00 -0.00000000000E+00 -0.45593999997E+02  0.45594000000E+02  0.51100000000E-03 0.  1.
    9900012    2    1    2    0    0 -0.77092895516E+00 -0.86750997113E+00  0.21483782508E+00  0.90007720247E+02  0.89999981354E+02 0.  0.
        -12    1    1    2    0    0  0.77092895516E+00  0.86750997113E+00 -0.21483782508E+00  0.11802797529E+01  0.00000000000E+00 0.  1.
         11    1    3    3    0    0  0.24540510421E+02  0.30757288880E+02 -0.11340071206E+02  0.40949294087E+02  0.51100000000E-03 0. -1.
        -11    1    3    3    0    0  0.35016784550E+01 -0.55311371282E+01  0.75304304781E+01  0.99781067032E+01  0.51100000000E-03 0.  1.
        -12    1    3    3    0    0 -0.28813117831E+02 -0.26093661723E+02  0.40244785530E+01  0.39080319457E+02  0.00000000000E+00 0.  1.
</event>
<event>
 7    1  0.3863655E-015  0.9000773E+02  0.7816164E-02  0.1186339E+00
        -11   -1    0    0    0    0  0.00000000000E+00  0.00000000000E+00  0.45593999997E+02  0.45594000000E+02  0.51100000000E-03 0.  1.
         11   -1    0    0    0    0 -0.00000000000E+00 -0.00000000000E+00 -0.45593999997E+02  0.45594000000E+02  0.51100000000E-03 0. -1.
    9900012    2    1    2    0    0 -0.41166493362E+00 -0.83028445572E+00 -0.73089561929E+00  0.90007725159E+02  0.89999986331E+02 0.  0.
        -12    1    1    2    0    0  0.41166493362E+00  0.83028445572E+00  0.73089561929E+00  0.11802748414E+01  0.00000000000E+00 0.  1.
         11    1    3    3    0    0  0.38010278472E+00 -0.50002581678E+01  0.63649139252E+01  0.81030358143E+01  0.51100000000E-03 0. -1.
        -11    1    3    3    0    0  0.36611414535E+02 -0.35978120727E+01  0.12650018831E+02  0.38901965280E+02  0.51100000000E-03 0.  1.
         12    1    3    3    0    0 -0.37403182254E+02  0.77677857848E+01 -0.19745828375E+02  0.43002724064E+02  0.00000000000E+00 0. -1.
</event>
<event>
 7    1  0.3863655E-015  0.9000769E+02  0.7816164E-02  0.1186339E+00
        -11   -1    0    0    0    0  0.00000000000E+00  0.00000000000E+00  0.45593999997E+02  0.45594000000E+02  0.51100000000E-03 0.  1.
         11   -1    0    0    0    0 -0.00000000000E+00 -0.00000000000E+00 -0.45593999997E+02  0.45594000000E+02  0.51100000000E-03 0. -1.
    9900012    2    1    2    0    0 -0.40755243059E+00 -0.43335208175E+00 -0.10194273247E+01  0.90007692802E+02  0.89999953547E+02 0.  0.
        -12    1    1    2    0    0  0.40755243059E+00  0.43335208175E+00  0.10194273247E+01  0.11803071976E+01  0.00000000000E+00 0.  1.
         11    1    3    3    0    0  0.10658366960E+02 -0.48807983416E+01  0.98083906014E+01  0.15284878317E+02  0.51100000000E-03 0. -1.
        -11    1    3    3    0    0  0.12330809513E+01  0.23973028511E+02  0.23347372343E+02  0.33486211793E+02  0.51100000000E-03 0.  1.
         12    1    3    3    0    0 -0.12299000342E+02 -0.19525582252E+02 -0.34175190269E+02  0.41236602693E+02  0.00000000000E+00 0. -1.
</event>
<event>
 7    1  0.3863655E-015  0.9000774E+02  0.7816164E-02  0.1186339E+00
        -11   -1    0    0    0    0  0.00000000000E+00  0.00000000000E+00  0.45593999997E+02  0.45594000000E+02  0.51100000000E-03 0. -1.
         11   -1    0    0    0    0 -0.00000000000E+00 -0.00000000000E+00 -0.45593999997E+02  0.45594000000E+02  0.51100000000E-03 0.  1.
    9900012    2    1    2    0    0 -0.13798996674E+00  0.40930307517E+00  0.10983782918E+01  0.90007743625E+02  0.90000005041E+02 0.  0.
        -12    1    1    2    0    0  0.13798996674E+00 -0.40930307517E+00 -0.10983782918E+01  0.11802563748E+01  0.00000000000E+00 0.  1.
         11    1    3    3    0    0 -0.33752261011E+02 -0.90712651736E+00  0.15654166703E+02  0.37216809876E+02  0.51100000000E-03 0. -1.
        -11    1    3    3    0    0 -0.80366967786E+01 -0.25241998233E+01  0.22976947461E+00  0.84269136777E+01  0.51100000000E-03 0.  1.
        -12    1    3    3    0    0  0.41650967823E+02  0.38406294158E+01 -0.14785557886E+02  0.44364020072E+02  0.00000000000E+00 0.  1.
</event>
<event>
 7    1  0.3863655E-015  0.9000775E+02  0.7816164E-02  0.1186339E+00
        -11   -1    0    0    0    0  0.00000000000E+00  0.00000000000E+00  0.45593999997E+02  0.45594000000E+02  0.51100000000E-03 0. -1.
         11   -1    0    0    0    0 -0.00000000000E+00 -0.00000000000E+00 -0.45593999997E+02  0.45594000000E+02  0.51100000000E-03 0.  1.
    9900012    2    1    2    0    0  0.20425129123E+00  0.11624339308E+01  0.51870153008E-02  0.90007746579E+02  0.90000008034E+02 0.  0.
        -12    1    1    2    0    0 -0.20425129123E+00 -0.11624339308E+01 -0.51870153008E-02  0.11802534213E+01  0.00000000000E+00 0.  1.
         11    1    3    3    0    0  0.25229407585E+02 -0.12250509068E+02  0.24357157998E+02  0.37146589689E+02  0.51100000000E-03 0. -1.
        -11    1    3    3    0    0  0.67882285747E+01 -0.64208771795E+01 -0.36173247115E+01  0.10019618220E+02  0.51100000000E-03 0.  1.
        -12    1    3    3    0    0 -0.31813384868E+02  0.19833820178E+02 -0.20734646271E+02  0.42841538670E+02  0.00000000000E+00 0.  1.
</event>
<event>
 7    1  0.3863655E-015  0.9000777E+02  0.7816164E-02  0.1186339E+00
        -11   -1    0    0    0    0  0.00000000000E+00  0.00000000000E+00  0.45593999997E+02  0.45594000000E+02  0.51100000000E-03 0. -1.
         11   -1    0    0    0    0 -0.00000000000E+00 -0.00000000000E+00 -0.45593999997E+02  0.45594000000E+02  0.51100000000E-03 0.  1.
    9900012    2    1    2    0    0  0.93199649399E+00 -0.33464936105E+00  0.64213193446E+00  0.90007770751E+02  0.90000032525E+02 0.  0.
        -12    1    1    2    0    0 -0.93199649399E+00  0.33464936105E+00 -0.64213193446E+00  0.11802292493E+01  0.00000000000E+00 0.  1.
         11    1    3    3    0    0  0.36478861945E+02  0.19600132799E+02  0.13059408849E+01  0.41431606973E+02  0.51100000000E-03 0. -1.
        -11    1    3    3    0    0 -0.68084602113E+01  0.64223941321E+01  0.16874691692E+01  0.95105115160E+01  0.51100000000E-03 0.  1.
        -12    1    3    3    0    0 -0.28738405239E+02 -0.26357176293E+02 -0.23512781197E+01  0.39065652261E+02  0.00000000000E+00 0.  1.
</event>
<event>
 7    1  0.3863655E-015  0.9000778E+02  0.7816164E-02  0.1186339E+00
        -11   -1    0    0    0    0  0.00000000000E+00  0.00000000000E+00  0.45593999997E+02  0.45594000000E+02  0.51100000000E-03 0.  1.
         11   -1    0    0    0    0 -0.00000000000E+00 -0.00000000000E+00 -0.45593999997E+02  0.45594000000E+02  0.51100000000E-03 0. -1.
    9900012    2    1    2    0    0 -0.17515671255E+00  0.84963225377E+00 -0.80022537292E+00  0.90007781593E+02  0.90000043510E+02 0.  0.
        -12    1    1    2    0    0  0.17515671255E+00 -0.84963225377E+00  0.80022537292E+00  0.11802184069E+01  0.00000000000E+00 0.  1.
         11    1    3    3    0    0 -0.60267192144E+01  0.40420971548E+02 -0.10635931113E+02  0.42229128765E+02  0.51100000000E-03 0. -1.
        -11    1    3    3    0    0 -0.63552140291E+01 -0.34953378674E+01  0.61611060394E+01  0.95165834233E+01  0.51100000000E-03 0.  1.
        -12    1    3    3    0    0  0.12206776531E+02 -0.36076001426E+02  0.36745997006E+01  0.38262069405E+02  0.00000000000E+00 0.  1.
</event>
<event>
 7    1  0.3863655E-015  0.9000775E+02  0.7816164E-02  0.1186339E+00
        -11   -1    0    0    0    0  0.00000000000E+00  0.00000000000E+00  0.45593999997E+02  0.45594000000E+02  0.51100000000E-03 0.  1.
         11   -1    0    0    0    0 -0.00000000000E+00 -0.00000000000E+00 -0.45593999997E+02  0.45594000000E+02  0.51100000000E-03 0. -1.
    9900012    2    1    2    0    0 -0.69391084764E+00 -0.11776679816E+00 -0.94742318326E+00  0.90007749191E+02  0.90000010681E+02 0.  0.
        -12    1    1    2    0    0  0.69391084764E+00  0.11776679816E+00  0.94742318326E+00  0.11802508087E+01  0.00000000000E+00 0.  1.
         11    1    3    3    0    0 -0.80226247783E+01 -0.35505566343E+01  0.32993598720E+01  0.93730857551E+01  0.51100000000E-03 0. -1.
        -11    1    3    3    0    0 -0.27937445395E+02 -0.33880830387E+01  0.22352050208E+02  0.35938754996E+02  0.51100000000E-03 0.  1.
         12    1    3    3    0    0  0.35266159325E+02  0.68208728748E+01 -0.26598833264E+02  0.44695908441E+02  0.00000000000E+00 0. -1.
</event>
<event>
 7    1  0.3863655E-015  0.9000896E+02  0.7816164E-02  0.1186337E+00
        -11   -1    0    0    0    0  0.00000000000E+00  0.00000000000E+00  0.45593999997E+02  0.45594000000E+02  0.51100000000E-03 0. -1.
         11   -1    0    0    0    0 -0.00000000000E+00 -0.00000000000E+00 -0.45593999997E+02  0.45594000000E+02  0.51100000000E-03 0.  1.
    9900012    2    1    2    0    0  0.19922431747E+00  0.11017884690E+01 -0.36947087331E+00  0.90008959337E+02  0.90001236792E+02 0.  0.
        -12    1    1    2    0    0 -0.19922431747E+00 -0.11017884690E+01  0.36947087331E+00  0.11790406632E+01  0.00000000000E+00 0.  1.
         11    1    3    3    0    0  0.33035707789E+01 -0.10299632663E+02  0.17646721812E+02  0.20697893705E+02  0.51100000000E-03 0. -1.
        -11    1    3    3    0    0  0.21174508486E+02 -0.84521917388E+00  0.15423967061E+02  0.26210169119E+02  0.51100000000E-03 0.  1.
         12    1    3    3    0    0 -0.24278854947E+02  0.12246640306E+02 -0.33440159746E+02  0.43100896513E+02  0.00000000000E+00 0. -1.
</event>
<event>
 7    1  0.3863655E-015  0.9000766E+02  0.7816164E-02  0.1186339E+00
        -11   -1    0    0    0    0  0.00000000000E+00  0.00000000000E+00  0.45593999997E+02  0.45594000000E+02  0.51100000000E-03 0. -1.
         11   -1    0    0    0    0 -0.00000000000E+00 -0.00000000000E+00 -0.45593999997E+02  0.45594000000E+02  0.51100000000E-03 0.  1.
    9900012    2    1    2    0    0 -0.49986966053E+00 -0.69074567856E+00  0.81621485594E+00  0.90007658540E+02  0.89999918833E+02 0.  0.
        -12    1    1    2    0    0  0.49986966053E+00  0.69074567856E+00 -0.81621485594E+00  0.11803414595E+01  0.00000000000E+00 0.  1.
         11    1    3    3    0    0 -0.33654959729E+02  0.73604566637E+01  0.12581635231E+02  0.36676016441E+02  0.51100000000E-03 0. -1.
        -11    1    3    3    0    0 -0.89600206593E+01 -0.35991906665E+00 -0.40107867840E+01  0.98233356269E+01  0.51100000000E-03 0.  1.
        -12    1    3    3    0    0  0.42115110727E+02 -0.76912832756E+01 -0.77546335907E+01  0.43508306473E+02  0.00000000000E+00 0.  1.
</event>
<event>
 7    1  0.3863655E-015  0.9000782E+02  0.7816164E-02  0.1186339E+00
        -11   -1    0    0    0    0  0.00000000000E+00  0.00000000000E+00  0.45593999997E+02  0.45594000000E+02  0.51100000000E-03 0. -1.
         11   -1    0    0    0    0 -0.00000000000E+00 -0.00000000000E+00 -0.45593999997E+02  0.45594000000E+02  0.51100000000E-03 0.  1.
    9900012    2    1    2    0    0 -0.11702530317E+01  0.15117105304E+00 -0.21985336351E-01  0.90007818573E+02  0.90000080978E+02 0.  0.
        -12    1    1    2    0    0  0.11702530317E+01 -0.15117105304E+00  0.21985336351E-01  0.11801814270E+01  0.00000000000E+00 0.  1.
         11    1    3    3    0    0 -0.46715497868E+01 -0.61384778718E+01  0.51578933954E+01  0.92794478571E+01  0.51100000000E-03 0. -1.
        -11    1    3    3    0    0 -0.27813705196E+02  0.22488058118E+01  0.24693346355E+02  0.37261517398E+02  0.51100000000E-03 0.  1.
         12    1    3    3    0    0  0.31315001951E+02  0.40408431130E+01 -0.29873225087E+02  0.43466853318E+02  0.00000000000E+00 0. -1.
</event>
<event>
 7    1  0.3863655E-015  0.9000774E+02  0.7816164E-02  0.1186339E+00
        -11   -1    0    0    0    0  0.00000000000E+00  0.00000000000E+00  0.45593999997E+02  0.45594000000E+02  0.51100000000E-03 0.  1.
         11   -1    0    0    0    0 -0.00000000000E+00 -0.00000000000E+00 -0.45593999997E+02  0.45594000000E+02  0.51100000000E-03 0. -1.
    9900012    2    1    2    0    0  0.19213696202E+00 -0.58173590322E+00 -0.10087971971E+01  0.90007743647E+02  0.90000005063E+02 0.  0.
        -12    1    1    2    0    0 -0.19213696202E+00  0.58173590322E+00  0.10087971971E+01  0.11802563527E+01  0.00000000000E+00 0.  1.
         11    1    3    3    0    0 -0.56288433993E+01  0.25509729933E+02 -0.26208945698E+02  0.37004581259E+02  0.51100000000E-03 0. -1.
        -11    1    3    3    0    0 -0.75872471610E+01  0.52145335822E+01 -0.19958748590E+01  0.94202545972E+01  0.51100000000E-03 0.  1.
        -12    1    3    3    0    0  0.13408227522E+02 -0.31305999419E+02  0.27196023360E+02  0.43582907791E+02  0.00000000000E+00 0.  1.
</event>
<event>
 7    1  0.3863655E-015  0.9000781E+02  0.7816164E-02  0.1186339E+00
        -11   -1    0    0    0    0  0.00000000000E+00  0.00000000000E+00  0.45593999997E+02  0.45594000000E+02  0.51100000000E-03 0.  1.
         11   -1    0    0    0    0 -0.00000000000E+00 -0.00000000000E+00 -0.45593999997E+02  0.45594000000E+02  0.51100000000E-03 0. -1.
    9900012    2    1    2    0    0 -0.97516228101E+00 -0.65296840554E+00 -0.12465591843E+00  0.90007810053E+02  0.90000072346E+02 0.  0.
        -12    1    1    2    0    0  0.97516228101E+00  0.65296840554E+00  0.12465591843E+00  0.11801899470E+01  0.00000000000E+00 0.  1.
         11    1    3    3    0    0  0.11586314444E+02 -0.22967358394E+02  0.32531241905E+02  0.41473171257E+02  0.51100000000E-03 0. -1.
        -11    1    3    3    0    0 -0.48565474626E+01  0.75303904671E+01  0.27725198634E+01  0.93797494901E+01  0.51100000000E-03 0.  1.
        -12    1    3    3    0    0 -0.77049292626E+01  0.14783999522E+02 -0.35428417686E+02  0.39154889306E+02  0.00000000000E+00 0.  1.
</event>
<event>
 7    1  0.3863655E-015  0.9000773E+02  0.7816164E-02  0.1186339E+00
        -11   -1    0    0    0    0  0.00000000000E+00  0.00000000000E+00  0.45593999997E+02  0.45594000000E+02  0.51100000000E-03 0.  1.
         11   -1    0    0    0    0 -0.00000000000E+00 -0.00000000000E+00 -0.45593999997E+02  0.45594000000E+02  0.51100000000E-03 0. -1.
    9900012    2    1    2    0    0 -0.25491184251E+00  0.40312037953E+00 -0.10796098753E+01  0.90007727332E+02  0.89999988533E+02 0.  0.
        -12    1    1    2    0    0  0.25491184251E+00 -0.40312037953E+00  0.10796098753E+01  0.11802726680E+01  0.00000000000E+00 0.  1.
         11    1    3    3    0    0  0.84868749783E+01  0.30389365457E+02 -0.20336233052E+02  0.37538020123E+02  0.51100000000E-03 0. -1.
        -11    1    3    3    0    0 -0.39534873516E+01  0.87423240298E+01  0.56913669841E+01  0.11155713787E+02  0.51100000000E-03 0.  1.
        -12    1    3    3    0    0 -0.47882994693E+01 -0.38728569107E+02  0.13565256193E+02  0.41313993422E+02  0.00000000000E+00 0.  1.
</event>
<event>
 7    1  0.3863655E-015  0.9000790E+02  0.7816164E-02  0.1186339E+00
        -11   -1    0    0    0    0  0.00000000000E+00  0.00000000000E+00  0.45593999997E+02  0.45594000000E+02  0.51100000000E-03 0. -1.
         11   -1    0    0    0    0 -0.00000000000E+00 -0.00000000000E+00 -0.45593999997E+02  0.45594000000E+02  0.51100000000E-03 0.  1.
    9900012    2    1    2    0    0  0.49877184532E+00  0.87286000404E+00  0.61804184820E+00  0.90007900993E+02  0.90000164486E+02 0.  0.
        -12    1    1    2    0    0 -0.49877184532E+00 -0.87286000404E+00 -0.61804184820E+00  0.11800990071E+01  0.00000000000E+00 0.  1.
         11    1    3    3    0    0 -0.36945691455E+01  0.61777178788E+01 -0.10062957878E+02  0.12372435528E+02  0.51100000000E-03 0. -1.
        -11    1    3    3    0    0 -0.12331782480E+02  0.32230150166E+02  0.12183323443E+02  0.36596295020E+02  0.51100000000E-03 0.  1.
         12    1    3    3    0    0  0.16525123470E+02 -0.37535008040E+02 -0.15023237161E+01  0.41039170445E+02  0.00000000000E+00 0. -1.
</event>
<event>
 7    1  0.3863655E-015  0.9000773E+02  0.7816164E-02  0.1186339E+00
        -11   -1    0    0    0    0  0.00000000000E+00  0.00000000000E+00  0.45593999997E+02  0.45594000000E+02  0.51100000000E-03 0.  1.
         11   -1    0    0    0    0 -0.00000000000E+00 -0.00000000000E+00 -0.45593999997E+02  0.45594000000E+02  0.51100000000E-03 0. -1.
    9900012    2    1    2    0    0  0.18416029673E+00  0.11740301481E+00 -0.11598843525E+01  0.90007732999E+02  0.89999994275E+02 0.  0.
        -12    1    1    2    0    0 -0.18416029673E+00 -0.11740301481E+00  0.11598843525E+01  0.11802670011E+01  0.00000000000E+00 0.  1.
         11    1    3    3    0    0  0.56650264838E+01  0.25677861173E+01 -0.37507247320E+01  0.72631939863E+01  0.51100000000E-03 0. -1.
        -11    1    3    3    0    0  0.10727630531E+02 -0.31155049053E+02 -0.23692809475E+02  0.40584089978E+02  0.51100000000E-03 0.  1.
         12    1    3    3    0    0 -0.16208496718E+02  0.28704665950E+02  0.26283649854E+02  0.42160449035E+02  0.00000000000E+00 0. -1.
</event>
<event>
 7    1  0.3863655E-015  0.9000776E+02  0.7816164E-02  0.1186339E+00
        -11   -1    0    0    0    0  0.00000000000E+00  0.00000000000E+00  0.45593999997E+02  0.45594000000E+02  0.51100000000E-03 0.  1.
         11   -1    0    0    0    0 -0.00000000000E+00 -0.00000000000E+00 -0.45593999997E+02  0.45594000000E+02  0.51100000000E-03 0. -1.
    9900012    2    1    2    0    0  0.48160097157E+00 -0.99662999873E+00 -0.40957353915E+00  0.90007762171E+02  0.90000023831E+02 0.  0.
        -12    1    1    2    0    0 -0.48160097157E+00  0.99662999873E+00  0.40957353915E+00  0.11802378295E+01  0.00000000000E+00 0.  1.
         11    1    3    3    0    0  0.33602671200E+01 -0.36842268910E+02  0.19068609991E+02  0.41620380354E+02  0.51100000000E-03 0. -1.
        -11    1    3    3    0    0  0.78860834674E+01  0.11697005316E+01 -0.39612634956E+01  0.89022536771E+01  0.51100000000E-03 0.  1.
        -12    1    3    3    0    0 -0.10764749616E+02  0.34675938380E+02 -0.15516920034E+02  0.39485128139E+02  0.00000000000E+00 0.  1.
</event>
<event>
 7    1  0.3863655E-015  0.9000769E+02  0.7816164E-02  0.1186339E+00
        -11   -1    0    0    0    0  0.00000000000E+00  0.00000000000E+00  0.45593999997E+02  0.45594000000E+02  0.51100000000E-03 0.  1.
         11   -1    0    0    0    0 -0.00000000000E+00 -0.00000000000E+00 -0.45593999997E+02  0.45594000000E+02  0.51100000000E-03 0. -1.
    9900012    2    1    2    0    0  0.25592351491E+00  0.34855457038E+00 -0.10982478350E+01  0.90007688414E+02  0.89999949101E+02 0.  0.
        -12    1    1    2    0    0 -0.25592351491E+00 -0.34855457038E+00  0.10982478350E+01  0.11803115865E+01  0.00000000000E+00 0.  1.
         11    1    3    3    0    0 -0.66629217907E+01 -0.10774104828E+02 -0.83047927750E+01  0.15147456715E+02  0.51100000000E-03 0. -1.
        -11    1    3    3    0    0 -0.17727242307E+02 -0.12805364412E+02  0.27366294396E+02  0.35030651532E+02  0.51100000000E-03 0.  1.
         12    1    3    3    0    0  0.24646087613E+02  0.23928023811E+02 -0.20159749456E+02  0.39829580166E+02  0.00000000000E+00 0. -1.
</event>
<event>
 7    1  0.3863655E-015  0.9000834E+02  0.7816164E-02  0.1186338E+00
        -11   -1    0    0    0    0  0.00000000000E+00  0.00000000000E+00  0.45593999997E+02  0.45594000000E+02  0.51100000000E-03 0.  1.
         11   -1    0    0    0    0 -0.00000000000E+00 -0.00000000000E+00 -0.45593999997E+02  0.45594000000E+02  0.51100000000E-03 0. -1.
    9900012    2    1    2    0    0  0.83953740546E+00 -0.71908134738E+00  0.41194115657E+00  0.90008340492E+02  0.90000609784E+02 0.  0.
        -12    1    1    2    0    0 -0.83953740546E+00  0.71908134738E+00 -0.41194115657E+00  0.11796595084E+01  0.00000000000E+00 0.  1.
         11    1    3    3    0    0 -0.63741733105E+01 -0.58399660903E+01  0.40019263417E+01  0.95263163938E+01  0.51100000000E-03 0. -1.
        -11    1    3    3    0    0 -0.36373384056E+02  0.52748018186E+01 -0.32000739961E+01  0.36892913625E+02  0.51100000000E-03 0.  1.
         12    1    3    3    0    0  0.43587094772E+02 -0.15391707565E+00 -0.38991118901E+00  0.43589110473E+02  0.00000000000E+00 0. -1.
</event>
<event>
 7    1  0.3863655E-015  0.9000784E+02  0.7816164E-02  0.1186339E+00
        -11   -1    0    0    0    0  0.00000000000E+00  0.00000000000E+00  0.45593999997E+02  0.45594000000E+02  0.51100000000E-03 0.  1.
         11   -1    0    0    0    0 -0.00000000000E+00 -0.00000000000E+00 -0.45593999997E+02  0.45594000000E+02  0.51100000000E-03 0. -1.
    9900012    2    1    2    0    0 -0.88675664659E+00 -0.41608042143E+00 -0.65827640563E+00  0.90007835565E+02  0.90000098194E+02 0.  0.
        -12    1    1    2    0    0  0.88675664659E+00  0.41608042143E+00  0.65827640563E+00  0.11801644350E+01  0.00000000000E+00 0.  1.
         11    1    3    3    0    0  0.64110868906E+01  0.15256320447E+02  0.91210236498E+01  0.18895777872E+02  0.51100000000E-03 0. -1.
        -11    1    3    3    0    0 -0.16218000875E+02  0.19457157477E+02  0.12830067559E+02  0.28393928282E+02  0.51100000000E-03 0.  1.
         12    1    3    3    0    0  0.89201573378E+01 -0.35129558345E+02 -0.22609367614E+02  0.42718129411E+02  0.00000000000E+00 0. -1.
</event>
<event>
 7    1  0.3863655E-015  0.9000768E+02  0.7816164E-02  0.1186339E+00
        -11   -1    0    0    0    0  0.00000000000E+00  0.00000000000E+00  0.45593999997E+02  0.45594000000E+02  0.51100000000E-03 0. -1.
         11   -1    0    0    0    0 -0.00000000000E+00 -0.00000000000E+00 -0.45593999997E+02  0.45594000000E+02  0.51100000000E-03 0.  1.
    9900012    2    1    2    0    0  0.23387535765E+00  0.48790401390E+00  0.10490085308E+01  0.90007675084E+02  0.89999935595E+02 0.  0.
        -12    1    1    2    0    0 -0.23387535765E+00 -0.48790401390E+00 -0.10490085308E+01  0.11803249161E+01  0.00000000000E+00 0.  1.
         11    1    3    3    0    0  0.59851213233E+00  0.79342644088E+01  0.59137880941E+01  0.99138114953E+01  0.51100000000E-03 0. -1.
        -11    1    3    3    0    0  0.51724403542E+01  0.35162356490E+02  0.53188518951E+01  0.35936550181E+02  0.51100000000E-03 0.  1.
         12    1    3    3    0    0 -0.55370771289E+01 -0.42608716885E+02 -0.10183631458E+02  0.44157313408E+02  0.00000000000E+00 0. -1.
</event>
<event>
 7    1  0.3863655E-015  0.9000769E+02  0.7816164E-02  0.1186339E+00
        -11   -1    0    0    0    0  0.00000000000E+00  0.00000000000E+00  0.45593999997E+02  0.45594000000E+02  0.51100000000E-03 0. -1.
         11   -1    0    0    0    0 -0.00000000000E+00 -0.00000000000E+00 -0.45593999997E+02  0.45594000000E+02  0.51100000000E-03 0.  1.
    9900012    2    1    2    0    0  0.45628846991E+00 -0.55583949673E+00  0.93593366122E+00  0.90007691340E+02  0.89999952066E+02 0.  0.
        -12    1    1    2    0    0 -0.45628846991E+00  0.55583949673E+00 -0.93593366122E+00  0.11803086597E+01  0.00000000000E+00 0.  1.
         11    1    3    3    0    0 -0.34493137358E+02  0.19958198700E+02  0.31150936881E+00  0.39852267922E+02  0.51100000000E-03 0. -1.
        -11    1    3    3    0    0 -0.46916380749E+01 -0.64987563234E+01 -0.10054362935E+01  0.80781312181E+01  0.51100000000E-03 0.  1.
        -12    1    3    3    0    0  0.39641063903E+02 -0.14015281874E+02  0.16298605859E+01  0.42077292200E+02  0.00000000000E+00 0.  1.
</event>
<event>
 8    1  0.3863655E-015  0.9000780E+02  0.7816164E-02  0.1186339E+00
        -11   -1    0    0    0    0  0.00000000000E+00  0.00000000000E+00  0.45593999997E+02  0.45594000000E+02  0.51100000000E-03 0.  1.
         11   -1    0    0    0    0 -0.00000000000E+00 -0.00000000000E+00 -0.45593999997E+02  0.45594000000E+02  0.51100000000E-03 0. -1.
    9900012    2    1    2    0    0 -0.10460691210E+01  0.49656591343E+00 -0.22810056788E+00  0.90007801635E+02  0.90000063816E+02 0.  0.
         23    2    3    3    0    0 -0.89448286116E+01 -0.22744829554E+02  0.11463192345E+02  0.62818848092E+02  0.56722708561E+02 0.  0.
        -12    1    1    2    0    0  0.10460691210E+01 -0.49656591343E+00  0.22810056788E+00  0.11801983652E+01  0.00000000000E+00 0.  1.
         11    1    4    4    0    0  0.10431419639E+02 -0.18436869686E+01 -0.18592544403E+02  0.21398514083E+02  0.51100000000E-03 0. -1.
        -11    1    4    4    0    0 -0.19376248251E+02 -0.20901142586E+02  0.30055736748E+02  0.41420334009E+02  0.51100000000E-03 0.  1.
         12    1    3    3    0    0  0.78987594907E+01  0.23241395468E+02 -0.11691292913E+02  0.27188953543E+02  0.00000000000E+00 0. -1.
</event>
<event>
 7    1  0.3863655E-015  0.9000728E+02  0.7816164E-02  0.1186340E+00
        -11   -1    0    0    0    0  0.00000000000E+00  0.00000000000E+00  0.45593999997E+02  0.45594000000E+02  0.51100000000E-03 0.  1.
         11   -1    0    0    0    0 -0.00000000000E+00 -0.00000000000E+00 -0.45593999997E+02  0.45594000000E+02  0.51100000000E-03 0. -1.
    9900012    2    1    2    0    0 -0.92387788586E+00 -0.64950002229E+00  0.34452001827E+00  0.90007282138E+02  0.89999537461E+02 0.  0.
        -12    1    1    2    0    0  0.92387788586E+00  0.64950002229E+00 -0.34452001827E+00  0.11807178621E+01  0.00000000000E+00 0.  1.
         11    1    3    3    0    0 -0.16954987064E+01 -0.13841298126E+01  0.97046878912E+01  0.99484420151E+01  0.51100000000E-03 0. -1.
        -11    1    3    3    0    0 -0.33859597559E+00 -0.16811928886E+02  0.31427461809E+02  0.35643245589E+02  0.51100000000E-03 0.  1.
         12    1    3    3    0    0  0.11102167961E+01  0.17546558677E+02 -0.40787629682E+02  0.44415594534E+02  0.00000000000E+00 0. -1.
</event>
<event>
 8    1  0.3863655E-015  0.9000771E+02  0.7816164E-02  0.1186339E+00
        -11   -1    0    0    0    0  0.00000000000E+00  0.00000000000E+00  0.45593999997E+02  0.45594000000E+02  0.51100000000E-03 0. -1.
         11   -1    0    0    0    0 -0.00000000000E+00 -0.00000000000E+00 -0.45593999997E+02  0.45594000000E+02  0.51100000000E-03 0.  1.
    9900012    2    1    2    0    0 -0.30256159931E+00  0.71682940192E+00  0.88751719855E+00  0.90007714149E+02  0.89999975176E+02 0.  0.
         23    2    3    3    0    0  0.45817993616E+00  0.27097544409E+02  0.90020952568E+01  0.62396715814E+02  0.55478154111E+02 0.  0.
        -12    1    1    2    0    0  0.30256159931E+00 -0.71682940192E+00 -0.88751719855E+00  0.11802858512E+01  0.00000000000E+00 0.  1.
         11    1    4    4    0    0  0.23605093310E+02 -0.29769973370E+01  0.36520015764E+01  0.24070730340E+02  0.51100000000E-03 0. -1.
        -11    1    4    4    0    0 -0.23146913374E+02  0.30074541746E+02  0.53500936804E+01  0.38325985475E+02  0.51100000000E-03 0.  1.
         12    1    3    3    0    0 -0.76074153547E+00 -0.26380715007E+02 -0.81145780583E+01  0.27610998335E+02  0.00000000000E+00 0. -1.
</event>
<event>
 7    1  0.3863655E-015  0.9000779E+02  0.7816164E-02  0.1186339E+00
        -11   -1    0    0    0    0  0.00000000000E+00  0.00000000000E+00  0.45593999997E+02  0.45594000000E+02  0.51100000000E-03 0. -1.
         11   -1    0    0    0    0 -0.00000000000E+00 -0.00000000000E+00 -0.45593999997E+02  0.45594000000E+02  0.51100000000E-03 0.  1.
    9900012    2    1    2    0    0 -0.81620395035E+00 -0.40509526675E+00  0.75007296604E+00  0.90007787935E+02  0.90000049936E+02 0.  0.
        -12    1    1    2    0    0  0.81620395035E+00  0.40509526675E+00 -0.75007296604E+00  0.11802120649E+01  0.00000000000E+00 0.  1.
         11    1    3    3    0    0 -0.61395589768E+01 -0.14367640532E+02 -0.33900956823E+02  0.37328248722E+02  0.51100000000E-03 0. -1.
        -11    1    3    3    0    0 -0.84992133264E+01  0.79823076324E+01 -0.30748118694E+01  0.12058537664E+02  0.51100000000E-03 0.  1.
        -12    1    3    3    0    0  0.13822568353E+02  0.59802376328E+01  0.37725841658E+02  0.40621001549E+02  0.00000000000E+00 0.  1.
</event>
<event>
 7    1  0.3863655E-015  0.9000785E+02  0.7816164E-02  0.1186339E+00
        -11   -1    0    0    0    0  0.00000000000E+00  0.00000000000E+00  0.45593999997E+02  0.45594000000E+02  0.51100000000E-03 0.  1.
         11   -1    0    0    0    0 -0.00000000000E+00 -0.00000000000E+00 -0.45593999997E+02  0.45594000000E+02  0.51100000000E-03 0. -1.
    9900012    2    1    2    0    0 -0.72663774539E+00 -0.70862275958E+00 -0.60216040879E+00  0.90007853489E+02  0.90000116355E+02 0.  0.
        -12    1    1    2    0    0  0.72663774539E+00  0.70862275958E+00  0.60216040879E+00  0.11801465105E+01  0.00000000000E+00 0.  1.
         11    1    3    3    0    0 -0.70247807322E+01  0.84642359098E+01 -0.32170294943E+01  0.11460371412E+02  0.51100000000E-03 0. -1.
        -11    1    3    3    0    0 -0.69509413964E+01 -0.42247626702E+02 -0.83543641285E-01  0.42815704223E+02  0.51100000000E-03 0.  1.
         12    1    3    3    0    0  0.13249084383E+02  0.33074768033E+02  0.26984127268E+01  0.35731777855E+02  0.00000000000E+00 0. -1.
</event>
<event>
 7    1  0.3863655E-015  0.9000771E+02  0.7816164E-02  0.1186339E+00
        -11   -1    0    0    0    0  0.00000000000E+00  0.00000000000E+00  0.45593999997E+02  0.45594000000E+02  0.51100000000E-03 0.  1.
         11   -1    0    0    0    0 -0.00000000000E+00 -0.00000000000E+00 -0.45593999997E+02  0.45594000000E+02  0.51100000000E-03 0. -1.
    9900012    2    1    2    0    0 -0.89241497499E+00 -0.39254964550E+00 -0.66526236987E+00  0.90007714555E+02  0.89999975587E+02 0.  0.
        -12    1    1    2    0    0  0.89241497499E+00  0.39254964550E+00  0.66526236987E+00  0.11802854454E+01  0.00000000000E+00 0.  1.
         11    1    3    3    0    0 -0.13117312787E+00 -0.22895785159E+02 -0.31092578878E+02  0.38613244437E+02  0.51100000000E-03 0. -1.
        -11    1    3    3    0    0  0.61608280372E+01  0.40332966688E+01 -0.63097050507E+01  0.96971986785E+01  0.51100000000E-03 0.  1.
        -12    1    3    3    0    0 -0.69220698843E+01  0.18469938845E+02  0.36737021559E+02  0.41697271439E+02  0.00000000000E+00 0.  1.
</event>
<event>
 7    1  0.3863655E-015  0.9000776E+02  0.7816164E-02  0.1186339E+00
        -11   -1    0    0    0    0  0.00000000000E+00  0.00000000000E+00  0.45593999997E+02  0.45594000000E+02  0.51100000000E-03 0.  1.
         11   -1    0    0    0    0 -0.00000000000E+00 -0.00000000000E+00 -0.45593999997E+02  0.45594000000E+02  0.51100000000E-03 0. -1.
    9900012    2    1    2    0    0  0.10272458531E+01  0.29802841895E+00 -0.49889939567E+00  0.90007764605E+02  0.90000026297E+02 0.  0.
        -12    1    1    2    0    0 -0.10272458531E+01 -0.29802841895E+00  0.49889939567E+00  0.11802353953E+01  0.00000000000E+00 0.  1.
         11    1    3    3    0    0  0.26123214658E+01  0.80834415504E+01  0.77695392026E+00  0.85305280255E+01  0.51100000000E-03 0. -1.
        -11    1    3    3    0    0  0.16190624606E+02  0.14106527155E+02  0.31573452480E+02  0.38183940804E+02  0.51100000000E-03 0.  1.
         12    1    3    3    0    0 -0.17775700219E+02 -0.21891940287E+02 -0.32849305796E+02  0.43293295775E+02  0.00000000000E+00 0. -1.
</event>
<event>
 7    1  0.3863655E-015  0.9000760E+02  0.7816164E-02  0.1186339E+00
        -11   -1    0    0    0    0  0.00000000000E+00  0.00000000000E+00  0.45593999997E+02  0.45594000000E+02  0.51100000000E-03 0.  1.
         11   -1    0    0    0    0 -0.00000000000E+00 -0.00000000000E+00 -0.45593999997E+02  0.45594000000E+02  0.51100000000E-03 0. -1.
    9900012    2    1    2    0    0 -0.37456851352E+00 -0.79779990688E+00 -0.78520751192E+00  0.90007602991E+02  0.89999862550E+02 0.  0.
        -12    1    1    2    0    0  0.37456851352E+00  0.79779990688E+00  0.78520751192E+00  0.11803970093E+01  0.00000000000E+00 0.  1.
         11    1    3    3    0    0 -0.69703256342E+01  0.22462613779E+01  0.73058429828E+01  0.10344393243E+02  0.51100000000E-03 0. -1.
        -11    1    3    3    0    0 -0.32296983411E+02 -0.56766907804E+01  0.13078769578E+02  0.35304024836E+02  0.51100000000E-03 0.  1.
         12    1    3    3    0    0  0.38892740531E+02  0.26326294957E+01 -0.21169820073E+02  0.44359184912E+02  0.00000000000E+00 0. -1.
</event>
<event>
 7    1  0.3863655E-015  0.9000774E+02  0.7816164E-02  0.1186339E+00
        -11   -1    0    0    0    0  0.00000000000E+00  0.00000000000E+00  0.45593999997E+02  0.45594000000E+02  0.51100000000E-03 0.  1.
         11   -1    0    0    0    0 -0.00000000000E+00 -0.00000000000E+00 -0.45593999997E+02  0.45594000000E+02  0.51100000000E-03 0. -1.
    9900012    2    1    2    0    0  0.50059155047E+00 -0.65929483181E+00 -0.84128482886E+00  0.90007736581E+02  0.89999997904E+02 0.  0.
        -12    1    1    2    0    0 -0.50059155047E+00  0.65929483181E+00  0.84128482886E+00  0.11802634193E+01  0.00000000000E+00 0.  1.
         11    1    3    3    0    0  0.71568381677E+01  0.16937482739E+02  0.64535837141E+01  0.19487108485E+02  0.51100000000E-03 0. -1.
        -11    1    3    3    0    0  0.16212358631E+02 -0.34851516585E+02  0.60603891162E+01  0.38912685556E+02  0.51100000000E-03 0.  1.
         12    1    3    3    0    0 -0.22868605249E+02  0.17254739014E+02 -0.13355257659E+02  0.31607942540E+02  0.00000000000E+00 0. -1.
</event>
<event>
 7    1  0.3863655E-015  0.9000767E+02  0.7816164E-02  0.1186339E+00
        -11   -1    0    0    0    0  0.00000000000E+00  0.00000000000E+00  0.45593999997E+02  0.45594000000E+02  0.51100000000E-03 0.  1.
         11   -1    0    0    0    0 -0.00000000000E+00 -0.00000000000E+00 -0.45593999997E+02  0.45594000000E+02  0.51100000000E-03 0. -1.
    9900012    2    1    2    0    0 -0.67186540348E+00  0.75864602844E+00 -0.60517710553E+00  0.90007666892E+02  0.89999927295E+02 0.  0.
        -12    1    1    2    0    0  0.67186540348E+00 -0.75864602844E+00  0.60517710553E+00  0.11803331080E+01  0.00000000000E+00 0.  1.
         11    1    3    3    0    0  0.25129185583E+02  0.16350573947E+02 -0.27111256993E+02  0.40420755714E+02  0.51100000000E-03 0. -1.
        -11    1    3    3    0    0 -0.79149831945E+01  0.64587791468E+01 -0.73139689086E+00  0.10241959222E+02  0.51100000000E-03 0.  1.
        -12    1    3    3    0    0 -0.17886067792E+02 -0.22050707066E+02  0.27237476779E+02  0.39344951956E+02  0.00000000000E+00 0.  1.
</event>
<event>
 7    1  0.3863655E-015  0.9000780E+02  0.7816164E-02  0.1186339E+00
        -11   -1    0    0    0    0  0.00000000000E+00  0.00000000000E+00  0.45593999997E+02  0.45594000000E+02  0.51100000000E-03 0.  1.
         11   -1    0    0    0    0 -0.00000000000E+00 -0.00000000000E+00 -0.45593999997E+02  0.45594000000E+02  0.51100000000E-03 0. -1.
    9900012    2    1    2    0    0  0.68281339582E+00 -0.38918687895E+00 -0.88043195688E+00  0.90007804681E+02  0.90000066903E+02 0.  0.
        -12    1    1    2    0    0 -0.68281339582E+00  0.38918687895E+00  0.88043195688E+00  0.11801953190E+01  0.00000000000E+00 0.  1.
         11    1    3    3    0    0 -0.16639793470E+02 -0.28497736265E+02 -0.17867473004E+02  0.37526661066E+02  0.51100000000E-03 0. -1.
        -11    1    3    3    0    0  0.16928650280E+01 -0.81891136074E+01 -0.20579727806E+01  0.86117725182E+01  0.51100000000E-03 0.  1.
        -12    1    3    3    0    0  0.15629741838E+02  0.36297662994E+02  0.19045013827E+02  0.43869371097E+02  0.00000000000E+00 0.  1.
</event>
<event>
 7    1  0.3863655E-015  0.9000775E+02  0.7816164E-02  0.1186339E+00
        -11   -1    0    0    0    0  0.00000000000E+00  0.00000000000E+00  0.45593999997E+02  0.45594000000E+02  0.51100000000E-03 0.  1.
         11   -1    0    0    0    0 -0.00000000000E+00 -0.00000000000E+00 -0.45593999997E+02  0.45594000000E+02  0.51100000000E-03 0. -1.
    9900012    2    1    2    0    0  0.92164803879E+00 -0.26679892892E+00 -0.68729230744E+00  0.90007751089E+02  0.90000012603E+02 0.  0.
        -12    1    1    2    0    0 -0.92164803879E+00  0.26679892892E+00  0.68729230744E+00  0.11802489109E+01  0.00000000000E+00 0.  1.
         11    1    3    3    0    0 -0.18829410450E+02 -0.31684107603E+02  0.91207357049E+00  0.36868160396E+02  0.51100000000E-03 0. -1.
        -11    1    3    3    0    0 -0.60180928943E+01 -0.45843621675E+01  0.39242902886E+01  0.85225508562E+01  0.51100000000E-03 0.  1.
        -12    1    3    3    0    0  0.25769151383E+02  0.36001670842E+02 -0.55236561665E+01  0.44617039837E+02  0.00000000000E+00 0.  1.
</event>
<event>
 7    1  0.3863655E-015  0.9000763E+02  0.7816164E-02  0.1186339E+00
        -11   -1    0    0    0    0  0.00000000000E+00  0.00000000000E+00  0.45593999997E+02  0.45594000000E+02  0.51100000000E-03 0.  1.
         11   -1    0    0    0    0 -0.00000000000E+00 -0.00000000000E+00 -0.45593999997E+02  0.45594000000E+02  0.51100000000E-03 0. -1.
    9900012    2    1    2    0    0 -0.12967780151E+00 -0.75032870931E+00 -0.90191581568E+00  0.90007634954E+02  0.89999894935E+02 0.  0.
        -12    1    1    2    0    0  0.12967780151E+00  0.75032870931E+00  0.90191581568E+00  0.11803650464E+01  0.00000000000E+00 0.  1.
         11    1    3    3    0    0  0.28159959354E+02  0.65414021437E+00  0.27057682879E+02  0.39058026233E+02  0.51100000000E-03 0. -1.
        -11    1    3    3    0    0  0.35506088809E+01  0.83822086907E+01 -0.79873111996E+01  0.12110548560E+02  0.51100000000E-03 0.  1.
        -12    1    3    3    0    0 -0.31840246036E+02 -0.97866776143E+01 -0.19972287495E+02  0.38839060160E+02  0.00000000000E+00 0.  1.
</event>
<event>
 7    1  0.3863655E-015  0.9000772E+02  0.7816164E-02  0.1186339E+00
        -11   -1    0    0    0    0  0.00000000000E+00  0.00000000000E+00  0.45593999997E+02  0.45594000000E+02  0.51100000000E-03 0. -1.
         11   -1    0    0    0    0 -0.00000000000E+00 -0.00000000000E+00 -0.45593999997E+02  0.45594000000E+02  0.51100000000E-03 0.  1.
    9900012    2    1    2    0    0  0.80054771206E+00 -0.61180356748E+00 -0.61472697563E+00  0.90007716348E+02  0.89999977404E+02 0.  0.
        -12    1    1    2    0    0 -0.80054771206E+00  0.61180356748E+00  0.61472697563E+00  0.11802836519E+01  0.00000000000E+00 0.  1.
         11    1    3    3    0    0  0.47362411171E+01 -0.11633185698E+01  0.70015178169E+01  0.85326749624E+01  0.51100000000E-03 0. -1.
        -11    1    3    3    0    0  0.31759562812E+02 -0.23256669236E+01  0.18795548363E+02  0.36977712141E+02  0.51100000000E-03 0.  1.
         12    1    3    3    0    0 -0.35695256217E+02  0.28771819259E+01 -0.26411793155E+02  0.44497329245E+02  0.00000000000E+00 0. -1.
</event>
<event>
 7    1  0.3863655E-015  0.9000778E+02  0.7816164E-02  0.1186339E+00
        -11   -1    0    0    0    0  0.00000000000E+00  0.00000000000E+00  0.45593999997E+02  0.45594000000E+02  0.51100000000E-03 0.  1.
         11   -1    0    0    0    0 -0.00000000000E+00 -0.00000000000E+00 -0.45593999997E+02  0.45594000000E+02  0.51100000000E-03 0. -1.
    9900012    2    1    2    0    0  0.35608475392E+00  0.11106973853E+01 -0.18021997448E+00  0.90007777871E+02  0.90000039739E+02 0.  0.
        -12    1    1    2    0    0 -0.35608475392E+00 -0.11106973853E+01  0.18021997448E+00  0.11802221286E+01  0.00000000000E+00 0.  1.
         11    1    3    3    0    0 -0.46108779767E+01  0.32975514531E+02 -0.16692750532E+02  0.37246378011E+02  0.51100000000E-03 0. -1.
        -11    1    3    3    0    0 -0.77447501771E+01  0.37577883819E+01 -0.42656033439E+01  0.96071588401E+01  0.51100000000E-03 0.  1.
        -12    1    3    3    0    0  0.12711712908E+02 -0.35622605528E+02  0.20778133902E+02  0.43154241021E+02  0.00000000000E+00 0.  1.
</event>
<event>
 7    1  0.3863655E-015  0.9000789E+02  0.7816164E-02  0.1186339E+00
        -11   -1    0    0    0    0  0.00000000000E+00  0.00000000000E+00  0.45593999997E+02  0.45594000000E+02  0.51100000000E-03 0.  1.
         11   -1    0    0    0    0 -0.00000000000E+00 -0.00000000000E+00 -0.45593999997E+02  0.45594000000E+02  0.51100000000E-03 0. -1.
    9900012    2    1    2    0    0  0.10583273019E+01  0.51651105031E+00 -0.76239155058E-01  0.90007892907E+02  0.90000156293E+02 0.  0.
        -12    1    1    2    0    0 -0.10583273019E+01 -0.51651105031E+00  0.76239155058E-01  0.11801070933E+01  0.00000000000E+00 0.  1.
         11    1    3    3    0    0  0.92804269150E+01  0.23029285492E+01  0.19398308095E+00  0.95638607959E+01  0.51100000000E-03 0. -1.
        -11    1    3    3    0    0  0.81188942054E+01  0.28476940632E+02  0.24192910387E+02  0.38238063551E+02  0.51100000000E-03 0.  1.
         12    1    3    3    0    0 -0.16340993818E+02 -0.30263358131E+02 -0.24463132623E+02  0.42205968560E+02  0.00000000000E+00 0. -1.
</event>
<event>
 7    1  0.3863655E-015  0.9000784E+02  0.7816164E-02  0.1186339E+00
        -11   -1    0    0    0    0  0.00000000000E+00  0.00000000000E+00  0.45593999997E+02  0.45594000000E+02  0.51100000000E-03 0.  1.
         11   -1    0    0    0    0 -0.00000000000E+00 -0.00000000000E+00 -0.45593999997E+02  0.45594000000E+02  0.51100000000E-03 0. -1.
    9900012    2    1    2    0    0 -0.58973436981E+00 -0.75854846352E+00 -0.68527551649E+00  0.90007836905E+02  0.90000099552E+02 0.  0.
        -12    1    1    2    0    0  0.58973436981E+00  0.75854846352E+00  0.68527551649E+00  0.11801630955E+01  0.00000000000E+00 0.  1.
         11    1    3    3    0    0  0.37540356211E+02  0.14351502463E+02  0.66655722468E+01  0.40739094504E+02  0.51100000000E-03 0. -1.
        -11    1    3    3    0    0 -0.95264387881E+00 -0.11065647125E+02 -0.36421166121E+01  0.11688502485E+02  0.51100000000E-03 0.  1.
        -12    1    3    3    0    0 -0.37177446702E+02 -0.40444038017E+01 -0.37087311512E+01  0.37580239916E+02  0.00000000000E+00 0.  1.
</event>
<event>
 7    1  0.3863655E-015  0.9000766E+02  0.7816164E-02  0.1186339E+00
        -11   -1    0    0    0    0  0.00000000000E+00  0.00000000000E+00  0.45593999997E+02  0.45594000000E+02  0.51100000000E-03 0.  1.
         11   -1    0    0    0    0 -0.00000000000E+00 -0.00000000000E+00 -0.45593999997E+02  0.45594000000E+02  0.51100000000E-03 0. -1.
    9900012    2    1    2    0    0  0.10899469750E+01  0.37978064048E+00  0.24693546198E+00  0.90007663241E+02  0.89999923595E+02 0.  0.
        -12    1    1    2    0    0 -0.10899469750E+01 -0.37978064048E+00 -0.24693546198E+00  0.11803367594E+01  0.00000000000E+00 0.  1.
         11    1    3    3    0    0 -0.17353357207E+02 -0.22550478564E+02 -0.29374603407E+02  0.40896581952E+02  0.51100000000E-03 0. -1.
        -11    1    3    3    0    0  0.78147654620E+01  0.32524775340E+01 -0.34886239635E+01  0.91553081191E+01  0.51100000000E-03 0.  1.
        -12    1    3    3    0    0  0.10628538720E+02  0.19677781670E+02  0.33110162832E+02  0.39955773169E+02  0.00000000000E+00 0.  1.
</event>
<event>
 7    1  0.3863655E-015  0.9000760E+02  0.7816164E-02  0.1186339E+00
        -11   -1    0    0    0    0  0.00000000000E+00  0.00000000000E+00  0.45593999997E+02  0.45594000000E+02  0.51100000000E-03 0.  1.
         11   -1    0    0    0    0 -0.00000000000E+00 -0.00000000000E+00 -0.45593999997E+02  0.45594000000E+02  0.51100000000E-03 0. -1.
    9900012    2    1    2    0    0  0.38979702863E+00 -0.34478928910E+00 -0.10594967114E+01  0.90007595553E+02  0.89999855014E+02 0.  0.
        -12    1    1    2    0    0 -0.38979702863E+00  0.34478928910E+00  0.10594967114E+01  0.11804044472E+01  0.00000000000E+00 0.  1.
         11    1    3    3    0    0  0.17617709747E+02 -0.30409285376E+02 -0.22689108571E+02  0.41831853674E+02  0.51100000000E-03 0. -1.
        -11    1    3    3    0    0 -0.55445906282E+01 -0.34844300660E+01  0.74667336251E+01  0.99315582568E+01  0.51100000000E-03 0.  1.
        -12    1    3    3    0    0 -0.11683322090E+02  0.33548926153E+02  0.14162878234E+02  0.38244183622E+02  0.00000000000E+00 0.  1.
</event>
<event>
 7    1  0.3863655E-015  0.9000780E+02  0.7816164E-02  0.1186339E+00
        -11   -1    0    0    0    0  0.00000000000E+00  0.00000000000E+00  0.45593999997E+02  0.45594000000E+02  0.51100000000E-03 0.  1.
         11   -1    0    0    0    0 -0.00000000000E+00 -0.00000000000E+00 -0.45593999997E+02  0.45594000000E+02  0.51100000000E-03 0. -1.
    9900012    2    1    2    0    0 -0.11161097853E+01 -0.11433111482E+00 -0.36619518786E+00  0.90007800198E+02  0.90000062361E+02 0.  0.
        -12    1    1    2    0    0  0.11161097853E+01  0.11433111482E+00  0.36619518786E+00  0.11801998018E+01  0.00000000000E+00 0.  1.
         11    1    3    3    0    0  0.48705048593E+00  0.11040950109E+02  0.67887240648E+00  0.11072518480E+02  0.51100000000E-03 0. -1.
        -11    1    3    3    0    0 -0.27219936427E+02 -0.13165435697E+02  0.27257047439E+02  0.40708724759E+02  0.51100000000E-03 0.  1.
         12    1    3    3    0    0  0.25616776156E+02  0.20101544731E+01 -0.28302115033E+02  0.38226556959E+02  0.00000000000E+00 0. -1.
</event>
<event>
 7    1  0.3863655E-015  0.9000764E+02  0.7816164E-02  0.1186339E+00
        -11   -1    0    0    0    0  0.00000000000E+00  0.00000000000E+00  0.45593999997E+02  0.45594000000E+02  0.51100000000E-03 0. -1.
         11   -1    0    0    0    0 -0.00000000000E+00 -0.00000000000E+00 -0.45593999997E+02  0.45594000000E+02  0.51100000000E-03 0.  1.
    9900012    2    1    2    0    0  0.11616754291E+01 -0.16942436232E+00  0.12270499831E+00  0.90007639490E+02  0.89999899531E+02 0.  0.
        -12    1    1    2    0    0 -0.11616754291E+01  0.16942436232E+00 -0.12270499831E+00  0.11803605101E+01  0.00000000000E+00 0.  1.
         11    1    3    3    0    0  0.10237455521E+01  0.11620799140E+02  0.25052524784E+01  0.11931777648E+02  0.51100000000E-03 0. -1.
        -11    1    3    3    0    0 -0.10930976949E+02 -0.20599752825E+02 -0.35265636334E+02  0.42278850266E+02  0.51100000000E-03 0.  1.
         12    1    3    3    0    0  0.11068906826E+02  0.88095293234E+01  0.32883088853E+02  0.35797011576E+02  0.00000000000E+00 0. -1.
</event>
<event>
 7    1  0.3863655E-015  0.9000769E+02  0.7816164E-02  0.1186339E+00
        -11   -1    0    0    0    0  0.00000000000E+00  0.00000000000E+00  0.45593999997E+02  0.45594000000E+02  0.51100000000E-03 0.  1.
         11   -1    0    0    0    0 -0.00000000000E+00 -0.00000000000E+00 -0.45593999997E+02  0.45594000000E+02  0.51100000000E-03 0. -1.
    9900012    2    1    2    0    0 -0.37825937264E+00 -0.11140794327E+01  0.94284996987E-01  0.90007685298E+02  0.89999945944E+02 0.  0.
        -12    1    1    2    0    0  0.37825937264E+00  0.11140794327E+01 -0.94284996987E-01  0.11803147021E+01  0.00000000000E+00 0.  1.
         11    1    3    3    0    0 -0.12289339415E+01 -0.21525847536E+01  0.10102965201E+02  0.10402586499E+02  0.51100000000E-03 0. -1.
        -11    1    3    3    0    0  0.30618791719E+02 -0.15024971709E+02  0.15278350425E+02  0.37372291516E+02  0.51100000000E-03 0.  1.
         12    1    3    3    0    0 -0.29768117150E+02  0.16063477029E+02 -0.25287030629E+02  0.42232807283E+02  0.00000000000E+00 0. -1.
</event>
<event>
 7    1  0.3863655E-015  0.9000767E+02  0.7816164E-02  0.1186339E+00
        -11   -1    0    0    0    0  0.00000000000E+00  0.00000000000E+00  0.45593999997E+02  0.45594000000E+02  0.51100000000E-03 0. -1.
         11   -1    0    0    0    0 -0.00000000000E+00 -0.00000000000E+00 -0.45593999997E+02  0.45594000000E+02  0.51100000000E-03 0.  1.
    9900012    2    1    2    0    0  0.19008939499E+00  0.47411199849E+00  0.10640742662E+01  0.90007673685E+02  0.89999934178E+02 0.  0.
        -12    1    1    2    0    0 -0.19008939499E+00 -0.47411199849E+00 -0.10640742662E+01  0.11803263147E+01  0.00000000000E+00 0.  1.
         11    1    3    3    0    0  0.44357373649E+01 -0.54562974657E+01 -0.83697053375E-01  0.70323504934E+01  0.51100000000E-03 0. -1.
        -11    1    3    3    0    0  0.15317031394E+02 -0.28190027361E+02 -0.20507710706E+02  0.38076965373E+02  0.51100000000E-03 0.  1.
         12    1    3    3    0    0 -0.19562679364E+02  0.34120436826E+02  0.21655482025E+02  0.44898357819E+02  0.00000000000E+00 0. -1.
</event>
<event>
 7    1  0.3863655E-015  0.9000759E+02  0.7816164E-02  0.1186339E+00
        -11   -1    0    0    0    0  0.00000000000E+00  0.00000000000E+00  0.45593999997E+02  0.45594000000E+02  0.51100000000E-03 0.  1.
         11   -1    0    0    0    0 -0.00000000000E+00 -0.00000000000E+00 -0.45593999997E+02  0.45594000000E+02  0.51100000000E-03 0. -1.
    9900012    2    1    2    0    0  0.20843781318E+00  0.57809863264E+00 -0.10078279910E+01  0.90007592608E+02  0.89999852031E+02 0.  0.
        -12    1    1    2    0    0 -0.20843781318E+00 -0.57809863264E+00  0.10078279910E+01  0.11804073917E+01  0.00000000000E+00 0.  1.
         11    1    3    3    0    0 -0.16331918480E+02  0.27937001966E+01  0.72024373130E+01  0.18066859869E+02  0.51100000000E-03 0. -1.
        -11    1    3    3    0    0  0.27753163054E+02  0.25627475860E+02  0.67965954010E+01  0.38382278304E+02  0.51100000000E-03 0.  1.
         12    1    3    3    0    0 -0.11212806761E+02 -0.27843077424E+02 -0.15006860705E+02  0.33558454436E+02  0.00000000000E+00 0. -1.
</event>
<event>
 7    1  0.3863655E-015  0.9000826E+02  0.7816164E-02  0.1186338E+00
        -11   -1    0    0    0    0  0.00000000000E+00  0.00000000000E+00  0.45593999997E+02  0.45594000000E+02  0.51100000000E-03 0.  1.
         11   -1    0    0    0    0 -0.00000000000E+00 -0.00000000000E+00 -0.45593999997E+02  0.45594000000E+02  0.51100000000E-03 0. -1.
    9900012    2    1    2    0    0  0.51884159293E+00 -0.45152783121E+00 -0.95849783472E+00  0.90008257621E+02  0.90000525820E+02 0.  0.
        -12    1    1    2    0    0 -0.51884159293E+00  0.45152783121E+00  0.95849783472E+00  0.11797423787E+01  0.00000000000E+00 0.  1.
         11    1    3    3    0    0 -0.26093547725E+01 -0.15039939872E+01  0.93381538093E+01  0.98118218017E+01  0.51100000000E-03 0. -1.
        -11    1    3    3    0    0 -0.26487587822E+02 -0.13578179563E+02 -0.29566578074E+02  0.41954044003E+02  0.51100000000E-03 0.  1.
         12    1    3    3    0    0  0.29615784188E+02  0.14630645719E+02  0.19269926430E+02  0.38242391817E+02  0.00000000000E+00 0. -1.
</event>
<event>
 7    1  0.3863655E-015  0.9000779E+02  0.7816164E-02  0.1186339E+00
        -11   -1    0    0    0    0  0.00000000000E+00  0.00000000000E+00  0.45593999997E+02  0.45594000000E+02  0.51100000000E-03 0. -1.
         11   -1    0    0    0    0 -0.00000000000E+00 -0.00000000000E+00 -0.45593999997E+02  0.45594000000E+02  0.51100000000E-03 0.  1.
    9900012    2    1    2    0    0 -0.11414232003E+01  0.29045651536E+00  0.75314459779E-01  0.90007794858E+02  0.90000056950E+02 0.  0.
        -12    1    1    2    0    0  0.11414232003E+01 -0.29045651536E+00 -0.75314459779E-01  0.11802051421E+01  0.00000000000E+00 0.  1.
         11    1    3    3    0    0  0.11663015532E+02  0.61956413329E+01 -0.30606403394E+01  0.13556526929E+02  0.51100000000E-03 0. -1.
        -11    1    3    3    0    0  0.69116642107E+01 -0.37911512355E+02 -0.15570585039E+01  0.38567840265E+02  0.51100000000E-03 0.  1.
         12    1    3    3    0    0 -0.19716102943E+02  0.32006327538E+02  0.46930133031E+01  0.37883427664E+02  0.00000000000E+00 0. -1.
</event>
<event>
 7    1  0.3863655E-015  0.9000775E+02  0.7816164E-02  0.1186339E+00
        -11   -1    0    0    0    0  0.00000000000E+00  0.00000000000E+00  0.45593999997E+02  0.45594000000E+02  0.51100000000E-03 0. -1.
         11   -1    0    0    0    0 -0.00000000000E+00 -0.00000000000E+00 -0.45593999997E+02  0.45594000000E+02  0.51100000000E-03 0.  1.
    9900012    2    1    2    0    0  0.47733634882E+00  0.99832485773E+00  0.41046489144E+00  0.90007752594E+02  0.90000014129E+02 0.  0.
        -12    1    1    2    0    0 -0.47733634882E+00 -0.99832485773E+00 -0.41046489144E+00  0.11802474057E+01  0.00000000000E+00 0.  1.
         11    1    3    3    0    0  0.39582292803E+01 -0.35350246281E+02 -0.99535820451E+01  0.36937532226E+02  0.51100000000E-03 0. -1.
        -11    1    3    3    0    0 -0.69479956949E+00 -0.77821519640E+01  0.20389566858E+01  0.80747743163E+01  0.51100000000E-03 0.  1.
        -12    1    3    3    0    0 -0.27860933620E+01  0.44130723102E+02  0.83250902508E+01  0.44995446052E+02  0.00000000000E+00 0.  1.
</event>
<event>
 7    1  0.3863655E-015  0.9000768E+02  0.7816164E-02  0.1186339E+00
        -11   -1    0    0    0    0  0.00000000000E+00  0.00000000000E+00  0.45593999997E+02  0.45594000000E+02  0.51100000000E-03 0.  1.
         11   -1    0    0    0    0 -0.00000000000E+00 -0.00000000000E+00 -0.45593999997E+02  0.45594000000E+02  0.51100000000E-03 0. -1.
    9900012    2    1    2    0    0  0.87174735311E+00 -0.40127375086E+00  0.68715489550E+00  0.90007683974E+02  0.89999944602E+02 0.  0.
        -12    1    1    2    0    0 -0.87174735311E+00  0.40127375086E+00 -0.68715489550E+00  0.11803160260E+01  0.00000000000E+00 0.  1.
         11    1    3    3    0    0 -0.23285127467E+02 -0.37777477387E+01 -0.25924844680E+02  0.35050907422E+02  0.51100000000E-03 0. -1.
        -11    1    3    3    0    0  0.15032599440E+01 -0.38762604299E+01 -0.10264417412E+02  0.11074450345E+02  0.51100000000E-03 0.  1.
        -12    1    3    3    0    0  0.22653614876E+02  0.72527344177E+01  0.36876416988E+02  0.43882326207E+02  0.00000000000E+00 0.  1.
</event>
<event>
 7    1  0.3863655E-015  0.9000777E+02  0.7816164E-02  0.1186339E+00
        -11   -1    0    0    0    0  0.00000000000E+00  0.00000000000E+00  0.45593999997E+02  0.45594000000E+02  0.51100000000E-03 0.  1.
         11   -1    0    0    0    0 -0.00000000000E+00 -0.00000000000E+00 -0.45593999997E+02  0.45594000000E+02  0.51100000000E-03 0. -1.
    9900012    2    1    2    0    0 -0.32250705125E+00 -0.10391972346E+01 -0.45716390996E+00  0.90007770984E+02  0.90000032761E+02 0.  0.
        -12    1    1    2    0    0  0.32250705125E+00  0.10391972346E+01  0.45716390996E+00  0.11802290164E+01  0.00000000000E+00 0.  1.
         11    1    3    3    0    0 -0.10146364210E+02 -0.35605101203E+02  0.20129984671E+02  0.42141288797E+02  0.51100000000E-03 0. -1.
        -11    1    3    3    0    0 -0.22269060110E+01  0.63261260144E+01  0.46176528489E+01  0.81425855124E+01  0.51100000000E-03 0.  1.
        -12    1    3    3    0    0  0.12050763169E+02  0.28239777954E+02 -0.25204801430E+02  0.39723896674E+02  0.00000000000E+00 0.  1.
</event>
<event>
 7    1  0.3863655E-015  0.9000778E+02  0.7816164E-02  0.1186339E+00
        -11   -1    0    0    0    0  0.00000000000E+00  0.00000000000E+00  0.45593999997E+02  0.45594000000E+02  0.51100000000E-03 0.  1.
         11   -1    0    0    0    0 -0.00000000000E+00 -0.00000000000E+00 -0.45593999997E+02  0.45594000000E+02  0.51100000000E-03 0. -1.
    9900012    2    1    2    0    0  0.57325333699E+00 -0.38953133869E+00 -0.95528711340E+00  0.90007776495E+02  0.90000038345E+02 0.  0.
        -12    1    1    2    0    0 -0.57325333699E+00  0.38953133869E+00  0.95528711340E+00  0.11802235048E+01  0.00000000000E+00 0.  1.
         11    1    3    3    0    0 -0.14314189801E+02  0.15619993551E+02 -0.18885047973E+02  0.28381776995E+02  0.51100000000E-03 0. -1.
        -11    1    3    3    0    0  0.25415602373E+02  0.63482725003E+01 -0.63785296201E+01  0.26961807211E+02  0.51100000000E-03 0.  1.
        -12    1    3    3    0    0 -0.10528159235E+02 -0.22357797389E+02  0.24308290480E+02  0.34664192289E+02  0.00000000000E+00 0.  1.
</event>
<event>
 7    1  0.3863655E-015  0.9000778E+02  0.7816164E-02  0.1186339E+00
        -11   -1    0    0    0    0  0.00000000000E+00  0.00000000000E+00  0.45593999997E+02  0.45594000000E+02  0.51100000000E-03 0.  1.
         11   -1    0    0    0    0 -0.00000000000E+00 -0.00000000000E+00 -0.45593999997E+02  0.45594000000E+02  0.51100000000E-03 0. -1.
    9900012    2    1    2    0    0  0.39655995432E+00 -0.10916884367E+01  0.20946015320E+00  0.90007780954E+02  0.90000042863E+02 0.  0.
        -12    1    1    2    0    0 -0.39655995432E+00  0.10916884367E+01 -0.20946015320E+00  0.11802190457E+01  0.00000000000E+00 0.  1.
         11    1    3    3    0    0  0.33066499994E+02  0.49156531389E+01 -0.22541964079E+02  0.40319935670E+02  0.51100000000E-03 0. -1.
        -11    1    3    3    0    0 -0.63737168707E+01 -0.34878153370E+01 -0.68692300633E+01  0.99987721494E+01  0.51100000000E-03 0.  1.
        -12    1    3    3    0    0 -0.26296223169E+02 -0.25195262386E+01  0.29620654296E+02  0.39689073135E+02  0.00000000000E+00 0.  1.
</event>
<event>
 7    1  0.3863655E-015  0.9000774E+02  0.7816164E-02  0.1186339E+00
        -11   -1    0    0    0    0  0.00000000000E+00  0.00000000000E+00  0.45593999997E+02  0.45594000000E+02  0.51100000000E-03 0.  1.
         11   -1    0    0    0    0 -0.00000000000E+00 -0.00000000000E+00 -0.45593999997E+02  0.45594000000E+02  0.51100000000E-03 0. -1.
    9900012    2    1    2    0    0 -0.65094656150E+00 -0.57241734342E-01  0.98285564166E+00  0.90007740175E+02  0.90000001545E+02 0.  0.
        -12    1    1    2    0    0  0.65094656150E+00  0.57241734342E-01 -0.98285564166E+00  0.11802598250E+01  0.00000000000E+00 0.  1.
         11    1    3    3    0    0  0.14433960512E+02 -0.36210407773E+02 -0.78827212377E+01  0.39770216765E+02  0.51100000000E-03 0. -1.
        -11    1    3    3    0    0  0.18726722950E+01 -0.22541461328E+01  0.76980542840E+01  0.82369968031E+01  0.51100000000E-03 0.  1.
        -12    1    3    3    0    0 -0.16957579368E+02  0.38407312171E+02  0.11675225954E+01  0.42000526607E+02  0.00000000000E+00 0.  1.
</event>
<event>
 8    1  0.3863655E-015  0.9000765E+02  0.7816164E-02  0.1186339E+00
        -11   -1    0    0    0    0  0.00000000000E+00  0.00000000000E+00  0.45593999997E+02  0.45594000000E+02  0.51100000000E-03 0.  1.
         11   -1    0    0    0    0 -0.00000000000E+00 -0.00000000000E+00 -0.45593999997E+02  0.45594000000E+02  0.51100000000E-03 0. -1.
    9900012    2    1    2    0    0 -0.63745434904E+00 -0.71903607387E+00 -0.68547252427E+00  0.90007646873E+02  0.89999907012E+02 0.  0.
         23    2    3    3    0    0  0.99532595945E+01 -0.11334872925E+02 -0.23736575304E+02  0.62508327731E+02  0.55824002972E+02 0.  0.
        -12    1    1    2    0    0  0.63745434904E+00  0.71903607387E+00  0.68547252427E+00  0.11803531269E+01  0.00000000000E+00 0.  1.
         11    1    4    4    0    0 -0.89895572281E+01  0.16193100344E+02  0.41554792500E+01  0.18981481659E+02  0.51100000000E-03 0. -1.
        -11    1    4    4    0    0  0.18942816823E+02 -0.27527973269E+02 -0.27892054554E+02  0.43526846072E+02  0.51100000000E-03 0.  1.
         12    1    3    3    0    0 -0.10590713944E+02  0.10615836851E+02  0.23051102780E+02  0.27499319142E+02  0.00000000000E+00 0. -1.
</event>
<event>
 7    1  0.3863655E-015  0.9000768E+02  0.7816164E-02  0.1186339E+00
        -11   -1    0    0    0    0  0.00000000000E+00  0.00000000000E+00  0.45593999997E+02  0.45594000000E+02  0.51100000000E-03 0. -1.
         11   -1    0    0    0    0 -0.00000000000E+00 -0.00000000000E+00 -0.45593999997E+02  0.45594000000E+02  0.51100000000E-03 0.  1.
    9900012    2    1    2    0    0  0.59437497891E+00  0.90143085968E+00 -0.47675965204E+00  0.90007678444E+02  0.89999938999E+02 0.  0.
        -12    1    1    2    0    0 -0.59437497891E+00 -0.90143085968E+00  0.47675965204E+00  0.11803215563E+01  0.00000000000E+00 0.  1.
         11    1    3    3    0    0 -0.41880893285E+01 -0.56783868119E+01 -0.55372653126E+01  0.89691402271E+01  0.51100000000E-03 0. -1.
        -11    1    3    3    0    0 -0.10493417019E+02 -0.13068945258E+02 -0.32159005475E+02  0.36264455935E+02  0.51100000000E-03 0.  1.
         12    1    3    3    0    0  0.15275881326E+02  0.19648762930E+02  0.37219511135E+02  0.44774082281E+02  0.00000000000E+00 0. -1.
</event>
<event>
 7    1  0.3863655E-015  0.9000771E+02  0.7816164E-02  0.1186339E+00
        -11   -1    0    0    0    0  0.00000000000E+00  0.00000000000E+00  0.45593999997E+02  0.45594000000E+02  0.51100000000E-03 0.  1.
         11   -1    0    0    0    0 -0.00000000000E+00 -0.00000000000E+00 -0.45593999997E+02  0.45594000000E+02  0.51100000000E-03 0. -1.
    9900012    2    1    2    0    0 -0.51217952280E+00  0.49918482936E+00  0.93892203164E+00  0.90007708536E+02  0.89999969489E+02 0.  0.
        -12    1    1    2    0    0  0.51217952280E+00 -0.49918482936E+00 -0.93892203164E+00  0.11802914635E+01  0.00000000000E+00 0.  1.
         11    1    3    3    0    0 -0.32481151342E+02  0.12251230816E+02  0.12052266607E+00  0.34715016563E+02  0.51100000000E-03 0. -1.
        -11    1    3    3    0    0 -0.74680723009E+01  0.42225152779E+01 -0.81220787757E+01  0.11813970673E+02  0.51100000000E-03 0.  1.
        -12    1    3    3    0    0  0.39437044120E+02 -0.15974561265E+02  0.89404781412E+01  0.43478721300E+02  0.00000000000E+00 0.  1.
</event>
<event>
 7    1  0.4263676E-015  0.9000776E+02  0.7816164E-02  0.1186339E+00
        -11   -1    0    0    0    0  0.00000000000E+00  0.00000000000E+00  0.45593999997E+02  0.45594000000E+02  0.51100000000E-03 0.  1.
         11   -1    0    0    0    0 -0.00000000000E+00 -0.00000000000E+00 -0.45593999997E+02  0.45594000000E+02  0.51100000000E-03 0. -1.
    9900012    2    1    2    0    0 -0.33524239048E+00 -0.92906633747E+00 -0.64608298002E+00  0.90007756408E+02  0.90000017992E+02 0.  0.
        -12    1    1    2    0    0  0.33524239048E+00  0.92906633747E+00  0.64608298002E+00  0.11802435922E+01  0.00000000000E+00 0.  1.
         11    1    3    3    0    0  0.27496016171E+01 -0.41282361614E+01  0.83484434708E+01  0.97107750208E+01  0.51100000000E-03 0. -1.
        -11    1    3    3    0    0  0.89878386888E+00  0.10819828764E+02  0.34392767701E+02  0.36065759071E+02  0.51100000000E-03 0.  1.
         12    1    3    3    0    0 -0.39836278764E+01 -0.76206589400E+01 -0.43387294152E+02  0.44231222316E+02  0.00000000000E+00 0. -1.
</event>
<event>
 7    1  0.3863655E-015  0.9000769E+02  0.7816164E-02  0.1186339E+00
        -11   -1    0    0    0    0  0.00000000000E+00  0.00000000000E+00  0.45593999997E+02  0.45594000000E+02  0.51100000000E-03 0. -1.
         11   -1    0    0    0    0 -0.00000000000E+00 -0.00000000000E+00 -0.45593999997E+02  0.45594000000E+02  0.51100000000E-03 0.  1.
    9900012    2    1    2    0    0  0.83067325306E+00  0.79194959905E+00 -0.27554570028E+00  0.90007691712E+02  0.89999952443E+02 0.  0.
        -12    1    1    2    0    0 -0.83067325306E+00 -0.79194959905E+00  0.27554570028E+00  0.11803082876E+01  0.00000000000E+00 0.  1.
         11    1    3    3    0    0 -0.26138261336E+02  0.16125903517E+02 -0.20980633175E+02  0.37194629163E+02  0.51100000000E-03 0. -1.
        -11    1    3    3    0    0 -0.51552340310E+01 -0.20368958216E+01 -0.65900425950E+01  0.86112742476E+01  0.51100000000E-03 0.  1.
        -12    1    3    3    0    0  0.32124168620E+02 -0.13297058097E+02  0.27295130069E+02  0.44201788302E+02  0.00000000000E+00 0.  1.
</event>
<event>
 7    1  0.3863655E-015  0.9000767E+02  0.7816164E-02  0.1186339E+00
        -11   -1    0    0    0    0  0.00000000000E+00  0.00000000000E+00  0.45593999997E+02  0.45594000000E+02  0.51100000000E-03 0. -1.
         11   -1    0    0    0    0 -0.00000000000E+00 -0.00000000000E+00 -0.45593999997E+02  0.45594000000E+02  0.51100000000E-03 0.  1.
    9900012    2    1    2    0    0 -0.96933638883E-01 -0.88397998426E+00  0.77611474991E+00  0.90007673415E+02  0.89999933904E+02 0.  0.
        -12    1    1    2    0    0  0.96933638883E-01  0.88397998426E+00 -0.77611474991E+00  0.11803265853E+01  0.00000000000E+00 0.  1.
         11    1    3    3    0    0 -0.12160033733E+02  0.46266537487E+01  0.35598607537E+02  0.37901625349E+02  0.51100000000E-03 0. -1.
        -11    1    3    3    0    0 -0.11576253755E+02  0.48511189149E+01 -0.15020702831E+02  0.19574588617E+02  0.51100000000E-03 0.  1.
        -12    1    3    3    0    0  0.23639353850E+02 -0.10361752648E+02 -0.19801789956E+02  0.32531459448E+02  0.00000000000E+00 0.  1.
</event>
<event>
 7    1  0.3863655E-015  0.9000784E+02  0.7816164E-02  0.1186339E+00
        -11   -1    0    0    0    0  0.00000000000E+00  0.00000000000E+00  0.45593999997E+02  0.45594000000E+02  0.51100000000E-03 0.  1.
         11   -1    0    0    0    0 -0.00000000000E+00 -0.00000000000E+00 -0.45593999997E+02  0.45594000000E+02  0.51100000000E-03 0. -1.
    9900012    2    1    2    0    0 -0.55034781591E+00  0.20449940585E+00 -0.10237543804E+01  0.90007840792E+02  0.90000103490E+02 0.  0.
        -12    1    1    2    0    0  0.55034781591E+00 -0.20449940585E+00  0.10237543804E+01  0.11801592083E+01  0.00000000000E+00 0.  1.
         11    1    3    3    0    0 -0.14008402507E+01  0.93387057069E+01 -0.20557522418E+01  0.96643621222E+01  0.51100000000E-03 0. -1.
        -11    1    3    3    0    0  0.37936779880E+02  0.29348333674E+01  0.11881072685E+02  0.39861916700E+02  0.51100000000E-03 0.  1.
         12    1    3    3    0    0 -0.37086287445E+02 -0.12069039668E+02 -0.10849074823E+02  0.40481561970E+02  0.00000000000E+00 0. -1.
</event>
<event>
 7    1  0.3863655E-015  0.9000776E+02  0.7816164E-02  0.1186339E+00
        -11   -1    0    0    0    0  0.00000000000E+00  0.00000000000E+00  0.45593999997E+02  0.45594000000E+02  0.51100000000E-03 0. -1.
         11   -1    0    0    0    0 -0.00000000000E+00 -0.00000000000E+00 -0.45593999997E+02  0.45594000000E+02  0.51100000000E-03 0.  1.
    9900012    2    1    2    0    0  0.18402649677E+00 -0.97614199923E+00  0.63737900668E+00  0.90007758096E+02  0.90000019703E+02 0.  0.
        -12    1    1    2    0    0 -0.18402649677E+00  0.97614199923E+00 -0.63737900668E+00  0.11802419042E+01  0.00000000000E+00 0.  1.
         11    1    3    3    0    0  0.26055300963E+01  0.67756769523E+01 -0.24531658358E+02  0.25583214171E+02  0.51100000000E-03 0. -1.
        -11    1    3    3    0    0  0.58039646217E+01 -0.29947220328E+02  0.89159073463E+00  0.30517485890E+02  0.51100000000E-03 0.  1.
         12    1    3    3    0    0 -0.82254682212E+01  0.22195401377E+02  0.24277446630E+02  0.33907058035E+02  0.00000000000E+00 0. -1.
</event>
<event>
 7    1  0.3863655E-015  0.9000776E+02  0.7816164E-02  0.1186339E+00
        -11   -1    0    0    0    0  0.00000000000E+00  0.00000000000E+00  0.45593999997E+02  0.45594000000E+02  0.51100000000E-03 0. -1.
         11   -1    0    0    0    0 -0.00000000000E+00 -0.00000000000E+00 -0.45593999997E+02  0.45594000000E+02  0.51100000000E-03 0.  1.
    9900012    2    1    2    0    0 -0.54539879360E+00 -0.42412101231E+00  0.95688302514E+00  0.90007761210E+02  0.90000022858E+02 0.  0.
        -12    1    1    2    0    0  0.54539879360E+00  0.42412101231E+00 -0.95688302514E+00  0.11802387898E+01  0.00000000000E+00 0.  1.
         11    1    3    3    0    0  0.26555548278E+02 -0.15463556556E+02  0.31784454047E+00  0.30731413100E+02  0.51100000000E-03 0. -1.
        -11    1    3    3    0    0  0.71612010739E+00  0.21625215657E+02 -0.15344001188E+02  0.26525481201E+02  0.51100000000E-03 0.  1.
        -12    1    3    3    0    0 -0.27817067179E+02 -0.65857801128E+01  0.15983039673E+02  0.32750866909E+02  0.00000000000E+00 0.  1.
</event>
<event>
 7    1  0.3863655E-015  0.9000747E+02  0.7816164E-02  0.1186340E+00
        -11   -1    0    0    0    0  0.00000000000E+00  0.00000000000E+00  0.45593999997E+02  0.45594000000E+02  0.51100000000E-03 0.  1.
         11   -1    0    0    0    0 -0.00000000000E+00 -0.00000000000E+00 -0.45593999997E+02  0.45594000000E+02  0.51100000000E-03 0. -1.
    9900012    2    1    2    0    0  0.38395341247E+00 -0.10282228348E+01 -0.43473148639E+00  0.90007468812E+02  0.89999726600E+02 0.  0.
        -12    1    1    2    0    0 -0.38395341247E+00  0.10282228348E+01  0.43473148639E+00  0.11805311881E+01  0.00000000000E+00 0.  1.
         11    1    3    3    0    0 -0.74978661477E+01  0.94481459050E+01  0.16123466528E+01  0.12169022960E+02  0.51100000000E-03 0. -1.
        -11    1    3    3    0    0  0.67220802379E+01  0.25816135473E+02 -0.23595695848E+02  0.35614829444E+02  0.51100000000E-03 0.  1.
         12    1    3    3    0    0  0.11597393223E+01 -0.36292504213E+02  0.21548617709E+02  0.42223616408E+02  0.00000000000E+00 0. -1.
</event>
<event>
 7    1  0.3863655E-015  0.9000781E+02  0.7816164E-02  0.1186339E+00
        -11   -1    0    0    0    0  0.00000000000E+00  0.00000000000E+00  0.45593999997E+02  0.45594000000E+02  0.51100000000E-03 0.  1.
         11   -1    0    0    0    0 -0.00000000000E+00 -0.00000000000E+00 -0.45593999997E+02  0.45594000000E+02  0.51100000000E-03 0. -1.
    9900012    2    1    2    0    0 -0.33177492992E+00 -0.11223537066E+01  0.15198444535E+00  0.90007808609E+02  0.90000070883E+02 0.  0.
        -12    1    1    2    0    0  0.33177492992E+00  0.11223537066E+01 -0.15198444535E+00  0.11801913906E+01  0.00000000000E+00 0.  1.
         11    1    3    3    0    0  0.84934684953E+01  0.26489422124E+02 -0.29347165107E+02  0.40436179241E+02  0.51100000000E-03 0. -1.
        -11    1    3    3    0    0 -0.90508807407E+01  0.15832705270E+01  0.18735049646E+01  0.93773775042E+01  0.51100000000E-03 0.  1.
        -12    1    3    3    0    0  0.22563731540E+00 -0.29195046357E+02  0.27625644588E+02  0.40194251864E+02  0.00000000000E+00 0.  1.
</event>
<event>
 7    1  0.3863655E-015  0.9000767E+02  0.7816164E-02  0.1186339E+00
        -11   -1    0    0    0    0  0.00000000000E+00  0.00000000000E+00  0.45593999997E+02  0.45594000000E+02  0.51100000000E-03 0.  1.
         11   -1    0    0    0    0 -0.00000000000E+00 -0.00000000000E+00 -0.45593999997E+02  0.45594000000E+02  0.51100000000E-03 0. -1.
    9900012    2    1    2    0    0  0.50045479096E+00 -0.10635628401E+01  0.10756024747E+00  0.90007665251E+02  0.89999925632E+02 0.  0.
        -12    1    1    2    0    0 -0.50045479096E+00  0.10635628401E+01 -0.10756024747E+00  0.11803347489E+01  0.00000000000E+00 0.  1.
         11    1    3    3    0    0 -0.17678439311E+02 -0.31397659463E+02 -0.10816473575E+02  0.37620956089E+02  0.51100000000E-03 0. -1.
        -11    1    3    3    0    0  0.21212771235E+01 -0.77413988134E+01  0.73938246744E+01  0.10913189992E+02  0.51100000000E-03 0.  1.
        -12    1    3    3    0    0  0.16057616979E+02  0.38075495436E+02  0.35302091477E+01  0.41473519170E+02  0.00000000000E+00 0.  1.
</event>
<event>
 7    1  0.3863655E-015  0.9000781E+02  0.7816164E-02  0.1186339E+00
        -11   -1    0    0    0    0  0.00000000000E+00  0.00000000000E+00  0.45593999997E+02  0.45594000000E+02  0.51100000000E-03 0. -1.
         11   -1    0    0    0    0 -0.00000000000E+00 -0.00000000000E+00 -0.45593999997E+02  0.45594000000E+02  0.51100000000E-03 0.  1.
    9900012    2    1    2    0    0  0.84663191322E+00 -0.64660875981E+00 -0.50790547588E+00  0.90007806602E+02  0.90000068849E+02 0.  0.
        -12    1    1    2    0    0 -0.84663191322E+00  0.64660875981E+00  0.50790547588E+00  0.11801933982E+01  0.00000000000E+00 0.  1.
         11    1    3    3    0    0  0.17661702071E+00 -0.12447344760E+02  0.10856493726E+02  0.16517597932E+02  0.51100000000E-03 0. -1.
        -11    1    3    3    0    0 -0.29690081488E+02 -0.82508564237E+01 -0.19152169154E+02  0.36281994902E+02  0.51100000000E-03 0.  1.
        -12    1    3    3    0    0  0.30360096381E+02  0.20051592424E+02  0.77877699514E+01  0.37208213768E+02  0.00000000000E+00 0.  1.
</event>
<event>
 7    1  0.3863655E-015  0.9000774E+02  0.7816164E-02  0.1186339E+00
        -11   -1    0    0    0    0  0.00000000000E+00  0.00000000000E+00  0.45593999997E+02  0.45594000000E+02  0.51100000000E-03 0.  1.
         11   -1    0    0    0    0 -0.00000000000E+00 -0.00000000000E+00 -0.45593999997E+02  0.45594000000E+02  0.51100000000E-03 0. -1.
    9900012    2    1    2    0    0  0.26114794890E+00  0.10875287066E+01  0.37696604200E+00  0.90007737175E+02  0.89999998506E+02 0.  0.
        -12    1    1    2    0    0 -0.26114794890E+00 -0.10875287066E+01 -0.37696604200E+00  0.11802628249E+01  0.00000000000E+00 0.  1.
         11    1    3    3    0    0 -0.68565101812E+01  0.47768285452E-01 -0.74244711879E+01  0.10106274603E+02  0.51100000000E-03 0. -1.
        -11    1    3    3    0    0  0.98199224587E+01 -0.36515118849E+02 -0.86868653154E+01  0.38797505216E+02  0.51100000000E-03 0.  1.
         12    1    3    3    0    0 -0.27022643286E+01  0.37554879271E+02  0.16488302545E+02  0.41103957356E+02  0.00000000000E+00 0. -1.
</event>
<event>
 7    1  0.3863655E-015  0.9000763E+02  0.7816164E-02  0.1186339E+00
        -11   -1    0    0    0    0  0.00000000000E+00  0.00000000000E+00  0.45593999997E+02  0.45594000000E+02  0.51100000000E-03 0.  1.
         11   -1    0    0    0    0 -0.00000000000E+00 -0.00000000000E+00 -0.45593999997E+02  0.45594000000E+02  0.51100000000E-03 0. -1.
    9900012    2    1    2    0    0 -0.22041386991E+00  0.76123885179E+00 -0.87475926129E+00  0.90007631147E+02  0.89999891078E+02 0.  0.
        -12    1    1    2    0    0  0.22041386991E+00 -0.76123885179E+00  0.87475926129E+00  0.11803688528E+01  0.00000000000E+00 0.  1.
         11    1    3    3    0    0  0.87102467330E+01  0.38177295518E+01  0.16007869058E+02  0.18619756419E+02  0.51100000000E-03 0. -1.
        -11    1    3    3    0    0  0.23246186941E+02 -0.16267104510E+02  0.69646127590E+01  0.29214888800E+02  0.51100000000E-03 0.  1.
         12    1    3    3    0    0 -0.32176847544E+02  0.13210613810E+02 -0.23847241078E+02  0.42172985928E+02  0.00000000000E+00 0. -1.
</event>
<event>
 7    1  0.3863655E-015  0.9000769E+02  0.7816164E-02  0.1186339E+00
        -11   -1    0    0    0    0  0.00000000000E+00  0.00000000000E+00  0.45593999997E+02  0.45594000000E+02  0.51100000000E-03 0.  1.
         11   -1    0    0    0    0 -0.00000000000E+00 -0.00000000000E+00 -0.45593999997E+02  0.45594000000E+02  0.51100000000E-03 0. -1.
    9900012    2    1    2    0    0 -0.10353647563E+01  0.38177417772E+00 -0.41880411884E+00  0.90007691315E+02  0.89999952041E+02 0.  0.
        -12    1    1    2    0    0  0.10353647563E+01 -0.38177417772E+00  0.41880411884E+00  0.11803086848E+01  0.00000000000E+00 0.  1.
         11    1    3    3    0    0  0.16186597225E+01 -0.93055134172E+01 -0.37858766612E+01  0.10175731011E+02  0.51100000000E-03 0. -1.
        -11    1    3    3    0    0 -0.31850794710E+02  0.19418782230E+02 -0.18926105645E+02  0.41830129119E+02  0.51100000000E-03 0.  1.
         12    1    3    3    0    0  0.29196770231E+02 -0.97314946352E+01  0.22293178187E+02  0.38001831185E+02  0.00000000000E+00 0. -1.
</event>
<event>
 7    1  0.3863655E-015  0.9000770E+02  0.7816164E-02  0.1186339E+00
        -11   -1    0    0    0    0  0.00000000000E+00  0.00000000000E+00  0.45593999997E+02  0.45594000000E+02  0.51100000000E-03 0.  1.
         11   -1    0    0    0    0 -0.00000000000E+00 -0.00000000000E+00 -0.45593999997E+02  0.45594000000E+02  0.51100000000E-03 0. -1.
    9900012    2    1    2    0    0  0.50279717320E+00  0.10256039478E+01 -0.29738778995E+00  0.90007700058E+02  0.89999960899E+02 0.  0.
        -12    1    1    2    0    0 -0.50279717320E+00 -0.10256039478E+01  0.29738778995E+00  0.11802999418E+01  0.00000000000E+00 0.  1.
         11    1    3    3    0    0 -0.23785775655E+02 -0.13185388935E+02 -0.28142164761E+02  0.39135649254E+02  0.51100000000E-03 0. -1.
        -11    1    3    3    0    0 -0.45698578019E+01  0.14932465264E+01 -0.38510815734E+01  0.61598875853E+01  0.51100000000E-03 0.  1.
        -12    1    3    3    0    0  0.28858430630E+02  0.12717746356E+02  0.31695858544E+02  0.44712163218E+02  0.00000000000E+00 0.  1.
</event>
<event>
 7    1  0.3863655E-015  0.9000766E+02  0.7816164E-02  0.1186339E+00
        -11   -1    0    0    0    0  0.00000000000E+00  0.00000000000E+00  0.45593999997E+02  0.45594000000E+02  0.51100000000E-03 0. -1.
         11   -1    0    0    0    0 -0.00000000000E+00 -0.00000000000E+00 -0.45593999997E+02  0.45594000000E+02  0.51100000000E-03 0.  1.
    9900012    2    1    2    0    0 -0.60017692265E+00 -0.34703349764E+00  0.95527344110E+00  0.90007664482E+02  0.89999924853E+02 0.  0.
        -12    1    1    2    0    0  0.60017692265E+00  0.34703349764E+00 -0.95527344110E+00  0.11803355177E+01  0.00000000000E+00 0.  1.
         11    1    3    3    0    0 -0.88163306327E+00 -0.86651473035E+01 -0.23410068941E+01  0.90190003985E+01  0.51100000000E-03 0. -1.
        -11    1    3    3    0    0 -0.35336790594E+02 -0.13938407224E+02 -0.45630540329E+01  0.38259501144E+02  0.51100000000E-03 0.  1.
         12    1    3    3    0    0  0.35618246735E+02  0.22256521030E+02  0.78593343681E+01  0.42729162940E+02  0.00000000000E+00 0. -1.
</event>
<event>
 7    1  0.3863655E-015  0.9000773E+02  0.7816164E-02  0.1186339E+00
        -11   -1    0    0    0    0  0.00000000000E+00  0.00000000000E+00  0.45593999997E+02  0.45594000000E+02  0.51100000000E-03 0.  1.
         11   -1    0    0    0    0 -0.00000000000E+00 -0.00000000000E+00 -0.45593999997E+02  0.45594000000E+02  0.51100000000E-03 0. -1.
    9900012    2    1    2    0    0 -0.11330896366E+01 -0.59169150929E-01  0.32502705204E+00  0.90007730667E+02  0.89999991912E+02 0.  0.
        -12    1    1    2    0    0  0.11330896366E+01  0.59169150929E-01 -0.32502705204E+00  0.11802693326E+01  0.00000000000E+00 0.  1.
         11    1    3    3    0    0  0.97312218868E+01 -0.38275322380E+01 -0.56567549313E+00  0.10472185611E+02  0.51100000000E-03 0. -1.
        -11    1    3    3    0    0  0.27597487102E+02 -0.19476150725E+02 -0.52305963543E+01  0.34180416614E+02  0.51100000000E-03 0.  1.
         12    1    3    3    0    0 -0.38461798625E+02  0.23244513812E+02  0.61212988994E+01  0.45355128443E+02  0.00000000000E+00 0. -1.
</event>
<event>
 7    1  0.3863655E-015  0.9000775E+02  0.7816164E-02  0.1186339E+00
        -11   -1    0    0    0    0  0.00000000000E+00  0.00000000000E+00  0.45593999997E+02  0.45594000000E+02  0.51100000000E-03 0.  1.
         11   -1    0    0    0    0 -0.00000000000E+00 -0.00000000000E+00 -0.45593999997E+02  0.45594000000E+02  0.51100000000E-03 0. -1.
    9900012    2    1    2    0    0  0.52859324058E+00 -0.61555024541E-01 -0.10534615698E+01  0.90007753791E+02  0.90000015341E+02 0.  0.
        -12    1    1    2    0    0 -0.52859324058E+00  0.61555024541E-01  0.10534615698E+01  0.11802462091E+01  0.00000000000E+00 0.  1.
         11    1    3    3    0    0 -0.41517922211E+02  0.81076283961E+00  0.14419425410E+02  0.43958105402E+02  0.51100000000E-03 0. -1.
        -11    1    3    3    0    0  0.52270974482E+01  0.28730888165E+01 -0.75811477854E-01  0.59651433110E+01  0.51100000000E-03 0.  1.
        -12    1    3    3    0    0  0.36819418004E+02 -0.37454066807E+01 -0.15397075501E+02  0.40084505078E+02  0.00000000000E+00 0.  1.
</event>
<event>
 7    1  0.4537656E-015  0.9000779E+02  0.7816164E-02  0.1186339E+00
        -11   -1    0    0    0    0  0.00000000000E+00  0.00000000000E+00  0.45593999997E+02  0.45594000000E+02  0.51100000000E-03 0.  1.
         11   -1    0    0    0    0 -0.00000000000E+00 -0.00000000000E+00 -0.45593999997E+02  0.45594000000E+02  0.51100000000E-03 0. -1.
    9900012    2    1    2    0    0  0.97606950784E+00  0.11428514985E+00 -0.65355014870E+00  0.90007787910E+02  0.90000049911E+02 0.  0.
        -12    1    1    2    0    0 -0.97606950784E+00 -0.11428514985E+00  0.65355014870E+00  0.11802120896E+01  0.00000000000E+00 0.  1.
         11    1    3    3    0    0 -0.64267628681E+01  0.17559297130E+00  0.66538347250E+01  0.92524391737E+01  0.51100000000E-03 0. -1.
        -11    1    3    3    0    0 -0.10946497170E+02  0.32679709814E+02  0.14451890267E+02  0.37371732183E+02  0.51100000000E-03 0.  1.
         12    1    3    3    0    0  0.18349329546E+02 -0.32741017636E+02 -0.21759275141E+02  0.43383616553E+02  0.00000000000E+00 0. -1.
</event>
<event>
 7    1  0.3863655E-015  0.9000777E+02  0.7816164E-02  0.1186339E+00
        -11   -1    0    0    0    0  0.00000000000E+00  0.00000000000E+00  0.45593999997E+02  0.45594000000E+02  0.51100000000E-03 0.  1.
         11   -1    0    0    0    0 -0.00000000000E+00 -0.00000000000E+00 -0.45593999997E+02  0.45594000000E+02  0.51100000000E-03 0. -1.
    9900012    2    1    2    0    0  0.46730399480E-01 -0.11709534404E+01 -0.14005601656E+00  0.90007774862E+02  0.90000036690E+02 0.  0.
        -12    1    1    2    0    0 -0.46730399480E-01  0.11709534404E+01  0.14005601656E+00  0.11802251385E+01  0.00000000000E+00 0.  1.
         11    1    3    3    0    0 -0.13172429931E+02 -0.23206189821E+02 -0.28555455968E+02  0.39082658841E+02  0.51100000000E-03 0. -1.
        -11    1    3    3    0    0  0.23570873257E+01 -0.78519942360E+01 -0.12031357863E+00  0.81990334651E+01  0.51100000000E-03 0.  1.
        -12    1    3    3    0    0  0.10862073004E+02  0.29887230616E+02  0.28535713530E+02  0.42726082555E+02  0.00000000000E+00 0.  1.
</event>
<event>
 7    1  0.3863655E-015  0.9000774E+02  0.7816164E-02  0.1186339E+00
        -11   -1    0    0    0    0  0.00000000000E+00  0.00000000000E+00  0.45593999997E+02  0.45594000000E+02  0.51100000000E-03 0. -1.
         11   -1    0    0    0    0 -0.00000000000E+00 -0.00000000000E+00 -0.45593999997E+02  0.45594000000E+02  0.51100000000E-03 0.  1.
    9900012    2    1    2    0    0  0.73593512037E-01  0.47831911824E+00  0.10764773664E+01  0.90007742103E+02  0.90000003498E+02 0.  0.
        -12    1    1    2    0    0 -0.73593512037E-01 -0.47831911824E+00 -0.10764773664E+01  0.11802578973E+01  0.00000000000E+00 0.  1.
         11    1    3    3    0    0  0.50661662814E+01 -0.10354654542E+02 -0.21548067036E+01  0.11727237682E+02  0.51100000000E-03 0. -1.
        -11    1    3    3    0    0  0.17818585092E+02  0.20423973753E+02 -0.27642562512E+02  0.38713717737E+02  0.51100000000E-03 0.  1.
         12    1    3    3    0    0 -0.22811157861E+02 -0.95910000927E+01  0.30873846581E+02  0.39566786684E+02  0.00000000000E+00 0. -1.
</event>
<event>
 7    1  0.3863655E-015  0.9000755E+02  0.7816164E-02  0.1186339E+00
        -11   -1    0    0    0    0  0.00000000000E+00  0.00000000000E+00  0.45593999997E+02  0.45594000000E+02  0.51100000000E-03 0. -1.
         11   -1    0    0    0    0 -0.00000000000E+00 -0.00000000000E+00 -0.45593999997E+02  0.45594000000E+02  0.51100000000E-03 0.  1.
    9900012    2    1    2    0    0  0.45483761707E+00 -0.81485667467E+00  0.72291032812E+00  0.90007547544E+02  0.89999806371E+02 0.  0.
        -12    1    1    2    0    0 -0.45483761707E+00  0.81485667467E+00 -0.72291032812E+00  0.11804524559E+01  0.00000000000E+00 0.  1.
         11    1    3    3    0    0 -0.64191964640E+01 -0.37242391729E+02 -0.89531982637E+01  0.38837631034E+02  0.51100000000E-03 0. -1.
        -11    1    3    3    0    0  0.95405485369E+01 -0.90842393140E+00 -0.51852862216E+01  0.10896535866E+02  0.51100000000E-03 0.  1.
        -12    1    3    3    0    0 -0.26665144558E+01  0.37335958985E+02  0.14861394813E+02  0.40273380644E+02  0.00000000000E+00 0.  1.
</event>
<event>
 7    1  0.3863655E-015  0.9000773E+02  0.7816164E-02  0.1186339E+00
        -11   -1    0    0    0    0  0.00000000000E+00  0.00000000000E+00  0.45593999997E+02  0.45594000000E+02  0.51100000000E-03 0.  1.
         11   -1    0    0    0    0 -0.00000000000E+00 -0.00000000000E+00 -0.45593999997E+02  0.45594000000E+02  0.51100000000E-03 0. -1.
    9900012    2    1    2    0    0 -0.82580262998E+00  0.52424921552E+00 -0.66050046157E+00  0.90007725420E+02  0.89999986596E+02 0.  0.
        -12    1    1    2    0    0  0.82580262998E+00 -0.52424921552E+00  0.66050046157E+00  0.11802745797E+01  0.00000000000E+00 0.  1.
         11    1    3    3    0    0  0.33813157445E+02  0.74968606356E+01 -0.75283649340E+01  0.35443036193E+02  0.51100000000E-03 0. -1.
        -11    1    3    3    0    0  0.47765793074E+01 -0.11230397097E+02 -0.49895811450E+01  0.13184591351E+02  0.51100000000E-03 0.  1.
        -12    1    3    3    0    0 -0.39415539382E+02  0.42577856767E+01  0.11857445617E+02  0.41380097876E+02  0.00000000000E+00 0.  1.
</event>
<event>
 7    1  0.3863655E-015  0.9000767E+02  0.7816164E-02  0.1186339E+00
        -11   -1    0    0    0    0  0.00000000000E+00  0.00000000000E+00  0.45593999997E+02  0.45594000000E+02  0.51100000000E-03 0. -1.
         11   -1    0    0    0    0 -0.00000000000E+00 -0.00000000000E+00 -0.45593999997E+02  0.45594000000E+02  0.51100000000E-03 0.  1.
    9900012    2    1    2    0    0 -0.19493056952E-01 -0.59799506952E+00 -0.10174479161E+01  0.90007670239E+02  0.89999930686E+02 0.  0.
        -12    1    1    2    0    0  0.19493056952E-01  0.59799506952E+00  0.10174479161E+01  0.11803297609E+01  0.00000000000E+00 0.  1.
         11    1    3    3    0    0  0.34820954645E+01 -0.77997226791E+01  0.49793535182E+01  0.98870938306E+01  0.51100000000E-03 0. -1.
        -11    1    3    3    0    0  0.24126250810E+02  0.19472560565E+02 -0.28751369823E+02  0.42283541243E+02  0.51100000000E-03 0.  1.
         12    1    3    3    0    0 -0.27627839332E+02 -0.12270832955E+02  0.22754568388E+02  0.37837035165E+02  0.00000000000E+00 0. -1.
</event>
<event>
 7    1  0.3863655E-015  0.9000840E+02  0.7816164E-02  0.1186338E+00
        -11   -1    0    0    0    0  0.00000000000E+00  0.00000000000E+00  0.45593999997E+02  0.45594000000E+02  0.51100000000E-03 0. -1.
         11   -1    0    0    0    0 -0.00000000000E+00 -0.00000000000E+00 -0.45593999997E+02  0.45594000000E+02  0.51100000000E-03 0.  1.
    9900012    2    1    2    0    0  0.10078667199E+01  0.17429499915E+00  0.58761296221E+00  0.90008397073E+02  0.90000667112E+02 0.  0.
        -12    1    1    2    0    0 -0.10078667199E+01 -0.17429499915E+00 -0.58761296221E+00  0.11796029269E+01  0.00000000000E+00 0.  1.
         11    1    3    3    0    0 -0.27292337047E+02 -0.24575368606E+02 -0.40601738687E+01  0.36950039455E+02  0.51100000000E-03 0. -1.
        -11    1    3    3    0    0 -0.20286369876E+01 -0.51676915390E+01 -0.69608144587E+01  0.89035578315E+01  0.51100000000E-03 0.  1.
        -12    1    3    3    0    0  0.30328840754E+02  0.29917355144E+02  0.11608601290E+02  0.44154799787E+02  0.00000000000E+00 0.  1.
</event>
<event>
 7    1  0.3863655E-015  0.9000774E+02  0.7816164E-02  0.1186339E+00
        -11   -1    0    0    0    0  0.00000000000E+00  0.00000000000E+00  0.45593999997E+02  0.45594000000E+02  0.51100000000E-03 0. -1.
         11   -1    0    0    0    0 -0.00000000000E+00 -0.00000000000E+00 -0.45593999997E+02  0.45594000000E+02  0.51100000000E-03 0.  1.
    9900012    2    1    2    0    0 -0.16011334306E+00  0.10550906582E+01  0.50414380678E+00  0.90007740047E+02  0.90000001415E+02 0.  0.
        -12    1    1    2    0    0  0.16011334306E+00 -0.10550906582E+01 -0.50414380678E+00  0.11802599534E+01  0.00000000000E+00 0.  1.
         11    1    3    3    0    0  0.71897454823E+01 -0.35699378915E+01  0.10093156728E+01  0.80904644513E+01  0.51100000000E-03 0. -1.
        -11    1    3    3    0    0  0.35777331178E+01 -0.36185289175E+02 -0.11724007441E+02  0.38205073979E+02  0.51100000000E-03 0.  1.
         12    1    3    3    0    0 -0.10927591943E+02  0.40810317725E+02  0.11218835575E+02  0.43712201617E+02  0.00000000000E+00 0. -1.
</event>
<event>
 7    1  0.3863655E-015  0.9000781E+02  0.7816164E-02  0.1186339E+00
        -11   -1    0    0    0    0  0.00000000000E+00  0.00000000000E+00  0.45593999997E+02  0.45594000000E+02  0.51100000000E-03 0. -1.
         11   -1    0    0    0    0 -0.00000000000E+00 -0.00000000000E+00 -0.45593999997E+02  0.45594000000E+02  0.51100000000E-03 0.  1.
    9900012    2    1    2    0    0 -0.11062657979E+01 -0.12110588890E+00 -0.39289410999E+00  0.90007806612E+02  0.90000068859E+02 0.  0.
        -12    1    1    2    0    0  0.11062657979E+01  0.12110588890E+00  0.39289410999E+00  0.11801933883E+01  0.00000000000E+00 0.  1.
         11    1    3    3    0    0  0.20659541321E+02  0.27430481673E+02 -0.11275203940E+02  0.36143854202E+02  0.51100000000E-03 0. -1.
        -11    1    3    3    0    0  0.78399366731E+01  0.38783944491E+01 -0.16561802617E+01  0.89022179181E+01  0.51100000000E-03 0.  1.
        -12    1    3    3    0    0 -0.29605743792E+02 -0.31429982011E+02  0.12538490092E+02  0.44961734492E+02  0.00000000000E+00 0.  1.
</event>
<event>
 7    1  0.3863655E-015  0.9000768E+02  0.7816164E-02  0.1186339E+00
        -11   -1    0    0    0    0  0.00000000000E+00  0.00000000000E+00  0.45593999997E+02  0.45594000000E+02  0.51100000000E-03 0.  1.
         11   -1    0    0    0    0 -0.00000000000E+00 -0.00000000000E+00 -0.45593999997E+02  0.45594000000E+02  0.51100000000E-03 0. -1.
    9900012    2    1    2    0    0 -0.10255560964E+01 -0.31431959085E+00 -0.49253051003E+00  0.90007682917E+02  0.89999943532E+02 0.  0.
        -12    1    1    2    0    0  0.10255560964E+01  0.31431959085E+00  0.49253051003E+00  0.11803170825E+01  0.00000000000E+00 0.  1.
         11    1    3    3    0    0  0.31464748949E+00  0.87722714500E+01  0.43040750145E+01  0.97763393674E+01  0.51100000000E-03 0. -1.
        -11    1    3    3    0    0  0.10082166610E+01 -0.26227901040E+02  0.30912000092E+02  0.40552078168E+02  0.51100000000E-03 0.  1.
         12    1    3    3    0    0 -0.23484202469E+01  0.17141309999E+02 -0.35708605617E+02  0.39679265382E+02  0.00000000000E+00 0. -1.
</event>
<event>
 7    1  0.3863655E-015  0.9000780E+02  0.7816164E-02  0.1186339E+00
        -11   -1    0    0    0    0  0.00000000000E+00  0.00000000000E+00  0.45593999997E+02  0.45594000000E+02  0.51100000000E-03 0.  1.
         11   -1    0    0    0    0 -0.00000000000E+00 -0.00000000000E+00 -0.45593999997E+02  0.45594000000E+02  0.51100000000E-03 0. -1.
    9900012    2    1    2    0    0  0.41440330442E+00  0.78198448775E+00 -0.78080309914E+00  0.90007795222E+02  0.90000057319E+02 0.  0.
        -12    1    1    2    0    0 -0.41440330442E+00 -0.78198448775E+00  0.78080309914E+00  0.11802047778E+01  0.00000000000E+00 0.  1.
         11    1    3    3    0    0 -0.37978537980E+01  0.74202509581E+00 -0.60601992468E+01  0.71902927538E+01  0.51100000000E-03 0. -1.
        -11    1    3    3    0    0 -0.27396294696E+02 -0.79174246384E+01 -0.25300949462E+02  0.38123229401E+02  0.51100000000E-03 0.  1.
         12    1    3    3    0    0  0.31608551799E+02  0.79573840303E+01  0.30580345610E+02  0.44694273068E+02  0.00000000000E+00 0. -1.
</event>
<event>
 7    1  0.3863655E-015  0.9000771E+02  0.7816164E-02  0.1186339E+00
        -11   -1    0    0    0    0  0.00000000000E+00  0.00000000000E+00  0.45593999997E+02  0.45594000000E+02  0.51100000000E-03 0. -1.
         11   -1    0    0    0    0 -0.00000000000E+00 -0.00000000000E+00 -0.45593999997E+02  0.45594000000E+02  0.51100000000E-03 0.  1.
    9900012    2    1    2    0    0  0.56804147180E+00  0.99048427308E+00  0.29890444199E+00  0.90007714410E+02  0.89999975440E+02 0.  0.
        -12    1    1    2    0    0 -0.56804147180E+00 -0.99048427308E+00 -0.29890444199E+00  0.11802855902E+01  0.00000000000E+00 0.  1.
         11    1    3    3    0    0 -0.39379455875E+01 -0.58278009998E+01  0.39446132497E+02  0.40068292317E+02  0.51100000000E-03 0. -1.
        -11    1    3    3    0    0  0.73077550107E+01 -0.73854573005E+01 -0.27188876031E+01  0.10739674711E+02  0.51100000000E-03 0.  1.
        -12    1    3    3    0    0 -0.28017679515E+01  0.14203742573E+02 -0.36428340452E+02  0.39199747382E+02  0.00000000000E+00 0.  1.
</event>
<event>
 7    1  0.3863655E-015  0.9000808E+02  0.7816164E-02  0.1186338E+00
        -11   -1    0    0    0    0  0.00000000000E+00  0.00000000000E+00  0.45593999997E+02  0.45594000000E+02  0.51100000000E-03 0. -1.
         11   -1    0    0    0    0 -0.00000000000E+00 -0.00000000000E+00 -0.45593999997E+02  0.45594000000E+02  0.51100000000E-03 0.  1.
    9900012    2    1    2    0    0  0.11144806896E+01  0.34837016233E+00 -0.16967538777E+00  0.90008076818E+02  0.90000342632E+02 0.  0.
        -12    1    1    2    0    0 -0.11144806896E+01 -0.34837016233E+00  0.16967538777E+00  0.11799231817E+01  0.00000000000E+00 0.  1.
         11    1    3    3    0    0 -0.21217310097E+01  0.90843732557E+01 -0.19658048867E+01  0.95337279718E+01  0.51100000000E-03 0. -1.
        -11    1    3    3    0    0 -0.23290844967E+02  0.25429360900E+02 -0.95016877408E+01  0.35768672400E+02  0.51100000000E-03 0.  1.
         12    1    3    3    0    0  0.26527056666E+02 -0.34165363994E+02  0.11297817240E+02  0.44705676447E+02  0.00000000000E+00 0. -1.
</event>
<event>
 7    1  0.3863655E-015  0.9000774E+02  0.7816164E-02  0.1186339E+00
        -11   -1    0    0    0    0  0.00000000000E+00  0.00000000000E+00  0.45593999997E+02  0.45594000000E+02  0.51100000000E-03 0.  1.
         11   -1    0    0    0    0 -0.00000000000E+00 -0.00000000000E+00 -0.45593999997E+02  0.45594000000E+02  0.51100000000E-03 0. -1.
    9900012    2    1    2    0    0  0.53215483134E-01  0.12070023620E+00 -0.11728610143E+01  0.90007744353E+02  0.90000005778E+02 0.  0.
        -12    1    1    2    0    0 -0.53215483134E-01 -0.12070023620E+00  0.11728610143E+01  0.11802556475E+01  0.00000000000E+00 0.  1.
         11    1    3    3    0    0 -0.10267573900E+02  0.37003189034E+02  0.33457283338E+01  0.38546763429E+02  0.51100000000E-03 0. -1.
        -11    1    3    3    0    0 -0.39886250084E+00  0.43432348108E+01  0.61585943427E+01  0.75465929038E+01  0.51100000000E-03 0.  1.
        -12    1    3    3    0    0  0.10719651884E+02 -0.41225723609E+02 -0.10677183691E+02  0.43914388020E+02  0.00000000000E+00 0.  1.
</event>
<event>
 7    1  0.3863655E-015  0.9000753E+02  0.7816164E-02  0.1186339E+00
        -11   -1    0    0    0    0  0.00000000000E+00  0.00000000000E+00  0.45593999997E+02  0.45594000000E+02  0.51100000000E-03 0.  1.
         11   -1    0    0    0    0 -0.00000000000E+00 -0.00000000000E+00 -0.45593999997E+02  0.45594000000E+02  0.51100000000E-03 0. -1.
    9900012    2    1    2    0    0 -0.54216597176E+00  0.12510588745E+00 -0.10411081291E+01  0.90007533329E+02  0.89999791969E+02 0.  0.
        -12    1    1    2    0    0  0.54216597176E+00 -0.12510588745E+00  0.10411081291E+01  0.11804666707E+01  0.00000000000E+00 0.  1.
         11    1    3    3    0    0 -0.91020616936E+01  0.20463270992E+01  0.27419677574E+01  0.97238556713E+01  0.51100000000E-03 0. -1.
        -11    1    3    3    0    0 -0.13681396482E+02  0.34063060992E+02  0.50928487484E+01  0.37059544553E+02  0.51100000000E-03 0.  1.
         12    1    3    3    0    0  0.22241292204E+02 -0.35984282203E+02 -0.88759246350E+01  0.43224133105E+02  0.00000000000E+00 0. -1.
</event>
<event>
 7    1  0.3863655E-015  0.9000767E+02  0.7816164E-02  0.1186339E+00
        -11   -1    0    0    0    0  0.00000000000E+00  0.00000000000E+00  0.45593999997E+02  0.45594000000E+02  0.51100000000E-03 0.  1.
         11   -1    0    0    0    0 -0.00000000000E+00 -0.00000000000E+00 -0.45593999997E+02  0.45594000000E+02  0.51100000000E-03 0. -1.
    9900012    2    1    2    0    0  0.36916706222E+00  0.45467461076E+00 -0.10247708815E+01  0.90007674333E+02  0.89999934834E+02 0.  0.
        -12    1    1    2    0    0 -0.36916706222E+00 -0.45467461076E+00  0.10247708815E+01  0.11803256674E+01  0.00000000000E+00 0.  1.
         11    1    3    3    0    0  0.79831643299E+01  0.19778971407E+01  0.13378917815E+01  0.83326433079E+01  0.51100000000E-03 0. -1.
        -11    1    3    3    0    0  0.24819817428E+02 -0.21692186139E+02 -0.21094845065E+02  0.39135236875E+02  0.51100000000E-03 0.  1.
         12    1    3    3    0    0 -0.32433814696E+02  0.20168963609E+02  0.18732182402E+02  0.42539794150E+02  0.00000000000E+00 0. -1.
</event>
<event>
 7    1  0.3863655E-015  0.9000777E+02  0.7816164E-02  0.1186339E+00
        -11   -1    0    0    0    0  0.00000000000E+00  0.00000000000E+00  0.45593999997E+02  0.45594000000E+02  0.51100000000E-03 0. -1.
         11   -1    0    0    0    0 -0.00000000000E+00 -0.00000000000E+00 -0.45593999997E+02  0.45594000000E+02  0.51100000000E-03 0.  1.
    9900012    2    1    2    0    0 -0.92543340661E+00 -0.47237793740E+00  0.55979440811E+00  0.90007772189E+02  0.90000033982E+02 0.  0.
        -12    1    1    2    0    0  0.92543340661E+00  0.47237793740E+00 -0.55979440811E+00  0.11802278107E+01  0.00000000000E+00 0.  1.
         11    1    3    3    0    0 -0.14351505331E+02  0.34199975262E+02  0.17131181840E+02  0.40854392722E+02  0.51100000000E-03 0. -1.
        -11    1    3    3    0    0 -0.18007529154E+01  0.28279565740E+01 -0.67017691050E+01  0.74935811762E+01  0.51100000000E-03 0.  1.
        -12    1    3    3    0    0  0.15226824839E+02 -0.37500309773E+02 -0.98696183268E+01  0.41659798292E+02  0.00000000000E+00 0.  1.
</event>
<event>
 7    1  0.3863655E-015  0.9000770E+02  0.7816164E-02  0.1186339E+00
        -11   -1    0    0    0    0  0.00000000000E+00  0.00000000000E+00  0.45593999997E+02  0.45594000000E+02  0.51100000000E-03 0. -1.
         11   -1    0    0    0    0 -0.00000000000E+00 -0.00000000000E+00 -0.45593999997E+02  0.45594000000E+02  0.51100000000E-03 0.  1.
    9900012    2    1    2    0    0 -0.50564305529E+00  0.37533208075E+00  0.99827363255E+00  0.90007703717E+02  0.89999964606E+02 0.  0.
        -12    1    1    2    0    0  0.50564305529E+00 -0.37533208075E+00 -0.99827363255E+00  0.11802962830E+01  0.00000000000E+00 0.  1.
         11    1    3    3    0    0 -0.49297130085E+01 -0.40776602634E+02 -0.62218044348E+01  0.41542077986E+02  0.51100000000E-03 0. -1.
        -11    1    3    3    0    0 -0.56768592036E+01  0.38682661817E+01  0.70417388664E+01  0.98374946096E+01  0.51100000000E-03 0.  1.
        -12    1    3    3    0    0  0.10100929157E+02  0.37283668533E+02  0.17833920097E+00  0.38628131122E+02  0.00000000000E+00 0.  1.
</event>
<event>
 7    1  0.3863655E-015  0.9000782E+02  0.7816164E-02  0.1186339E+00
        -11   -1    0    0    0    0  0.00000000000E+00  0.00000000000E+00  0.45593999997E+02  0.45594000000E+02  0.51100000000E-03 0.  1.
         11   -1    0    0    0    0 -0.00000000000E+00 -0.00000000000E+00 -0.45593999997E+02  0.45594000000E+02  0.51100000000E-03 0. -1.
    9900012    2    1    2    0    0 -0.59075157218E-01  0.11748343851E+01  0.95364886022E-01  0.90007821976E+02  0.90000084426E+02 0.  0.
        -12    1    1    2    0    0  0.59075157218E-01 -0.11748343851E+01 -0.95364886022E-01  0.11801780239E+01  0.00000000000E+00 0.  1.
         11    1    3    3    0    0  0.83807810696E+01  0.62126427190E+01 -0.35823644398E+02  0.37311766497E+02  0.51100000000E-03 0. -1.
        -11    1    3    3    0    0  0.67547863160E-01  0.15438978113E+02  0.91914470574E+01  0.17968007879E+02  0.51100000000E-03 0.  1.
        -12    1    3    3    0    0 -0.85074040900E+01 -0.20476786447E+02  0.26727562227E+02  0.34728047600E+02  0.00000000000E+00 0.  1.
</event>
<event>
 7    1  0.3863655E-015  0.9000765E+02  0.7816164E-02  0.1186339E+00
        -11   -1    0    0    0    0  0.00000000000E+00  0.00000000000E+00  0.45593999997E+02  0.45594000000E+02  0.51100000000E-03 0.  1.
         11   -1    0    0    0    0 -0.00000000000E+00 -0.00000000000E+00 -0.45593999997E+02  0.45594000000E+02  0.51100000000E-03 0. -1.
    9900012    2    1    2    0    0  0.91196430899E+00 -0.15340773183E+00 -0.73349967866E+00  0.90007646404E+02  0.89999906536E+02 0.  0.
        -12    1    1    2    0    0 -0.91196430899E+00  0.15340773183E+00  0.73349967866E+00  0.11803535960E+01  0.00000000000E+00 0.  1.
         11    1    3    3    0    0  0.86761565230E+01 -0.40199268770E+02 -0.12845884695E+02  0.43084494374E+02  0.51100000000E-03 0. -1.
        -11    1    3    3    0    0  0.28490083531E+01  0.40129223912E+01  0.76489806001E+01  0.90954548647E+01  0.51100000000E-03 0.  1.
        -12    1    3    3    0    0 -0.10613200567E+02  0.36032938647E+02  0.44634044158E+01  0.37827697165E+02  0.00000000000E+00 0.  1.
</event>
<event>
 7    1  0.3863655E-015  0.9000765E+02  0.7816164E-02  0.1186339E+00
        -11   -1    0    0    0    0  0.00000000000E+00  0.00000000000E+00  0.45593999997E+02  0.45594000000E+02  0.51100000000E-03 0.  1.
         11   -1    0    0    0    0 -0.00000000000E+00 -0.00000000000E+00 -0.45593999997E+02  0.45594000000E+02  0.51100000000E-03 0. -1.
    9900012    2    1    2    0    0  0.43431276911E+00 -0.60214289282E+00 -0.91761381931E+00  0.90007653116E+02  0.89999913337E+02 0.  0.
        -12    1    1    2    0    0 -0.43431276911E+00  0.60214289282E+00  0.91761381931E+00  0.11803468838E+01  0.00000000000E+00 0.  1.
         11    1    3    3    0    0  0.14596608827E+01 -0.90549112741E+01 -0.34961445744E+01  0.98155517023E+01  0.51100000000E-03 0. -1.
        -11    1    3    3    0    0  0.19212576705E+02 -0.10842345332E+02  0.32473488470E+02  0.39258209455E+02  0.51100000000E-03 0.  1.
         12    1    3    3    0    0 -0.20237924819E+02  0.19295113713E+02 -0.29894957715E+02  0.40933891959E+02  0.00000000000E+00 0. -1.
</event>
<event>
 7    1  0.3863655E-015  0.9000783E+02  0.7816164E-02  0.1186339E+00
        -11   -1    0    0    0    0  0.00000000000E+00  0.00000000000E+00  0.45593999997E+02  0.45594000000E+02  0.51100000000E-03 0. -1.
         11   -1    0    0    0    0 -0.00000000000E+00 -0.00000000000E+00 -0.45593999997E+02  0.45594000000E+02  0.51100000000E-03 0.  1.
    9900012    2    1    2    0    0 -0.82753731288E+00 -0.21794944444E+00  0.81270335468E+00  0.90007827679E+02  0.90000090204E+02 0.  0.
        -12    1    1    2    0    0  0.82753731288E+00  0.21794944444E+00 -0.81270335468E+00  0.11801723210E+01  0.00000000000E+00 0.  1.
         11    1    3    3    0    0 -0.15364528805E+01 -0.95348291460E+01  0.40933777558E+02  0.42057672306E+02  0.51100000000E-03 0. -1.
        -11    1    3    3    0    0  0.87590768255E+01  0.48654768658E+01 -0.41904488443E+01  0.10860670041E+02  0.51100000000E-03 0.  1.
        -12    1    3    3    0    0 -0.80501612579E+01  0.44514028357E+01 -0.35930625359E+02  0.37089485332E+02  0.00000000000E+00 0.  1.
</event>
<event>
 7    1  0.3863655E-015  0.9000761E+02  0.7816164E-02  0.1186339E+00
        -11   -1    0    0    0    0  0.00000000000E+00  0.00000000000E+00  0.45593999997E+02  0.45594000000E+02  0.51100000000E-03 0. -1.
         11   -1    0    0    0    0 -0.00000000000E+00 -0.00000000000E+00 -0.45593999997E+02  0.45594000000E+02  0.51100000000E-03 0.  1.
    9900012    2    1    2    0    0  0.24310447931E-01 -0.10584010625E+01 -0.52202735228E+00  0.90007611774E+02  0.89999871450E+02 0.  0.
        -12    1    1    2    0    0 -0.24310447931E-01  0.10584010625E+01  0.52202735228E+00  0.11803882258E+01  0.00000000000E+00 0.  1.
         11    1    3    3    0    0  0.52781270527E+01  0.16016130317E+02  0.33078923211E+02  0.37129371347E+02  0.51100000000E-03 0. -1.
        -11    1    3    3    0    0  0.40539931194E+01  0.87941465368E+01 -0.29062889186E+00  0.96879481283E+01  0.51100000000E-03 0.  1.
        -12    1    3    3    0    0 -0.93078097241E+01 -0.25868677917E+02 -0.33310321672E+02  0.43190292299E+02  0.00000000000E+00 0.  1.
</event>
<event>
 7    1  0.3863655E-015  0.9000765E+02  0.7816164E-02  0.1186339E+00
        -11   -1    0    0    0    0  0.00000000000E+00  0.00000000000E+00  0.45593999997E+02  0.45594000000E+02  0.51100000000E-03 0.  1.
         11   -1    0    0    0    0 -0.00000000000E+00 -0.00000000000E+00 -0.45593999997E+02  0.45594000000E+02  0.51100000000E-03 0. -1.
    9900012    2    1    2    0    0 -0.56422416230E+00 -0.61571423850E+00 -0.83412454213E+00  0.90007654000E+02  0.89999914232E+02 0.  0.
        -12    1    1    2    0    0  0.56422416230E+00  0.61571423850E+00  0.83412454213E+00  0.11803460004E+01  0.00000000000E+00 0.  1.
         11    1    3    3    0    0  0.24469435604E+01  0.28493265543E+00  0.81847569727E+01  0.85474537945E+01  0.51100000000E-03 0. -1.
        -11    1    3    3    0    0  0.22786394591E+02  0.16743899307E+02 -0.31972273094E+02  0.42682598205E+02  0.51100000000E-03 0.  1.
         12    1    3    3    0    0 -0.25797562313E+02 -0.17644546201E+02  0.22953391579E+02  0.38777602001E+02  0.00000000000E+00 0. -1.
</event>
<event>
 7    1  0.3863655E-015  0.9000778E+02  0.7816164E-02  0.1186339E+00
        -11   -1    0    0    0    0  0.00000000000E+00  0.00000000000E+00  0.45593999997E+02  0.45594000000E+02  0.51100000000E-03 0.  1.
         11   -1    0    0    0    0 -0.00000000000E+00 -0.00000000000E+00 -0.45593999997E+02  0.45594000000E+02  0.51100000000E-03 0. -1.
    9900012    2    1    2    0    0 -0.39347166266E+00 -0.10721703509E+01  0.29757053080E+00  0.90007780770E+02  0.90000042676E+02 0.  0.
        -12    1    1    2    0    0  0.39347166266E+00  0.10721703509E+01 -0.29757053080E+00  0.11802192302E+01  0.00000000000E+00 0.  1.
         11    1    3    3    0    0  0.46589828959E+01  0.23312473094E+02 -0.30454607637E+02  0.38634966675E+02  0.51100000000E-03 0. -1.
        -11    1    3    3    0    0  0.25626937355E+00  0.76087325526E+00 -0.62609872993E+01  0.63122550904E+01  0.51100000000E-03 0.  1.
        -12    1    3    3    0    0 -0.53087239321E+01 -0.25145516700E+02  0.37013165467E+02  0.45060559005E+02  0.00000000000E+00 0.  1.
</event>
<event>
 7    1  0.3863655E-015  0.9000757E+02  0.7816164E-02  0.1186339E+00
        -11   -1    0    0    0    0  0.00000000000E+00  0.00000000000E+00  0.45593999997E+02  0.45594000000E+02  0.51100000000E-03 0. -1.
         11   -1    0    0    0    0 -0.00000000000E+00 -0.00000000000E+00 -0.45593999997E+02  0.45594000000E+02  0.51100000000E-03 0.  1.
    9900012    2    1    2    0    0 -0.54993037060E+00  0.76510596656E+00  0.71106014376E+00  0.90007569112E+02  0.89999828224E+02 0.  0.
        -12    1    1    2    0    0  0.54993037060E+00 -0.76510596656E+00 -0.71106014376E+00  0.11804308877E+01  0.00000000000E+00 0.  1.
         11    1    3    3    0    0 -0.30916087169E+02  0.12302498163E+02 -0.14817917992E+02  0.36424258411E+02  0.51100000000E-03 0. -1.
        -11    1    3    3    0    0 -0.89985064475E+01 -0.65224712955E+01  0.65396048936E+01  0.12895044882E+02  0.51100000000E-03 0.  1.
        -12    1    3    3    0    0  0.39364663246E+02 -0.50149209009E+01  0.89893732419E+01  0.40688265819E+02  0.00000000000E+00 0.  1.
</event>
<event>
 7    1  0.3863655E-015  0.9000750E+02  0.7816164E-02  0.1186340E+00
        -11   -1    0    0    0    0  0.00000000000E+00  0.00000000000E+00  0.45593999997E+02  0.45594000000E+02  0.51100000000E-03 0.  1.
         11   -1    0    0    0    0 -0.00000000000E+00 -0.00000000000E+00 -0.45593999997E+02  0.45594000000E+02  0.51100000000E-03 0. -1.
    9900012    2    1    2    0    0  0.24979576330E-01 -0.16122878725E+00 -0.11691725208E+01  0.90007498799E+02  0.89999756983E+02 0.  0.
        -12    1    1    2    0    0 -0.24979576330E-01  0.16122878725E+00  0.11691725208E+01  0.11805012005E+01  0.00000000000E+00 0.  1.
         11    1    3    3    0    0 -0.34829170177E+02 -0.71189833210E+01 -0.17878878360E+02  0.39792025714E+02  0.51100000000E-03 0. -1.
        -11    1    3    3    0    0  0.30229000928E+01 -0.10450303804E+02  0.19723927102E+01  0.11056089174E+02  0.51100000000E-03 0.  1.
        -12    1    3    3    0    0  0.31831249661E+02  0.17408058338E+02  0.14737313129E+02  0.39159383911E+02  0.00000000000E+00 0.  1.
</event>
<event>
 7    1  0.3863655E-015  0.9000782E+02  0.7816164E-02  0.1186339E+00
        -11   -1    0    0    0    0  0.00000000000E+00  0.00000000000E+00  0.45593999997E+02  0.45594000000E+02  0.51100000000E-03 0. -1.
         11   -1    0    0    0    0 -0.00000000000E+00 -0.00000000000E+00 -0.45593999997E+02  0.45594000000E+02  0.51100000000E-03 0.  1.
    9900012    2    1    2    0    0 -0.35116328961E+00 -0.39506966841E+00 -0.10551935360E+01  0.90007818193E+02  0.90000080593E+02 0.  0.
        -12    1    1    2    0    0  0.35116328961E+00  0.39506966841E+00  0.10551935360E+01  0.11801818069E+01  0.00000000000E+00 0.  1.
         11    1    3    3    0    0  0.30048835177E+02 -0.26066428703E+01  0.19454453186E+02  0.35891542619E+02  0.51100000000E-03 0. -1.
        -11    1    3    3    0    0  0.70396119692E+01 -0.46083572336E+01  0.35074304152E+01  0.91156547459E+01  0.51100000000E-03 0.  1.
        -12    1    3    3    0    0 -0.37439610435E+02  0.68199304355E+01 -0.24017077137E+02  0.45000620828E+02  0.00000000000E+00 0.  1.
</event>
<event>
 7    1  0.3863655E-015  0.9000768E+02  0.7816164E-02  0.1186339E+00
        -11   -1    0    0    0    0  0.00000000000E+00  0.00000000000E+00  0.45593999997E+02  0.45594000000E+02  0.51100000000E-03 0. -1.
         11   -1    0    0    0    0 -0.00000000000E+00 -0.00000000000E+00 -0.45593999997E+02  0.45594000000E+02  0.51100000000E-03 0.  1.
    9900012    2    1    2    0    0  0.52802639390E+00  0.19689017517E+00 -0.10371016979E+01  0.90007679050E+02  0.89999939613E+02 0.  0.
        -12    1    1    2    0    0 -0.52802639390E+00 -0.19689017517E+00  0.10371016979E+01  0.11803209502E+01  0.00000000000E+00 0.  1.
         11    1    3    3    0    0 -0.55721676474E+01 -0.48003289093E+01 -0.15837798713E+01  0.75233349566E+01  0.51100000000E-03 0. -1.
        -11    1    3    3    0    0 -0.29838227724E+02 -0.15014635131E+02 -0.17332690309E+02  0.37632183772E+02  0.51100000000E-03 0.  1.
         12    1    3    3    0    0  0.35938421766E+02  0.20011854215E+02  0.17879368482E+02  0.44852160321E+02  0.00000000000E+00 0. -1.
</event>
<event>
 7    1  0.3863655E-015  0.9000772E+02  0.7816164E-02  0.1186339E+00
        -11   -1    0    0    0    0  0.00000000000E+00  0.00000000000E+00  0.45593999997E+02  0.45594000000E+02  0.51100000000E-03 0.  1.
         11   -1    0    0    0    0 -0.00000000000E+00 -0.00000000000E+00 -0.45593999997E+02  0.45594000000E+02  0.51100000000E-03 0. -1.
    9900012    2    1    2    0    0 -0.20695680711E-01  0.58941663447E+00 -0.10223602849E+01  0.90007720020E+02  0.89999981124E+02 0.  0.
        -12    1    1    2    0    0  0.20695680711E-01 -0.58941663447E+00  0.10223602849E+01  0.11802799805E+01  0.00000000000E+00 0.  1.
         11    1    3    3    0    0 -0.21463963221E+02 -0.15076837391E+02 -0.21768922432E+02  0.34086635606E+02  0.51100000000E-03 0. -1.
        -11    1    3    3    0    0 -0.48266632220E+01 -0.95692227236E+01 -0.44752839358E+01  0.11614424995E+02  0.51100000000E-03 0.  1.
        -12    1    3    3    0    0  0.26269930762E+02  0.25235476749E+02  0.25221846083E+02  0.44306659418E+02  0.00000000000E+00 0.  1.
</event>
<event>
 7    1  0.3863655E-015  0.9000769E+02  0.7816164E-02  0.1186339E+00
        -11   -1    0    0    0    0  0.00000000000E+00  0.00000000000E+00  0.45593999997E+02  0.45594000000E+02  0.51100000000E-03 0.  1.
         11   -1    0    0    0    0 -0.00000000000E+00 -0.00000000000E+00 -0.45593999997E+02  0.45594000000E+02  0.51100000000E-03 0. -1.
    9900012    2    1    2    0    0 -0.86477615677E+00 -0.40268404510E+00  0.69508660594E+00  0.90007687486E+02  0.89999948161E+02 0.  0.
        -12    1    1    2    0    0  0.86477615677E+00  0.40268404510E+00 -0.69508660594E+00  0.11803125142E+01  0.00000000000E+00 0.  1.
         11    1    3    3    0    0  0.57282761819E+01  0.38826245212E+01  0.75298405414E+01  0.10226750218E+02  0.51100000000E-03 0. -1.
        -11    1    3    3    0    0  0.30307740136E+02  0.73064901175E+01  0.15815590784E+02  0.34958215374E+02  0.51100000000E-03 0.  1.
         12    1    3    3    0    0 -0.36900792475E+02 -0.11591798684E+02 -0.22650344720E+02  0.44822721893E+02  0.00000000000E+00 0. -1.
</event>
<event>
 7    1  0.3863655E-015  0.9000776E+02  0.7816164E-02  0.1186339E+00
        -11   -1    0    0    0    0  0.00000000000E+00  0.00000000000E+00  0.45593999997E+02  0.45594000000E+02  0.51100000000E-03 0. -1.
         11   -1    0    0    0    0 -0.00000000000E+00 -0.00000000000E+00 -0.45593999997E+02  0.45594000000E+02  0.51100000000E-03 0.  1.
    9900012    2    1    2    0    0 -0.46064736794E+00 -0.10331376329E+01  0.33674082219E+00  0.90007761148E+02  0.90000022795E+02 0.  0.
        -12    1    1    2    0    0  0.46064736794E+00  0.10331376329E+01 -0.33674082219E+00  0.11802388518E+01  0.00000000000E+00 0.  1.
         11    1    3    3    0    0 -0.10832475345E+02  0.10495972594E+02 -0.37789426137E+01  0.15549545663E+02  0.51100000000E-03 0. -1.
        -11    1    3    3    0    0 -0.13446215728E+02 -0.67101723822E+01 -0.29424641528E+02  0.33039925244E+02  0.51100000000E-03 0.  1.
         12    1    3    3    0    0  0.23818043705E+02 -0.48189378448E+01  0.33540324963E+02  0.41418290242E+02  0.00000000000E+00 0. -1.
</event>
<event>
 7    1  0.3863655E-015  0.9000791E+02  0.7816164E-02  0.1186339E+00
        -11   -1    0    0    0    0  0.00000000000E+00  0.00000000000E+00  0.45593999997E+02  0.45594000000E+02  0.51100000000E-03 0.  1.
         11   -1    0    0    0    0 -0.00000000000E+00 -0.00000000000E+00 -0.45593999997E+02  0.45594000000E+02  0.51100000000E-03 0. -1.
    9900012    2    1    2    0    0 -0.26305630202E+00 -0.11503905396E+01 -0.34943993705E-02  0.90007911350E+02  0.90000174979E+02 0.  0.
        -12    1    1    2    0    0  0.26305630202E+00  0.11503905396E+01  0.34943993705E-02  0.11800886503E+01  0.00000000000E+00 0.  1.
         11    1    3    3    0    0  0.67110345130E+01  0.45075717574E+01  0.60177863010E+01  0.10078191287E+02  0.51100000000E-03 0. -1.
        -11    1    3    3    0    0 -0.17629443615E+00  0.34569134763E+02 -0.15749941723E+02  0.37988377467E+02  0.51100000000E-03 0.  1.
         12    1    3    3    0    0 -0.67977963789E+01 -0.40227097060E+02  0.97286610221E+01  0.41941342597E+02  0.00000000000E+00 0. -1.
</event>
<event>
 7    1  0.3863655E-015  0.9000774E+02  0.7816164E-02  0.1186339E+00
        -11   -1    0    0    0    0  0.00000000000E+00  0.00000000000E+00  0.45593999997E+02  0.45594000000E+02  0.51100000000E-03 0.  1.
         11   -1    0    0    0    0 -0.00000000000E+00 -0.00000000000E+00 -0.45593999997E+02  0.45594000000E+02  0.51100000000E-03 0. -1.
    9900012    2    1    2    0    0 -0.95230484518E+00 -0.40043093462E+00 -0.57076813798E+00  0.90007743367E+02  0.90000004780E+02 0.  0.
        -12    1    1    2    0    0  0.95230484518E+00  0.40043093462E+00  0.57076813798E+00  0.11802566326E+01  0.00000000000E+00 0.  1.
         11    1    3    3    0    0  0.30254708974E+01  0.29668317997E+01 -0.10053297435E+02  0.10909828351E+02  0.51100000000E-03 0. -1.
        -11    1    3    3    0    0  0.25468004634E+02  0.16917549247E+02  0.25599664072E+02  0.39876879685E+02  0.51100000000E-03 0.  1.
         12    1    3    3    0    0 -0.29445780376E+02 -0.20284811981E+02 -0.16117134775E+02  0.39221035331E+02  0.00000000000E+00 0. -1.
</event>
<event>
 7    1  0.3863655E-015  0.9000780E+02  0.7816164E-02  0.1186339E+00
        -11   -1    0    0    0    0  0.00000000000E+00  0.00000000000E+00  0.45593999997E+02  0.45594000000E+02  0.51100000000E-03 0.  1.
         11   -1    0    0    0    0 -0.00000000000E+00 -0.00000000000E+00 -0.45593999997E+02  0.45594000000E+02  0.51100000000E-03 0. -1.
    9900012    2    1    2    0    0  0.30508976702E+00  0.87475534134E+00  0.73116636648E+00  0.90007796234E+02  0.90000058345E+02 0.  0.
        -12    1    1    2    0    0 -0.30508976702E+00 -0.87475534134E+00 -0.73116636648E+00  0.11802037657E+01  0.00000000000E+00 0.  1.
         11    1    3    3    0    0  0.73864319485E+01  0.32705226574E+01 -0.12090072236E+01  0.81680716274E+01  0.51100000000E-03 0. -1.
        -11    1    3    3    0    0  0.10089358206E+02  0.27717399504E+02  0.26262093828E+02  0.39493631850E+02  0.51100000000E-03 0.  1.
         12    1    3    3    0    0 -0.17170700387E+02 -0.30113166820E+02 -0.24321920238E+02  0.42346092757E+02  0.00000000000E+00 0. -1.
</event>
<event>
 7    1  0.4178905E-015  0.9000768E+02  0.7816164E-02  0.1186339E+00
        -11   -1    0    0    0    0  0.00000000000E+00  0.00000000000E+00  0.45593999997E+02  0.45594000000E+02  0.51100000000E-03 0. -1.
         11   -1    0    0    0    0 -0.00000000000E+00 -0.00000000000E+00 -0.45593999997E+02  0.45594000000E+02  0.51100000000E-03 0.  1.
    9900012    2    1    2    0    0  0.61116932248E+00  0.68316789879E+00  0.74357759676E+00  0.90007680568E+02  0.89999941152E+02 0.  0.
        -12    1    1    2    0    0 -0.61116932248E+00 -0.68316789879E+00 -0.74357759676E+00  0.11803194318E+01  0.00000000000E+00 0.  1.
         11    1    3    3    0    0  0.34403851188E+01  0.94225224655E+01  0.93461221123E-01  0.10031396445E+02  0.51100000000E-03 0. -1.
        -11    1    3    3    0    0  0.15966204656E+02  0.60654173723E+01 -0.33894836197E+02  0.37954827099E+02  0.51100000000E-03 0.  1.
         12    1    3    3    0    0 -0.18795420453E+02 -0.14804771939E+02  0.34544952573E+02  0.42021457024E+02  0.00000000000E+00 0. -1.
</event>
<event>
 7    1  0.3863655E-015  0.9000749E+02  0.7816164E-02  0.1186340E+00
        -11   -1    0    0    0    0  0.00000000000E+00  0.00000000000E+00  0.45593999997E+02  0.45594000000E+02  0.51100000000E-03 0.  1.
         11   -1    0    0    0    0 -0.00000000000E+00 -0.00000000000E+00 -0.45593999997E+02  0.45594000000E+02  0.51100000000E-03 0. -1.
    9900012    2    1    2    0    0 -0.87290115889E+00  0.66013104871E+00  0.44258825018E+00  0.90007485793E+02  0.89999743805E+02 0.  0.
        -12    1    1    2    0    0  0.87290115889E+00 -0.66013104871E+00 -0.44258825018E+00  0.11805142074E+01  0.00000000000E+00 0.  1.
         11    1    3    3    0    0 -0.26119857555E+02  0.21051937799E+02 -0.12243400214E+02  0.35711789270E+02  0.51100000000E-03 0. -1.
        -11    1    3    3    0    0 -0.80952050455E+01 -0.24937418003E+01  0.14075656348E+02  0.16427878584E+02  0.51100000000E-03 0.  1.
        -12    1    3    3    0    0  0.33342161442E+02 -0.17898064950E+02 -0.13896678836E+01  0.37867817938E+02  0.00000000000E+00 0.  1.
</event>
<event>
 7    1  0.3863655E-015  0.9000766E+02  0.7816164E-02  0.1186339E+00
        -11   -1    0    0    0    0  0.00000000000E+00  0.00000000000E+00  0.45593999997E+02  0.45594000000E+02  0.51100000000E-03 0. -1.
         11   -1    0    0    0    0 -0.00000000000E+00 -0.00000000000E+00 -0.45593999997E+02  0.45594000000E+02  0.51100000000E-03 0.  1.
    9900012    2    1    2    0    0 -0.19797273413E+00  0.86467255603E+00  0.77868220357E+00  0.90007661995E+02  0.89999922333E+02 0.  0.
        -12    1    1    2    0    0  0.19797273413E+00 -0.86467255603E+00 -0.77868220357E+00  0.11803380053E+01  0.00000000000E+00 0.  1.
         11    1    3    3    0    0 -0.28551361069E+02 -0.19517014856E+02  0.13818586353E+02  0.37243085491E+02  0.51100000000E-03 0. -1.
        -11    1    3    3    0    0 -0.37344268778E+01 -0.72664250569E+01  0.78938752043E+00  0.82079236188E+01  0.51100000000E-03 0.  1.
        -12    1    3    3    0    0  0.32087815213E+02  0.27648112469E+02 -0.13829291670E+02  0.44556652885E+02  0.00000000000E+00 0.  1.
</event>
<event>
 7    1  0.3863655E-015  0.9000771E+02  0.7816164E-02  0.1186339E+00
        -11   -1    0    0    0    0  0.00000000000E+00  0.00000000000E+00  0.45593999997E+02  0.45594000000E+02  0.51100000000E-03 0.  1.
         11   -1    0    0    0    0 -0.00000000000E+00 -0.00000000000E+00 -0.45593999997E+02  0.45594000000E+02  0.51100000000E-03 0. -1.
    9900012    2    1    2    0    0  0.16711769711E+00  0.10043743750E+01 -0.59697439821E+00  0.90007714169E+02  0.89999975196E+02 0.  0.
        -12    1    1    2    0    0 -0.16711769711E+00 -0.10043743750E+01  0.59697439821E+00  0.11802858306E+01  0.00000000000E+00 0.  1.
         11    1    3    3    0    0  0.11545881256E+02 -0.20526311124E+02 -0.12796787820E+02  0.26802884194E+02  0.51100000000E-03 0. -1.
        -11    1    3    3    0    0 -0.19895151759E+02 -0.12845194839E+02 -0.44091117563E+01  0.24088510969E+02  0.51100000000E-03 0.  1.
         12    1    3    3    0    0  0.85163882001E+01  0.34375880339E+02  0.16608925178E+02  0.39116319006E+02  0.00000000000E+00 0. -1.
</event>
<event>
 7    1  0.3863655E-015  0.9000774E+02  0.7816164E-02  0.1186339E+00
        -11   -1    0    0    0    0  0.00000000000E+00  0.00000000000E+00  0.45593999997E+02  0.45594000000E+02  0.51100000000E-03 0.  1.
         11   -1    0    0    0    0 -0.00000000000E+00 -0.00000000000E+00 -0.45593999997E+02  0.45594000000E+02  0.51100000000E-03 0. -1.
    9900012    2    1    2    0    0 -0.10070330795E+01 -0.14054430920E+00 -0.59928281951E+00  0.90007742306E+02  0.90000003705E+02 0.  0.
        -12    1    1    2    0    0  0.10070330795E+01  0.14054430920E+00  0.59928281951E+00  0.11802576938E+01  0.00000000000E+00 0.  1.
         11    1    3    3    0    0  0.22442461311E+02 -0.25567857795E+02 -0.88620353030E+01  0.35155584078E+02  0.51100000000E-03 0. -1.
        -11    1    3    3    0    0  0.72693623904E+01 -0.66161682842E+01  0.18449912207E+01  0.10001065203E+02  0.51100000000E-03 0.  1.
        -12    1    3    3    0    0 -0.30718856781E+02  0.32043481770E+02  0.64177612628E+01  0.44851093025E+02  0.00000000000E+00 0.  1.
</event>
<event>
 7    1  0.4024538E-015  0.9000789E+02  0.7816164E-02  0.1186339E+00
        -11   -1    0    0    0    0  0.00000000000E+00  0.00000000000E+00  0.45593999997E+02  0.45594000000E+02  0.51100000000E-03 0. -1.
         11   -1    0    0    0    0 -0.00000000000E+00 -0.00000000000E+00 -0.45593999997E+02  0.45594000000E+02  0.51100000000E-03 0.  1.
    9900012    2    1    2    0    0 -0.41842554651E+00  0.57709000803E+00  0.94050559831E+00  0.90007888312E+02  0.90000151638E+02 0.  0.
        -12    1    1    2    0    0  0.41842554651E+00 -0.57709000803E+00 -0.94050559831E+00  0.11801116878E+01  0.00000000000E+00 0.  1.
         11    1    3    3    0    0  0.37206896517E+01  0.75236252656E+01 -0.22056790779E+01  0.86783344645E+01  0.51100000000E-03 0. -1.
        -11    1    3    3    0    0 -0.24741366676E+02  0.18463101759E+02 -0.23774071456E+02  0.38964443091E+02  0.51100000000E-03 0.  1.
         12    1    3    3    0    0  0.20602251477E+02 -0.25409637017E+02  0.26920256132E+02  0.42365110757E+02  0.00000000000E+00 0. -1.
</event>
<event>
 7    1  0.3863655E-015  0.9000774E+02  0.7816164E-02  0.1186339E+00
        -11   -1    0    0    0    0  0.00000000000E+00  0.00000000000E+00  0.45593999997E+02  0.45594000000E+02  0.51100000000E-03 0.  1.
         11   -1    0    0    0    0 -0.00000000000E+00 -0.00000000000E+00 -0.45593999997E+02  0.45594000000E+02  0.51100000000E-03 0. -1.
    9900012    2    1    2    0    0 -0.58025161567E+00 -0.10166247034E+01  0.15101336051E+00  0.90007736148E+02  0.89999997465E+02 0.  0.
        -12    1    1    2    0    0  0.58025161567E+00  0.10166247034E+01 -0.15101336051E+00  0.11802638519E+01  0.00000000000E+00 0.  1.
         11    1    3    3    0    0  0.32144826232E+01  0.37650222648E+01  0.66768872636E+01  0.83119862236E+01  0.51100000000E-03 0. -1.
        -11    1    3    3    0    0  0.15020431703E+02  0.20891998902E+02  0.25723468782E+02  0.36383867759E+02  0.51100000000E-03 0.  1.
         12    1    3    3    0    0 -0.18815165942E+02 -0.25673645870E+02 -0.32249342685E+02  0.45311882165E+02  0.00000000000E+00 0. -1.
</event>
<event>
 7    1  0.3863655E-015  0.9000781E+02  0.7816164E-02  0.1186339E+00
        -11   -1    0    0    0    0  0.00000000000E+00  0.00000000000E+00  0.45593999997E+02  0.45594000000E+02  0.51100000000E-03 0.  1.
         11   -1    0    0    0    0 -0.00000000000E+00 -0.00000000000E+00 -0.45593999997E+02  0.45594000000E+02  0.51100000000E-03 0. -1.
    9900012    2    1    2    0    0  0.64845634130E-02 -0.60815786086E+00 -0.10114120510E+01  0.90007808333E+02  0.90000070603E+02 0.  0.
        -12    1    1    2    0    0 -0.64845634130E-02  0.60815786086E+00  0.10114120510E+01  0.11801916667E+01  0.00000000000E+00 0.  1.
         11    1    3    3    0    0  0.72201988250E+01 -0.25787926614E+01  0.32572783781E+01  0.83301443779E+01  0.51100000000E-03 0. -1.
        -11    1    3    3    0    0 -0.26618250028E+01  0.46198070019E+01  0.38358030624E+02  0.38726818133E+02  0.51100000000E-03 0.  1.
         12    1    3    3    0    0 -0.45518892588E+01 -0.26491722013E+01 -0.42626721053E+02  0.42950845823E+02  0.00000000000E+00 0. -1.
</event>
<event>
 7    1  0.3863655E-015  0.9000776E+02  0.7816164E-02  0.1186339E+00
        -11   -1    0    0    0    0  0.00000000000E+00  0.00000000000E+00  0.45593999997E+02  0.45594000000E+02  0.51100000000E-03 0.  1.
         11   -1    0    0    0    0 -0.00000000000E+00 -0.00000000000E+00 -0.45593999997E+02  0.45594000000E+02  0.51100000000E-03 0. -1.
    9900012    2    1    2    0    0  0.48750364181E+00  0.38464173951E+00 -0.10036746108E+01  0.90007757740E+02  0.90000019342E+02 0.  0.
        -12    1    1    2    0    0 -0.48750364181E+00 -0.38464173951E+00  0.10036746108E+01  0.11802422603E+01  0.00000000000E+00 0.  1.
         11    1    3    3    0    0  0.44549295047E+01  0.18263020376E+01 -0.37559411815E+02  0.37866755765E+02  0.51100000000E-03 0. -1.
        -11    1    3    3    0    0 -0.31368429409E+01 -0.74116655756E+01 -0.54404457134E+01  0.97144747703E+01  0.51100000000E-03 0.  1.
        -12    1    3    3    0    0 -0.83058292192E+00  0.59700052775E+01  0.41996182917E+02  0.42426527205E+02  0.00000000000E+00 0.  1.
</event>
<event>
 7    1  0.3863655E-015  0.9000774E+02  0.7816164E-02  0.1186339E+00
        -11   -1    0    0    0    0  0.00000000000E+00  0.00000000000E+00  0.45593999997E+02  0.45594000000E+02  0.51100000000E-03 0.  1.
         11   -1    0    0    0    0 -0.00000000000E+00 -0.00000000000E+00 -0.45593999997E+02  0.45594000000E+02  0.51100000000E-03 0. -1.
    9900012    2    1    2    0    0  0.83495909454E+00 -0.82524204388E+00  0.12178978558E+00  0.90007739913E+02  0.90000001280E+02 0.  0.
        -12    1    1    2    0    0 -0.83495909454E+00  0.82524204388E+00 -0.12178978558E+00  0.11802600868E+01  0.00000000000E+00 0.  1.
         11    1    3    3    0    0  0.36788867136E+00  0.99990639012E+01  0.20124214017E+01  0.10206197193E+02  0.51100000000E-03 0. -1.
        -11    1    3    3    0    0 -0.22804790529E+01 -0.21401973924E+02  0.35131350896E+02  0.41200204958E+02  0.51100000000E-03 0.  1.
         12    1    3    3    0    0  0.27475494761E+01  0.10577667978E+02 -0.37021982512E+02  0.38601337763E+02  0.00000000000E+00 0. -1.
</event>
<event>
 7    1  0.3863655E-015  0.9000761E+02  0.7816164E-02  0.1186339E+00
        -11   -1    0    0    0    0  0.00000000000E+00  0.00000000000E+00  0.45593999997E+02  0.45594000000E+02  0.51100000000E-03 0. -1.
         11   -1    0    0    0    0 -0.00000000000E+00 -0.00000000000E+00 -0.45593999997E+02  0.45594000000E+02  0.51100000000E-03 0.  1.
    9900012    2    1    2    0    0 -0.75477807612E+00 -0.90530981080E+00  0.63690081238E-01  0.90007605056E+02  0.89999864642E+02 0.  0.
        -12    1    1    2    0    0  0.75477807612E+00  0.90530981080E+00 -0.63690081238E-01  0.11803949441E+01  0.00000000000E+00 0.  1.
         11    1    3    3    0    0 -0.14425994123E+02 -0.24642302964E+02 -0.22463630251E+02  0.36331351284E+02  0.51100000000E-03 0. -1.
        -11    1    3    3    0    0 -0.86243213408E+01 -0.33532015014E+00 -0.57422207320E+01  0.10366506518E+02  0.51100000000E-03 0.  1.
        -12    1    3    3    0    0  0.22295537388E+02  0.24072313304E+02  0.28269541064E+02  0.43309747254E+02  0.00000000000E+00 0.  1.
</event>
<event>
 7    1  0.3863655E-015  0.9000795E+02  0.7816164E-02  0.1186339E+00
        -11   -1    0    0    0    0  0.00000000000E+00  0.00000000000E+00  0.45593999997E+02  0.45594000000E+02  0.51100000000E-03 0.  1.
         11   -1    0    0    0    0 -0.00000000000E+00 -0.00000000000E+00 -0.45593999997E+02  0.45594000000E+02  0.51100000000E-03 0. -1.
    9900012    2    1    2    0    0 -0.38030740959E+00 -0.26562567256E-01 -0.11167677648E+01  0.90007953587E+02  0.90000217774E+02 0.  0.
        -12    1    1    2    0    0  0.38030740959E+00  0.26562567256E-01  0.11167677648E+01  0.11800464127E+01  0.00000000000E+00 0.  1.
         11    1    3    3    0    0  0.84844409097E+01 -0.64914666137E+00 -0.36256069435E+02  0.37241236554E+02  0.51100000000E-03 0. -1.
        -11    1    3    3    0    0 -0.31495807880E+00 -0.42443731577E+01 -0.77077504374E+01  0.88047327704E+01  0.51100000000E-03 0.  1.
        -12    1    3    3    0    0 -0.85497902404E+01  0.48669572518E+01  0.42847052107E+02  0.43961984263E+02  0.00000000000E+00 0.  1.
</event>
<event>
 7    1  0.3863655E-015  0.9000782E+02  0.7816164E-02  0.1186339E+00
        -11   -1    0    0    0    0  0.00000000000E+00  0.00000000000E+00  0.45593999997E+02  0.45594000000E+02  0.51100000000E-03 0.  1.
         11   -1    0    0    0    0 -0.00000000000E+00 -0.00000000000E+00 -0.45593999997E+02  0.45594000000E+02  0.51100000000E-03 0. -1.
    9900012    2    1    2    0    0 -0.44570742564E+00 -0.41960368009E+00 -0.10090149526E+01  0.90007816314E+02  0.90000078690E+02 0.  0.
        -12    1    1    2    0    0  0.44570742564E+00  0.41960368009E+00  0.10090149526E+01  0.11801836857E+01  0.00000000000E+00 0.  1.
         11    1    3    3    0    0  0.31877565735E+02  0.10208262704E+02 -0.24192079221E+02  0.41299449414E+02  0.51100000000E-03 0. -1.
        -11    1    3    3    0    0 -0.79281133661E+01 -0.82211224980E+00 -0.55872875333E+01  0.97338909147E+01  0.51100000000E-03 0.  1.
        -12    1    3    3    0    0 -0.24395159795E+02 -0.98057541341E+01  0.28770351801E+02  0.38974475985E+02  0.00000000000E+00 0.  1.
</event>
<event>
 7    1  0.3937517E-015  0.9000784E+02  0.7816164E-02  0.1186339E+00
        -11   -1    0    0    0    0  0.00000000000E+00  0.00000000000E+00  0.45593999997E+02  0.45594000000E+02  0.51100000000E-03 0. -1.
         11   -1    0    0    0    0 -0.00000000000E+00 -0.00000000000E+00 -0.45593999997E+02  0.45594000000E+02  0.51100000000E-03 0.  1.
    9900012    2    1    2    0    0  0.11696722234E+01  0.34711583484E-01 -0.15307680205E+00  0.90007843014E+02  0.90000105742E+02 0.  0.
        -12    1    1    2    0    0 -0.11696722234E+01 -0.34711583484E-01  0.15307680205E+00  0.11801569859E+01  0.00000000000E+00 0.  1.
         11    1    3    3    0    0  0.16911029954E+01 -0.70698253670E+01 -0.67046311015E+01  0.98891020083E+01  0.51100000000E-03 0. -1.
        -11    1    3    3    0    0 -0.36231632316E+02 -0.99876231945E+01 -0.70871744185E+01  0.38245415920E+02  0.51100000000E-03 0.  1.
         12    1    3    3    0    0  0.35710201544E+02  0.17092160145E+02  0.13638728718E+02  0.41873325086E+02  0.00000000000E+00 0. -1.
</event>
<event>
 7    1  0.3863655E-015  0.9000802E+02  0.7816164E-02  0.1186338E+00
        -11   -1    0    0    0    0  0.00000000000E+00  0.00000000000E+00  0.45593999997E+02  0.45594000000E+02  0.51100000000E-03 0.  1.
         11   -1    0    0    0    0 -0.00000000000E+00 -0.00000000000E+00 -0.45593999997E+02  0.45594000000E+02  0.51100000000E-03 0. -1.
    9900012    2    1    2    0    0  0.83689132100E+00  0.58424938317E+00 -0.59214010060E+00  0.90008015117E+02  0.90000280116E+02 0.  0.
        -12    1    1    2    0    0 -0.83689132100E+00 -0.58424938317E+00  0.59214010060E+00  0.11799848828E+01  0.00000000000E+00 0.  1.
         11    1    3    3    0    0 -0.15253787086E+01  0.29051718266E+01  0.32058357021E+01  0.45873942884E+01  0.51100000000E-03 0. -1.
        -11    1    3    3    0    0  0.59645604702E+01 -0.26579060610E+02  0.32002409819E+02  0.42025904856E+02  0.51100000000E-03 0.  1.
         12    1    3    3    0    0 -0.36022904406E+01  0.24258138166E+02 -0.35800385621E+02  0.43394715973E+02  0.00000000000E+00 0. -1.
</event>
<event>
 7    1  0.3863655E-015  0.9000773E+02  0.7816164E-02  0.1186339E+00
        -11   -1    0    0    0    0  0.00000000000E+00  0.00000000000E+00  0.45593999997E+02  0.45594000000E+02  0.51100000000E-03 0.  1.
         11   -1    0    0    0    0 -0.00000000000E+00 -0.00000000000E+00 -0.45593999997E+02  0.45594000000E+02  0.51100000000E-03 0. -1.
    9900012    2    1    2    0    0  0.53911936392E+00  0.95475411001E+00 -0.43683831997E+00  0.90007731888E+02  0.89999993149E+02 0.  0.
        -12    1    1    2    0    0 -0.53911936392E+00 -0.95475411001E+00  0.43683831997E+00  0.11802681123E+01  0.00000000000E+00 0.  1.
         11    1    3    3    0    0  0.57924100678E+00 -0.30231898437E+01  0.91241668045E+00  0.32105609221E+01  0.51100000000E-03 0. -1.
        -11    1    3    3    0    0  0.28063310193E+02 -0.30341372007E+02  0.62293762426E+01  0.41796571186E+02  0.51100000000E-03 0.  1.
         12    1    3    3    0    0 -0.28103431836E+02  0.34319315961E+02 -0.75786312430E+01  0.45000599779E+02  0.00000000000E+00 0. -1.
</event>
<event>
 7    1  0.3863655E-015  0.9000781E+02  0.7816164E-02  0.1186339E+00
        -11   -1    0    0    0    0  0.00000000000E+00  0.00000000000E+00  0.45593999997E+02  0.45594000000E+02  0.51100000000E-03 0.  1.
         11   -1    0    0    0    0 -0.00000000000E+00 -0.00000000000E+00 -0.45593999997E+02  0.45594000000E+02  0.51100000000E-03 0. -1.
    9900012    2    1    2    0    0 -0.38977508791E+00 -0.46444078351E+00 -0.10125349694E+01  0.90007806404E+02  0.90000068648E+02 0.  0.
        -12    1    1    2    0    0  0.38977508791E+00  0.46444078351E+00  0.10125349694E+01  0.11801935963E+01  0.00000000000E+00 0.  1.
         11    1    3    3    0    0 -0.16056681710E+02  0.40226065489E+02 -0.31776598616E+01  0.43428687463E+02  0.51100000000E-03 0. -1.
        -11    1    3    3    0    0  0.78444120660E+01 -0.36156282804E+01  0.37041826635E+00  0.86455062592E+01  0.51100000000E-03 0.  1.
        -12    1    3    3    0    0  0.78224945556E+01 -0.37074877992E+02  0.17947066258E+01  0.37933612682E+02  0.00000000000E+00 0.  1.
</event>
<event>
 7    1  0.3863655E-015  0.9000756E+02  0.7816164E-02  0.1186339E+00
        -11   -1    0    0    0    0  0.00000000000E+00  0.00000000000E+00  0.45593999997E+02  0.45594000000E+02  0.51100000000E-03 0.  1.
         11   -1    0    0    0    0 -0.00000000000E+00 -0.00000000000E+00 -0.45593999997E+02  0.45594000000E+02  0.51100000000E-03 0. -1.
    9900012    2    1    2    0    0  0.33530794656E-01  0.30376027705E+00 -0.11401996872E+01  0.90007555191E+02  0.89999814119E+02 0.  0.
        -12    1    1    2    0    0 -0.33530794656E-01 -0.30376027705E+00  0.11401996872E+01  0.11804448089E+01  0.00000000000E+00 0.  1.
         11    1    3    3    0    0 -0.64031335513E+01  0.11244366124E+02  0.90373986377E+01  0.15783233611E+02  0.51100000000E-03 0. -1.
        -11    1    3    3    0    0  0.13526696835E+02  0.16818296007E+02  0.22219436351E+02  0.30976280600E+02  0.51100000000E-03 0.  1.
         12    1    3    3    0    0 -0.70900324885E+01 -0.27758901854E+02 -0.32397034676E+02  0.43248040980E+02  0.00000000000E+00 0. -1.
</event>
<event>
 7    1  0.3863655E-015  0.9000771E+02  0.7816164E-02  0.1186339E+00
        -11   -1    0    0    0    0  0.00000000000E+00  0.00000000000E+00  0.45593999997E+02  0.45594000000E+02  0.51100000000E-03 0.  1.
         11   -1    0    0    0    0 -0.00000000000E+00 -0.00000000000E+00 -0.45593999997E+02  0.45594000000E+02  0.51100000000E-03 0. -1.
    9900012    2    1    2    0    0  0.27671513385E+00  0.87391532574E+00  0.74348752743E+00  0.90007714880E+02  0.89999975916E+02 0.  0.
        -12    1    1    2    0    0 -0.27671513385E+00 -0.87391532574E+00 -0.74348752743E+00  0.11802851203E+01  0.00000000000E+00 0.  1.
         11    1    3    3    0    0 -0.43997520790E+01  0.45140460748E+00  0.79801869547E+01  0.91238680706E+01  0.51100000000E-03 0. -1.
        -11    1    3    3    0    0  0.63740403549E+00  0.47147795567E+00  0.36726706299E+02  0.36735262775E+02  0.51100000000E-03 0.  1.
         12    1    3    3    0    0  0.40390631773E+01 -0.48967237411E-01 -0.43963405726E+02  0.44148584034E+02  0.00000000000E+00 0. -1.
</event>
<event>
 7    1  0.3863655E-015  0.9000755E+02  0.7816164E-02  0.1186339E+00
        -11   -1    0    0    0    0  0.00000000000E+00  0.00000000000E+00  0.45593999997E+02  0.45594000000E+02  0.51100000000E-03 0. -1.
         11   -1    0    0    0    0 -0.00000000000E+00 -0.00000000000E+00 -0.45593999997E+02  0.45594000000E+02  0.51100000000E-03 0.  1.
    9900012    2    1    2    0    0  0.55581011991E+00 -0.79544711908E+00  0.67216181951E+00  0.90007549865E+02  0.89999808723E+02 0.  0.
        -12    1    1    2    0    0 -0.55581011991E+00  0.79544711908E+00 -0.67216181951E+00  0.11804501346E+01  0.00000000000E+00 0.  1.
         11    1    3    3    0    0 -0.25948437869E+02 -0.24677894472E+02  0.11939274201E+02  0.37747399541E+02  0.51100000000E-03 0. -1.
        -11    1    3    3    0    0 -0.72281438665E+01 -0.24328335669E+01 -0.47473089669E+01  0.89834116909E+01  0.51100000000E-03 0.  1.
        -12    1    3    3    0    0  0.33732391856E+02  0.26315280919E+02 -0.65198034149E+01  0.43276738633E+02  0.00000000000E+00 0.  1.
</event>
<event>
 7    1  0.3863655E-015  0.9000769E+02  0.7816164E-02  0.1186339E+00
        -11   -1    0    0    0    0  0.00000000000E+00  0.00000000000E+00  0.45593999997E+02  0.45594000000E+02  0.51100000000E-03 0.  1.
         11   -1    0    0    0    0 -0.00000000000E+00 -0.00000000000E+00 -0.45593999997E+02  0.45594000000E+02  0.51100000000E-03 0. -1.
    9900012    2    1    2    0    0  0.69742600546E+00 -0.84682689408E+00  0.43543815647E+00  0.90007692748E+02  0.89999953492E+02 0.  0.
        -12    1    1    2    0    0 -0.69742600546E+00  0.84682689408E+00 -0.43543815647E+00  0.11803072523E+01  0.00000000000E+00 0.  1.
         11    1    3    3    0    0  0.92040689345E+01  0.33034691983E+02 -0.18508116586E+02  0.38968655856E+02  0.51100000000E-03 0. -1.
        -11    1    3    3    0    0  0.10498672039E+02 -0.26437476305E+01  0.45178061760E+01  0.11731244138E+02  0.51100000000E-03 0.  1.
        -12    1    3    3    0    0 -0.19005314968E+02 -0.31237771247E+02  0.14425748566E+02  0.39307792754E+02  0.00000000000E+00 0.  1.
</event>
<event>
 7    1  0.3863655E-015  0.9000780E+02  0.7816164E-02  0.1186339E+00
        -11   -1    0    0    0    0  0.00000000000E+00  0.00000000000E+00  0.45593999997E+02  0.45594000000E+02  0.51100000000E-03 0.  1.
         11   -1    0    0    0    0 -0.00000000000E+00 -0.00000000000E+00 -0.45593999997E+02  0.45594000000E+02  0.51100000000E-03 0. -1.
    9900012    2    1    2    0    0 -0.61225916615E+00  0.42368669311E+00 -0.91569811356E+00  0.90007798858E+02  0.90000061003E+02 0.  0.
        -12    1    1    2    0    0  0.61225916615E+00 -0.42368669311E+00  0.91569811356E+00  0.11802011420E+01  0.00000000000E+00 0.  1.
         11    1    3    3    0    0  0.27098321690E+01 -0.35152812875E+02 -0.21867290570E+01  0.35324852833E+02  0.51100000000E-03 0. -1.
        -11    1    3    3    0    0  0.54930136332E+01 -0.82026899263E+01 -0.12670704246E+01  0.99530291130E+01  0.51100000000E-03 0.  1.
        -12    1    3    3    0    0 -0.88151049684E+01  0.43779189495E+02  0.25381013680E+01  0.44729916912E+02  0.00000000000E+00 0.  1.
</event>
<event>
 7    1  0.3863655E-015  0.9000775E+02  0.7816164E-02  0.1186339E+00
        -11   -1    0    0    0    0  0.00000000000E+00  0.00000000000E+00  0.45593999997E+02  0.45594000000E+02  0.51100000000E-03 0.  1.
         11   -1    0    0    0    0 -0.00000000000E+00 -0.00000000000E+00 -0.45593999997E+02  0.45594000000E+02  0.51100000000E-03 0. -1.
    9900012    2    1    2    0    0 -0.32418542646E+00  0.40057447253E+00 -0.10618112355E+01  0.90007746130E+02  0.90000007578E+02 0.  0.
        -12    1    1    2    0    0  0.32418542646E+00 -0.40057447253E+00  0.10618112355E+01  0.11802538704E+01  0.00000000000E+00 0.  1.
         11    1    3    3    0    0  0.34718114330E+00 -0.16014470169E+01  0.14729970410E+02  0.14820836543E+02  0.51100000000E-03 0. -1.
        -11    1    3    3    0    0  0.34476994671E+02  0.10802482726E+01 -0.19842487666E+02  0.39793899217E+02  0.51100000000E-03 0.  1.
         12    1    3    3    0    0 -0.35148361241E+02  0.92177321688E+00  0.40507060206E+01  0.35393010370E+02  0.00000000000E+00 0. -1.
</event>
<event>
 7    1  0.3863655E-015  0.9000774E+02  0.7816164E-02  0.1186339E+00
        -11   -1    0    0    0    0  0.00000000000E+00  0.00000000000E+00  0.45593999997E+02  0.45594000000E+02  0.51100000000E-03 0.  1.
         11   -1    0    0    0    0 -0.00000000000E+00 -0.00000000000E+00 -0.45593999997E+02  0.45594000000E+02  0.51100000000E-03 0. -1.
    9900012    2    1    2    0    0  0.10321442807E+01  0.27820713405E+00 -0.50029008098E+00  0.90007741049E+02  0.90000002431E+02 0.  0.
        -12    1    1    2    0    0 -0.10321442807E+01 -0.27820713405E+00  0.50029008098E+00  0.11802589507E+01  0.00000000000E+00 0.  1.
         11    1    3    3    0    0  0.17528352906E+01  0.45367219292E+01 -0.11930510563E+02  0.12883763424E+02  0.51100000000E-03 0. -1.
        -11    1    3    3    0    0  0.32140987908E+02  0.14819346018E+02 -0.49655023056E+01  0.35739506621E+02  0.51100000000E-03 0.  1.
         12    1    3    3    0    0 -0.32861678918E+02 -0.19077860813E+02  0.16395722788E+02  0.41384471004E+02  0.00000000000E+00 0. -1.
</event>
<event>
 7    1  0.3863655E-015  0.9000776E+02  0.7816164E-02  0.1186339E+00
        -11   -1    0    0    0    0  0.00000000000E+00  0.00000000000E+00  0.45593999997E+02  0.45594000000E+02  0.51100000000E-03 0. -1.
         11   -1    0    0    0    0 -0.00000000000E+00 -0.00000000000E+00 -0.45593999997E+02  0.45594000000E+02  0.51100000000E-03 0.  1.
    9900012    2    1    2    0    0  0.20496273243E+00  0.30618142264E+00  0.11212570628E+01  0.90007756726E+02  0.90000018315E+02 0.  0.
        -12    1    1    2    0    0 -0.20496273243E+00 -0.30618142264E+00 -0.11212570628E+01  0.11802432741E+01  0.00000000000E+00 0.  1.
         11    1    3    3    0    0 -0.59905266169E+01  0.93934554194E+01 -0.34176764833E+01  0.11653494183E+02  0.51100000000E-03 0. -1.
        -11    1    3    3    0    0  0.37503773407E+02  0.10121939616E+02 -0.77701751529E+01  0.39615177691E+02  0.51100000000E-03 0.  1.
         12    1    3    3    0    0 -0.31308284057E+02 -0.19209213612E+02  0.12309108699E+02  0.38739084852E+02  0.00000000000E+00 0. -1.
</event>
<event>
 8    1  0.3863655E-015  0.9000775E+02  0.7816164E-02  0.1186339E+00
        -11   -1    0    0    0    0  0.00000000000E+00  0.00000000000E+00  0.45593999997E+02  0.45594000000E+02  0.51100000000E-03 0.  1.
         11   -1    0    0    0    0 -0.00000000000E+00 -0.00000000000E+00 -0.45593999997E+02  0.45594000000E+02  0.51100000000E-03 0. -1.
    9900012    2    1    2    0    0  0.97598888928E+00 -0.33734983889E+00 -0.57152151589E+00  0.90007747455E+02  0.90000008922E+02 0.  0.
         23    2    3    3    0    0  0.21850931232E+02 -0.59106609059E+01 -0.12985297256E+02  0.65089343771E+02  0.59628899199E+02 0.  0.
        -12    1    1    2    0    0 -0.97598888928E+00  0.33734983889E+00  0.57152151589E+00  0.11802525446E+01  0.00000000000E+00 0.  1.
         11    1    4    4    0    0 -0.10689276587E+02  0.25110630131E+01 -0.26636267112E+02  0.28810706297E+02  0.51100000000E-03 0. -1.
        -11    1    4    4    0    0  0.32540207819E+02 -0.84217239190E+01  0.13650969856E+02  0.36278637474E+02  0.51100000000E-03 0.  1.
         12    1    3    3    0    0 -0.20874942342E+02  0.55733110670E+01  0.12413775741E+02  0.24918403684E+02  0.00000000000E+00 0. -1.
</event>
<event>
 7    1  0.3863655E-015  0.9000766E+02  0.7816164E-02  0.1186339E+00
        -11   -1    0    0    0    0  0.00000000000E+00  0.00000000000E+00  0.45593999997E+02  0.45594000000E+02  0.51100000000E-03 0. -1.
         11   -1    0    0    0    0 -0.00000000000E+00 -0.00000000000E+00 -0.45593999997E+02  0.45594000000E+02  0.51100000000E-03 0.  1.
    9900012    2    1    2    0    0 -0.99917943041E+00  0.32013019732E+00  0.54069433075E+00  0.90007663931E+02  0.89999924294E+02 0.  0.
        -12    1    1    2    0    0  0.99917943041E+00 -0.32013019732E+00 -0.54069433075E+00  0.11803360694E+01  0.00000000000E+00 0.  1.
         11    1    3    3    0    0  0.72189636420E+01  0.89272660683E+01  0.93742987031E+00  0.11519040348E+02  0.51100000000E-03 0. -1.
        -11    1    3    3    0    0 -0.35707152572E+02 -0.26097190317E+02  0.77568629535E+01  0.44902483343E+02  0.51100000000E-03 0.  1.
         12    1    3    3    0    0  0.27489009500E+02  0.17490054446E+02 -0.81535984931E+01  0.33586140239E+02  0.00000000000E+00 0. -1.
</event>
<event>
 7    1  0.3863655E-015  0.9000810E+02  0.7816164E-02  0.1186338E+00
        -11   -1    0    0    0    0  0.00000000000E+00  0.00000000000E+00  0.45593999997E+02  0.45594000000E+02  0.51100000000E-03 0.  1.
         11   -1    0    0    0    0 -0.00000000000E+00 -0.00000000000E+00 -0.45593999997E+02  0.45594000000E+02  0.51100000000E-03 0. -1.
    9900012    2    1    2    0    0  0.60059743915E-01 -0.11407529525E+01 -0.29535344482E+00  0.90008102492E+02  0.90000368644E+02 0.  0.
        -12    1    1    2    0    0 -0.60059743915E-01  0.11407529525E+01  0.29535344482E+00  0.11798975077E+01  0.00000000000E+00 0.  1.
         11    1    3    3    0    0 -0.32705446121E+02 -0.15720282797E+02 -0.62335973846E+01  0.36818897781E+02  0.51100000000E-03 0. -1.
        -11    1    3    3    0    0  0.93407674373E+01 -0.58694631486E+01 -0.12789767599E+02  0.16890195069E+02  0.51100000000E-03 0.  1.
        -12    1    3    3    0    0  0.23424738427E+02  0.20448992993E+02  0.18728011539E+02  0.36299009642E+02  0.00000000000E+00 0.  1.
</event>
<event>
 7    1  0.3863655E-015  0.9000775E+02  0.7816164E-02  0.1186339E+00
        -11   -1    0    0    0    0  0.00000000000E+00  0.00000000000E+00  0.45593999997E+02  0.45594000000E+02  0.51100000000E-03 0.  1.
         11   -1    0    0    0    0 -0.00000000000E+00 -0.00000000000E+00 -0.45593999997E+02  0.45594000000E+02  0.51100000000E-03 0. -1.
    9900012    2    1    2    0    0 -0.26033929044E+00  0.11034905648E+01 -0.32789651715E+00  0.90007752527E+02  0.90000014060E+02 0.  0.
        -12    1    1    2    0    0  0.26033929044E+00 -0.11034905648E+01  0.32789651715E+00  0.11802474735E+01  0.00000000000E+00 0.  1.
         11    1    3    3    0    0 -0.26288696353E+01 -0.84585606874E+01  0.12018346726E+02  0.14929797813E+02  0.51100000000E-03 0. -1.
        -11    1    3    3    0    0  0.57884200192E+01  0.32160641753E+02  0.17828212138E+02  0.37224425215E+02  0.51100000000E-03 0.  1.
         12    1    3    3    0    0 -0.34198896743E+01 -0.22598590500E+02 -0.30174455381E+02  0.37853529499E+02  0.00000000000E+00 0. -1.
</event>
<event>
 7    1  0.3863655E-015  0.9000766E+02  0.7816164E-02  0.1186339E+00
        -11   -1    0    0    0    0  0.00000000000E+00  0.00000000000E+00  0.45593999997E+02  0.45594000000E+02  0.51100000000E-03 0.  1.
         11   -1    0    0    0    0 -0.00000000000E+00 -0.00000000000E+00 -0.45593999997E+02  0.45594000000E+02  0.51100000000E-03 0. -1.
    9900012    2    1    2    0    0 -0.72966525972E+00 -0.33090095736E+00 -0.86676654623E+00  0.90007664844E+02  0.89999925220E+02 0.  0.
        -12    1    1    2    0    0  0.72966525972E+00  0.33090095736E+00  0.86676654623E+00  0.11803351560E+01  0.00000000000E+00 0.  1.
         11    1    3    3    0    0 -0.11445356168E+02 -0.39945042260E+01  0.46315436444E+01  0.12977035047E+02  0.51100000000E-03 0. -1.
        -11    1    3    3    0    0  0.29754147339E+01 -0.28864530838E+02 -0.25018181834E+02  0.38313491826E+02  0.51100000000E-03 0.  1.
         12    1    3    3    0    0  0.77402761745E+01  0.32528134107E+02  0.19519871643E+02  0.38717137971E+02  0.00000000000E+00 0. -1.
</event>
<event>
 7    1  0.3863655E-015  0.9000774E+02  0.7816164E-02  0.1186339E+00
        -11   -1    0    0    0    0  0.00000000000E+00  0.00000000000E+00  0.45593999997E+02  0.45594000000E+02  0.51100000000E-03 0. -1.
         11   -1    0    0    0    0 -0.00000000000E+00 -0.00000000000E+00 -0.45593999997E+02  0.45594000000E+02  0.51100000000E-03 0.  1.
    9900012    2    1    2    0    0  0.18598352548E-02  0.11436366552E+01  0.29171352528E+00  0.90007743655E+02  0.90000005072E+02 0.  0.
        -12    1    1    2    0    0 -0.18598352548E-02 -0.11436366552E+01 -0.29171352528E+00  0.11802563446E+01  0.00000000000E+00 0.  1.
         11    1    3    3    0    0  0.10235727966E+02  0.24824784438E+02  0.32271703557E+02  0.41982173599E+02  0.51100000000E-03 0. -1.
        -11    1    3    3    0    0  0.29424751833E+01 -0.87994294989E+01  0.11917324036E+01  0.93545895738E+01  0.51100000000E-03 0.  1.
        -12    1    3    3    0    0 -0.13176343314E+02 -0.14881718284E+02 -0.33171722435E+02  0.38670980483E+02  0.00000000000E+00 0.  1.
</event>
<event>
 7    1  0.4290640E-015  0.9000794E+02  0.7816164E-02  0.1186339E+00
        -11   -1    0    0    0    0  0.00000000000E+00  0.00000000000E+00  0.45593999997E+02  0.45594000000E+02  0.51100000000E-03 0.  1.
         11   -1    0    0    0    0 -0.00000000000E+00 -0.00000000000E+00 -0.45593999997E+02  0.45594000000E+02  0.51100000000E-03 0. -1.
    9900012    2    1    2    0    0  0.26199758042E+00 -0.79797980366E+00 -0.82893214558E+00  0.90007939408E+02  0.90000203408E+02 0.  0.
        -12    1    1    2    0    0 -0.26199758042E+00  0.79797980366E+00  0.82893214558E+00  0.11800605922E+01  0.00000000000E+00 0.  1.
         11    1    3    3    0    0 -0.70690528733E+01 -0.59947153022E+01 -0.19323254865E+00  0.92706773840E+01  0.51100000000E-03 0. -1.
        -11    1    3    3    0    0  0.31558999024E+02 -0.10862731850E+02  0.25221093034E+02  0.41833872600E+02  0.51100000000E-03 0.  1.
         12    1    3    3    0    0 -0.24227948570E+02  0.16059467349E+02 -0.25856792631E+02  0.38903389423E+02  0.00000000000E+00 0. -1.
</event>
<event>
 7    1  0.3863655E-015  0.9000780E+02  0.7816164E-02  0.1186339E+00
        -11   -1    0    0    0    0  0.00000000000E+00  0.00000000000E+00  0.45593999997E+02  0.45594000000E+02  0.51100000000E-03 0.  1.
         11   -1    0    0    0    0 -0.00000000000E+00 -0.00000000000E+00 -0.45593999997E+02  0.45594000000E+02  0.51100000000E-03 0. -1.
    9900012    2    1    2    0    0 -0.51341823327E+00  0.48312808453E-01 -0.10615712212E+01  0.90007802615E+02  0.90000064810E+02 0.  0.
        -12    1    1    2    0    0  0.51341823327E+00 -0.48312808453E-01  0.10615712212E+01  0.11801973849E+01  0.00000000000E+00 0.  1.
         11    1    3    3    0    0 -0.37328537725E+02  0.14198914230E+02 -0.90253316983E+01  0.40944908188E+02  0.51100000000E-03 0. -1.
        -11    1    3    3    0    0  0.59627532477E+01  0.83151005770E+01  0.11853913199E+01  0.10300508567E+02  0.51100000000E-03 0.  1.
        -12    1    3    3    0    0  0.30852366244E+02 -0.22465701998E+02  0.67783691572E+01  0.38762385860E+02  0.00000000000E+00 0.  1.
</event>
<event>
 7    1  0.3863655E-015  0.9000773E+02  0.7816164E-02  0.1186339E+00
        -11   -1    0    0    0    0  0.00000000000E+00  0.00000000000E+00  0.45593999997E+02  0.45594000000E+02  0.51100000000E-03 0. -1.
         11   -1    0    0    0    0 -0.00000000000E+00 -0.00000000000E+00 -0.45593999997E+02  0.45594000000E+02  0.51100000000E-03 0.  1.
    9900012    2    1    2    0    0 -0.74908486516E+00  0.90377146980E+00  0.12288524043E+00  0.90007732324E+02  0.89999993591E+02 0.  0.
        -12    1    1    2    0    0  0.74908486516E+00 -0.90377146980E+00 -0.12288524043E+00  0.11802676761E+01  0.00000000000E+00 0.  1.
         11    1    3    3    0    0  0.36811133751E+01  0.68689076894E+01  0.60638876452E+01  0.98743719882E+01  0.51100000000E-03 0. -1.
        -11    1    3    3    0    0  0.11527316476E+02  0.28687644513E+02  0.17332805251E+02  0.35444126607E+02  0.51100000000E-03 0.  1.
         12    1    3    3    0    0 -0.15957514716E+02 -0.34652780733E+02 -0.23273807656E+02  0.44689233728E+02  0.00000000000E+00 0. -1.
</event>
<event>
 7    1  0.3863655E-015  0.9000770E+02  0.7816164E-02  0.1186339E+00
        -11   -1    0    0    0    0  0.00000000000E+00  0.00000000000E+00  0.45593999997E+02  0.45594000000E+02  0.51100000000E-03 0.  1.
         11   -1    0    0    0    0 -0.00000000000E+00 -0.00000000000E+00 -0.45593999997E+02  0.45594000000E+02  0.51100000000E-03 0. -1.
    9900012    2    1    2    0    0  0.54817221410E+00  0.74749882172E+00  0.73065926456E+00  0.90007699095E+02  0.89999959923E+02 0.  0.
        -12    1    1    2    0    0 -0.54817221410E+00 -0.74749882172E+00 -0.73065926456E+00  0.11803009047E+01  0.00000000000E+00 0.  1.
         11    1    3    3    0    0 -0.17828785602E+01 -0.81082140465E+01 -0.25603822005E+01  0.86877700394E+01  0.51100000000E-03 0. -1.
        -11    1    3    3    0    0 -0.13949746361E+02 -0.27071329750E+02 -0.19115393257E+02  0.35956231415E+02  0.51100000000E-03 0.  1.
         12    1    3    3    0    0  0.16280797135E+02  0.35927042618E+02  0.22406434722E+02  0.45363697640E+02  0.00000000000E+00 0. -1.
</event>
<event>
 7    1  0.5121970E-015  0.9000772E+02  0.7816164E-02  0.1186339E+00
        -11   -1    0    0    0    0  0.00000000000E+00  0.00000000000E+00  0.45593999997E+02  0.45594000000E+02  0.51100000000E-03 0.  1.
         11   -1    0    0    0    0 -0.00000000000E+00 -0.00000000000E+00 -0.45593999997E+02  0.45594000000E+02  0.51100000000E-03 0. -1.
    9900012    2    1    2    0    0  0.65336204281E+00  0.41584889784E+00 -0.89064105490E+00  0.90007723018E+02  0.89999984162E+02 0.  0.
        -12    1    1    2    0    0 -0.65336204281E+00 -0.41584889784E+00  0.89064105490E+00  0.11802769817E+01  0.00000000000E+00 0.  1.
         11    1    3    3    0    0  0.78546270969E+01  0.90501021031E+00 -0.53877464806E+01  0.95677595451E+01  0.51100000000E-03 0. -1.
        -11    1    3    3    0    0  0.27192868568E+02 -0.13894361264E+02  0.23862383955E+02  0.38754596426E+02  0.51100000000E-03 0.  1.
         12    1    3    3    0    0 -0.34394133622E+02  0.13405199951E+02 -0.19365278529E+02  0.41685367047E+02  0.00000000000E+00 0. -1.
</event>
<event>
 7    1  0.3863655E-015  0.9000769E+02  0.7816164E-02  0.1186339E+00
        -11   -1    0    0    0    0  0.00000000000E+00  0.00000000000E+00  0.45593999997E+02  0.45594000000E+02  0.51100000000E-03 0.  1.
         11   -1    0    0    0    0 -0.00000000000E+00 -0.00000000000E+00 -0.45593999997E+02  0.45594000000E+02  0.51100000000E-03 0. -1.
    9900012    2    1    2    0    0 -0.10783925367E+01 -0.28318117058E+00 -0.38730691251E+00  0.90007691276E+02  0.89999952001E+02 0.  0.
        -12    1    1    2    0    0  0.10783925367E+01  0.28318117058E+00  0.38730691251E+00  0.11803087237E+01  0.00000000000E+00 0.  1.
         11    1    3    3    0    0  0.53503273187E+00  0.91181996732E+01  0.49352400760E+01  0.10381927575E+02  0.51100000000E-03 0. -1.
        -11    1    3    3    0    0 -0.29124629224E+02  0.17356149460E+02  0.13973081553E+02  0.36670518947E+02  0.51100000000E-03 0.  1.
         12    1    3    3    0    0  0.27511203956E+02 -0.26757530304E+02 -0.19295628541E+02  0.42955244754E+02  0.00000000000E+00 0. -1.
</event>
<event>
 7    1  0.3863655E-015  0.9000760E+02  0.7816164E-02  0.1186339E+00
        -11   -1    0    0    0    0  0.00000000000E+00  0.00000000000E+00  0.45593999997E+02  0.45594000000E+02  0.51100000000E-03 0.  1.
         11   -1    0    0    0    0 -0.00000000000E+00 -0.00000000000E+00 -0.45593999997E+02  0.45594000000E+02  0.51100000000E-03 0. -1.
    9900012    2    1    2    0    0  0.12030365431E+00  0.11736640206E+01 -0.37237217170E-01  0.90007598876E+02  0.89999858381E+02 0.  0.
        -12    1    1    2    0    0 -0.12030365431E+00 -0.11736640206E+01  0.37237217170E-01  0.11804011237E+01  0.00000000000E+00 0.  1.
         11    1    3    3    0    0  0.14775365502E+02  0.31806085440E+02 -0.10907507250E+02  0.36727540231E+02  0.51100000000E-03 0. -1.
        -11    1    3    3    0    0  0.84415319517E+00  0.91514742921E+01 -0.12282783033E+00  0.91911459173E+01  0.51100000000E-03 0.  1.
        -12    1    3    3    0    0 -0.15499215043E+02 -0.39783895711E+02  0.10993097864E+02  0.44088912728E+02  0.00000000000E+00 0.  1.
</event>
<event>
 7    1  0.3863655E-015  0.9000778E+02  0.7816164E-02  0.1186339E+00
        -11   -1    0    0    0    0  0.00000000000E+00  0.00000000000E+00  0.45593999997E+02  0.45594000000E+02  0.51100000000E-03 0.  1.
         11   -1    0    0    0    0 -0.00000000000E+00 -0.00000000000E+00 -0.45593999997E+02  0.45594000000E+02  0.51100000000E-03 0. -1.
    9900012    2    1    2    0    0 -0.10980706953E+01 -0.41180706802E+00  0.13254866665E+00  0.90007782451E+02  0.90000044380E+02 0.  0.
        -12    1    1    2    0    0  0.10980706953E+01  0.41180706802E+00 -0.13254866665E+00  0.11802175487E+01  0.00000000000E+00 0.  1.
         11    1    3    3    0    0 -0.92158381396E+01 -0.36874999913E+02 -0.79916462606E+00  0.38017574299E+02  0.51100000000E-03 0. -1.
        -11    1    3    3    0    0  0.19511308335E+01 -0.15880619563E+01 -0.11277895237E+02  0.11555075662E+02  0.51100000000E-03 0.  1.
        -12    1    3    3    0    0  0.61666366108E+01  0.38051254802E+02  0.12209608530E+02  0.40435132490E+02  0.00000000000E+00 0.  1.
</event>
<event>
 7    1  0.3863655E-015  0.9000769E+02  0.7816164E-02  0.1186339E+00
        -11   -1    0    0    0    0  0.00000000000E+00  0.00000000000E+00  0.45593999997E+02  0.45594000000E+02  0.51100000000E-03 0. -1.
         11   -1    0    0    0    0 -0.00000000000E+00 -0.00000000000E+00 -0.45593999997E+02  0.45594000000E+02  0.51100000000E-03 0.  1.
    9900012    2    1    2    0    0 -0.19560506273E+00 -0.87149032590E+00  0.77159949226E+00  0.90007693893E+02  0.89999954653E+02 0.  0.
        -12    1    1    2    0    0  0.19560506273E+00  0.87149032590E+00 -0.77159949226E+00  0.11803061066E+01  0.00000000000E+00 0.  1.
         11    1    3    3    0    0 -0.61087974477E+01  0.32413748634E+02  0.18218480308E+02  0.37681315420E+02  0.51100000000E-03 0. -1.
        -11    1    3    3    0    0 -0.25568632978E+01 -0.75912160960E+00  0.91084517496E+01  0.94909277248E+01  0.51100000000E-03 0.  1.
        -12    1    3    3    0    0  0.84700556827E+01 -0.32526117351E+02 -0.26555332566E+02  0.42835450749E+02  0.00000000000E+00 0.  1.
</event>
<event>
 7    1  0.3863655E-015  0.9000775E+02  0.7816164E-02  0.1186339E+00
        -11   -1    0    0    0    0  0.00000000000E+00  0.00000000000E+00  0.45593999997E+02  0.45594000000E+02  0.51100000000E-03 0.  1.
         11   -1    0    0    0    0 -0.00000000000E+00 -0.00000000000E+00 -0.45593999997E+02  0.45594000000E+02  0.51100000000E-03 0. -1.
    9900012    2    1    2    0    0  0.77654268393E+00  0.39846526099E+00 -0.79448488148E+00  0.90007746073E+02  0.90000007522E+02 0.  0.
        -12    1    1    2    0    0 -0.77654268393E+00 -0.39846526099E+00  0.79448488148E+00  0.11802539265E+01  0.00000000000E+00 0.  1.
         11    1    3    3    0    0 -0.48578279674E+00 -0.15020596706E+01 -0.86947897067E+01  0.88369415798E+01  0.51100000000E-03 0. -1.
        -11    1    3    3    0    0  0.28421224527E+02 -0.27662976951E+02 -0.23738409066E+01  0.39732120737E+02  0.51100000000E-03 0.  1.
         12    1    3    3    0    0 -0.27158899046E+02  0.29563501882E+02  0.10274145732E+02  0.41438683756E+02  0.00000000000E+00 0. -1.
</event>
<event>
 7    1  0.3863655E-015  0.9000838E+02  0.7816164E-02  0.1186338E+00
        -11   -1    0    0    0    0  0.00000000000E+00  0.00000000000E+00  0.45593999997E+02  0.45594000000E+02  0.51100000000E-03 0. -1.
         11   -1    0    0    0    0 -0.00000000000E+00 -0.00000000000E+00 -0.45593999997E+02  0.45594000000E+02  0.51100000000E-03 0.  1.
    9900012    2    1    2    0    0 -0.85576970799E-01  0.61682029913E+00  0.10018563644E+01  0.90008378504E+02  0.90000648298E+02 0.  0.
        -12    1    1    2    0    0  0.85576970799E-01 -0.61682029913E+00 -0.10018563644E+01  0.11796214962E+01  0.00000000000E+00 0.  1.
         11    1    3    3    0    0  0.25035780306E+01 -0.34696306556E+02  0.18476624043E+02  0.39388922654E+02  0.51100000000E-03 0. -1.
        -11    1    3    3    0    0  0.63578349057E+01 -0.99162009824E+00  0.39254356361E+01  0.75375340995E+01  0.51100000000E-03 0.  1.
        -12    1    3    3    0    0 -0.89469899070E+01  0.36304746954E+02 -0.21400203315E+02  0.43081921750E+02  0.00000000000E+00 0.  1.
</event>
<event>
 7    1  0.3863655E-015  0.9000723E+02  0.7816164E-02  0.1186340E+00
        -11   -1    0    0    0    0  0.00000000000E+00  0.00000000000E+00  0.45593999997E+02  0.45594000000E+02  0.51100000000E-03 0. -1.
         11   -1    0    0    0    0 -0.00000000000E+00 -0.00000000000E+00 -0.45593999997E+02  0.45594000000E+02  0.51100000000E-03 0.  1.
    9900012    2    1    2    0    0 -0.26508475457E+00  0.10630640647E+01  0.44027701035E+00  0.90007229498E+02  0.89999484126E+02 0.  0.
        -12    1    1    2    0    0  0.26508475457E+00 -0.10630640647E+01 -0.44027701035E+00  0.11807705020E+01  0.00000000000E+00 0.  1.
         11    1    3    3    0    0  0.66095015001E+01 -0.81125900300E+00 -0.76543439987E+01  0.10145572116E+02  0.51100000000E-03 0. -1.
        -11    1    3    3    0    0  0.17018339541E+01  0.30857328945E+02 -0.21431400408E+02  0.37608189429E+02  0.51100000000E-03 0.  1.
         12    1    3    3    0    0 -0.85764202087E+01 -0.28983005877E+02  0.29526021417E+02  0.42253467953E+02  0.00000000000E+00 0. -1.
</event>
<event>
 7    1  0.3863655E-015  0.9000753E+02  0.7816164E-02  0.1186339E+00
        -11   -1    0    0    0    0  0.00000000000E+00  0.00000000000E+00  0.45593999997E+02  0.45594000000E+02  0.51100000000E-03 0.  1.
         11   -1    0    0    0    0 -0.00000000000E+00 -0.00000000000E+00 -0.45593999997E+02  0.45594000000E+02  0.51100000000E-03 0. -1.
    9900012    2    1    2    0    0 -0.34573532565E+00 -0.76340479753E+00 -0.83137245772E+00  0.90007534006E+02  0.89999792654E+02 0.  0.
        -12    1    1    2    0    0  0.34573532565E+00  0.76340479753E+00  0.83137245772E+00  0.11804659943E+01  0.00000000000E+00 0.  1.
         11    1    3    3    0    0 -0.28040870330E+02 -0.27905153723E+02  0.15277291116E+01  0.39589417395E+02  0.51100000000E-03 0. -1.
        -11    1    3    3    0    0  0.32119230834E+01  0.13705088603E+01  0.11686336193E+02  0.12196933971E+02  0.51100000000E-03 0.  1.
        -12    1    3    3    0    0  0.24483211921E+02  0.25771240065E+02 -0.14045437762E+02  0.38221182640E+02  0.00000000000E+00 0.  1.
</event>
<event>
 7    1  0.3863655E-015  0.9000787E+02  0.7816164E-02  0.1186339E+00
        -11   -1    0    0    0    0  0.00000000000E+00  0.00000000000E+00  0.45593999997E+02  0.45594000000E+02  0.51100000000E-03 0.  1.
         11   -1    0    0    0    0 -0.00000000000E+00 -0.00000000000E+00 -0.45593999997E+02  0.45594000000E+02  0.51100000000E-03 0. -1.
    9900012    2    1    2    0    0 -0.65631769985E+00 -0.83098213035E+00 -0.52099327301E+00  0.90007865171E+02  0.90000128191E+02 0.  0.
        -12    1    1    2    0    0  0.65631769985E+00  0.83098213035E+00  0.52099327301E+00  0.11801348290E+01  0.00000000000E+00 0.  1.
         11    1    3    3    0    0 -0.15060134901E+02  0.33267907443E+02 -0.13275709493E+02  0.38856219472E+02  0.51100000000E-03 0. -1.
        -11    1    3    3    0    0 -0.58055804357E+00 -0.15550047898E+02 -0.97504419032E+01  0.18363337247E+02  0.51100000000E-03 0.  1.
        -12    1    3    3    0    0  0.14984375245E+02 -0.18548841675E+02  0.22505158123E+02  0.32788308452E+02  0.00000000000E+00 0.  1.
</event>
<event>
 7    1  0.3863655E-015  0.9000772E+02  0.7816164E-02  0.1186339E+00
        -11   -1    0    0    0    0  0.00000000000E+00  0.00000000000E+00  0.45593999997E+02  0.45594000000E+02  0.51100000000E-03 0. -1.
         11   -1    0    0    0    0 -0.00000000000E+00 -0.00000000000E+00 -0.45593999997E+02  0.45594000000E+02  0.51100000000E-03 0.  1.
    9900012    2    1    2    0    0 -0.31105982208E-01 -0.32693745169E+00  0.11336702684E+01  0.90007718696E+02  0.89999979783E+02 0.  0.
        -12    1    1    2    0    0  0.31105982208E-01  0.32693745169E+00 -0.11336702684E+01  0.11802813041E+01  0.00000000000E+00 0.  1.
         11    1    3    3    0    0  0.10541958118E+02  0.62559583581E+01  0.11124761081E+01  0.12308838259E+02  0.51100000000E-03 0. -1.
        -11    1    3    3    0    0  0.31071342970E+02 -0.15388262337E+02  0.42115129655E+01  0.34927980380E+02  0.51100000000E-03 0.  1.
         12    1    3    3    0    0 -0.41644407070E+02  0.88053665275E+01 -0.41903188052E+01  0.42770900056E+02  0.00000000000E+00 0. -1.
</event>
<event>
 7    1  0.3863655E-015  0.9000894E+02  0.7816164E-02  0.1186337E+00
        -11   -1    0    0    0    0  0.00000000000E+00  0.00000000000E+00  0.45593999997E+02  0.45594000000E+02  0.51100000000E-03 0. -1.
         11   -1    0    0    0    0 -0.00000000000E+00 -0.00000000000E+00 -0.45593999997E+02  0.45594000000E+02  0.51100000000E-03 0.  1.
    9900012    2    1    2    0    0 -0.11433760239E+01  0.22754134879E+00 -0.17632818002E+00  0.90008942994E+02  0.90001220233E+02 0.  0.
        -12    1    1    2    0    0  0.11433760239E+01 -0.22754134879E+00  0.17632818002E+00  0.11790570065E+01  0.00000000000E+00 0.  1.
         11    1    3    3    0    0  0.50359565974E+01 -0.92100791422E+01  0.17116104089E+01  0.10635601869E+02  0.51100000000E-03 0. -1.
        -11    1    3    3    0    0 -0.31489009069E+01  0.27385338426E+02  0.31185435016E+02  0.41622153897E+02  0.51100000000E-03 0.  1.
         12    1    3    3    0    0 -0.30304317144E+01 -0.17947717935E+02 -0.33073373605E+02  0.37751187227E+02  0.00000000000E+00 0. -1.
</event>
<event>
 7    1  0.3863655E-015  0.9000771E+02  0.7816164E-02  0.1186339E+00
        -11   -1    0    0    0    0  0.00000000000E+00  0.00000000000E+00  0.45593999997E+02  0.45594000000E+02  0.51100000000E-03 0.  1.
         11   -1    0    0    0    0 -0.00000000000E+00 -0.00000000000E+00 -0.45593999997E+02  0.45594000000E+02  0.51100000000E-03 0. -1.
    9900012    2    1    2    0    0 -0.40434434125E+00 -0.55159160947E+00 -0.96194199370E+00  0.90007711879E+02  0.89999972876E+02 0.  0.
        -12    1    1    2    0    0  0.40434434125E+00  0.55159160947E+00  0.96194199370E+00  0.11802881213E+01  0.00000000000E+00 0.  1.
         11    1    3    3    0    0  0.75892462946E+00 -0.80225272271E+01  0.27491729912E+00  0.80630322761E+01  0.51100000000E-03 0. -1.
        -11    1    3    3    0    0 -0.33030179564E+02 -0.20819338178E+02  0.27812942602E+01  0.39142984074E+02  0.51100000000E-03 0.  1.
         12    1    3    3    0    0  0.31866910593E+02  0.28290273795E+02 -0.40181535530E+01  0.42801695529E+02  0.00000000000E+00 0. -1.
</event>
<event>
 7    1  0.3863655E-015  0.9000775E+02  0.7816164E-02  0.1186339E+00
        -11   -1    0    0    0    0  0.00000000000E+00  0.00000000000E+00  0.45593999997E+02  0.45594000000E+02  0.51100000000E-03 0.  1.
         11   -1    0    0    0    0 -0.00000000000E+00 -0.00000000000E+00 -0.45593999997E+02  0.45594000000E+02  0.51100000000E-03 0. -1.
    9900012    2    1    2    0    0 -0.35446501489E+00  0.11237609061E+01  0.67198851249E-01  0.90007745914E+02  0.90000007361E+02 0.  0.
        -12    1    1    2    0    0  0.35446501489E+00 -0.11237609061E+01 -0.67198851249E-01  0.11802540855E+01  0.00000000000E+00 0.  1.
         11    1    3    3    0    0  0.18914010845E+02 -0.21108803970E+02 -0.21175867186E+02  0.35379920331E+02  0.51100000000E-03 0. -1.
        -11    1    3    3    0    0  0.35724540073E+01 -0.58122820101E+01 -0.62055373744E+01  0.92224586833E+01  0.51100000000E-03 0.  1.
        -12    1    3    3    0    0 -0.22840929867E+02  0.28044846886E+02  0.27448603412E+02  0.45405366900E+02  0.00000000000E+00 0.  1.
</event>
<event>
 7    1  0.4711921E-015  0.9000737E+02  0.7816164E-02  0.1186340E+00
        -11   -1    0    0    0    0  0.00000000000E+00  0.00000000000E+00  0.45593999997E+02  0.45594000000E+02  0.51100000000E-03 0. -1.
         11   -1    0    0    0    0 -0.00000000000E+00 -0.00000000000E+00 -0.45593999997E+02  0.45594000000E+02  0.51100000000E-03 0.  1.
    9900012    2    1    2    0    0  0.17804313953E+00  0.96489368094E+00  0.65662608134E+00  0.90007374324E+02  0.89999630865E+02 0.  0.
        -12    1    1    2    0    0 -0.17804313953E+00 -0.96489368094E+00 -0.65662608134E+00  0.11806256755E+01  0.00000000000E+00 0.  1.
         11    1    3    3    0    0  0.86257711786E+01 -0.50539381213E+00  0.35743256489E+01  0.93506767368E+01  0.51100000000E-03 0. -1.
        -11    1    3    3    0    0  0.31325951588E+02 -0.78035134567E+01 -0.18188642592E+02  0.37054510991E+02  0.51100000000E-03 0.  1.
         12    1    3    3    0    0 -0.39773679627E+02  0.92738009498E+01  0.15270943025E+02  0.43602186597E+02  0.00000000000E+00 0. -1.
</event>
<event>
 7    1  0.3863655E-015  0.9000776E+02  0.7816164E-02  0.1186339E+00
        -11   -1    0    0    0    0  0.00000000000E+00  0.00000000000E+00  0.45593999997E+02  0.45594000000E+02  0.51100000000E-03 0.  1.
         11   -1    0    0    0    0 -0.00000000000E+00 -0.00000000000E+00 -0.45593999997E+02  0.45594000000E+02  0.51100000000E-03 0. -1.
    9900012    2    1    2    0    0  0.11307357709E+01 -0.18807700401E+00 -0.28112436220E+00  0.90007759664E+02  0.90000021292E+02 0.  0.
        -12    1    1    2    0    0 -0.11307357709E+01  0.18807700401E+00  0.28112436220E+00  0.11802403357E+01  0.00000000000E+00 0.  1.
         11    1    3    3    0    0 -0.28001697469E+02  0.11998834864E+02 -0.18957584375E+02  0.35881152502E+02  0.51100000000E-03 0. -1.
        -11    1    3    3    0    0  0.13165761324E+02  0.86632565413E+01 -0.71385045934E+01  0.17301662731E+02  0.51100000000E-03 0.  1.
        -12    1    3    3    0    0  0.15966671916E+02 -0.20850168410E+02  0.25814964606E+02  0.36824944432E+02  0.00000000000E+00 0.  1.
</event>
<event>
 7    1  0.3863655E-015  0.9000773E+02  0.7816164E-02  0.1186339E+00
        -11   -1    0    0    0    0  0.00000000000E+00  0.00000000000E+00  0.45593999997E+02  0.45594000000E+02  0.51100000000E-03 0. -1.
         11   -1    0    0    0    0 -0.00000000000E+00 -0.00000000000E+00 -0.45593999997E+02  0.45594000000E+02  0.51100000000E-03 0.  1.
    9900012    2    1    2    0    0  0.62373120979E+00  0.10019816476E+01 -0.44732768086E-02  0.90007733990E+02  0.89999995279E+02 0.  0.
        -12    1    1    2    0    0 -0.62373120979E+00 -0.10019816476E+01  0.44732768086E-02  0.11802660100E+01  0.00000000000E+00 0.  1.
         11    1    3    3    0    0  0.41879628050E+01  0.27286871133E+01  0.83461878475E+01  0.97284951388E+01  0.51100000000E-03 0. -1.
        -11    1    3    3    0    0 -0.17856611012E+02 -0.32465618737E+02  0.14072862186E+02  0.39634838301E+02  0.51100000000E-03 0.  1.
         12    1    3    3    0    0  0.14292379417E+02  0.30738913271E+02 -0.22423523310E+02  0.40644400550E+02  0.00000000000E+00 0. -1.
</event>
<event>
 7    1  0.3863655E-015  0.9000770E+02  0.7816164E-02  0.1186339E+00
        -11   -1    0    0    0    0  0.00000000000E+00  0.00000000000E+00  0.45593999997E+02  0.45594000000E+02  0.51100000000E-03 0.  1.
         11   -1    0    0    0    0 -0.00000000000E+00 -0.00000000000E+00 -0.45593999997E+02  0.45594000000E+02  0.51100000000E-03 0. -1.
    9900012    2    1    2    0    0 -0.93316144896E+00  0.66437393351E+00 -0.28448141795E+00  0.90007698051E+02  0.89999958865E+02 0.  0.
        -12    1    1    2    0    0  0.93316144896E+00 -0.66437393351E+00  0.28448141795E+00  0.11803019489E+01  0.00000000000E+00 0.  1.
         11    1    3    3    0    0  0.45068064694E+01  0.59873656347E+00  0.80183562868E+01  0.92175825371E+01  0.51100000000E-03 0. -1.
        -11    1    3    3    0    0  0.30110409322E+02  0.12142989686E+01  0.19284101639E+02  0.35776917808E+02  0.51100000000E-03 0.  1.
         12    1    3    3    0    0 -0.35550377240E+02 -0.11486615985E+01 -0.27586939344E+02  0.45013197706E+02  0.00000000000E+00 0. -1.
</event>
<event>
 7    1  0.3863655E-015  0.9000773E+02  0.7816164E-02  0.1186339E+00
        -11   -1    0    0    0    0  0.00000000000E+00  0.00000000000E+00  0.45593999997E+02  0.45594000000E+02  0.51100000000E-03 0.  1.
         11   -1    0    0    0    0 -0.00000000000E+00 -0.00000000000E+00 -0.45593999997E+02  0.45594000000E+02  0.51100000000E-03 0. -1.
    9900012    2    1    2    0    0  0.16317741615E+00 -0.36388250091E-01 -0.11683685065E+01  0.90007730564E+02  0.89999991808E+02 0.  0.
        -12    1    1    2    0    0 -0.16317741615E+00  0.36388250091E-01  0.11683685065E+01  0.11802694357E+01  0.00000000000E+00 0.  1.
         11    1    3    3    0    0 -0.58287144341E+01  0.10654192362E+01 -0.91530501106E+01  0.10903547895E+02  0.51100000000E-03 0. -1.
        -11    1    3    3    0    0  0.12456551035E+02  0.27575234508E+02 -0.21770925269E+02  0.37276432356E+02  0.51100000000E-03 0.  1.
         12    1    3    3    0    0 -0.64646591851E+01 -0.28677041995E+02  0.29755606873E+02  0.41827750314E+02  0.00000000000E+00 0. -1.
</event>
<event>
 7    1  0.3863655E-015  0.9000774E+02  0.7816164E-02  0.1186339E+00
        -11   -1    0    0    0    0  0.00000000000E+00  0.00000000000E+00  0.45593999997E+02  0.45594000000E+02  0.51100000000E-03 0. -1.
         11   -1    0    0    0    0 -0.00000000000E+00 -0.00000000000E+00 -0.45593999997E+02  0.45594000000E+02  0.51100000000E-03 0.  1.
    9900012    2    1    2    0    0 -0.11854415633E+00 -0.11084132443E+01  0.38779991165E+00  0.90007736721E+02  0.89999998045E+02 0.  0.
        -12    1    1    2    0    0  0.11854415633E+00  0.11084132443E+01 -0.38779991165E+00  0.11802632794E+01  0.00000000000E+00 0.  1.
         11    1    3    3    0    0  0.15516269836E+02  0.27781259210E+02 -0.16016132946E+01  0.31860918981E+02  0.51100000000E-03 0. -1.
        -11    1    3    3    0    0  0.14622779342E+02  0.13136350729E+01  0.43993134376E+01  0.15326619712E+02  0.51100000000E-03 0.  1.
        -12    1    3    3    0    0 -0.30257593335E+02 -0.30203307528E+02 -0.24099002314E+01  0.42820198028E+02  0.00000000000E+00 0.  1.
</event>
<event>
 7    1  0.3863655E-015  0.9000773E+02  0.7816164E-02  0.1186339E+00
        -11   -1    0    0    0    0  0.00000000000E+00  0.00000000000E+00  0.45593999997E+02  0.45594000000E+02  0.51100000000E-03 0.  1.
         11   -1    0    0    0    0 -0.00000000000E+00 -0.00000000000E+00 -0.45593999997E+02  0.45594000000E+02  0.51100000000E-03 0. -1.
    9900012    2    1    2    0    0  0.20748665971E+00  0.23390355940E+00 -0.11381050297E+01  0.90007726876E+02  0.89999988071E+02 0.  0.
        -12    1    1    2    0    0 -0.20748665971E+00 -0.23390355940E+00  0.11381050297E+01  0.11802731242E+01  0.00000000000E+00 0.  1.
         11    1    3    3    0    0 -0.73962986877E+01  0.72851986780E+01 -0.99071726168E+00  0.10428848211E+02  0.51100000000E-03 0. -1.
        -11    1    3    3    0    0 -0.29635702250E+01  0.34409073131E+02  0.92909370541E+01  0.35764347803E+02  0.51100000000E-03 0.  1.
         12    1    3    3    0    0  0.10567355572E+02 -0.41460368249E+02 -0.94383248222E+01  0.43814530861E+02  0.00000000000E+00 0. -1.
</event>
<event>
 7    1  0.3863655E-015  0.9000766E+02  0.7816164E-02  0.1186339E+00
        -11   -1    0    0    0    0  0.00000000000E+00  0.00000000000E+00  0.45593999997E+02  0.45594000000E+02  0.51100000000E-03 0.  1.
         11   -1    0    0    0    0 -0.00000000000E+00 -0.00000000000E+00 -0.45593999997E+02  0.45594000000E+02  0.51100000000E-03 0. -1.
    9900012    2    1    2    0    0 -0.86772646564E+00  0.19580344219E+00 -0.77583142131E+00  0.90007659964E+02  0.89999920275E+02 0.  0.
        -12    1    1    2    0    0  0.86772646564E+00 -0.19580344219E+00  0.77583142131E+00  0.11803400364E+01  0.00000000000E+00 0.  1.
         11    1    3    3    0    0  0.59515779864E+01  0.58201798046E+01  0.42545994653E+01  0.93486571420E+01  0.51100000000E-03 0. -1.
        -11    1    3    3    0    0 -0.40466975948E+02  0.81846861393E+01  0.79427682678E+01  0.42043463196E+02  0.51100000000E-03 0.  1.
         12    1    3    3    0    0  0.33647671495E+02 -0.13809062502E+02 -0.12973199154E+02  0.38615539625E+02  0.00000000000E+00 0. -1.
</event>
<event>
 7    1  0.3863655E-015  0.9000769E+02  0.7816164E-02  0.1186339E+00
        -11   -1    0    0    0    0  0.00000000000E+00  0.00000000000E+00  0.45593999997E+02  0.45594000000E+02  0.51100000000E-03 0.  1.
         11   -1    0    0    0    0 -0.00000000000E+00 -0.00000000000E+00 -0.45593999997E+02  0.45594000000E+02  0.51100000000E-03 0. -1.
    9900012    2    1    2    0    0 -0.10240595917E+01  0.48873093798E+00 -0.32493860735E+00  0.90007686027E+02  0.89999946682E+02 0.  0.
        -12    1    1    2    0    0  0.10240595917E+01 -0.48873093798E+00  0.32493860735E+00  0.11803139733E+01  0.00000000000E+00 0.  1.
         11    1    3    3    0    0 -0.33569049150E+01 -0.26773849234E+01 -0.96994865899E+01  0.10607414435E+02  0.51100000000E-03 0. -1.
        -11    1    3    3    0    0 -0.27242314783E+02 -0.24213448310E+02  0.13542573458E+02  0.38882336477E+02  0.51100000000E-03 0.  1.
         12    1    3    3    0    0  0.29575160106E+02  0.27379564171E+02 -0.41680254755E+01  0.40517935114E+02  0.00000000000E+00 0. -1.
</event>
<event>
 7    1  0.3863655E-015  0.9000771E+02  0.7816164E-02  0.1186339E+00
        -11   -1    0    0    0    0  0.00000000000E+00  0.00000000000E+00  0.45593999997E+02  0.45594000000E+02  0.51100000000E-03 0.  1.
         11   -1    0    0    0    0 -0.00000000000E+00 -0.00000000000E+00 -0.45593999997E+02  0.45594000000E+02  0.51100000000E-03 0. -1.
    9900012    2    1    2    0    0  0.78927724486E+00  0.27780480615E+00 -0.83243348213E+00  0.90007712077E+02  0.89999973076E+02 0.  0.
        -12    1    1    2    0    0 -0.78927724486E+00 -0.27780480615E+00  0.83243348213E+00  0.11802879232E+01  0.00000000000E+00 0.  1.
         11    1    3    3    0    0 -0.93265369853E+01  0.17479053792E+02 -0.30093176810E+02  0.36029167412E+02  0.51100000000E-03 0. -1.
        -11    1    3    3    0    0 -0.56972029872E+00  0.19976409136E+01 -0.93368390799E+01  0.95651301457E+01  0.51100000000E-03 0.  1.
        -12    1    3    3    0    0  0.10685534529E+02 -0.19198889900E+02  0.38597582408E+02  0.44413414519E+02  0.00000000000E+00 0.  1.
</event>
<event>
 7    1  0.3863655E-015  0.9000774E+02  0.7816164E-02  0.1186339E+00
        -11   -1    0    0    0    0  0.00000000000E+00  0.00000000000E+00  0.45593999997E+02  0.45594000000E+02  0.51100000000E-03 0. -1.
         11   -1    0    0    0    0 -0.00000000000E+00 -0.00000000000E+00 -0.45593999997E+02  0.45594000000E+02  0.51100000000E-03 0.  1.
    9900012    2    1    2    0    0 -0.50401791439E+00 -0.49102386335E+00  0.94756398974E+00  0.90007739009E+02  0.90000000364E+02 0.  0.
        -12    1    1    2    0    0  0.50401791439E+00  0.49102386335E+00 -0.94756398974E+00  0.11802609911E+01  0.00000000000E+00 0.  1.
         11    1    3    3    0    0 -0.14400016783E+02 -0.38179351193E+02 -0.30000416069E+01  0.40914833384E+02  0.51100000000E-03 0. -1.
        -11    1    3    3    0    0 -0.44396234612E+01  0.52557992122E+01 -0.74411986579E+01  0.10134353436E+02  0.51100000000E-03 0.  1.
        -12    1    3    3    0    0  0.18335622330E+02  0.32432528118E+02  0.11388804255E+02  0.38958552189E+02  0.00000000000E+00 0.  1.
</event>
<event>
 7    1  0.3863655E-015  0.9000766E+02  0.7816164E-02  0.1186339E+00
        -11   -1    0    0    0    0  0.00000000000E+00  0.00000000000E+00  0.45593999997E+02  0.45594000000E+02  0.51100000000E-03 0.  1.
         11   -1    0    0    0    0 -0.00000000000E+00 -0.00000000000E+00 -0.45593999997E+02  0.45594000000E+02  0.51100000000E-03 0. -1.
    9900012    2    1    2    0    0  0.75807243392E+00  0.30551836507E+00 -0.85157677603E+00  0.90007661789E+02  0.89999922125E+02 0.  0.
        -12    1    1    2    0    0 -0.75807243392E+00 -0.30551836507E+00  0.85157677603E+00  0.11803382108E+01  0.00000000000E+00 0.  1.
         11    1    3    3    0    0 -0.30523097408E+02  0.39501172803E+01 -0.17694943945E+02  0.35501745639E+02  0.51100000000E-03 0. -1.
        -11    1    3    3    0    0 -0.67793018072E+01 -0.24971633206E+01 -0.66038589289E+01  0.97880391630E+01  0.51100000000E-03 0.  1.
        -12    1    3    3    0    0  0.38060471649E+02 -0.11474355947E+01  0.23447226098E+02  0.44717876988E+02  0.00000000000E+00 0.  1.
</event>
<event>
 7    1  0.3863655E-015  0.9000771E+02  0.7816164E-02  0.1186339E+00
        -11   -1    0    0    0    0  0.00000000000E+00  0.00000000000E+00  0.45593999997E+02  0.45594000000E+02  0.51100000000E-03 0.  1.
         11   -1    0    0    0    0 -0.00000000000E+00 -0.00000000000E+00 -0.45593999997E+02  0.45594000000E+02  0.51100000000E-03 0. -1.
    9900012    2    1    2    0    0  0.34876610037E+00  0.88334253074E+00 -0.70082078573E+00  0.90007711225E+02  0.89999972213E+02 0.  0.
        -12    1    1    2    0    0 -0.34876610037E+00 -0.88334253074E+00  0.70082078573E+00  0.11802887753E+01  0.00000000000E+00 0.  1.
         11    1    3    3    0    0  0.47313669101E+01 -0.54883909613E+01 -0.44519314841E+01  0.85045847860E+01  0.51100000000E-03 0. -1.
        -11    1    3    3    0    0  0.28461436257E+02 -0.86314313787E+01  0.25648780948E+02  0.39273590692E+02  0.51100000000E-03 0.  1.
         12    1    3    3    0    0 -0.32844037067E+02  0.15003164871E+02 -0.21897670250E+02  0.42229535746E+02  0.00000000000E+00 0. -1.
</event>
<event>
 7    1  0.3863655E-015  0.9000789E+02  0.7816164E-02  0.1186339E+00
        -11   -1    0    0    0    0  0.00000000000E+00  0.00000000000E+00  0.45593999997E+02  0.45594000000E+02  0.51100000000E-03 0. -1.
         11   -1    0    0    0    0 -0.00000000000E+00 -0.00000000000E+00 -0.45593999997E+02  0.45594000000E+02  0.51100000000E-03 0.  1.
    9900012    2    1    2    0    0  0.43532981524E+00 -0.43669675651E+00 -0.10062032944E+01  0.90007889338E+02  0.90000152677E+02 0.  0.
        -12    1    1    2    0    0 -0.43532981524E+00  0.43669675651E+00  0.10062032944E+01  0.11801106621E+01  0.00000000000E+00 0.  1.
         11    1    3    3    0    0  0.23245718802E+02 -0.13505302097E+01  0.30645784996E+02  0.38488329566E+02  0.51100000000E-03 0. -1.
        -11    1    3    3    0    0  0.69491770925E+01  0.62033238807E+01 -0.27828039410E+01  0.97219487484E+01  0.51100000000E-03 0.  1.
        -12    1    3    3    0    0 -0.29759566080E+02 -0.52894904275E+01 -0.28869184350E+02  0.41797611023E+02  0.00000000000E+00 0.  1.
</event>
<event>
 7    1  0.3863655E-015  0.9000774E+02  0.7816164E-02  0.1186339E+00
        -11   -1    0    0    0    0  0.00000000000E+00  0.00000000000E+00  0.45593999997E+02  0.45594000000E+02  0.51100000000E-03 0. -1.
         11   -1    0    0    0    0 -0.00000000000E+00 -0.00000000000E+00 -0.45593999997E+02  0.45594000000E+02  0.51100000000E-03 0.  1.
    9900012    2    1    2    0    0 -0.22654023820E+00 -0.10521972844E+01 -0.48432779612E+00  0.90007740275E+02  0.90000001646E+02 0.  0.
        -12    1    1    2    0    0  0.22654023820E+00  0.10521972844E+01  0.48432779612E+00  0.11802597252E+01  0.00000000000E+00 0.  1.
         11    1    3    3    0    0  0.46077220255E+01 -0.26103451885E+02  0.28124719267E+02  0.38647394953E+02  0.51100000000E-03 0. -1.
        -11    1    3    3    0    0 -0.67016411100E+01 -0.74835566045E+01 -0.60728101511E+01  0.11738596015E+02  0.51100000000E-03 0.  1.
        -12    1    3    3    0    0  0.18673788463E+01  0.32534811205E+02 -0.22536236912E+02  0.39621749306E+02  0.00000000000E+00 0.  1.
</event>
<event>
 7    1  0.3863655E-015  0.9000773E+02  0.7816164E-02  0.1186339E+00
        -11   -1    0    0    0    0  0.00000000000E+00  0.00000000000E+00  0.45593999997E+02  0.45594000000E+02  0.51100000000E-03 0. -1.
         11   -1    0    0    0    0 -0.00000000000E+00 -0.00000000000E+00 -0.45593999997E+02  0.45594000000E+02  0.51100000000E-03 0.  1.
    9900012    2    1    2    0    0  0.10608928785E+01  0.37563536853E+00 -0.35559788163E+00  0.90007726522E+02  0.89999987712E+02 0.  0.
        -12    1    1    2    0    0 -0.10608928785E+01 -0.37563536853E+00  0.35559788163E+00  0.11802734782E+01  0.00000000000E+00 0.  1.
         11    1    3    3    0    0  0.13590953364E+01 -0.23067861251E+01 -0.11587587736E+02  0.11892879893E+02  0.51100000000E-03 0. -1.
        -11    1    3    3    0    0  0.21019163007E+02 -0.23818683088E+02 -0.15031594491E+02  0.35143757778E+02  0.51100000000E-03 0.  1.
         12    1    3    3    0    0 -0.21317365465E+02  0.26501104581E+02  0.26263584345E+02  0.42971088851E+02  0.00000000000E+00 0. -1.
</event>
<event>
 7    1  0.3863655E-015  0.9000771E+02  0.7816164E-02  0.1186339E+00
        -11   -1    0    0    0    0  0.00000000000E+00  0.00000000000E+00  0.45593999997E+02  0.45594000000E+02  0.51100000000E-03 0.  1.
         11   -1    0    0    0    0 -0.00000000000E+00 -0.00000000000E+00 -0.45593999997E+02  0.45594000000E+02  0.51100000000E-03 0. -1.
    9900012    2    1    2    0    0  0.55984941125E+00 -0.67484517874E+00  0.79008923002E+00  0.90007708354E+02  0.89999969304E+02 0.  0.
        -12    1    1    2    0    0 -0.55984941125E+00  0.67484517874E+00 -0.79008923002E+00  0.11802916461E+01  0.00000000000E+00 0.  1.
         11    1    3    3    0    0  0.40856825995E+00 -0.49307379602E+01 -0.76622631626E+01  0.91208213385E+01  0.51100000000E-03 0. -1.
        -11    1    3    3    0    0 -0.29617057368E+02 -0.16339758113E+02  0.24016286274E+02  0.41484211322E+02  0.51100000000E-03 0.  1.
         12    1    3    3    0    0  0.29768338519E+02  0.20595650894E+02 -0.15563933882E+02  0.39402675694E+02  0.00000000000E+00 0. -1.
</event>
<event>
 7    1  0.3863655E-015  0.9000744E+02  0.7816164E-02  0.1186340E+00
        -11   -1    0    0    0    0  0.00000000000E+00  0.00000000000E+00  0.45593999997E+02  0.45594000000E+02  0.51100000000E-03 0. -1.
         11   -1    0    0    0    0 -0.00000000000E+00 -0.00000000000E+00 -0.45593999997E+02  0.45594000000E+02  0.51100000000E-03 0.  1.
    9900012    2    1    2    0    0 -0.59844658670E+00  0.10070282113E+01 -0.14656207572E+00  0.90007438872E+02  0.89999696264E+02 0.  0.
        -12    1    1    2    0    0  0.59844658670E+00 -0.10070282113E+01  0.14656207572E+00  0.11805611282E+01  0.00000000000E+00 0.  1.
         11    1    3    3    0    0 -0.14937171002E+02 -0.14568746527E+02 -0.43893911801E+01  0.21322152990E+02  0.51100000000E-03 0. -1.
        -11    1    3    3    0    0  0.25924686045E+01  0.24731189756E+02 -0.25378653517E+02  0.35530672592E+02  0.51100000000E-03 0.  1.
         12    1    3    3    0    0  0.11746255811E+02 -0.91554150179E+01  0.29621482621E+02  0.33154613290E+02  0.00000000000E+00 0. -1.
</event>
<event>
 7    1  0.3863655E-015  0.9000774E+02  0.7816164E-02  0.1186339E+00
        -11   -1    0    0    0    0  0.00000000000E+00  0.00000000000E+00  0.45593999997E+02  0.45594000000E+02  0.51100000000E-03 0. -1.
         11   -1    0    0    0    0 -0.00000000000E+00 -0.00000000000E+00 -0.45593999997E+02  0.45594000000E+02  0.51100000000E-03 0.  1.
    9900012    2    1    2    0    0  0.88853739664E+00  0.13678441340E+00  0.76473074808E+00  0.90007736556E+02  0.89999997878E+02 0.  0.
        -12    1    1    2    0    0 -0.88853739664E+00 -0.13678441340E+00 -0.76473074808E+00  0.11802634443E+01  0.00000000000E+00 0.  1.
         11    1    3    3    0    0  0.18767454013E+02 -0.48935588230E+01  0.34059260079E+02  0.39194354766E+02  0.51100000000E-03 0. -1.
        -11    1    3    3    0    0 -0.63371835315E+01 -0.46907231552E+01  0.52148980438E+01  0.94529329151E+01  0.51100000000E-03 0.  1.
        -12    1    3    3    0    0 -0.11541733084E+02  0.97210663915E+01 -0.38509427375E+02  0.41360448875E+02  0.00000000000E+00 0.  1.
</event>
<event>
 7    1  0.3863655E-015  0.9000775E+02  0.7816164E-02  0.1186339E+00
        -11   -1    0    0    0    0  0.00000000000E+00  0.00000000000E+00  0.45593999997E+02  0.45594000000E+02  0.51100000000E-03 0. -1.
         11   -1    0    0    0    0 -0.00000000000E+00 -0.00000000000E+00 -0.45593999997E+02  0.45594000000E+02  0.51100000000E-03 0.  1.
    9900012    2    1    2    0    0 -0.10986629482E+01 -0.42760669554E+00 -0.55526988404E-01  0.90007749600E+02  0.90000011095E+02 0.  0.
        -12    1    1    2    0    0  0.10986629482E+01  0.42760669554E+00  0.55526988404E-01  0.11802503998E+01  0.00000000000E+00 0.  1.
         11    1    3    3    0    0 -0.42149924244E+01  0.24606948679E+01  0.48455760805E+01  0.68775568470E+01  0.51100000000E-03 0. -1.
        -11    1    3    3    0    0 -0.25281324736E+02  0.15070004910E+02 -0.29358972041E+02  0.41571620944E+02  0.51100000000E-03 0.  1.
         12    1    3    3    0    0  0.28397654212E+02 -0.17958306474E+02  0.24457868972E+02  0.41558571809E+02  0.00000000000E+00 0. -1.
</event>
<event>
 7    1  0.3863655E-015  0.9000776E+02  0.7816164E-02  0.1186339E+00
        -11   -1    0    0    0    0  0.00000000000E+00  0.00000000000E+00  0.45593999997E+02  0.45594000000E+02  0.51100000000E-03 0. -1.
         11   -1    0    0    0    0 -0.00000000000E+00 -0.00000000000E+00 -0.45593999997E+02  0.45594000000E+02  0.51100000000E-03 0.  1.
    9900012    2    1    2    0    0 -0.44607158503E+00  0.45723758688E+00  0.99243080173E+00  0.90007760632E+02  0.90000022272E+02 0.  0.
        -12    1    1    2    0    0  0.44607158503E+00 -0.45723758688E+00 -0.99243080173E+00  0.11802393681E+01  0.00000000000E+00 0.  1.
         11    1    3    3    0    0 -0.10602752599E+02 -0.52968165411E+01  0.12490698333E+00  0.11852857468E+02  0.51100000000E-03 0. -1.
        -11    1    3    3    0    0 -0.36986975477E+01 -0.17181237704E+02 -0.31538982275E+02  0.36105161623E+02  0.51100000000E-03 0.  1.
         12    1    3    3    0    0  0.13855378561E+02  0.22935291832E+02  0.32406506094E+02  0.42049741541E+02  0.00000000000E+00 0. -1.
</event>
<event>
 7    1  0.3863655E-015  0.9000771E+02  0.7816164E-02  0.1186339E+00
        -11   -1    0    0    0    0  0.00000000000E+00  0.00000000000E+00  0.45593999997E+02  0.45594000000E+02  0.51100000000E-03 0.  1.
         11   -1    0    0    0    0 -0.00000000000E+00 -0.00000000000E+00 -0.45593999997E+02  0.45594000000E+02  0.51100000000E-03 0. -1.
    9900012    2    1    2    0    0 -0.28955969220E+00 -0.99589975774E+00 -0.56340118832E+00  0.90007711035E+02  0.89999972020E+02 0.  0.
        -12    1    1    2    0    0  0.28955969220E+00  0.99589975774E+00  0.56340118832E+00  0.11802889654E+01  0.00000000000E+00 0.  1.
         11    1    3    3    0    0 -0.11377815767E+02  0.25880389121E+00 -0.81037799343E+01  0.13971146001E+02  0.51100000000E-03 0. -1.
        -11    1    3    3    0    0 -0.49115318944E+01  0.30256163920E+02  0.22127148459E+02  0.37804355568E+02  0.51100000000E-03 0.  1.
         12    1    3    3    0    0  0.15999787969E+02 -0.31510867569E+02 -0.14586769713E+02  0.38232209466E+02  0.00000000000E+00 0. -1.
</event>
<event>
 7    1  0.3863655E-015  0.9000764E+02  0.7816164E-02  0.1186339E+00
        -11   -1    0    0    0    0  0.00000000000E+00  0.00000000000E+00  0.45593999997E+02  0.45594000000E+02  0.51100000000E-03 0.  1.
         11   -1    0    0    0    0 -0.00000000000E+00 -0.00000000000E+00 -0.45593999997E+02  0.45594000000E+02  0.51100000000E-03 0. -1.
    9900012    2    1    2    0    0  0.57332414757E+00  0.81298718750E+00 -0.63530435320E+00  0.90007635494E+02  0.89999895483E+02 0.  0.
        -12    1    1    2    0    0 -0.57332414757E+00 -0.81298718750E+00  0.63530435320E+00  0.11803645057E+01  0.00000000000E+00 0.  1.
         11    1    3    3    0    0  0.16100680414E+02 -0.22311696363E+02  0.21895307232E+02  0.35163165151E+02  0.51100000000E-03 0. -1.
        -11    1    3    3    0    0  0.63520790795E+01  0.42478731167E+01  0.91786093592E+01  0.11943207470E+02  0.51100000000E-03 0.  1.
        -12    1    3    3    0    0 -0.21879435346E+02  0.18876810434E+02 -0.31709220944E+02  0.42901262873E+02  0.00000000000E+00 0.  1.
</event>
<event>
 7    1  0.3863655E-015  0.9000770E+02  0.7816164E-02  0.1186339E+00
        -11   -1    0    0    0    0  0.00000000000E+00  0.00000000000E+00  0.45593999997E+02  0.45594000000E+02  0.51100000000E-03 0.  1.
         11   -1    0    0    0    0 -0.00000000000E+00 -0.00000000000E+00 -0.45593999997E+02  0.45594000000E+02  0.51100000000E-03 0. -1.
    9900012    2    1    2    0    0  0.13497943893E+00 -0.62298746225E+00 -0.99337030828E+00  0.90007696058E+02  0.89999956846E+02 0.  0.
        -12    1    1    2    0    0 -0.13497943893E+00  0.62298746225E+00  0.99337030828E+00  0.11803039424E+01  0.00000000000E+00 0.  1.
         11    1    3    3    0    0  0.12550299159E+02 -0.38203391118E+00 -0.41990702521E+02  0.43827788643E+02  0.51100000000E-03 0. -1.
        -11    1    3    3    0    0 -0.93137968909E+01 -0.33195640861E+00  0.60858174225E+01  0.11130776323E+02  0.51100000000E-03 0.  1.
        -12    1    3    3    0    0 -0.31015228290E+01  0.91002857541E-01  0.34911514790E+02  0.35049131092E+02  0.00000000000E+00 0.  1.
</event>
<event>
 7    1  0.3863655E-015  0.9000774E+02  0.7816164E-02  0.1186339E+00
        -11   -1    0    0    0    0  0.00000000000E+00  0.00000000000E+00  0.45593999997E+02  0.45594000000E+02  0.51100000000E-03 0. -1.
         11   -1    0    0    0    0 -0.00000000000E+00 -0.00000000000E+00 -0.45593999997E+02  0.45594000000E+02  0.51100000000E-03 0.  1.
    9900012    2    1    2    0    0  0.46093115947E+00 -0.10816057302E+01  0.10341508260E+00  0.90007735975E+02  0.89999997290E+02 0.  0.
        -12    1    1    2    0    0 -0.46093115947E+00  0.10816057302E+01 -0.10341508260E+00  0.11802640249E+01  0.00000000000E+00 0.  1.
         11    1    3    3    0    0 -0.40514264838E+02 -0.37250683654E+00  0.11767149430E+02  0.42190167370E+02  0.51100000000E-03 0. -1.
        -11    1    3    3    0    0  0.18096021155E+01 -0.47889513054E+01 -0.62352153898E+01  0.80676282537E+01  0.51100000000E-03 0.  1.
        -12    1    3    3    0    0  0.39165593882E+02  0.40798524118E+01 -0.54285189572E+01  0.39749940351E+02  0.00000000000E+00 0.  1.
</event>
<event>
 7    1  0.3863655E-015  0.9000771E+02  0.7816164E-02  0.1186339E+00
        -11   -1    0    0    0    0  0.00000000000E+00  0.00000000000E+00  0.45593999997E+02  0.45594000000E+02  0.51100000000E-03 0. -1.
         11   -1    0    0    0    0 -0.00000000000E+00 -0.00000000000E+00 -0.45593999997E+02  0.45594000000E+02  0.51100000000E-03 0.  1.
    9900012    2    1    2    0    0  0.65987405712E+00 -0.91075111736E+00  0.35801793600E+00  0.90007712657E+02  0.89999973664E+02 0.  0.
        -12    1    1    2    0    0 -0.65987405712E+00  0.91075111736E+00 -0.35801793600E+00  0.11802873428E+01  0.00000000000E+00 0.  1.
         11    1    3    3    0    0  0.32677945844E+02  0.77231391698E+01 -0.73858540260E+01  0.34380893868E+02  0.51100000000E-03 0. -1.
        -11    1    3    3    0    0  0.97271374492E+01  0.51927884463E+01  0.33421051279E+00  0.11031498163E+02  0.51100000000E-03 0.  1.
        -12    1    3    3    0    0 -0.41745209236E+02 -0.13826678734E+02  0.74096614492E+01  0.44595320626E+02  0.00000000000E+00 0.  1.
</event>
<event>
 7    1  0.3863655E-015  0.9000774E+02  0.7816164E-02  0.1186339E+00
        -11   -1    0    0    0    0  0.00000000000E+00  0.00000000000E+00  0.45593999997E+02  0.45594000000E+02  0.51100000000E-03 0. -1.
         11   -1    0    0    0    0 -0.00000000000E+00 -0.00000000000E+00 -0.45593999997E+02  0.45594000000E+02  0.51100000000E-03 0.  1.
    9900012    2    1    2    0    0  0.62336034681E+00  0.46344356544E+00  0.88862621626E+00  0.90007739600E+02  0.90000000962E+02 0.  0.
        -12    1    1    2    0    0 -0.62336034681E+00 -0.46344356544E+00 -0.88862621626E+00  0.11802604003E+01  0.00000000000E+00 0.  1.
         11    1    3    3    0    0  0.67353804155E+01  0.58048832899E+01  0.65818870614E+01  0.11062696638E+02  0.51100000000E-03 0. -1.
        -11    1    3    3    0    0  0.31954186519E+02 -0.10394425714E+02  0.13257819879E+02  0.36123176912E+02  0.51100000000E-03 0.  1.
         12    1    3    3    0    0 -0.38066206588E+02  0.50529859892E+01 -0.18951080724E+02  0.42821866050E+02  0.00000000000E+00 0. -1.
</event>
<event>
 7    1  0.3863655E-015  0.9000781E+02  0.7816164E-02  0.1186339E+00
        -11   -1    0    0    0    0  0.00000000000E+00  0.00000000000E+00  0.45593999997E+02  0.45594000000E+02  0.51100000000E-03 0. -1.
         11   -1    0    0    0    0 -0.00000000000E+00 -0.00000000000E+00 -0.45593999997E+02  0.45594000000E+02  0.51100000000E-03 0.  1.
    9900012    2    1    2    0    0 -0.16204214699E+00 -0.11552658105E+01  0.17872724493E+00  0.90007813498E+02  0.90000075837E+02 0.  0.
        -12    1    1    2    0    0  0.16204214699E+00  0.11552658105E+01 -0.17872724493E+00  0.11801865015E+01  0.00000000000E+00 0.  1.
         11    1    3    3    0    0 -0.21501379555E+02  0.22976062050E+00  0.32144925824E+02  0.38673742632E+02  0.51100000000E-03 0. -1.
        -11    1    3    3    0    0 -0.27480695213E+01  0.10224970458E+02 -0.13317346485E+01  0.10671242870E+02  0.51100000000E-03 0.  1.
        -12    1    3    3    0    0  0.24087406929E+02 -0.11609996889E+02 -0.30634463931E+02  0.40662827996E+02  0.00000000000E+00 0.  1.
</event>
<event>
 7    1  0.3863655E-015  0.9000761E+02  0.7816164E-02  0.1186339E+00
        -11   -1    0    0    0    0  0.00000000000E+00  0.00000000000E+00  0.45593999997E+02  0.45594000000E+02  0.51100000000E-03 0.  1.
         11   -1    0    0    0    0 -0.00000000000E+00 -0.00000000000E+00 -0.45593999997E+02  0.45594000000E+02  0.51100000000E-03 0. -1.
    9900012    2    1    2    0    0  0.62733611703E+00 -0.75446333070E+00 -0.65617052528E+00  0.90007607998E+02  0.89999867623E+02 0.  0.
        -12    1    1    2    0    0 -0.62733611703E+00  0.75446333070E+00  0.65617052528E+00  0.11803920024E+01  0.00000000000E+00 0.  1.
         11    1    3    3    0    0  0.28204370394E+01 -0.74056369357E+01 -0.37634287697E+01  0.87727829041E+01  0.51100000000E-03 0. -1.
        -11    1    3    3    0    0  0.23847274038E+02 -0.42868676360E+01 -0.29448266691E+02  0.38134893793E+02  0.51100000000E-03 0.  1.
         12    1    3    3    0    0 -0.26040374961E+02  0.10938041241E+02  0.32555524936E+02  0.43099931301E+02  0.00000000000E+00 0. -1.
</event>
<event>
 7    1  0.3863655E-015  0.9000779E+02  0.7816164E-02  0.1186339E+00
        -11   -1    0    0    0    0  0.00000000000E+00  0.00000000000E+00  0.45593999997E+02  0.45594000000E+02  0.51100000000E-03 0. -1.
         11   -1    0    0    0    0 -0.00000000000E+00 -0.00000000000E+00 -0.45593999997E+02  0.45594000000E+02  0.51100000000E-03 0.  1.
    9900012    2    1    2    0    0  0.76053783362E+00 -0.76302207018E+00  0.48193816063E+00  0.90007794566E+02  0.90000056654E+02 0.  0.
        -12    1    1    2    0    0 -0.76053783362E+00  0.76302207018E+00 -0.48193816063E+00  0.11802054341E+01  0.00000000000E+00 0.  1.
         11    1    3    3    0    0  0.15345911461E+01  0.26709558218E+01 -0.83525229282E+01  0.89024499164E+01  0.51100000000E-03 0. -1.
        -11    1    3    3    0    0  0.18250086877E+02  0.20072950505E+02 -0.24175276612E+02  0.36337762900E+02  0.51100000000E-03 0.  1.
         12    1    3    3    0    0 -0.19024140190E+02 -0.23506928397E+02  0.33009737701E+02  0.44767581750E+02  0.00000000000E+00 0. -1.
</event>
<event>
 7    1  0.3863655E-015  0.9000781E+02  0.7816164E-02  0.1186339E+00
        -11   -1    0    0    0    0  0.00000000000E+00  0.00000000000E+00  0.45593999997E+02  0.45594000000E+02  0.51100000000E-03 0.  1.
         11   -1    0    0    0    0 -0.00000000000E+00 -0.00000000000E+00 -0.45593999997E+02  0.45594000000E+02  0.51100000000E-03 0. -1.
    9900012    2    1    2    0    0  0.11216201509E+01 -0.29513779140E+00  0.21841449621E+00  0.90007812315E+02  0.90000074638E+02 0.  0.
        -12    1    1    2    0    0 -0.11216201509E+01  0.29513779140E+00 -0.21841449621E+00  0.11801876847E+01  0.00000000000E+00 0.  1.
         11    1    3    3    0    0  0.35646113565E+01  0.67637342734E+01 -0.70152464373E+00  0.76776749430E+01  0.51100000000E-03 0. -1.
        -11    1    3    3    0    0  0.14530351637E+02  0.30738522043E+02  0.16842058533E+02  0.37942625001E+02  0.51100000000E-03 0.  1.
         12    1    3    3    0    0 -0.16973342842E+02 -0.37797394108E+02 -0.15922119393E+02  0.44387512372E+02  0.00000000000E+00 0. -1.
</event>
<event>
 7    1  0.3863655E-015  0.9000903E+02  0.7816164E-02  0.1186336E+00
        -11   -1    0    0    0    0  0.00000000000E+00  0.00000000000E+00  0.45593999997E+02  0.45594000000E+02  0.51100000000E-03 0.  1.
         11   -1    0    0    0    0 -0.00000000000E+00 -0.00000000000E+00 -0.45593999997E+02  0.45594000000E+02  0.51100000000E-03 0. -1.
    9900012    2    1    2    0    0  0.11699505048E+01  0.49850659541E-02 -0.14548064531E+00  0.90009028562E+02  0.90001306929E+02 0.  0.
        -12    1    1    2    0    0 -0.11699505048E+01 -0.49850659541E-02  0.14548064531E+00  0.11789714384E+01  0.00000000000E+00 0.  1.
         11    1    3    3    0    0  0.23509594678E+02  0.29972009964E+02 -0.16004908671E+02  0.41318029055E+02  0.51100000000E-03 0. -1.
        -11    1    3    3    0    0  0.54172776573E+01 -0.38829635662E+01  0.68350663578E+01  0.95468547517E+01  0.51100000000E-03 0.  1.
        -12    1    3    3    0    0 -0.27756921830E+02 -0.26084061332E+02  0.90243616682E+01  0.39144144755E+02  0.00000000000E+00 0.  1.
</event>
<event>
 7    1  0.3863655E-015  0.9000789E+02  0.7816164E-02  0.1186339E+00
        -11   -1    0    0    0    0  0.00000000000E+00  0.00000000000E+00  0.45593999997E+02  0.45594000000E+02  0.51100000000E-03 0.  1.
         11   -1    0    0    0    0 -0.00000000000E+00 -0.00000000000E+00 -0.45593999997E+02  0.45594000000E+02  0.51100000000E-03 0. -1.
    9900012    2    1    2    0    0 -0.95060362312E+00 -0.17140208077E+00  0.67795839762E+00  0.90007892585E+02  0.90000155967E+02 0.  0.
        -12    1    1    2    0    0  0.95060362312E+00  0.17140208077E+00 -0.67795839762E+00  0.11801074148E+01  0.00000000000E+00 0.  1.
         11    1    3    3    0    0  0.46312949393E+01  0.33409034610E+02 -0.20380183554E+02  0.39407668903E+02  0.51100000000E-03 0. -1.
        -11    1    3    3    0    0 -0.87738487156E+01  0.28776706756E+01  0.24995123887E+01  0.95660322100E+01  0.51100000000E-03 0.  1.
        -12    1    3    3    0    0  0.31919501531E+01 -0.36458107367E+02  0.18558629563E+02  0.41034191472E+02  0.00000000000E+00 0.  1.
</event>
<event>
 7    1  0.3863655E-015  0.9000772E+02  0.7816164E-02  0.1186339E+00
        -11   -1    0    0    0    0  0.00000000000E+00  0.00000000000E+00  0.45593999997E+02  0.45594000000E+02  0.51100000000E-03 0.  1.
         11   -1    0    0    0    0 -0.00000000000E+00 -0.00000000000E+00 -0.45593999997E+02  0.45594000000E+02  0.51100000000E-03 0. -1.
    9900012    2    1    2    0    0 -0.68484397933E+00  0.38576620884E+00 -0.88047738386E+00  0.90007717293E+02  0.89999978362E+02 0.  0.
        -12    1    1    2    0    0  0.68484397933E+00 -0.38576620884E+00  0.88047738386E+00  0.11802827066E+01  0.00000000000E+00 0.  1.
         11    1    3    3    0    0  0.41076732523E+01  0.50974500154E+01  0.51379259744E+01  0.83219745125E+01  0.51100000000E-03 0. -1.
        -11    1    3    3    0    0 -0.32652383691E+02  0.11757332527E+02  0.20093334500E+02  0.40101809441E+02  0.51100000000E-03 0.  1.
         12    1    3    3    0    0  0.27859866459E+02 -0.16469016333E+02 -0.26111737858E+02  0.41583933340E+02  0.00000000000E+00 0. -1.
</event>
<event>
 7    1  0.3863655E-015  0.9000825E+02  0.7816164E-02  0.1186338E+00
        -11   -1    0    0    0    0  0.00000000000E+00  0.00000000000E+00  0.45593999997E+02  0.45594000000E+02  0.51100000000E-03 0.  1.
         11   -1    0    0    0    0 -0.00000000000E+00 -0.00000000000E+00 -0.45593999997E+02  0.45594000000E+02  0.51100000000E-03 0. -1.
    9900012    2    1    2    0    0 -0.78861485842E+00  0.87581727495E+00 -0.53374411129E-01  0.90008246584E+02  0.90000514638E+02 0.  0.
        -12    1    1    2    0    0  0.78861485842E+00 -0.87581727495E+00  0.53374411129E-01  0.11797534157E+01  0.00000000000E+00 0.  1.
         11    1    3    3    0    0 -0.62234869463E+01 -0.22188404280E+01  0.63872820939E+01  0.91897995312E+01  0.51100000000E-03 0. -1.
        -11    1    3    3    0    0 -0.29768114677E+02  0.25166481412E+02 -0.20050216305E+01  0.39032198888E+02  0.51100000000E-03 0.  1.
         12    1    3    3    0    0  0.35202986764E+02 -0.22071823709E+02 -0.44356348746E+01  0.41786248165E+02  0.00000000000E+00 0. -1.
</event>
<event>
 7    1  0.3863655E-015  0.9000780E+02  0.7816164E-02  0.1186339E+00
        -11   -1    0    0    0    0  0.00000000000E+00  0.00000000000E+00  0.45593999997E+02  0.45594000000E+02  0.51100000000E-03 0. -1.
         11   -1    0    0    0    0 -0.00000000000E+00 -0.00000000000E+00 -0.45593999997E+02  0.45594000000E+02  0.51100000000E-03 0.  1.
    9900012    2    1    2    0    0 -0.42601984468E+00 -0.20920219499E+00  0.10805620400E+01  0.90007799683E+02  0.90000061839E+02 0.  0.
        -12    1    1    2    0    0  0.42601984468E+00  0.20920219499E+00 -0.10805620400E+01  0.11802003172E+01  0.00000000000E+00 0.  1.
         11    1    3    3    0    0  0.56157705187E+01  0.17355495810E+02  0.31535754988E+02  0.36431496762E+02  0.51100000000E-03 0. -1.
        -11    1    3    3    0    0 -0.88731129208E+01  0.15484269851E+01  0.70157314945E+01  0.11417103297E+02  0.51100000000E-03 0.  1.
        -12    1    3    3    0    0  0.28313225574E+01 -0.19113124991E+02 -0.37470924443E+02  0.42159199624E+02  0.00000000000E+00 0.  1.
</event>
<event>
 7    1  0.3863655E-015  0.9000769E+02  0.7816164E-02  0.1186339E+00
        -11   -1    0    0    0    0  0.00000000000E+00  0.00000000000E+00  0.45593999997E+02  0.45594000000E+02  0.51100000000E-03 0.  1.
         11   -1    0    0    0    0 -0.00000000000E+00 -0.00000000000E+00 -0.45593999997E+02  0.45594000000E+02  0.51100000000E-03 0. -1.
    9900012    2    1    2    0    0  0.10816916794E+01  0.31960534304E-01 -0.47122460401E+00  0.90007690298E+02  0.89999951010E+02 0.  0.
        -12    1    1    2    0    0 -0.10816916794E+01 -0.31960534304E-01  0.47122460401E+00  0.11803097019E+01  0.00000000000E+00 0.  1.
         11    1    3    3    0    0  0.11528063614E+02  0.25447399558E+02 -0.25737702916E+02  0.37985467571E+02  0.51100000000E-03 0. -1.
        -11    1    3    3    0    0  0.96551758450E+01  0.18834223767E+01  0.16338971557E+00  0.98385159911E+01  0.51100000000E-03 0.  1.
        -12    1    3    3    0    0 -0.20101547780E+02 -0.27298861400E+02  0.25103088596E+02  0.42183706736E+02  0.00000000000E+00 0.  1.
</event>
<event>
 7    1  0.3863655E-015  0.9000776E+02  0.7816164E-02  0.1186339E+00
        -11   -1    0    0    0    0  0.00000000000E+00  0.00000000000E+00  0.45593999997E+02  0.45594000000E+02  0.51100000000E-03 0. -1.
         11   -1    0    0    0    0 -0.00000000000E+00 -0.00000000000E+00 -0.45593999997E+02  0.45594000000E+02  0.51100000000E-03 0.  1.
    9900012    2    1    2    0    0  0.62487298656E+00  0.32067077644E+00 -0.94851559208E+00  0.90007755184E+02  0.90000016753E+02 0.  0.
        -12    1    1    2    0    0 -0.62487298656E+00 -0.32067077644E+00  0.94851559208E+00  0.11802448155E+01  0.00000000000E+00 0.  1.
         11    1    3    3    0    0 -0.74265646358E+00 -0.23596080023E+02 -0.27857194198E+02  0.36515062644E+02  0.51100000000E-03 0. -1.
        -11    1    3    3    0    0 -0.46362849220E+01 -0.82576885353E+01 -0.21651260787E+01  0.97145421417E+01  0.51100000000E-03 0.  1.
        -12    1    3    3    0    0  0.60038143721E+01  0.32174439335E+02  0.29073804684E+02  0.43778150399E+02  0.00000000000E+00 0.  1.
</event>
<event>
 7    1  0.3863655E-015  0.9000777E+02  0.7816164E-02  0.1186339E+00
        -11   -1    0    0    0    0  0.00000000000E+00  0.00000000000E+00  0.45593999997E+02  0.45594000000E+02  0.51100000000E-03 0. -1.
         11   -1    0    0    0    0 -0.00000000000E+00 -0.00000000000E+00 -0.45593999997E+02  0.45594000000E+02  0.51100000000E-03 0.  1.
    9900012    2    1    2    0    0 -0.12667640846E+00  0.10809436203E+01  0.45656496045E+00  0.90007772231E+02  0.90000034025E+02 0.  0.
        -12    1    1    2    0    0  0.12667640846E+00 -0.10809436203E+01 -0.45656496045E+00  0.11802277686E+01  0.00000000000E+00 0.  1.
         11    1    3    3    0    0  0.67187377305E+01  0.30755580382E+01 -0.51977595478E+01  0.90342237363E+01  0.51100000000E-03 0. -1.
        -11    1    3    3    0    0 -0.30665789566E+02 -0.17253631865E+02 -0.21931126802E+02  0.41461461447E+02  0.51100000000E-03 0.  1.
         12    1    3    3    0    0  0.23820375427E+02  0.15259017447E+02  0.27585451310E+02  0.39512087048E+02  0.00000000000E+00 0. -1.
</event>
<event>
 7    1  0.3863655E-015  0.9000795E+02  0.7816164E-02  0.1186339E+00
        -11   -1    0    0    0    0  0.00000000000E+00  0.00000000000E+00  0.45593999997E+02  0.45594000000E+02  0.51100000000E-03 0. -1.
         11   -1    0    0    0    0 -0.00000000000E+00 -0.00000000000E+00 -0.45593999997E+02  0.45594000000E+02  0.51100000000E-03 0.  1.
    9900012    2    1    2    0    0 -0.11743395275E+01  0.11542237107E+00  0.10954876723E-01  0.90007950993E+02  0.90000215146E+02 0.  0.
        -12    1    1    2    0    0  0.11743395275E+01 -0.11542237107E+00 -0.10954876723E-01  0.11800490070E+01  0.00000000000E+00 0.  1.
         11    1    3    3    0    0 -0.19914595649E+01 -0.67064415994E+01  0.21538049003E+01  0.73199143393E+01  0.51100000000E-03 0. -1.
        -11    1    3    3    0    0  0.57496233730E+01 -0.34478399371E+02  0.14560216055E+02  0.37865790418E+02  0.51100000000E-03 0.  1.
         12    1    3    3    0    0 -0.49325033356E+01  0.41300263342E+02 -0.16703066078E+02  0.44822246236E+02  0.00000000000E+00 0. -1.
</event>
<event>
 7    1  0.3863655E-015  0.9000776E+02  0.7816164E-02  0.1186339E+00
        -11   -1    0    0    0    0  0.00000000000E+00  0.00000000000E+00  0.45593999997E+02  0.45594000000E+02  0.51100000000E-03 0.  1.
         11   -1    0    0    0    0 -0.00000000000E+00 -0.00000000000E+00 -0.45593999997E+02  0.45594000000E+02  0.51100000000E-03 0. -1.
    9900012    2    1    2    0    0  0.50392544836E+00 -0.69381090513E+00 -0.81095219583E+00  0.90007763628E+02  0.90000025308E+02 0.  0.
        -12    1    1    2    0    0 -0.50392544836E+00  0.69381090513E+00  0.81095219583E+00  0.11802363719E+01  0.00000000000E+00 0.  1.
         11    1    3    3    0    0 -0.27102677917E+02  0.22672855185E+02  0.19206933977E+02  0.40218401579E+02  0.51100000000E-03 0. -1.
        -11    1    3    3    0    0 -0.56134793767E+01 -0.53579843262E+01 -0.26328029829E+01  0.81945590828E+01  0.51100000000E-03 0.  1.
        -12    1    3    3    0    0  0.33220082742E+02 -0.18008681764E+02 -0.17385083190E+02  0.41594802966E+02  0.00000000000E+00 0.  1.
</event>
<event>
 7    1  0.3863655E-015  0.9000798E+02  0.7816164E-02  0.1186339E+00
        -11   -1    0    0    0    0  0.00000000000E+00  0.00000000000E+00  0.45593999997E+02  0.45594000000E+02  0.51100000000E-03 0.  1.
         11   -1    0    0    0    0 -0.00000000000E+00 -0.00000000000E+00 -0.45593999997E+02  0.45594000000E+02  0.51100000000E-03 0. -1.
    9900012    2    1    2    0    0  0.56907972512E+00 -0.85791940799E+00 -0.57667942549E+00  0.90007984490E+02  0.90000249085E+02 0.  0.
        -12    1    1    2    0    0 -0.56907972512E+00  0.85791940799E+00  0.57667942549E+00  0.11800155100E+01  0.00000000000E+00 0.  1.
         11    1    3    3    0    0  0.31363467512E+02 -0.24306811723E+02  0.22164341393E+01  0.39741675493E+02  0.51100000000E-03 0. -1.
        -11    1    3    3    0    0 -0.11121795590E+02 -0.12045450580E+01  0.11138097150E+02  0.15786148179E+02  0.51100000000E-03 0.  1.
        -12    1    3    3    0    0 -0.19672592197E+02  0.24653437373E+02 -0.13931210715E+02  0.34480160818E+02  0.00000000000E+00 0.  1.
</event>
<event>
 7    1  0.3863655E-015  0.9000786E+02  0.7816164E-02  0.1186339E+00
        -11   -1    0    0    0    0  0.00000000000E+00  0.00000000000E+00  0.45593999997E+02  0.45594000000E+02  0.51100000000E-03 0.  1.
         11   -1    0    0    0    0 -0.00000000000E+00 -0.00000000000E+00 -0.45593999997E+02  0.45594000000E+02  0.51100000000E-03 0. -1.
    9900012    2    1    2    0    0 -0.51065268821E+00  0.24710986493E+00 -0.10348461690E+01  0.90007857616E+02  0.90000120536E+02 0.  0.
        -12    1    1    2    0    0  0.51065268821E+00 -0.24710986493E+00  0.10348461690E+01  0.11801423841E+01  0.00000000000E+00 0.  1.
         11    1    3    3    0    0  0.66093684516E+01 -0.84070770237E+01  0.17744968539E+01  0.10840273740E+02  0.51100000000E-03 0. -1.
        -11    1    3    3    0    0 -0.24026611293E+02 -0.24108090843E+02 -0.18911313903E+02  0.38937332833E+02  0.51100000000E-03 0.  1.
         12    1    3    3    0    0  0.16906590153E+02  0.32762277732E+02  0.16101970880E+02  0.40230251043E+02  0.00000000000E+00 0. -1.
</event>
<event>
 7    1  0.3863655E-015  0.9000771E+02  0.7816164E-02  0.1186339E+00
        -11   -1    0    0    0    0  0.00000000000E+00  0.00000000000E+00  0.45593999997E+02  0.45594000000E+02  0.51100000000E-03 0. -1.
         11   -1    0    0    0    0 -0.00000000000E+00 -0.00000000000E+00 -0.45593999997E+02  0.45594000000E+02  0.51100000000E-03 0.  1.
    9900012    2    1    2    0    0  0.56176117845E+00 -0.92314209229E+00  0.47466498729E+00  0.90007714528E+02  0.89999975560E+02 0.  0.
        -12    1    1    2    0    0 -0.56176117845E+00  0.92314209229E+00 -0.47466498729E+00  0.11802854715E+01  0.00000000000E+00 0.  1.
         11    1    3    3    0    0  0.28288245093E+02  0.19571729838E+02  0.13046436086E+02  0.36789766432E+02  0.51100000000E-03 0. -1.
        -11    1    3    3    0    0  0.81631192524E+01 -0.12516752503E+02 -0.33901217453E+01  0.15323137239E+02  0.51100000000E-03 0.  1.
        -12    1    3    3    0    0 -0.35889603167E+02 -0.79781194276E+01 -0.91816493532E+01  0.37894810858E+02  0.00000000000E+00 0.  1.
</event>
<event>
 7    1  0.3863655E-015  0.9000729E+02  0.7816164E-02  0.1186340E+00
        -11   -1    0    0    0    0  0.00000000000E+00  0.00000000000E+00  0.45593999997E+02  0.45594000000E+02  0.51100000000E-03 0.  1.
         11   -1    0    0    0    0 -0.00000000000E+00 -0.00000000000E+00 -0.45593999997E+02  0.45594000000E+02  0.51100000000E-03 0. -1.
    9900012    2    1    2    0    0 -0.50560577718E+00 -0.10551824095E+01  0.15817187518E+00  0.90007294507E+02  0.89999549993E+02 0.  0.
        -12    1    1    2    0    0  0.50560577718E+00  0.10551824095E+01 -0.15817187518E+00  0.11807054931E+01  0.00000000000E+00 0.  1.
         11    1    3    3    0    0  0.87188372981E+01 -0.16743848999E+01  0.31928584774E+01  0.94348309015E+01  0.51100000000E-03 0. -1.
        -11    1    3    3    0    0 -0.17028060810E+02  0.14261123800E+02  0.33845778207E+02  0.40482974318E+02  0.51100000000E-03 0.  1.
         12    1    3    3    0    0  0.78036177350E+01 -0.13641921310E+02 -0.36880464809E+02  0.40089489287E+02  0.00000000000E+00 0. -1.
</event>
<event>
 7    1  0.3863655E-015  0.9000769E+02  0.7816164E-02  0.1186339E+00
        -11   -1    0    0    0    0  0.00000000000E+00  0.00000000000E+00  0.45593999997E+02  0.45594000000E+02  0.51100000000E-03 0. -1.
         11   -1    0    0    0    0 -0.00000000000E+00 -0.00000000000E+00 -0.45593999997E+02  0.45594000000E+02  0.51100000000E-03 0.  1.
    9900012    2    1    2    0    0 -0.77336093758E+00  0.65308893288E+00 -0.60705851213E+00  0.90007689731E+02  0.89999950435E+02 0.  0.
        -12    1    1    2    0    0  0.77336093758E+00 -0.65308893288E+00  0.60705851213E+00  0.11803102690E+01  0.00000000000E+00 0.  1.
         11    1    3    3    0    0 -0.21280813275E+01 -0.85524933884E+01 -0.24019799459E+01  0.91347348739E+01  0.51100000000E-03 0. -1.
        -11    1    3    3    0    0 -0.36054239813E+02 -0.11352561613E+02 -0.30032495166E+01  0.37918443686E+02  0.51100000000E-03 0.  1.
         12    1    3    3    0    0  0.37408960203E+02  0.20558143934E+02  0.47981709504E+01  0.42954511171E+02  0.00000000000E+00 0. -1.
</event>
<event>
 7    1  0.9606129E-015  0.9000775E+02  0.7816164E-02  0.1186339E+00
        -11   -1    0    0    0    0  0.00000000000E+00  0.00000000000E+00  0.45593999997E+02  0.45594000000E+02  0.51100000000E-03 0. -1.
         11   -1    0    0    0    0 -0.00000000000E+00 -0.00000000000E+00 -0.45593999997E+02  0.45594000000E+02  0.51100000000E-03 0.  1.
    9900012    2    1    2    0    0 -0.83910845722E+00  0.21812024418E-01  0.82970407643E+00  0.90007751034E+02  0.90000012548E+02 0.  0.
        -12    1    1    2    0    0  0.83910845722E+00 -0.21812024418E-01 -0.82970407643E+00  0.11802489660E+01  0.00000000000E+00 0.  1.
         11    1    3    3    0    0 -0.40816408820E+01  0.57219753828E+01  0.67955463244E+01  0.97765149558E+01  0.51100000000E-03 0. -1.
        -11    1    3    3    0    0 -0.18802870070E+02  0.41188133819E+01 -0.36528121869E+02  0.41289420365E+02  0.51100000000E-03 0.  1.
         12    1    3    3    0    0  0.22045402495E+02 -0.98189767403E+01  0.30562279621E+02  0.38941815713E+02  0.00000000000E+00 0. -1.
</event>
<event>
 7    1  0.3863655E-015  0.9000790E+02  0.7816164E-02  0.1186339E+00
        -11   -1    0    0    0    0  0.00000000000E+00  0.00000000000E+00  0.45593999997E+02  0.45594000000E+02  0.51100000000E-03 0.  1.
         11   -1    0    0    0    0 -0.00000000000E+00 -0.00000000000E+00 -0.45593999997E+02  0.45594000000E+02  0.51100000000E-03 0. -1.
    9900012    2    1    2    0    0 -0.52816110581E-01  0.42898650210E+00 -0.10981003804E+01  0.90007896866E+02  0.90000160305E+02 0.  0.
        -12    1    1    2    0    0  0.52816110581E-01 -0.42898650210E+00  0.10981003804E+01  0.11801031336E+01  0.00000000000E+00 0.  1.
         11    1    3    3    0    0  0.22264010023E+01 -0.74181491025E+01  0.21892659687E+01  0.80485205643E+01  0.51100000000E-03 0. -1.
        -11    1    3    3    0    0  0.24720636375E+02  0.91341131880E+01  0.29439916441E+02  0.39512663373E+02  0.51100000000E-03 0.  1.
         12    1    3    3    0    0 -0.26999853488E+02 -0.12869775834E+01 -0.32727282790E+02  0.42446712929E+02  0.00000000000E+00 0. -1.
</event>
<event>
 7    1  0.3863655E-015  0.9000785E+02  0.7816164E-02  0.1186339E+00
        -11   -1    0    0    0    0  0.00000000000E+00  0.00000000000E+00  0.45593999997E+02  0.45594000000E+02  0.51100000000E-03 0.  1.
         11   -1    0    0    0    0 -0.00000000000E+00 -0.00000000000E+00 -0.45593999997E+02  0.45594000000E+02  0.51100000000E-03 0. -1.
    9900012    2    1    2    0    0  0.80375967976E+00  0.45805925413E+00 -0.73273810727E+00  0.90007850418E+02  0.90000113243E+02 0.  0.
        -12    1    1    2    0    0 -0.80375967976E+00 -0.45805925413E+00  0.73273810727E+00  0.11801495824E+01  0.00000000000E+00 0.  1.
         11    1    3    3    0    0 -0.67076181670E+01 -0.63361906147E+01  0.51857434887E-01  0.92272499931E+01  0.51100000000E-03 0. -1.
        -11    1    3    3    0    0 -0.10607670772E+02 -0.19428784092E+02  0.29454271320E+02  0.36845005492E+02  0.51100000000E-03 0.  1.
         12    1    3    3    0    0  0.18119048619E+02  0.26223033961E+02 -0.30238866862E+02  0.43935594932E+02  0.00000000000E+00 0. -1.
</event>
<event>
 7    1  0.3863655E-015  0.9000770E+02  0.7816164E-02  0.1186339E+00
        -11   -1    0    0    0    0  0.00000000000E+00  0.00000000000E+00  0.45593999997E+02  0.45594000000E+02  0.51100000000E-03 0. -1.
         11   -1    0    0    0    0 -0.00000000000E+00 -0.00000000000E+00 -0.45593999997E+02  0.45594000000E+02  0.51100000000E-03 0.  1.
    9900012    2    1    2    0    0  0.91901107886E+00  0.52827176808E+00  0.51909530901E+00  0.90007698190E+02  0.89999959006E+02 0.  0.
        -12    1    1    2    0    0 -0.91901107886E+00 -0.52827176808E+00 -0.51909530901E+00  0.11803018105E+01  0.00000000000E+00 0.  1.
         11    1    3    3    0    0 -0.15533421823E+02 -0.39388619963E+01  0.14443207069E+02  0.21573318197E+02  0.51100000000E-03 0. -1.
        -11    1    3    3    0    0 -0.23980644728E+02 -0.34896427945E+01 -0.12342887884E+02  0.27195510842E+02  0.51100000000E-03 0.  1.
         12    1    3    3    0    0  0.40433077630E+02  0.79567765589E+01 -0.15812238756E+01  0.41238869150E+02  0.00000000000E+00 0. -1.
</event>
<event>
 7    1  0.3863655E-015  0.9000797E+02  0.7816164E-02  0.1186339E+00
        -11   -1    0    0    0    0  0.00000000000E+00  0.00000000000E+00  0.45593999997E+02  0.45594000000E+02  0.51100000000E-03 0. -1.
         11   -1    0    0    0    0 -0.00000000000E+00 -0.00000000000E+00 -0.45593999997E+02  0.45594000000E+02  0.51100000000E-03 0.  1.
    9900012    2    1    2    0    0  0.66712803784E-01 -0.17677094672E+00  0.11648016542E+01  0.90007973958E+02  0.90000238414E+02 0.  0.
        -12    1    1    2    0    0 -0.66712803784E-01  0.17677094672E+00 -0.11648016542E+01  0.11800260419E+01  0.00000000000E+00 0.  1.
         11    1    3    3    0    0 -0.12034741062E+01  0.42457459618E+01  0.81435584710E+01  0.92624107838E+01  0.51100000000E-03 0. -1.
        -11    1    3    3    0    0 -0.25806043429E+02 -0.30277124818E+02  0.77217473986E+01  0.40525073077E+02  0.51100000000E-03 0.  1.
         12    1    3    3    0    0  0.27076230339E+02  0.25854607910E+02 -0.14700504215E+02  0.40220490098E+02  0.00000000000E+00 0. -1.
</event>
<event>
 7    1  0.3863655E-015  0.9000760E+02  0.7816164E-02  0.1186339E+00
        -11   -1    0    0    0    0  0.00000000000E+00  0.00000000000E+00  0.45593999997E+02  0.45594000000E+02  0.51100000000E-03 0. -1.
         11   -1    0    0    0    0 -0.00000000000E+00 -0.00000000000E+00 -0.45593999997E+02  0.45594000000E+02  0.51100000000E-03 0.  1.
    9900012    2    1    2    0    0  0.39235273291E+00 -0.77186379554E+00  0.80227154546E+00  0.90007595824E+02  0.89999855289E+02 0.  0.
        -12    1    1    2    0    0 -0.39235273291E+00  0.77186379554E+00 -0.80227154546E+00  0.11804041759E+01  0.00000000000E+00 0.  1.
         11    1    3    3    0    0 -0.15974981338E+02 -0.22882149447E+02 -0.85107938737E+01  0.29175784560E+02  0.51100000000E-03 0. -1.
        -11    1    3    3    0    0 -0.90568873213E+01 -0.12358772498E+02 -0.42568463318E+01  0.15902427694E+02  0.51100000000E-03 0.  1.
        -12    1    3    3    0    0  0.25424221392E+02  0.34469058149E+02  0.13569911751E+02  0.44929383570E+02  0.00000000000E+00 0.  1.
</event>
<event>
 7    1  0.3863655E-015  0.9000774E+02  0.7816164E-02  0.1186339E+00
        -11   -1    0    0    0    0  0.00000000000E+00  0.00000000000E+00  0.45593999997E+02  0.45594000000E+02  0.51100000000E-03 0.  1.
         11   -1    0    0    0    0 -0.00000000000E+00 -0.00000000000E+00 -0.45593999997E+02  0.45594000000E+02  0.51100000000E-03 0. -1.
    9900012    2    1    2    0    0 -0.65362939015E+00 -0.93586491639E+00 -0.29991757266E+00  0.90007735169E+02  0.89999996473E+02 0.  0.
        -12    1    1    2    0    0  0.65362939015E+00  0.93586491639E+00  0.29991757266E+00  0.11802648312E+01  0.00000000000E+00 0.  1.
         11    1    3    3    0    0 -0.63406239343E+01 -0.40585171390E+01  0.63547892732E+01  0.98518231923E+01  0.51100000000E-03 0. -1.
        -11    1    3    3    0    0  0.37004343938E+02  0.22046493669E+02 -0.65212445739E+01  0.43564848036E+02  0.51100000000E-03 0.  1.
         12    1    3    3    0    0 -0.31317349394E+02 -0.18923841446E+02 -0.13346227194E+00  0.36591063940E+02  0.00000000000E+00 0. -1.
</event>
<event>
 7    1  0.3863655E-015  0.9000779E+02  0.7816164E-02  0.1186339E+00
        -11   -1    0    0    0    0  0.00000000000E+00  0.00000000000E+00  0.45593999997E+02  0.45594000000E+02  0.51100000000E-03 0.  1.
         11   -1    0    0    0    0 -0.00000000000E+00 -0.00000000000E+00 -0.45593999997E+02  0.45594000000E+02  0.51100000000E-03 0. -1.
    9900012    2    1    2    0    0 -0.11640598436E+00 -0.28623208665E+00 -0.11390431671E+01  0.90007788791E+02  0.90000050803E+02 0.  0.
        -12    1    1    2    0    0  0.11640598436E+00  0.28623208665E+00  0.11390431671E+01  0.11802112087E+01  0.00000000000E+00 0.  1.
         11    1    3    3    0    0 -0.64248752716E+01  0.89259237215E+01  0.15057388725E+02  0.18646074440E+02  0.51100000000E-03 0. -1.
        -11    1    3    3    0    0 -0.23004936643E+02 -0.14833662786E+02  0.12378017501E+02  0.30041304551E+02  0.51100000000E-03 0.  1.
         12    1    3    3    0    0  0.29313405931E+02  0.56215069775E+01 -0.28574449393E+02  0.41320409800E+02  0.00000000000E+00 0. -1.
</event>
<event>
 7    1  0.3863655E-015  0.9000774E+02  0.7816164E-02  0.1186339E+00
        -11   -1    0    0    0    0  0.00000000000E+00  0.00000000000E+00  0.45593999997E+02  0.45594000000E+02  0.51100000000E-03 0.  1.
         11   -1    0    0    0    0 -0.00000000000E+00 -0.00000000000E+00 -0.45593999997E+02  0.45594000000E+02  0.51100000000E-03 0. -1.
    9900012    2    1    2    0    0 -0.59808653562E+00 -0.70111859406E-01 -0.10150773589E+01  0.90007743578E+02  0.90000004993E+02 0.  0.
        -12    1    1    2    0    0  0.59808653562E+00  0.70111859406E-01  0.10150773589E+01  0.11802564219E+01  0.00000000000E+00 0.  1.
         11    1    3    3    0    0 -0.37713572835E+02 -0.12172591663E+01 -0.16825858720E+02  0.41314704619E+02  0.51100000000E-03 0. -1.
        -11    1    3    3    0    0  0.28166632836E+01  0.38894209103E+01  0.13360846687E+02  0.14197655142E+02  0.51100000000E-03 0.  1.
        -12    1    3    3    0    0  0.34298823016E+02 -0.27422736033E+01  0.24499346741E+01  0.34495383817E+02  0.00000000000E+00 0.  1.
</event>
<event>
 7    1  0.3863655E-015  0.9000775E+02  0.7816164E-02  0.1186339E+00
        -11   -1    0    0    0    0  0.00000000000E+00  0.00000000000E+00  0.45593999997E+02  0.45594000000E+02  0.51100000000E-03 0. -1.
         11   -1    0    0    0    0 -0.00000000000E+00 -0.00000000000E+00 -0.45593999997E+02  0.45594000000E+02  0.51100000000E-03 0.  1.
    9900012    2    1    2    0    0  0.44129679677E+00 -0.41485998322E+00  0.10129887108E+01  0.90007746723E+02  0.90000008180E+02 0.  0.
        -12    1    1    2    0    0 -0.44129679677E+00  0.41485998322E+00 -0.10129887108E+01  0.11802532765E+01  0.00000000000E+00 0.  1.
         11    1    3    3    0    0  0.11756627923E+02 -0.80943060226E+00  0.39839960760E+02  0.41546310927E+02  0.51100000000E-03 0. -1.
        -11    1    3    3    0    0  0.82175517053E+01  0.17478634226E+01 -0.63196430301E+01  0.10512900212E+02  0.51100000000E-03 0.  1.
        -12    1    3    3    0    0 -0.19532882832E+02 -0.13532928036E+01 -0.32507329019E+02  0.37948535585E+02  0.00000000000E+00 0.  1.
</event>
<event>
 7    1  0.3863655E-015  0.9000760E+02  0.7816164E-02  0.1186339E+00
        -11   -1    0    0    0    0  0.00000000000E+00  0.00000000000E+00  0.45593999997E+02  0.45594000000E+02  0.51100000000E-03 0.  1.
         11   -1    0    0    0    0 -0.00000000000E+00 -0.00000000000E+00 -0.45593999997E+02  0.45594000000E+02  0.51100000000E-03 0. -1.
    9900012    2    1    2    0    0  0.82379765186E+00 -0.50203697830E+00  0.68018574608E+00  0.90007603309E+02  0.89999862873E+02 0.  0.
        -12    1    1    2    0    0 -0.82379765186E+00  0.50203697830E+00 -0.68018574608E+00  0.11803966909E+01  0.00000000000E+00 0.  1.
         11    1    3    3    0    0  0.34590883303E+01  0.43317243946E+01 -0.34210760222E+02  0.34656965296E+02  0.51100000000E-03 0. -1.
        -11    1    3    3    0    0  0.24464723916E+01 -0.79915600505E+01 -0.82813919103E+01  0.11765700635E+02  0.51100000000E-03 0.  1.
        -12    1    3    3    0    0 -0.50817630701E+01  0.31577986776E+01  0.43172337878E+02  0.43584937378E+02  0.00000000000E+00 0.  1.
</event>
<event>
 7    1  0.3863655E-015  0.9000773E+02  0.7816164E-02  0.1186339E+00
        -11   -1    0    0    0    0  0.00000000000E+00  0.00000000000E+00  0.45593999997E+02  0.45594000000E+02  0.51100000000E-03 0. -1.
         11   -1    0    0    0    0 -0.00000000000E+00 -0.00000000000E+00 -0.45593999997E+02  0.45594000000E+02  0.51100000000E-03 0.  1.
    9900012    2    1    2    0    0  0.14164321622E+00 -0.66553910353E+00  0.96438034063E+00  0.90007731158E+02  0.89999992409E+02 0.  0.
        -12    1    1    2    0    0 -0.14164321622E+00  0.66553910353E+00 -0.96438034063E+00  0.11802688424E+01  0.00000000000E+00 0.  1.
         11    1    3    3    0    0 -0.56609996049E+01  0.33780742792E+02 -0.80942336300E+01  0.35195200218E+02  0.51100000000E-03 0. -1.
        -11    1    3    3    0    0  0.22444525478E+01  0.95821566832E+01  0.78866565140E+00  0.98730586806E+01  0.51100000000E-03 0.  1.
        -12    1    3    3    0    0  0.35581902733E+01 -0.44028438578E+02  0.82699483192E+01  0.44939472259E+02  0.00000000000E+00 0.  1.
</event>
<event>
 7    1  0.3863655E-015  0.9000838E+02  0.7816164E-02  0.1186338E+00
        -11   -1    0    0    0    0  0.00000000000E+00  0.00000000000E+00  0.45593999997E+02  0.45594000000E+02  0.51100000000E-03 0. -1.
         11   -1    0    0    0    0 -0.00000000000E+00 -0.00000000000E+00 -0.45593999997E+02  0.45594000000E+02  0.51100000000E-03 0.  1.
    9900012    2    1    2    0    0  0.17055226535E+00  0.11475134547E+01  0.21358795765E+00  0.90008383529E+02  0.90000653389E+02 0.  0.
        -12    1    1    2    0    0 -0.17055226535E+00 -0.11475134547E+01 -0.21358795765E+00  0.11796164714E+01  0.00000000000E+00 0.  1.
         11    1    3    3    0    0  0.61761729531E+00  0.12781004752E+01 -0.10306148306E+02  0.10403445829E+02  0.51100000000E-03 0. -1.
        -11    1    3    3    0    0  0.49172033193E+01  0.37077495287E+02 -0.71290234248E+01  0.38075484508E+02  0.51100000000E-03 0.  1.
         12    1    3    3    0    0 -0.53642683492E+01 -0.37208082308E+02  0.17648759688E+02  0.41529453192E+02  0.00000000000E+00 0. -1.
</event>
<event>
 7    1  0.3863655E-015  0.9000781E+02  0.7816164E-02  0.1186339E+00
        -11   -1    0    0    0    0  0.00000000000E+00  0.00000000000E+00  0.45593999997E+02  0.45594000000E+02  0.51100000000E-03 0.  1.
         11   -1    0    0    0    0 -0.00000000000E+00 -0.00000000000E+00 -0.45593999997E+02  0.45594000000E+02  0.51100000000E-03 0. -1.
    9900012    2    1    2    0    0 -0.94235049087E+00 -0.30373049889E+00  0.64232140546E+00  0.90007807875E+02  0.90000070139E+02 0.  0.
        -12    1    1    2    0    0  0.94235049087E+00  0.30373049889E+00 -0.64232140546E+00  0.11801921248E+01  0.00000000000E+00 0.  1.
         11    1    3    3    0    0  0.33969888008E+02 -0.10865945826E+02  0.23730945815E+01  0.35744281335E+02  0.51100000000E-03 0. -1.
        -11    1    3    3    0    0  0.80208489668E+01 -0.35341281019E+01 -0.23381040555E+01  0.90714282462E+01  0.51100000000E-03 0.  1.
        -12    1    3    3    0    0 -0.42933087466E+02  0.14096343429E+02  0.60733087946E+00  0.45192098294E+02  0.00000000000E+00 0.  1.
</event>
<event>
 7    1  0.3863655E-015  0.9000765E+02  0.7816164E-02  0.1186339E+00
        -11   -1    0    0    0    0  0.00000000000E+00  0.00000000000E+00  0.45593999997E+02  0.45594000000E+02  0.51100000000E-03 0. -1.
         11   -1    0    0    0    0 -0.00000000000E+00 -0.00000000000E+00 -0.45593999997E+02  0.45594000000E+02  0.51100000000E-03 0.  1.
    9900012    2    1    2    0    0 -0.10497903173E+01 -0.38113087994E+00  0.38197336873E+00  0.90007650851E+02  0.89999911043E+02 0.  0.
        -12    1    1    2    0    0  0.10497903173E+01  0.38113087994E+00 -0.38197336873E+00  0.11803491485E+01  0.00000000000E+00 0.  1.
         11    1    3    3    0    0 -0.66506060747E+01  0.25722836688E+01  0.49452793056E+01  0.86777296631E+01  0.51100000000E-03 0. -1.
        -11    1    3    3    0    0 -0.67009068154E+00  0.32364724829E+02 -0.24217456437E+02  0.40427832384E+02  0.51100000000E-03 0.  1.
         12    1    3    3    0    0  0.62709064389E+01 -0.35318139377E+02  0.19654150500E+02  0.40902088804E+02  0.00000000000E+00 0. -1.
</event>
<event>
 7    1  0.3863655E-015  0.9000781E+02  0.7816164E-02  0.1186339E+00
        -11   -1    0    0    0    0  0.00000000000E+00  0.00000000000E+00  0.45593999997E+02  0.45594000000E+02  0.51100000000E-03 0.  1.
         11   -1    0    0    0    0 -0.00000000000E+00 -0.00000000000E+00 -0.45593999997E+02  0.45594000000E+02  0.51100000000E-03 0. -1.
    9900012    2    1    2    0    0  0.10604430524E+01 -0.21839414814E+00 -0.46969097444E+00  0.90007811421E+02  0.90000073731E+02 0.  0.
        -12    1    1    2    0    0 -0.10604430524E+01  0.21839414814E+00  0.46969097444E+00  0.11801885794E+01  0.00000000000E+00 0.  1.
         11    1    3    3    0    0  0.26061615446E+01 -0.11563890098E+02 -0.17550674731E+01  0.11983150433E+02  0.51100000000E-03 0. -1.
        -11    1    3    3    0    0  0.20386108548E+02 -0.26637454391E+02 -0.42708535945E+01  0.33814014681E+02  0.51100000000E-03 0.  1.
         12    1    3    3    0    0 -0.21931827040E+02  0.37982950342E+02  0.55562300932E+01  0.44210646306E+02  0.00000000000E+00 0. -1.
</event>
<event>
 7    1  0.8017948E-015  0.9000778E+02  0.7816164E-02  0.1186339E+00
        -11   -1    0    0    0    0  0.00000000000E+00  0.00000000000E+00  0.45593999997E+02  0.45594000000E+02  0.51100000000E-03 0. -1.
         11   -1    0    0    0    0 -0.00000000000E+00 -0.00000000000E+00 -0.45593999997E+02  0.45594000000E+02  0.51100000000E-03 0.  1.
    9900012    2    1    2    0    0 -0.23875248967E+00  0.67036901351E+00  0.94155342116E+00  0.90007779592E+02  0.90000041483E+02 0.  0.
        -12    1    1    2    0    0  0.23875248967E+00 -0.67036901351E+00 -0.94155342116E+00  0.11802204076E+01  0.00000000000E+00 0.  1.
         11    1    3    3    0    0 -0.17780057335E+01  0.68010333825E+01 -0.63273996367E+01  0.94578721646E+01  0.51100000000E-03 0. -1.
        -11    1    3    3    0    0 -0.83137052836E+01  0.92922548257E+01 -0.33562911239E+02  0.35804087845E+02  0.51100000000E-03 0.  1.
         12    1    3    3    0    0  0.98529585274E+01 -0.15422919195E+02  0.40831864297E+02  0.44745819583E+02  0.00000000000E+00 0. -1.
</event>
<event>
 7    1  0.3863655E-015  0.9000776E+02  0.7816164E-02  0.1186339E+00
        -11   -1    0    0    0    0  0.00000000000E+00  0.00000000000E+00  0.45593999997E+02  0.45594000000E+02  0.51100000000E-03 0.  1.
         11   -1    0    0    0    0 -0.00000000000E+00 -0.00000000000E+00 -0.45593999997E+02  0.45594000000E+02  0.51100000000E-03 0. -1.
    9900012    2    1    2    0    0 -0.52852722706E+00  0.63254406433E+00 -0.84469991716E+00  0.90007758087E+02  0.90000019694E+02 0.  0.
        -12    1    1    2    0    0  0.52852722706E+00 -0.63254406433E+00  0.84469991716E+00  0.11802419130E+01  0.00000000000E+00 0.  1.
         11    1    3    3    0    0  0.24695322145E+02  0.11623076240E+02 -0.22608667146E+02  0.35441595160E+02  0.51100000000E-03 0. -1.
        -11    1    3    3    0    0  0.13566638209E-01  0.10949451324E+01 -0.11241973772E+02  0.11295178770E+02  0.51100000000E-03 0.  1.
        -12    1    3    3    0    0 -0.25237416010E+02 -0.12085477308E+02  0.33005941001E+02  0.43270984157E+02  0.00000000000E+00 0.  1.
</event>
<event>
 7    1  0.3863655E-015  0.9000769E+02  0.7816164E-02  0.1186339E+00
        -11   -1    0    0    0    0  0.00000000000E+00  0.00000000000E+00  0.45593999997E+02  0.45594000000E+02  0.51100000000E-03 0.  1.
         11   -1    0    0    0    0 -0.00000000000E+00 -0.00000000000E+00 -0.45593999997E+02  0.45594000000E+02  0.51100000000E-03 0. -1.
    9900012    2    1    2    0    0  0.75437191261E-01 -0.10610314826E+01 -0.51152220646E+00  0.90007689217E+02  0.89999949915E+02 0.  0.
        -12    1    1    2    0    0 -0.75437191261E-01  0.10610314826E+01  0.51152220646E+00  0.11803107831E+01  0.00000000000E+00 0.  1.
         11    1    3    3    0    0 -0.11544513015E+02 -0.15991719263E+02 -0.29425068288E+02  0.35423798635E+02  0.51100000000E-03 0. -1.
        -11    1    3    3    0    0 -0.12274017446E+00 -0.57560269516E+00 -0.10560980775E+02  0.10577367290E+02  0.51100000000E-03 0.  1.
        -12    1    3    3    0    0  0.11742690381E+02  0.15506290475E+02  0.39474526856E+02  0.44006523291E+02  0.00000000000E+00 0.  1.
</event>
<event>
 7    1  0.3863655E-015  0.9000804E+02  0.7816164E-02  0.1186338E+00
        -11   -1    0    0    0    0  0.00000000000E+00  0.00000000000E+00  0.45593999997E+02  0.45594000000E+02  0.51100000000E-03 0.  1.
         11   -1    0    0    0    0 -0.00000000000E+00 -0.00000000000E+00 -0.45593999997E+02  0.45594000000E+02  0.51100000000E-03 0. -1.
    9900012    2    1    2    0    0  0.57188567449E+00  0.25859119502E+00 -0.99919367277E+00  0.90008037871E+02  0.90000303170E+02 0.  0.
        -12    1    1    2    0    0 -0.57188567449E+00 -0.25859119502E+00  0.99919367277E+00  0.11799621293E+01  0.00000000000E+00 0.  1.
         11    1    3    3    0    0  0.27112950678E+02  0.21334723633E+02 -0.10738101747E+02  0.36132940046E+02  0.51100000000E-03 0. -1.
        -11    1    3    3    0    0 -0.16605432857E+02  0.78584020575E+01 -0.61872971467E+01  0.19384982061E+02  0.51100000000E-03 0.  1.
        -12    1    3    3    0    0 -0.99356321457E+01 -0.28934534496E+02  0.15926205221E+02  0.34490115763E+02  0.00000000000E+00 0.  1.
</event>
<event>
 7    1  0.3863655E-015  0.9000775E+02  0.7816164E-02  0.1186339E+00
        -11   -1    0    0    0    0  0.00000000000E+00  0.00000000000E+00  0.45593999997E+02  0.45594000000E+02  0.51100000000E-03 0. -1.
         11   -1    0    0    0    0 -0.00000000000E+00 -0.00000000000E+00 -0.45593999997E+02  0.45594000000E+02  0.51100000000E-03 0.  1.
    9900012    2    1    2    0    0  0.10529908411E+01  0.50602529095E+00  0.16778065702E+00  0.90007745089E+02  0.90000006524E+02 0.  0.
        -12    1    1    2    0    0 -0.10529908411E+01 -0.50602529095E+00 -0.16778065702E+00  0.11802549112E+01  0.00000000000E+00 0.  1.
         11    1    3    3    0    0 -0.27529486820E+00  0.21815656004E+02  0.45911763807E+01  0.22295235701E+02  0.51100000000E-03 0. -1.
        -11    1    3    3    0    0  0.30663750921E+02 -0.37042742838E+01 -0.11163242405E+02  0.32842126145E+02  0.51100000000E-03 0.  1.
         12    1    3    3    0    0 -0.29335465211E+02 -0.17605356429E+02  0.67398466811E+01  0.34870383242E+02  0.00000000000E+00 0. -1.
</event>
<event>
 7    1  0.3863655E-015  0.9000769E+02  0.7816164E-02  0.1186339E+00
        -11   -1    0    0    0    0  0.00000000000E+00  0.00000000000E+00  0.45593999997E+02  0.45594000000E+02  0.51100000000E-03 0. -1.
         11   -1    0    0    0    0 -0.00000000000E+00 -0.00000000000E+00 -0.45593999997E+02  0.45594000000E+02  0.51100000000E-03 0.  1.
    9900012    2    1    2    0    0 -0.88026779278E+00 -0.48081617035E+00  0.62215931560E+00  0.90007687418E+02  0.89999948092E+02 0.  0.
        -12    1    1    2    0    0  0.88026779278E+00  0.48081617035E+00 -0.62215931560E+00  0.11803125818E+01  0.00000000000E+00 0.  1.
         11    1    3    3    0    0  0.11111864543E+02 -0.26391243546E+02  0.17196175129E+02  0.33401792001E+02  0.51100000000E-03 0. -1.
        -11    1    3    3    0    0  0.20929104170E+01 -0.12716774373E+02 -0.55968344611E+01  0.14050664779E+02  0.51100000000E-03 0.  1.
        -12    1    3    3    0    0 -0.14085042753E+02  0.38627201749E+02 -0.10977181353E+02  0.42555230639E+02  0.00000000000E+00 0.  1.
</event>
<event>
 7    1  0.3863655E-015  0.9000775E+02  0.7816164E-02  0.1186339E+00
        -11   -1    0    0    0    0  0.00000000000E+00  0.00000000000E+00  0.45593999997E+02  0.45594000000E+02  0.51100000000E-03 0. -1.
         11   -1    0    0    0    0 -0.00000000000E+00 -0.00000000000E+00 -0.45593999997E+02  0.45594000000E+02  0.51100000000E-03 0.  1.
    9900012    2    1    2    0    0 -0.90616974072E+00  0.35827137567E-01  0.75535773158E+00  0.90007748974E+02  0.90000010460E+02 0.  0.
        -12    1    1    2    0    0  0.90616974072E+00 -0.35827137567E-01 -0.75535773158E+00  0.11802510264E+01  0.00000000000E+00 0.  1.
         11    1    3    3    0    0  0.30144019211E+02 -0.10238048764E+02 -0.15987165022E+02  0.35623994475E+02  0.51100000000E-03 0. -1.
        -11    1    3    3    0    0  0.89219210810E+01  0.49970489877E+01 -0.11161554219E+01  0.10286737945E+02  0.51100000000E-03 0.  1.
        -12    1    3    3    0    0 -0.39972110032E+02  0.52768269143E+01  0.17858678176E+02  0.44097016553E+02  0.00000000000E+00 0.  1.
</event>
<event>
 7    1  0.3863655E-015  0.9000764E+02  0.7816164E-02  0.1186339E+00
        -11   -1    0    0    0    0  0.00000000000E+00  0.00000000000E+00  0.45593999997E+02  0.45594000000E+02  0.51100000000E-03 0.  1.
         11   -1    0    0    0    0 -0.00000000000E+00 -0.00000000000E+00 -0.45593999997E+02  0.45594000000E+02  0.51100000000E-03 0. -1.
    9900012    2    1    2    0    0 -0.59706487685E+00 -0.30288918352E+00 -0.97211735557E+00  0.90007643919E+02  0.89999904019E+02 0.  0.
        -12    1    1    2    0    0  0.59706487685E+00  0.30288918352E+00  0.97211735557E+00  0.11803560809E+01  0.00000000000E+00 0.  1.
         11    1    3    3    0    0  0.66157324342E+01 -0.52710729516E+01  0.43221773806E+01  0.94991232897E+01  0.51100000000E-03 0. -1.
        -11    1    3    3    0    0  0.17945974283E+02  0.32222745317E+02  0.13056426782E+02  0.39125868544E+02  0.51100000000E-03 0.  1.
         12    1    3    3    0    0 -0.25158771594E+02 -0.27254561549E+02 -0.18350721518E+02  0.41382652085E+02  0.00000000000E+00 0. -1.
</event>
<event>
 7    1  0.3863655E-015  0.9000775E+02  0.7816164E-02  0.1186339E+00
        -11   -1    0    0    0    0  0.00000000000E+00  0.00000000000E+00  0.45593999997E+02  0.45594000000E+02  0.51100000000E-03 0.  1.
         11   -1    0    0    0    0 -0.00000000000E+00 -0.00000000000E+00 -0.45593999997E+02  0.45594000000E+02  0.51100000000E-03 0. -1.
    9900012    2    1    2    0    0  0.98233757794E+00 -0.53077257156E+00 -0.38247031005E+00  0.90007749951E+02  0.90000011450E+02 0.  0.
        -12    1    1    2    0    0 -0.98233757794E+00  0.53077257156E+00  0.38247031005E+00  0.11802500489E+01  0.00000000000E+00 0.  1.
         11    1    3    3    0    0 -0.33812502307E+02  0.24331075226E+01 -0.13129895384E+02  0.36353809670E+02  0.51100000000E-03 0. -1.
        -11    1    3    3    0    0 -0.84429770219E+01 -0.29298611600E+00  0.44421464037E+01  0.95447559838E+01  0.51100000000E-03 0.  1.
        -12    1    3    3    0    0  0.43237816907E+02 -0.26708939782E+01  0.83052786700E+01  0.44109184297E+02  0.00000000000E+00 0.  1.
</event>
<event>
 7    1  0.3863655E-015  0.9000780E+02  0.7816164E-02  0.1186339E+00
        -11   -1    0    0    0    0  0.00000000000E+00  0.00000000000E+00  0.45593999997E+02  0.45594000000E+02  0.51100000000E-03 0.  1.
         11   -1    0    0    0    0 -0.00000000000E+00 -0.00000000000E+00 -0.45593999997E+02  0.45594000000E+02  0.51100000000E-03 0. -1.
    9900012    2    1    2    0    0 -0.57038875771E+00 -0.99010226411E+00  0.29534983308E+00  0.90007797749E+02  0.90000059880E+02 0.  0.
        -12    1    1    2    0    0  0.57038875771E+00  0.99010226411E+00 -0.29534983308E+00  0.11802022506E+01  0.00000000000E+00 0.  1.
         11    1    3    3    0    0  0.35894511155E+01  0.72432640535E+01  0.38476129886E+01  0.89528296885E+01  0.51100000000E-03 0. -1.
        -11    1    3    3    0    0  0.30443802597E+02  0.18929980767E+02 -0.83311262924E+01  0.36804577894E+02  0.51100000000E-03 0.  1.
         12    1    3    3    0    0 -0.34603642470E+02 -0.27163347084E+02  0.47788631369E+01  0.44250390167E+02  0.00000000000E+00 0. -1.
</event>
<event>
 7    1  0.3863655E-015  0.9000788E+02  0.7816164E-02  0.1186339E+00
        -11   -1    0    0    0    0  0.00000000000E+00  0.00000000000E+00  0.45593999997E+02  0.45594000000E+02  0.51100000000E-03 0.  1.
         11   -1    0    0    0    0 -0.00000000000E+00 -0.00000000000E+00 -0.45593999997E+02  0.45594000000E+02  0.51100000000E-03 0. -1.
    9900012    2    1    2    0    0  0.87440744111E+00  0.16199281950E+00  0.77579002860E+00  0.90007881271E+02  0.90000144503E+02 0.  0.
        -12    1    1    2    0    0 -0.87440744111E+00 -0.16199281950E+00 -0.77579002860E+00  0.11801187292E+01  0.00000000000E+00 0.  1.
         11    1    3    3    0    0  0.92784674414E+00  0.10307782677E+02 -0.15605068100E+01  0.10466444719E+02  0.51100000000E-03 0. -1.
        -11    1    3    3    0    0  0.99325530724E+01  0.33391486576E+02  0.12935138510E+01  0.34861442378E+02  0.51100000000E-03 0.  1.
         12    1    3    3    0    0 -0.99859923754E+01 -0.43537276434E+02  0.10427829877E+01  0.44679994174E+02  0.00000000000E+00 0. -1.
</event>
<event>
 7    1  0.3863655E-015  0.9000773E+02  0.7816164E-02  0.1186339E+00
        -11   -1    0    0    0    0  0.00000000000E+00  0.00000000000E+00  0.45593999997E+02  0.45594000000E+02  0.51100000000E-03 0.  1.
         11   -1    0    0    0    0 -0.00000000000E+00 -0.00000000000E+00 -0.45593999997E+02  0.45594000000E+02  0.51100000000E-03 0. -1.
    9900012    2    1    2    0    0 -0.45948212213E-01 -0.11762855570E+01  0.85250194679E-01  0.90007734545E+02  0.89999995841E+02 0.  0.
        -12    1    1    2    0    0  0.45948212213E-01  0.11762855570E+01 -0.85250194679E-01  0.11802654555E+01  0.00000000000E+00 0.  1.
         11    1    3    3    0    0  0.30807449161E+02 -0.15812888749E+02 -0.11440551584E+02  0.36469611942E+02  0.51100000000E-03 0. -1.
        -11    1    3    3    0    0  0.60393200689E+01  0.54935309931E+01 -0.74530470101E+01  0.11054419011E+02  0.51100000000E-03 0.  1.
        -12    1    3    3    0    0 -0.36892717442E+02  0.91430721991E+01  0.18978848789E+02  0.42483703592E+02  0.00000000000E+00 0.  1.
</event>
<event>
 7    1  0.3863655E-015  0.9000776E+02  0.7816164E-02  0.1186339E+00
        -11   -1    0    0    0    0  0.00000000000E+00  0.00000000000E+00  0.45593999997E+02  0.45594000000E+02  0.51100000000E-03 0. -1.
         11   -1    0    0    0    0 -0.00000000000E+00 -0.00000000000E+00 -0.45593999997E+02  0.45594000000E+02  0.51100000000E-03 0.  1.
    9900012    2    1    2    0    0 -0.84505424232E+00  0.12437821988E-01  0.82382977050E+00  0.90007759828E+02  0.90000021458E+02 0.  0.
        -12    1    1    2    0    0  0.84505424232E+00 -0.12437821988E-01 -0.82382977050E+00  0.11802401716E+01  0.00000000000E+00 0.  1.
         11    1    3    3    0    0  0.10313718207E+02  0.52889179675E+01  0.19817698041E+02  0.22958366502E+02  0.51100000000E-03 0. -1.
        -11    1    3    3    0    0 -0.18603678262E+02  0.23616568228E+02  0.26625435604E+01  0.30181588398E+02  0.51100000000E-03 0.  1.
        -12    1    3    3    0    0  0.74449058123E+01 -0.28893048373E+02 -0.21656411831E+02  0.36867804929E+02  0.00000000000E+00 0.  1.
</event>
<event>
 7    1  0.3863655E-015  0.9000799E+02  0.7816164E-02  0.1186339E+00
        -11   -1    0    0    0    0  0.00000000000E+00  0.00000000000E+00  0.45593999997E+02  0.45594000000E+02  0.51100000000E-03 0. -1.
         11   -1    0    0    0    0 -0.00000000000E+00 -0.00000000000E+00 -0.45593999997E+02  0.45594000000E+02  0.51100000000E-03 0.  1.
    9900012    2    1    2    0    0 -0.77991238079E+00 -0.67986219962E-01  0.88291618482E+00  0.90007988798E+02  0.90000253450E+02 0.  0.
        -12    1    1    2    0    0  0.77991238079E+00  0.67986219962E-01 -0.88291618482E+00  0.11800112022E+01  0.00000000000E+00 0.  1.
         11    1    3    3    0    0 -0.12057238835E+01  0.85731197104E+01 -0.36456814884E+01  0.93937822749E+01  0.51100000000E-03 0. -1.
        -11    1    3    3    0    0 -0.28363772822E+02  0.95011810970E+01 -0.22275928432E+02  0.37296019073E+02  0.51100000000E-03 0.  1.
         12    1    3    3    0    0  0.28789584325E+02 -0.18142287027E+02  0.26804526105E+02  0.43318187450E+02  0.00000000000E+00 0. -1.
</event>
<event>
 7    1  0.3863655E-015  0.9000772E+02  0.7816164E-02  0.1186339E+00
        -11   -1    0    0    0    0  0.00000000000E+00  0.00000000000E+00  0.45593999997E+02  0.45594000000E+02  0.51100000000E-03 0.  1.
         11   -1    0    0    0    0 -0.00000000000E+00 -0.00000000000E+00 -0.45593999997E+02  0.45594000000E+02  0.51100000000E-03 0. -1.
    9900012    2    1    2    0    0 -0.31942121628E+00  0.20612989416E+00 -0.11173781939E+01  0.90007723136E+02  0.89999984282E+02 0.  0.
        -12    1    1    2    0    0  0.31942121628E+00 -0.20612989416E+00  0.11173781939E+01  0.11802768637E+01  0.00000000000E+00 0.  1.
         11    1    3    3    0    0  0.24860088172E+02 -0.90806865553E+01 -0.29337190127E+02  0.39511436029E+02  0.51100000000E-03 0. -1.
        -11    1    3    3    0    0  0.72015939979E+01  0.55312638751E+01  0.42027228853E+01  0.10006033983E+02  0.51100000000E-03 0.  1.
        -12    1    3    3    0    0 -0.32381103386E+02  0.37555525743E+01  0.24017089048E+02  0.40490253124E+02  0.00000000000E+00 0.  1.
</event>
<event>
 7    1  0.3863655E-015  0.9000774E+02  0.7816164E-02  0.1186339E+00
        -11   -1    0    0    0    0  0.00000000000E+00  0.00000000000E+00  0.45593999997E+02  0.45594000000E+02  0.51100000000E-03 0. -1.
         11   -1    0    0    0    0 -0.00000000000E+00 -0.00000000000E+00 -0.45593999997E+02  0.45594000000E+02  0.51100000000E-03 0.  1.
    9900012    2    1    2    0    0  0.16346072984E+00  0.48595784339E+00  0.10630757992E+01  0.90007743845E+02  0.90000005264E+02 0.  0.
        -12    1    1    2    0    0 -0.16346072984E+00 -0.48595784339E+00 -0.10630757992E+01  0.11802561547E+01  0.00000000000E+00 0.  1.
         11    1    3    3    0    0 -0.10748313827E+02  0.31358575720E+01 -0.10545991616E+02  0.15381085536E+02  0.51100000000E-03 0. -1.
        -11    1    3    3    0    0  0.17216889590E+02 -0.41069813287E+01 -0.28744774299E+02  0.33757230819E+02  0.51100000000E-03 0.  1.
         12    1    3    3    0    0 -0.63051150328E+01  0.14570816001E+01  0.40353841714E+02  0.40869427491E+02  0.00000000000E+00 0. -1.
</event>
<event>
 7    1  0.3863655E-015  0.9000700E+02  0.7816164E-02  0.1186341E+00
        -11   -1    0    0    0    0  0.00000000000E+00  0.00000000000E+00  0.45593999997E+02  0.45594000000E+02  0.51100000000E-03 0.  1.
         11   -1    0    0    0    0 -0.00000000000E+00 -0.00000000000E+00 -0.45593999997E+02  0.45594000000E+02  0.51100000000E-03 0. -1.
    9900012    2    1    2    0    0 -0.45203378973E+00 -0.25567276465E+00 -0.10606898296E+01  0.90006997873E+02  0.89999249442E+02 0.  0.
        -12    1    1    2    0    0  0.45203378973E+00  0.25567276465E+00  0.10606898296E+01  0.11810021272E+01  0.00000000000E+00 0.  1.
         11    1    3    3    0    0  0.55909341274E+01  0.69492908297E+01  0.29035835908E+01  0.93798712882E+01  0.51100000000E-03 0. -1.
        -11    1    3    3    0    0  0.58283092133E+01 -0.42366183027E+02  0.29915742392E+01  0.42869711560E+02  0.51100000000E-03 0.  1.
         12    1    3    3    0    0 -0.11871277130E+02  0.35161219432E+02 -0.69558476596E+01  0.37757415025E+02  0.00000000000E+00 0. -1.
</event>
<event>
 7    1  0.3863655E-015  0.9000785E+02  0.7816164E-02  0.1186339E+00
        -11   -1    0    0    0    0  0.00000000000E+00  0.00000000000E+00  0.45593999997E+02  0.45594000000E+02  0.51100000000E-03 0. -1.
         11   -1    0    0    0    0 -0.00000000000E+00 -0.00000000000E+00 -0.45593999997E+02  0.45594000000E+02  0.51100000000E-03 0.  1.
    9900012    2    1    2    0    0 -0.50366471832E+00  0.94129542119E-01  0.10631109817E+01  0.90007854467E+02  0.90000117346E+02 0.  0.
        -12    1    1    2    0    0  0.50366471832E+00 -0.94129542119E-01 -0.10631109817E+01  0.11801455328E+01  0.00000000000E+00 0.  1.
         11    1    3    3    0    0 -0.93384412859E+01  0.28405793134E+02  0.21014014688E+02  0.36547016059E+02  0.51100000000E-03 0. -1.
        -11    1    3    3    0    0 -0.52171441544E+01  0.50775291784E+01  0.55545143333E+01  0.91571024579E+01  0.51100000000E-03 0.  1.
        -12    1    3    3    0    0  0.14051920722E+02 -0.33389192770E+02 -0.25505418040E+02  0.44303735951E+02  0.00000000000E+00 0.  1.
</event>
<event>
 7    1  0.3863655E-015  0.9000772E+02  0.7816164E-02  0.1186339E+00
        -11   -1    0    0    0    0  0.00000000000E+00  0.00000000000E+00  0.45593999997E+02  0.45594000000E+02  0.51100000000E-03 0. -1.
         11   -1    0    0    0    0 -0.00000000000E+00 -0.00000000000E+00 -0.45593999997E+02  0.45594000000E+02  0.51100000000E-03 0.  1.
    9900012    2    1    2    0    0 -0.67347265999E+00 -0.45894188607E+00  0.85373327340E+00  0.90007723092E+02  0.89999984236E+02 0.  0.
        -12    1    1    2    0    0  0.67347265999E+00  0.45894188607E+00 -0.85373327340E+00  0.11802769085E+01  0.00000000000E+00 0.  1.
         11    1    3    3    0    0  0.33909648947E+02  0.14356187881E+02 -0.14249693927E+02  0.39484404510E+02  0.51100000000E-03 0. -1.
        -11    1    3    3    0    0  0.39363355112E+01 -0.35593360569E+01  0.82537391564E+01  0.98126357695E+01  0.51100000000E-03 0.  1.
        -12    1    3    3    0    0 -0.38519457119E+02 -0.11255793710E+02  0.68496880445E+01  0.40710682812E+02  0.00000000000E+00 0.  1.
</event>
<event>
 7    1  0.3863655E-015  0.9000770E+02  0.7816164E-02  0.1186339E+00
        -11   -1    0    0    0    0  0.00000000000E+00  0.00000000000E+00  0.45593999997E+02  0.45594000000E+02  0.51100000000E-03 0.  1.
         11   -1    0    0    0    0 -0.00000000000E+00 -0.00000000000E+00 -0.45593999997E+02  0.45594000000E+02  0.51100000000E-03 0. -1.
    9900012    2    1    2    0    0  0.37699901125E+00 -0.82686478947E-01 -0.11154071230E+01  0.90007704123E+02  0.89999965017E+02 0.  0.
        -12    1    1    2    0    0 -0.37699901125E+00  0.82686478947E-01  0.11154071230E+01  0.11802958774E+01  0.00000000000E+00 0.  1.
         11    1    3    3    0    0  0.57298436674E+01 -0.25022417666E+02  0.30219939782E+02  0.39650942675E+02  0.51100000000E-03 0. -1.
        -11    1    3    3    0    0  0.10226502738E+02  0.45841472544E+01 -0.19723555400E+01  0.11379189380E+02  0.51100000000E-03 0.  1.
        -12    1    3    3    0    0 -0.15579347394E+02  0.20355583932E+02 -0.29362991365E+02  0.38977572068E+02  0.00000000000E+00 0.  1.
</event>
<event>
 7    1  0.3863655E-015  0.9000760E+02  0.7816164E-02  0.1186339E+00
        -11   -1    0    0    0    0  0.00000000000E+00  0.00000000000E+00  0.45593999997E+02  0.45594000000E+02  0.51100000000E-03 0.  1.
         11   -1    0    0    0    0 -0.00000000000E+00 -0.00000000000E+00 -0.45593999997E+02  0.45594000000E+02  0.51100000000E-03 0. -1.
    9900012    2    1    2    0    0 -0.78850483467E+00  0.87154665803E+00  0.10957192568E+00  0.90007601992E+02  0.89999861538E+02 0.  0.
        -12    1    1    2    0    0  0.78850483467E+00 -0.87154665803E+00 -0.10957192568E+00  0.11803980084E+01  0.00000000000E+00 0.  1.
         11    1    3    3    0    0 -0.59079528830E+01  0.37533768059E+01  0.26857020955E+01  0.74969821076E+01  0.51100000000E-03 0. -1.
        -11    1    3    3    0    0 -0.63301398221E+01  0.34782795374E+02 -0.18670509650E+02  0.39981263800E+02  0.51100000000E-03 0.  1.
         12    1    3    3    0    0  0.11449587870E+02 -0.37664625522E+02  0.16094379480E+02  0.42529356084E+02  0.00000000000E+00 0. -1.
</event>
<event>
 7    1  0.3863655E-015  0.9000779E+02  0.7816164E-02  0.1186339E+00
        -11   -1    0    0    0    0  0.00000000000E+00  0.00000000000E+00  0.45593999997E+02  0.45594000000E+02  0.51100000000E-03 0.  1.
         11   -1    0    0    0    0 -0.00000000000E+00 -0.00000000000E+00 -0.45593999997E+02  0.45594000000E+02  0.51100000000E-03 0. -1.
    9900012    2    1    2    0    0  0.61268905366E+00  0.99476324584E+00 -0.16720938866E+00  0.90007787828E+02  0.90000049827E+02 0.  0.
        -12    1    1    2    0    0 -0.61268905366E+00 -0.99476324584E+00  0.16720938866E+00  0.11802121722E+01  0.00000000000E+00 0.  1.
         11    1    3    3    0    0  0.81903084724E+01 -0.73198530209E+00  0.11079078502E+01  0.82972534866E+01  0.51100000000E-03 0. -1.
        -11    1    3    3    0    0  0.17793573707E+02 -0.29478208914E+02  0.15965310467E+02  0.37953487385E+02  0.51100000000E-03 0.  1.
         12    1    3    3    0    0 -0.25371193126E+02  0.31204957462E+02 -0.17240427706E+02  0.43757046957E+02  0.00000000000E+00 0. -1.
</event>
<event>
 7    1  0.3863655E-015  0.9000775E+02  0.7816164E-02  0.1186339E+00
        -11   -1    0    0    0    0  0.00000000000E+00  0.00000000000E+00  0.45593999997E+02  0.45594000000E+02  0.51100000000E-03 0. -1.
         11   -1    0    0    0    0 -0.00000000000E+00 -0.00000000000E+00 -0.45593999997E+02  0.45594000000E+02  0.51100000000E-03 0.  1.
    9900012    2    1    2    0    0 -0.31727972923E+00  0.13312096136E+00  0.11289828974E+01  0.90007750027E+02  0.90000011527E+02 0.  0.
        -12    1    1    2    0    0  0.31727972923E+00 -0.13312096136E+00 -0.11289828974E+01  0.11802499733E+01  0.00000000000E+00 0.  1.
         11    1    3    3    0    0  0.53716695074E+01  0.78446908229E+01  0.33587252607E+01  0.10083404338E+02  0.51100000000E-03 0. -1.
        -11    1    3    3    0    0 -0.46792867955E+00 -0.43588499057E+02  0.15323101464E+00  0.43591279946E+02  0.51100000000E-03 0.  1.
         12    1    3    3    0    0 -0.52210205571E+01  0.35876929196E+02 -0.23829733779E+01  0.36333065743E+02  0.00000000000E+00 0. -1.
</event>
<event>
 7    1  0.3863655E-015  0.9000779E+02  0.7816164E-02  0.1186339E+00
        -11   -1    0    0    0    0  0.00000000000E+00  0.00000000000E+00  0.45593999997E+02  0.45594000000E+02  0.51100000000E-03 0.  1.
         11   -1    0    0    0    0 -0.00000000000E+00 -0.00000000000E+00 -0.45593999997E+02  0.45594000000E+02  0.51100000000E-03 0. -1.
    9900012    2    1    2    0    0  0.70107184530E+00  0.64568242317E+00 -0.69605015427E+00  0.90007790976E+02  0.90000053017E+02 0.  0.
        -12    1    1    2    0    0 -0.70107184530E+00 -0.64568242317E+00  0.69605015427E+00  0.11802090243E+01  0.00000000000E+00 0.  1.
         11    1    3    3    0    0  0.39838117017E+02  0.70289760415E+01 -0.26770788615E+00  0.40454341416E+02  0.51100000000E-03 0. -1.
        -11    1    3    3    0    0 -0.48468917965E+01 -0.22334415488E+01 -0.11994384481E+02  0.13128056999E+02  0.51100000000E-03 0.  1.
        -12    1    3    3    0    0 -0.34290153375E+02 -0.41498520695E+01  0.11566042212E+02  0.36425392560E+02  0.00000000000E+00 0.  1.
</event>
<event>
 7    1  0.3863655E-015  0.9000781E+02  0.7816164E-02  0.1186339E+00
        -11   -1    0    0    0    0  0.00000000000E+00  0.00000000000E+00  0.45593999997E+02  0.45594000000E+02  0.51100000000E-03 0. -1.
         11   -1    0    0    0    0 -0.00000000000E+00 -0.00000000000E+00 -0.45593999997E+02  0.45594000000E+02  0.51100000000E-03 0.  1.
    9900012    2    1    2    0    0 -0.10878338680E+01 -0.63166271749E-01  0.45329499819E+00  0.90007809821E+02  0.90000072111E+02 0.  0.
        -12    1    1    2    0    0  0.10878338680E+01  0.63166271749E-01 -0.45329499819E+00  0.11801901786E+01  0.00000000000E+00 0.  1.
         11    1    3    3    0    0 -0.21589370771E+02 -0.15033777554E+02  0.31500308617E+02  0.41041257791E+02  0.51100000000E-03 0. -1.
        -11    1    3    3    0    0  0.39472979783E+01 -0.78318193246E+01 -0.31602667151E+01  0.93223302470E+01  0.51100000000E-03 0.  1.
        -12    1    3    3    0    0  0.16554238924E+02  0.22802430607E+02 -0.27886746904E+02  0.39644221784E+02  0.00000000000E+00 0.  1.
</event>
<event>
 7    1  0.3863655E-015  0.9000770E+02  0.7816164E-02  0.1186339E+00
        -11   -1    0    0    0    0  0.00000000000E+00  0.00000000000E+00  0.45593999997E+02  0.45594000000E+02  0.51100000000E-03 0.  1.
         11   -1    0    0    0    0 -0.00000000000E+00 -0.00000000000E+00 -0.45593999997E+02  0.45594000000E+02  0.51100000000E-03 0. -1.
    9900012    2    1    2    0    0 -0.36554730078E+00 -0.10897179308E+01 -0.26834104676E+00  0.90007696261E+02  0.89999957052E+02 0.  0.
        -12    1    1    2    0    0  0.36554730078E+00  0.10897179308E+01  0.26834104676E+00  0.11803037386E+01  0.00000000000E+00 0.  1.
         11    1    3    3    0    0  0.62455537441E+01 -0.25565243461E+02 -0.24102627933E+02  0.35686486074E+02  0.51100000000E-03 0. -1.
        -11    1    3    3    0    0  0.37921062712E+01 -0.10027442815E+02  0.12664252592E+02  0.16592557770E+02  0.51100000000E-03 0.  1.
        -12    1    3    3    0    0 -0.10403207316E+02  0.34502968345E+02  0.11170034295E+02  0.37728652417E+02  0.00000000000E+00 0.  1.
</event>
<event>
 7    1  0.3863655E-015  0.9000753E+02  0.7816164E-02  0.1186339E+00
        -11   -1    0    0    0    0  0.00000000000E+00  0.00000000000E+00  0.45593999997E+02  0.45594000000E+02  0.51100000000E-03 0.  1.
         11   -1    0    0    0    0 -0.00000000000E+00 -0.00000000000E+00 -0.45593999997E+02  0.45594000000E+02  0.51100000000E-03 0. -1.
    9900012    2    1    2    0    0  0.54922697843E+00  0.55910510659E+00  0.88276139175E+00  0.90007527015E+02  0.89999785571E+02 0.  0.
        -12    1    1    2    0    0 -0.54922697843E+00 -0.55910510659E+00 -0.88276139175E+00  0.11804729852E+01  0.00000000000E+00 0.  1.
         11    1    3    3    0    0  0.11294472904E+02 -0.55581937738E+00  0.91970381518E+01  0.14575992741E+02  0.51100000000E-03 0. -1.
        -11    1    3    3    0    0  0.17016650074E+02  0.29807518620E+02 -0.90649952193E+01  0.35499699782E+02  0.51100000000E-03 0.  1.
        -12    1    3    3    0    0 -0.27761895999E+02 -0.28692594136E+02  0.75071845929E+00  0.39931834492E+02  0.00000000000E+00 0.  1.
</event>
<event>
 7    1  0.5958993E-015  0.9000790E+02  0.7816164E-02  0.1186339E+00
        -11   -1    0    0    0    0  0.00000000000E+00  0.00000000000E+00  0.45593999997E+02  0.45594000000E+02  0.51100000000E-03 0. -1.
         11   -1    0    0    0    0 -0.00000000000E+00 -0.00000000000E+00 -0.45593999997E+02  0.45594000000E+02  0.51100000000E-03 0.  1.
    9900012    2    1    2    0    0 -0.92984155029E+00  0.52182316585E+00  0.50570009546E+00  0.90007899449E+02  0.90000162921E+02 0.  0.
        -12    1    1    2    0    0  0.92984155029E+00 -0.52182316585E+00 -0.50570009546E+00  0.11801005515E+01  0.00000000000E+00 0.  1.
         11    1    3    3    0    0 -0.12783727187E+01  0.60935216974E+01  0.69247404788E+01  0.93122110395E+01  0.51100000000E-03 0. -1.
        -11    1    3    3    0    0  0.32269712281E+02  0.66831496788E+01 -0.25382376111E+02  0.41596440204E+02  0.51100000000E-03 0.  1.
         12    1    3    3    0    0 -0.31921181112E+02 -0.12254848210E+02  0.18963335728E+02  0.39099248205E+02  0.00000000000E+00 0. -1.
</event>
<event>
 7    1  0.3863655E-015  0.9000789E+02  0.7816164E-02  0.1186339E+00
        -11   -1    0    0    0    0  0.00000000000E+00  0.00000000000E+00  0.45593999997E+02  0.45594000000E+02  0.51100000000E-03 0. -1.
         11   -1    0    0    0    0 -0.00000000000E+00 -0.00000000000E+00 -0.45593999997E+02  0.45594000000E+02  0.51100000000E-03 0.  1.
    9900012    2    1    2    0    0 -0.29620346575E+00 -0.11359098113E+01 -0.12092187866E+00  0.90007894202E+02  0.90000157606E+02 0.  0.
        -12    1    1    2    0    0  0.29620346575E+00  0.11359098113E+01  0.12092187866E+00  0.11801057975E+01  0.00000000000E+00 0.  1.
         11    1    3    3    0    0 -0.61745416452E+01 -0.23681915177E+01  0.41020711985E+01  0.77820488287E+01  0.51100000000E-03 0. -1.
        -11    1    3    3    0    0  0.13543092295E+02  0.21172975411E+02  0.31685209994E+02  0.40443327871E+02  0.51100000000E-03 0.  1.
         12    1    3    3    0    0 -0.76647541158E+01 -0.19940693705E+02 -0.35908203071E+02  0.41782517503E+02  0.00000000000E+00 0. -1.
</event>
<event>
 7    1  0.3863655E-015  0.9000774E+02  0.7816164E-02  0.1186339E+00
        -11   -1    0    0    0    0  0.00000000000E+00  0.00000000000E+00  0.45593999997E+02  0.45594000000E+02  0.51100000000E-03 0.  1.
         11   -1    0    0    0    0 -0.00000000000E+00 -0.00000000000E+00 -0.45593999997E+02  0.45594000000E+02  0.51100000000E-03 0. -1.
    9900012    2    1    2    0    0 -0.52493494004E+00  0.10528277175E+01 -0.94882878629E-01  0.90007743395E+02  0.90000004807E+02 0.  0.
        -12    1    1    2    0    0  0.52493494004E+00 -0.10528277175E+01  0.94882878629E-01  0.11802566055E+01  0.00000000000E+00 0.  1.
         11    1    3    3    0    0  0.32677268448E+01  0.85690047847E+01 -0.20937058047E+01  0.94068850312E+01  0.51100000000E-03 0. -1.
        -11    1    3    3    0    0  0.29207106107E+01  0.36172974637E+02  0.27260436420E+01  0.36392938309E+02  0.51100000000E-03 0.  1.
         12    1    3    3    0    0 -0.67133723956E+01 -0.43689151704E+02 -0.72722071595E+00  0.44207920054E+02  0.00000000000E+00 0. -1.
</event>
<event>
 7    1  0.3863655E-015  0.9000758E+02  0.7816164E-02  0.1186339E+00
        -11   -1    0    0    0    0  0.00000000000E+00  0.00000000000E+00  0.45593999997E+02  0.45594000000E+02  0.51100000000E-03 0. -1.
         11   -1    0    0    0    0 -0.00000000000E+00 -0.00000000000E+00 -0.45593999997E+02  0.45594000000E+02  0.51100000000E-03 0.  1.
    9900012    2    1    2    0    0  0.11337720727E+01 -0.18800089527E+00  0.26947650899E+00  0.90007575907E+02  0.89999835109E+02 0.  0.
        -12    1    1    2    0    0 -0.11337720727E+01  0.18800089527E+00 -0.26947650899E+00  0.11804240926E+01  0.00000000000E+00 0.  1.
         11    1    3    3    0    0  0.26392474087E+01 -0.12060244206E+02  0.48020780010E+01  0.13246700366E+02  0.51100000000E-03 0. -1.
        -11    1    3    3    0    0  0.12352125904E+02 -0.28268721789E+02  0.90948029629E+01  0.32162261847E+02  0.51100000000E-03 0.  1.
         12    1    3    3    0    0 -0.13857601240E+02  0.40140965100E+02 -0.13627404455E+02  0.44598613694E+02  0.00000000000E+00 0. -1.
</event>
<event>
 7    1  0.3863655E-015  0.9000778E+02  0.7816164E-02  0.1186339E+00
        -11   -1    0    0    0    0  0.00000000000E+00  0.00000000000E+00  0.45593999997E+02  0.45594000000E+02  0.51100000000E-03 0. -1.
         11   -1    0    0    0    0 -0.00000000000E+00 -0.00000000000E+00 -0.45593999997E+02  0.45594000000E+02  0.51100000000E-03 0.  1.
    9900012    2    1    2    0    0  0.11248465861E+01 -0.15846903772E+00  0.32020935420E+00  0.90007777009E+02  0.90000038865E+02 0.  0.
        -12    1    1    2    0    0 -0.11248465861E+01  0.15846903772E+00 -0.32020935420E+00  0.11802229911E+01  0.00000000000E+00 0.  1.
         11    1    3    3    0    0  0.19393638664E+02 -0.26485684094E+02  0.63882609431E+01  0.33442705643E+02  0.51100000000E-03 0. -1.
        -11    1    3    3    0    0 -0.18368275601E+01  0.31364151278E+01  0.18587188987E+02  0.18939235202E+02  0.51100000000E-03 0.  1.
        -12    1    3    3    0    0 -0.16431964518E+02  0.23190799928E+02 -0.24655240575E+02  0.37625836165E+02  0.00000000000E+00 0.  1.
</event>
<event>
 7    1  0.3863655E-015  0.9000773E+02  0.7816164E-02  0.1186339E+00
        -11   -1    0    0    0    0  0.00000000000E+00  0.00000000000E+00  0.45593999997E+02  0.45594000000E+02  0.51100000000E-03 0.  1.
         11   -1    0    0    0    0 -0.00000000000E+00 -0.00000000000E+00 -0.45593999997E+02  0.45594000000E+02  0.51100000000E-03 0. -1.
    9900012    2    1    2    0    0  0.47878372562E+00  0.98333135057E+00  0.44368566068E+00  0.90007732502E+02  0.89999993771E+02 0.  0.
        -12    1    1    2    0    0 -0.47878372562E+00 -0.98333135057E+00 -0.44368566068E+00  0.11802674978E+01  0.00000000000E+00 0.  1.
         11    1    3    3    0    0  0.13012722594E+01  0.37022901042E+02 -0.96724143215E+01  0.38287649577E+02  0.51100000000E-03 0. -1.
        -11    1    3    3    0    0 -0.94274332227E+01  0.36425783147E+01  0.24282880280E+01  0.10394299253E+02  0.51100000000E-03 0.  1.
        -12    1    3    3    0    0  0.86049446890E+01 -0.39682148006E+02  0.76878119542E+01  0.41325783672E+02  0.00000000000E+00 0.  1.
</event>
<event>
 7    1  0.3863655E-015  0.9000772E+02  0.7816164E-02  0.1186339E+00
        -11   -1    0    0    0    0  0.00000000000E+00  0.00000000000E+00  0.45593999997E+02  0.45594000000E+02  0.51100000000E-03 0.  1.
         11   -1    0    0    0    0 -0.00000000000E+00 -0.00000000000E+00 -0.45593999997E+02  0.45594000000E+02  0.51100000000E-03 0. -1.
    9900012    2    1    2    0    0  0.10532377754E+00  0.52879577764E-02 -0.11755611205E+01  0.90007718250E+02  0.89999979331E+02 0.  0.
        -12    1    1    2    0    0 -0.10532377754E+00 -0.52879577764E-02  0.11755611205E+01  0.11802817497E+01  0.00000000000E+00 0.  1.
         11    1    3    3    0    0  0.52081825485E+01  0.57759488084E+01  0.42560493154E+01  0.88657039276E+01  0.51100000000E-03 0. -1.
        -11    1    3    3    0    0  0.32285121013E+02  0.39911625888E+01 -0.21817845789E+02  0.39169845708E+02  0.51100000000E-03 0.  1.
         12    1    3    3    0    0 -0.37387979784E+02 -0.97618234394E+01  0.16386235353E+02  0.41972168615E+02  0.00000000000E+00 0. -1.
</event>
<event>
 8    1  0.3863655E-015  0.9000752E+02  0.7816164E-02  0.1186339E+00
        -11   -1    0    0    0    0  0.00000000000E+00  0.00000000000E+00  0.45593999997E+02  0.45594000000E+02  0.51100000000E-03 0. -1.
         11   -1    0    0    0    0 -0.00000000000E+00 -0.00000000000E+00 -0.45593999997E+02  0.45594000000E+02  0.51100000000E-03 0.  1.
    9900012    2    1    2    0    0 -0.28467325521E+00  0.11456322167E+01  0.43450382353E-02  0.90007520895E+02  0.89999779370E+02 0.  0.
         23    2    3    3    0    0  0.62373708860E+01  0.83401966227E-01 -0.25984576229E+02  0.63191678161E+02  0.57263236334E+02 0.  0.
        -12    1    1    2    0    0  0.28467325521E+00 -0.11456322167E+01 -0.43450382353E-02  0.11804791051E+01  0.00000000000E+00 0.  1.
         11    1    4    4    0    0  0.15392448120E+02  0.62640681313E+01  0.13987551347E+02  0.21721362794E+02  0.51100000000E-03 0. -1.
        -11    1    4    4    0    0 -0.91550772344E+01 -0.61806661651E+01 -0.39972127576E+02  0.41470315367E+02  0.51100000000E-03 0.  1.
         12    1    3    3    0    0 -0.65220441412E+01  0.10622302505E+01  0.25988921268E+02  0.26815842734E+02  0.00000000000E+00 0. -1.
</event>
<event>
 7    1  0.3863655E-015  0.9000774E+02  0.7816164E-02  0.1186339E+00
        -11   -1    0    0    0    0  0.00000000000E+00  0.00000000000E+00  0.45593999997E+02  0.45594000000E+02  0.51100000000E-03 0.  1.
         11   -1    0    0    0    0 -0.00000000000E+00 -0.00000000000E+00 -0.45593999997E+02  0.45594000000E+02  0.51100000000E-03 0. -1.
    9900012    2    1    2    0    0  0.33557011559E+00 -0.10620009942E+01 -0.39059638367E+00  0.90007737763E+02  0.89999999101E+02 0.  0.
        -12    1    1    2    0    0 -0.33557011559E+00  0.10620009942E+01  0.39059638367E+00  0.11802622375E+01  0.00000000000E+00 0.  1.
         11    1    3    3    0    0  0.17945197154E+02 -0.24744864053E+02 -0.18622702071E+02  0.35793064001E+02  0.51100000000E-03 0. -1.
        -11    1    3    3    0    0 -0.65471432473E+00 -0.11089140647E+02 -0.72904844462E+00  0.11132349394E+02  0.51100000000E-03 0.  1.
        -12    1    3    3    0    0 -0.16954912714E+02  0.34772003706E+02  0.18961154132E+02  0.43082324367E+02  0.00000000000E+00 0.  1.
</event>
<event>
 7    1  0.3863655E-015  0.9000766E+02  0.7816164E-02  0.1186339E+00
        -11   -1    0    0    0    0  0.00000000000E+00  0.00000000000E+00  0.45593999997E+02  0.45594000000E+02  0.51100000000E-03 0.  1.
         11   -1    0    0    0    0 -0.00000000000E+00 -0.00000000000E+00 -0.45593999997E+02  0.45594000000E+02  0.51100000000E-03 0. -1.
    9900012    2    1    2    0    0  0.50024972332E-01 -0.84782986428E+00 -0.81968415802E+00  0.90007661025E+02  0.89999921351E+02 0.  0.
        -12    1    1    2    0    0 -0.50024972332E-01  0.84782986428E+00  0.81968415802E+00  0.11803389748E+01  0.00000000000E+00 0.  1.
         11    1    3    3    0    0 -0.31730033414E+02 -0.12613007030E+02  0.42326763592E+01  0.34406373192E+02  0.51100000000E-03 0. -1.
        -11    1    3    3    0    0 -0.85475692286E+01 -0.52285849495E+01 -0.62743911545E+01  0.11822310473E+02  0.51100000000E-03 0.  1.
        -12    1    3    3    0    0  0.40327627615E+02  0.16993762116E+02  0.12220306373E+01  0.43778977361E+02  0.00000000000E+00 0.  1.
</event>
<event>
 7    1  0.3863655E-015  0.9000775E+02  0.7816164E-02  0.1186339E+00
        -11   -1    0    0    0    0  0.00000000000E+00  0.00000000000E+00  0.45593999997E+02  0.45594000000E+02  0.51100000000E-03 0.  1.
         11   -1    0    0    0    0 -0.00000000000E+00 -0.00000000000E+00 -0.45593999997E+02  0.45594000000E+02  0.51100000000E-03 0. -1.
    9900012    2    1    2    0    0 -0.10948631056E+01 -0.25058384510E+00  0.36259864403E+00  0.90007747798E+02  0.90000009269E+02 0.  0.
        -12    1    1    2    0    0  0.10948631056E+01  0.25058384510E+00 -0.36259864403E+00  0.11802522019E+01  0.00000000000E+00 0.  1.
         11    1    3    3    0    0 -0.13844979552E+01 -0.83122908711E+01  0.35277772745E+01  0.91354379683E+01  0.51100000000E-03 0. -1.
        -11    1    3    3    0    0  0.37293622123E+02 -0.91325296958E+01  0.64943358575E+01  0.38940900711E+02  0.51100000000E-03 0.  1.
         12    1    3    3    0    0 -0.37003987273E+02  0.17194236722E+02 -0.96595144880E+01  0.41931409119E+02  0.00000000000E+00 0. -1.
</event>
<event>
 7    1  0.3863655E-015  0.9000776E+02  0.7816164E-02  0.1186339E+00
        -11   -1    0    0    0    0  0.00000000000E+00  0.00000000000E+00  0.45593999997E+02  0.45594000000E+02  0.51100000000E-03 0.  1.
         11   -1    0    0    0    0 -0.00000000000E+00 -0.00000000000E+00 -0.45593999997E+02  0.45594000000E+02  0.51100000000E-03 0. -1.
    9900012    2    1    2    0    0 -0.52978852517E+00  0.33011449206E+00 -0.10016565986E+01  0.90007759600E+02  0.90000021227E+02 0.  0.
        -12    1    1    2    0    0  0.52978852517E+00 -0.33011449206E+00  0.10016565986E+01  0.11802403996E+01  0.00000000000E+00 0.  1.
         11    1    3    3    0    0  0.11011795889E+01 -0.14709020203E+01  0.99481318164E+01  0.10116396401E+02  0.51100000000E-03 0. -1.
        -11    1    3    3    0    0  0.53864690505E+01 -0.38139848428E+02 -0.69702935641E+01  0.39143927749E+02  0.51100000000E-03 0.  1.
         12    1    3    3    0    0 -0.70174371645E+01  0.39940864941E+02 -0.39794948509E+01  0.40747435451E+02  0.00000000000E+00 0. -1.
</event>
<event>
 7    1  0.3863655E-015  0.9000791E+02  0.7816164E-02  0.1186339E+00
        -11   -1    0    0    0    0  0.00000000000E+00  0.00000000000E+00  0.45593999997E+02  0.45594000000E+02  0.51100000000E-03 0. -1.
         11   -1    0    0    0    0 -0.00000000000E+00 -0.00000000000E+00 -0.45593999997E+02  0.45594000000E+02  0.51100000000E-03 0.  1.
    9900012    2    1    2    0    0 -0.85960079240E+00  0.32658781233E+00  0.73961629598E+00  0.90007912975E+02  0.90000176626E+02 0.  0.
        -12    1    1    2    0    0  0.85960079240E+00 -0.32658781233E+00 -0.73961629598E+00  0.11800870251E+01  0.00000000000E+00 0.  1.
         11    1    3    3    0    0  0.65920762180E+00 -0.13573720868E+02  0.61589680975E+00  0.13603667962E+02  0.51100000000E-03 0. -1.
        -11    1    3    3    0    0  0.22326805744E+02  0.35118793585E+02  0.10357368101E+02  0.42884624189E+02  0.51100000000E-03 0.  1.
         12    1    3    3    0    0 -0.23845614158E+02 -0.21218484905E+02 -0.10233648614E+02  0.33519620824E+02  0.00000000000E+00 0. -1.
</event>
<event>
 7    1  0.3863655E-015  0.9000786E+02  0.7816164E-02  0.1186339E+00
        -11   -1    0    0    0    0  0.00000000000E+00  0.00000000000E+00  0.45593999997E+02  0.45594000000E+02  0.51100000000E-03 0. -1.
         11   -1    0    0    0    0 -0.00000000000E+00 -0.00000000000E+00 -0.45593999997E+02  0.45594000000E+02  0.51100000000E-03 0.  1.
    9900012    2    1    2    0    0 -0.10364777597E+01  0.35952607903E+00  0.43494414213E+00  0.90007863756E+02  0.90000126757E+02 0.  0.
        -12    1    1    2    0    0  0.10364777597E+01 -0.35952607903E+00 -0.43494414213E+00  0.11801362441E+01  0.00000000000E+00 0.  1.
         11    1    3    3    0    0  0.29583870657E+01  0.60329869220E+01 -0.10080179916E+02  0.12114413425E+02  0.51100000000E-03 0. -1.
        -11    1    3    3    0    0  0.32076998518E+01  0.28992000908E+01 -0.32836137898E+02  0.33119581093E+02  0.51100000000E-03 0.  1.
         12    1    3    3    0    0 -0.72025646771E+01 -0.85726609337E+01  0.43351261955E+02  0.44773869238E+02  0.00000000000E+00 0. -1.
</event>
<event>
 7    1  0.3863655E-015  0.9000772E+02  0.7816164E-02  0.1186339E+00
        -11   -1    0    0    0    0  0.00000000000E+00  0.00000000000E+00  0.45593999997E+02  0.45594000000E+02  0.51100000000E-03 0. -1.
         11   -1    0    0    0    0 -0.00000000000E+00 -0.00000000000E+00 -0.45593999997E+02  0.45594000000E+02  0.51100000000E-03 0.  1.
    9900012    2    1    2    0    0  0.50487336288E+00 -0.10090902787E+01 -0.34625724067E+00  0.90007722753E+02  0.89999983893E+02 0.  0.
        -12    1    1    2    0    0 -0.50487336288E+00  0.10090902787E+01  0.34625724067E+00  0.11802772470E+01  0.00000000000E+00 0.  1.
         11    1    3    3    0    0  0.33107397940E+01  0.57264184240E+01 -0.40005896885E+01  0.77303029738E+01  0.51100000000E-03 0. -1.
        -11    1    3    3    0    0 -0.16658771088E+02 -0.25888752406E+02 -0.28780316003E+02  0.42143193339E+02  0.51100000000E-03 0.  1.
         12    1    3    3    0    0  0.13852904657E+02  0.19153243704E+02  0.32434648451E+02  0.40134226440E+02  0.00000000000E+00 0. -1.
</event>
<event>
 7    1  0.3863655E-015  0.9000783E+02  0.7816164E-02  0.1186339E+00
        -11   -1    0    0    0    0  0.00000000000E+00  0.00000000000E+00  0.45593999997E+02  0.45594000000E+02  0.51100000000E-03 0.  1.
         11   -1    0    0    0    0 -0.00000000000E+00 -0.00000000000E+00 -0.45593999997E+02  0.45594000000E+02  0.51100000000E-03 0. -1.
    9900012    2    1    2    0    0  0.11628907311E+01  0.18136703118E+00 -0.87157258346E-01  0.90007828301E+02  0.90000090834E+02 0.  0.
        -12    1    1    2    0    0 -0.11628907311E+01 -0.18136703118E+00  0.87157258346E-01  0.11801716994E+01  0.00000000000E+00 0.  1.
         11    1    3    3    0    0  0.85780876535E+01 -0.29695456408E+01 -0.84960046823E+00  0.91172150529E+01  0.51100000000E-03 0. -1.
        -11    1    3    3    0    0 -0.29106459666E+02  0.62400963071E+01 -0.30562423177E+02  0.42663643854E+02  0.51100000000E-03 0.  1.
         12    1    3    3    0    0  0.21691262743E+02 -0.30891836351E+01  0.31324866386E+02  0.38226969394E+02  0.00000000000E+00 0. -1.
</event>
<event>
 7    1  0.3863655E-015  0.9000774E+02  0.7816164E-02  0.1186339E+00
        -11   -1    0    0    0    0  0.00000000000E+00  0.00000000000E+00  0.45593999997E+02  0.45594000000E+02  0.51100000000E-03 0. -1.
         11   -1    0    0    0    0 -0.00000000000E+00 -0.00000000000E+00 -0.45593999997E+02  0.45594000000E+02  0.51100000000E-03 0.  1.
    9900012    2    1    2    0    0 -0.12583837406E+00  0.75736124563E+00  0.89642593464E+00  0.90007741211E+02  0.90000002595E+02 0.  0.
        -12    1    1    2    0    0  0.12583837406E+00 -0.75736124563E+00 -0.89642593464E+00  0.11802587890E+01  0.00000000000E+00 0.  1.
         11    1    3    3    0    0 -0.16932305874E+02  0.11466654920E+01  0.80817606476E+01  0.18797145512E+02  0.51100000000E-03 0. -1.
        -11    1    3    3    0    0  0.21792954577E+00 -0.22463037393E+02  0.21712211476E+02  0.31241889662E+02  0.51100000000E-03 0.  1.
        -12    1    3    3    0    0  0.16588537955E+02  0.22073733147E+02 -0.28897546189E+02  0.39968706037E+02  0.00000000000E+00 0.  1.
</event>
<event>
 7    1  0.3863655E-015  0.9000768E+02  0.7816164E-02  0.1186339E+00
        -11   -1    0    0    0    0  0.00000000000E+00  0.00000000000E+00  0.45593999997E+02  0.45594000000E+02  0.51100000000E-03 0.  1.
         11   -1    0    0    0    0 -0.00000000000E+00 -0.00000000000E+00 -0.45593999997E+02  0.45594000000E+02  0.51100000000E-03 0. -1.
    9900012    2    1    2    0    0  0.61012088022E+00  0.87740441105E+00 -0.50107538139E+00  0.90007676940E+02  0.89999937475E+02 0.  0.
        -12    1    1    2    0    0 -0.61012088022E+00 -0.87740441105E+00  0.50107538139E+00  0.11803230604E+01  0.00000000000E+00 0.  1.
         11    1    3    3    0    0  0.28295476316E+02  0.26701858832E+01  0.21583620687E+02  0.35687764778E+02  0.51100000000E-03 0. -1.
        -11    1    3    3    0    0  0.95047276011E+01  0.62790407191E+01 -0.31799296635E+01  0.11827009430E+02  0.51100000000E-03 0.  1.
        -12    1    3    3    0    0 -0.37190083037E+02 -0.80718221913E+01 -0.18904766405E+02  0.42492902732E+02  0.00000000000E+00 0.  1.
</event>
<event>
 7    1  0.3863655E-015  0.9000779E+02  0.7816164E-02  0.1186339E+00
        -11   -1    0    0    0    0  0.00000000000E+00  0.00000000000E+00  0.45593999997E+02  0.45594000000E+02  0.51100000000E-03 0.  1.
         11   -1    0    0    0    0 -0.00000000000E+00 -0.00000000000E+00 -0.45593999997E+02  0.45594000000E+02  0.51100000000E-03 0. -1.
    9900012    2    1    2    0    0 -0.48970455009E+00 -0.35238846232E+00 -0.10143479079E+01  0.90007792453E+02  0.90000054514E+02 0.  0.
        -12    1    1    2    0    0  0.48970455009E+00  0.35238846232E+00  0.10143479079E+01  0.11802075466E+01  0.00000000000E+00 0.  1.
         11    1    3    3    0    0 -0.26124512920E+02 -0.11090131886E+02 -0.33865300107E+02  0.44185288866E+02  0.51100000000E-03 0. -1.
        -11    1    3    3    0    0  0.31737477381E+01 -0.32653796707E+01  0.94619768513E+01  0.10500684992E+02  0.51100000000E-03 0.  1.
        -12    1    3    3    0    0  0.22461060632E+02  0.14003123095E+02  0.23388975348E+02  0.35321818596E+02  0.00000000000E+00 0.  1.
</event>
<event>
 7    1  0.3863655E-015  0.9000778E+02  0.7816164E-02  0.1186339E+00
        -11   -1    0    0    0    0  0.00000000000E+00  0.00000000000E+00  0.45593999997E+02  0.45594000000E+02  0.51100000000E-03 0.  1.
         11   -1    0    0    0    0 -0.00000000000E+00 -0.00000000000E+00 -0.45593999997E+02  0.45594000000E+02  0.51100000000E-03 0. -1.
    9900012    2    1    2    0    0 -0.11448549614E+01  0.18140653004E+00 -0.22208970721E+00  0.90007777542E+02  0.90000039406E+02 0.  0.
        -12    1    1    2    0    0  0.11448549614E+01 -0.18140653004E+00  0.22208970721E+00  0.11802224578E+01  0.00000000000E+00 0.  1.
         11    1    3    3    0    0 -0.39200146886E+02  0.47646297878E+01 -0.22872226075E+01  0.39554830304E+02  0.51100000000E-03 0. -1.
        -11    1    3    3    0    0 -0.12445627361E+01  0.86641100855E+01 -0.12782012122E+01  0.88458769253E+01  0.51100000000E-03 0.  1.
        -12    1    3    3    0    0  0.39299854660E+02 -0.13247333343E+02  0.33433341125E+01  0.41607070313E+02  0.00000000000E+00 0.  1.
</event>
<event>
 7    1  0.3863655E-015  0.9000776E+02  0.7816164E-02  0.1186339E+00
        -11   -1    0    0    0    0  0.00000000000E+00  0.00000000000E+00  0.45593999997E+02  0.45594000000E+02  0.51100000000E-03 0. -1.
         11   -1    0    0    0    0 -0.00000000000E+00 -0.00000000000E+00 -0.45593999997E+02  0.45594000000E+02  0.51100000000E-03 0.  1.
    9900012    2    1    2    0    0  0.67754631200E+00 -0.96530624599E+00 -0.45657545737E-01  0.90007758599E+02  0.90000020212E+02 0.  0.
        -12    1    1    2    0    0 -0.67754631200E+00  0.96530624599E+00  0.45657545737E-01  0.11802414011E+01  0.00000000000E+00 0.  1.
         11    1    3    3    0    0 -0.38387241180E+01 -0.84733433600E+00 -0.76977224959E+01  0.86434200533E+01  0.51100000000E-03 0. -1.
        -11    1    3    3    0    0 -0.19876160452E+02  0.13776518988E+02 -0.27341593242E+02  0.36502286928E+02  0.51100000000E-03 0.  1.
         12    1    3    3    0    0  0.24392430882E+02 -0.13894490898E+02  0.34993658192E+02  0.44862051617E+02  0.00000000000E+00 0. -1.
</event>
<event>
 7    1  0.3863655E-015  0.9000764E+02  0.7816164E-02  0.1186339E+00
        -11   -1    0    0    0    0  0.00000000000E+00  0.00000000000E+00  0.45593999997E+02  0.45594000000E+02  0.51100000000E-03 0.  1.
         11   -1    0    0    0    0 -0.00000000000E+00 -0.00000000000E+00 -0.45593999997E+02  0.45594000000E+02  0.51100000000E-03 0. -1.
    9900012    2    1    2    0    0 -0.80004625356E-02 -0.11763243988E+01 -0.97174073706E-01  0.90007641623E+02  0.89999901692E+02 0.  0.
        -12    1    1    2    0    0  0.80004625356E-02  0.11763243988E+01  0.97174073706E-01  0.11803583775E+01  0.00000000000E+00 0.  1.
         11    1    3    3    0    0  0.30193124578E+01 -0.73348087371E+01  0.53937512263E+01  0.95920915071E+01  0.51100000000E-03 0. -1.
        -11    1    3    3    0    0 -0.28158887669E+02 -0.32368717559E+01  0.26403410752E+02  0.38736809279E+02  0.51100000000E-03 0.  1.
         12    1    3    3    0    0  0.25131574749E+02  0.93953560942E+01 -0.31894336052E+02  0.41678740836E+02  0.00000000000E+00 0. -1.
</event>
<event>
 7    1  0.3948750E-015  0.9000780E+02  0.7816164E-02  0.1186339E+00
        -11   -1    0    0    0    0  0.00000000000E+00  0.00000000000E+00  0.45593999997E+02  0.45594000000E+02  0.51100000000E-03 0.  1.
         11   -1    0    0    0    0 -0.00000000000E+00 -0.00000000000E+00 -0.45593999997E+02  0.45594000000E+02  0.51100000000E-03 0. -1.
    9900012    2    1    2    0    0  0.58103191292E+00 -0.49643133848E+00 -0.89934799348E+00  0.90007801300E+02  0.90000063477E+02 0.  0.
        -12    1    1    2    0    0 -0.58103191292E+00  0.49643133848E+00  0.89934799348E+00  0.11801986998E+01  0.00000000000E+00 0.  1.
         11    1    3    3    0    0 -0.12257665897E+01 -0.74827288994E+01  0.58304268461E+01  0.95649157332E+01  0.51100000000E-03 0. -1.
        -11    1    3    3    0    0  0.11998441704E+02 -0.30289937885E+02  0.15263909857E+02  0.35978186235E+02  0.51100000000E-03 0.  1.
         12    1    3    3    0    0 -0.10191643201E+02  0.37276235446E+02 -0.21993684697E+02  0.44464699332E+02  0.00000000000E+00 0. -1.
</event>
<event>
 7    1  0.3863655E-015  0.9000771E+02  0.7816164E-02  0.1186339E+00
        -11   -1    0    0    0    0  0.00000000000E+00  0.00000000000E+00  0.45593999997E+02  0.45594000000E+02  0.51100000000E-03 0.  1.
         11   -1    0    0    0    0 -0.00000000000E+00 -0.00000000000E+00 -0.45593999997E+02  0.45594000000E+02  0.51100000000E-03 0. -1.
    9900012    2    1    2    0    0  0.55118169096E+00  0.51242870685E+00 -0.90922573772E+00  0.90007713646E+02  0.89999974666E+02 0.  0.
        -12    1    1    2    0    0 -0.55118169096E+00 -0.51242870685E+00  0.90922573772E+00  0.11802863543E+01  0.00000000000E+00 0.  1.
         11    1    3    3    0    0  0.31561820458E+02  0.31546031323E+02 -0.43958900547E+01  0.44839987204E+02  0.51100000000E-03 0. -1.
        -11    1    3    3    0    0 -0.35916625235E+01 -0.81536992607E+01  0.31647249040E+01  0.94550692908E+01  0.51100000000E-03 0.  1.
        -12    1    3    3    0    0 -0.27418976243E+02 -0.22879903356E+02  0.32193941296E+00  0.35712657151E+02  0.00000000000E+00 0.  1.
</event>
<event>
 7    1  0.3863655E-015  0.9000791E+02  0.7816164E-02  0.1186339E+00
        -11   -1    0    0    0    0  0.00000000000E+00  0.00000000000E+00  0.45593999997E+02  0.45594000000E+02  0.51100000000E-03 0. -1.
         11   -1    0    0    0    0 -0.00000000000E+00 -0.00000000000E+00 -0.45593999997E+02  0.45594000000E+02  0.51100000000E-03 0.  1.
    9900012    2    1    2    0    0  0.81081954355E+00 -0.65488380569E+00 -0.55344702746E+00  0.90007913248E+02  0.90000176902E+02 0.  0.
        -12    1    1    2    0    0 -0.81081954355E+00  0.65488380569E+00  0.55344702746E+00  0.11800867525E+01  0.00000000000E+00 0.  1.
         11    1    3    3    0    0  0.26918757729E+02  0.33940852014E+01  0.22755491456E+02  0.35411180772E+02  0.51100000000E-03 0. -1.
        -11    1    3    3    0    0  0.86795212703E+01  0.21552746743E+01  0.41370595634E+01  0.98536572143E+01  0.51100000000E-03 0.  1.
        -12    1    3    3    0    0 -0.34787459455E+02 -0.62042436814E+01 -0.27445998047E+02  0.44743075261E+02  0.00000000000E+00 0.  1.
</event>
<event>
 7    1  0.3863655E-015  0.9000781E+02  0.7816164E-02  0.1186339E+00
        -11   -1    0    0    0    0  0.00000000000E+00  0.00000000000E+00  0.45593999997E+02  0.45594000000E+02  0.51100000000E-03 0. -1.
         11   -1    0    0    0    0 -0.00000000000E+00 -0.00000000000E+00 -0.45593999997E+02  0.45594000000E+02  0.51100000000E-03 0.  1.
    9900012    2    1    2    0    0  0.10166060227E+01 -0.50863013981E+00 -0.31726103159E+00  0.90007810614E+02  0.90000072914E+02 0.  0.
        -12    1    1    2    0    0 -0.10166060227E+01  0.50863013981E+00  0.31726103159E+00  0.11801893859E+01  0.00000000000E+00 0.  1.
         11    1    3    3    0    0 -0.17889222383E+01 -0.69776797633E+01  0.62349839222E+01  0.95269765626E+01  0.51100000000E-03 0. -1.
        -11    1    3    3    0    0  0.22846484711E+02  0.30603485184E+01 -0.37165098255E+02  0.43732963829E+02  0.51100000000E-03 0.  1.
         12    1    3    3    0    0 -0.20040956450E+02  0.34087011051E+01  0.30612853301E+02  0.36747870223E+02  0.00000000000E+00 0. -1.
</event>
<event>
 7    1  0.3863655E-015  0.9000771E+02  0.7816164E-02  0.1186339E+00
        -11   -1    0    0    0    0  0.00000000000E+00  0.00000000000E+00  0.45593999997E+02  0.45594000000E+02  0.51100000000E-03 0.  1.
         11   -1    0    0    0    0 -0.00000000000E+00 -0.00000000000E+00 -0.45593999997E+02  0.45594000000E+02  0.51100000000E-03 0. -1.
    9900012    2    1    2    0    0 -0.10586625214E+01 -0.42602502680E+00  0.30135146485E+00  0.90007713440E+02  0.89999974458E+02 0.  0.
        -12    1    1    2    0    0  0.10586625214E+01  0.42602502680E+00 -0.30135146485E+00  0.11802865597E+01  0.00000000000E+00 0.  1.
         11    1    3    3    0    0  0.67301545140E+01 -0.92081596066E+01  0.11074435893E+00  0.11406026815E+02  0.51100000000E-03 0. -1.
        -11    1    3    3    0    0  0.14360100178E+02 -0.20115536033E+02  0.24517398017E+02  0.34813073304E+02  0.51100000000E-03 0.  1.
         12    1    3    3    0    0 -0.22148917214E+02  0.28897670613E+02 -0.24326790911E+02  0.43788613322E+02  0.00000000000E+00 0. -1.
</event>
<event>
 7    1  0.3863655E-015  0.9000773E+02  0.7816164E-02  0.1186339E+00
        -11   -1    0    0    0    0  0.00000000000E+00  0.00000000000E+00  0.45593999997E+02  0.45594000000E+02  0.51100000000E-03 0.  1.
         11   -1    0    0    0    0 -0.00000000000E+00 -0.00000000000E+00 -0.45593999997E+02  0.45594000000E+02  0.51100000000E-03 0. -1.
    9900012    2    1    2    0    0 -0.36288144482E+00 -0.89058934303E+00  0.68425394829E+00  0.90007730630E+02  0.89999991874E+02 0.  0.
        -12    1    1    2    0    0  0.36288144482E+00  0.89058934303E+00 -0.68425394829E+00  0.11802693704E+01  0.00000000000E+00 0.  1.
         11    1    3    3    0    0  0.48004189322E+01 -0.21269978468E+01  0.69691255777E+01  0.87256434343E+01  0.51100000000E-03 0. -1.
        -11    1    3    3    0    0  0.17503314970E+02  0.21324063472E+02 -0.31499996051E+02  0.41872801069E+02  0.51100000000E-03 0.  1.
         12    1    3    3    0    0 -0.22666615347E+02 -0.20087654968E+02  0.25215124422E+02  0.39409286126E+02  0.00000000000E+00 0. -1.
</event>
<event>
 7    1  0.3863655E-015  0.9000772E+02  0.7816164E-02  0.1186339E+00
        -11   -1    0    0    0    0  0.00000000000E+00  0.00000000000E+00  0.45593999997E+02  0.45594000000E+02  0.51100000000E-03 0. -1.
         11   -1    0    0    0    0 -0.00000000000E+00 -0.00000000000E+00 -0.45593999997E+02  0.45594000000E+02  0.51100000000E-03 0.  1.
    9900012    2    1    2    0    0 -0.75503526879E+00 -0.71697287502E+00  0.55580749767E+00  0.90007724466E+02  0.89999985629E+02 0.  0.
        -12    1    1    2    0    0  0.75503526879E+00  0.71697287502E+00 -0.55580749767E+00  0.11802755336E+01  0.00000000000E+00 0.  1.
         11    1    3    3    0    0 -0.81738345019E+01 -0.76926636537E+01 -0.10930100570E+02  0.15667027263E+02  0.51100000000E-03 0. -1.
        -11    1    3    3    0    0  0.55228195440E+01 -0.29986090783E+02 -0.93199552827E+01  0.31883047893E+02  0.51100000000E-03 0.  1.
         12    1    3    3    0    0  0.18959796891E+01  0.36961781562E+02  0.20805863350E+02  0.42457649310E+02  0.00000000000E+00 0. -1.
</event>
<event>
 7    1  0.3863655E-015  0.9000748E+02  0.7816164E-02  0.1186340E+00
        -11   -1    0    0    0    0  0.00000000000E+00  0.00000000000E+00  0.45593999997E+02  0.45594000000E+02  0.51100000000E-03 0.  1.
         11   -1    0    0    0    0 -0.00000000000E+00 -0.00000000000E+00 -0.45593999997E+02  0.45594000000E+02  0.51100000000E-03 0. -1.
    9900012    2    1    2    0    0 -0.69970678572E+00 -0.93111276009E+00  0.19255681082E+00  0.90007475251E+02  0.89999733124E+02 0.  0.
        -12    1    1    2    0    0  0.69970678572E+00  0.93111276009E+00 -0.19255681082E+00  0.11805247492E+01  0.00000000000E+00 0.  1.
         11    1    3    3    0    0 -0.23043400519E+02  0.30613660064E+02 -0.73418190852E+01  0.39014058976E+02  0.51100000000E-03 0. -1.
        -11    1    3    3    0    0  0.65607095015E+01  0.38722844763E+01 -0.62371734429E+01  0.98458026106E+01  0.51100000000E-03 0.  1.
        -12    1    3    3    0    0  0.15782984232E+02 -0.35417057301E+02  0.13771549339E+02  0.41147613665E+02  0.00000000000E+00 0.  1.
</event>
<event>
 7    1  0.3863655E-015  0.9000748E+02  0.7816164E-02  0.1186340E+00
        -11   -1    0    0    0    0  0.00000000000E+00  0.00000000000E+00  0.45593999997E+02  0.45594000000E+02  0.51100000000E-03 0. -1.
         11   -1    0    0    0    0 -0.00000000000E+00 -0.00000000000E+00 -0.45593999997E+02  0.45594000000E+02  0.51100000000E-03 0.  1.
    9900012    2    1    2    0    0 -0.57758060600E+00  0.83419346664E+00  0.60343844394E+00  0.90007484836E+02  0.89999742836E+02 0.  0.
        -12    1    1    2    0    0  0.57758060600E+00 -0.83419346664E+00 -0.60343844394E+00  0.11805151638E+01  0.00000000000E+00 0.  1.
         11    1    3    3    0    0 -0.98383028202E+00  0.23236064269E+01  0.65764009685E+01  0.70438710103E+01  0.51100000000E-03 0. -1.
        -11    1    3    3    0    0 -0.35544228714E+02  0.17804690411E+02 -0.12436436883E+02  0.41654101336E+02  0.51100000000E-03 0.  1.
         12    1    3    3    0    0  0.35950478390E+02 -0.19294103372E+02  0.64634743586E+01  0.41309512490E+02  0.00000000000E+00 0. -1.
</event>
<event>
 7    1  0.3863655E-015  0.9000778E+02  0.7816164E-02  0.1186339E+00
        -11   -1    0    0    0    0  0.00000000000E+00  0.00000000000E+00  0.45593999997E+02  0.45594000000E+02  0.51100000000E-03 0. -1.
         11   -1    0    0    0    0 -0.00000000000E+00 -0.00000000000E+00 -0.45593999997E+02  0.45594000000E+02  0.51100000000E-03 0.  1.
    9900012    2    1    2    0    0 -0.11099439501E+00  0.22584195862E+00  0.11530775420E+01  0.90007783001E+02  0.90000044937E+02 0.  0.
        -12    1    1    2    0    0  0.11099439501E+00 -0.22584195862E+00 -0.11530775420E+01  0.11802169986E+01  0.00000000000E+00 0.  1.
         11    1    3    3    0    0  0.16630235201E+01  0.75424674826E+01  0.19983625397E+01  0.79779644055E+01  0.51100000000E-03 0. -1.
        -11    1    3    3    0    0 -0.39870962831E+02  0.63985954116E+01 -0.72771547288E+01  0.41031605885E+02  0.51100000000E-03 0.  1.
         12    1    3    3    0    0  0.38096944916E+02 -0.13715220936E+02  0.64318697311E+01  0.40998212711E+02  0.00000000000E+00 0. -1.
</event>
<event>
 7    1  0.3863655E-015  0.9000782E+02  0.7816164E-02  0.1186339E+00
        -11   -1    0    0    0    0  0.00000000000E+00  0.00000000000E+00  0.45593999997E+02  0.45594000000E+02  0.51100000000E-03 0.  1.
         11   -1    0    0    0    0 -0.00000000000E+00 -0.00000000000E+00 -0.45593999997E+02  0.45594000000E+02  0.51100000000E-03 0. -1.
    9900012    2    1    2    0    0  0.19429134079E+00  0.89446267341E+00  0.74499822743E+00  0.90007815710E+02  0.90000078077E+02 0.  0.
        -12    1    1    2    0    0 -0.19429134079E+00 -0.89446267341E+00 -0.74499822743E+00  0.11801842899E+01  0.00000000000E+00 0.  1.
         11    1    3    3    0    0  0.19623179656E+02 -0.19914434879E+02  0.23966708997E+02  0.36824679724E+02  0.51100000000E-03 0. -1.
        -11    1    3    3    0    0  0.51760264190E+01  0.36183832849E+01  0.77876189258E+01  0.10026512648E+02  0.51100000000E-03 0.  1.
        -12    1    3    3    0    0 -0.24604914734E+02  0.17190514268E+02 -0.31009329695E+02  0.43156623338E+02  0.00000000000E+00 0.  1.
</event>
<event>
 7    1  0.3863655E-015  0.9000780E+02  0.7816164E-02  0.1186339E+00
        -11   -1    0    0    0    0  0.00000000000E+00  0.00000000000E+00  0.45593999997E+02  0.45594000000E+02  0.51100000000E-03 0. -1.
         11   -1    0    0    0    0 -0.00000000000E+00 -0.00000000000E+00 -0.45593999997E+02  0.45594000000E+02  0.51100000000E-03 0.  1.
    9900012    2    1    2    0    0  0.75091170182E+00 -0.39924619847E+00 -0.81829842306E+00  0.90007797382E+02  0.90000059507E+02 0.  0.
        -12    1    1    2    0    0 -0.75091170182E+00  0.39924619847E+00  0.81829842306E+00  0.11802026182E+01  0.00000000000E+00 0.  1.
         11    1    3    3    0    0 -0.12390311962E+02  0.17294360502E+00  0.13191273738E+01  0.12461534307E+02  0.51100000000E-03 0. -1.
        -11    1    3    3    0    0  0.23737060189E+01 -0.37126403191E+02  0.81300161310E+01  0.38080197698E+02  0.51100000000E-03 0.  1.
         12    1    3    3    0    0  0.10767517645E+02  0.36554213387E+02 -0.10267441928E+02  0.39466065377E+02  0.00000000000E+00 0. -1.
</event>
<event>
 7    1  0.3863655E-015  0.9000768E+02  0.7816164E-02  0.1186339E+00
        -11   -1    0    0    0    0  0.00000000000E+00  0.00000000000E+00  0.45593999997E+02  0.45594000000E+02  0.51100000000E-03 0. -1.
         11   -1    0    0    0    0 -0.00000000000E+00 -0.00000000000E+00 -0.45593999997E+02  0.45594000000E+02  0.51100000000E-03 0.  1.
    9900012    2    1    2    0    0 -0.11669259146E+01 -0.15465297863E+00 -0.86761875384E-01  0.90007677478E+02  0.89999938020E+02 0.  0.
        -12    1    1    2    0    0  0.11669259146E+01  0.15465297863E+00  0.86761875384E-01  0.11803225225E+01  0.00000000000E+00 0.  1.
         11    1    3    3    0    0  0.37005471468E+01 -0.81227837741E+01 -0.34462616108E+01  0.95681965269E+01  0.51100000000E-03 0. -1.
        -11    1    3    3    0    0  0.18348674614E+02 -0.30260583090E+02 -0.16898592962E+01  0.35429258724E+02  0.51100000000E-03 0.  1.
         12    1    3    3    0    0 -0.23216147675E+02  0.38228713886E+02  0.50493590316E+01  0.45010222226E+02  0.00000000000E+00 0. -1.
</event>
<event>
 7    1  0.3863655E-015  0.9000776E+02  0.7816164E-02  0.1186339E+00
        -11   -1    0    0    0    0  0.00000000000E+00  0.00000000000E+00  0.45593999997E+02  0.45594000000E+02  0.51100000000E-03 0.  1.
         11   -1    0    0    0    0 -0.00000000000E+00 -0.00000000000E+00 -0.45593999997E+02  0.45594000000E+02  0.51100000000E-03 0. -1.
    9900012    2    1    2    0    0 -0.27419805761E+00 -0.25005214407E+00 -0.11203777134E+01  0.90007764062E+02  0.90000025747E+02 0.  0.
        -12    1    1    2    0    0  0.27419805761E+00  0.25005214407E+00  0.11203777134E+01  0.11802359384E+01  0.00000000000E+00 0.  1.
         11    1    3    3    0    0  0.74050270672E+01  0.34350719792E+02 -0.66979555805E+00  0.35146194708E+02  0.51100000000E-03 0. -1.
        -11    1    3    3    0    0  0.39964256877E+01  0.83642328133E+01 -0.42076109701E+01  0.10180166952E+02  0.51100000000E-03 0.  1.
        -12    1    3    3    0    0 -0.11675650813E+02 -0.42965004750E+02  0.37570288147E+01  0.44681402401E+02  0.00000000000E+00 0.  1.
</event>
<event>
 7    1  0.3863655E-015  0.9000773E+02  0.7816164E-02  0.1186339E+00
        -11   -1    0    0    0    0  0.00000000000E+00  0.00000000000E+00  0.45593999997E+02  0.45594000000E+02  0.51100000000E-03 0.  1.
         11   -1    0    0    0    0 -0.00000000000E+00 -0.00000000000E+00 -0.45593999997E+02  0.45594000000E+02  0.51100000000E-03 0. -1.
    9900012    2    1    2    0    0 -0.85485214219E-01  0.47795364419E+00 -0.10757760119E+01  0.90007728237E+02  0.89999989449E+02 0.  0.
        -12    1    1    2    0    0  0.85485214219E-01 -0.47795364419E+00  0.10757760119E+01  0.11802717635E+01  0.00000000000E+00 0.  1.
         11    1    3    3    0    0  0.11123280848E-01  0.10141843755E+01 -0.92177277331E+01  0.92733596122E+01  0.51100000000E-03 0. -1.
        -11    1    3    3    0    0  0.29757026890E+02 -0.24030714336E+02  0.16791736634E+02  0.41772219241E+02  0.51100000000E-03 0.  1.
         12    1    3    3    0    0 -0.29853635386E+02  0.23494483604E+02 -0.86497849127E+01  0.38962149384E+02  0.00000000000E+00 0. -1.
</event>
<event>
 7    1  0.3863655E-015  0.9000770E+02  0.7816164E-02  0.1186339E+00
        -11   -1    0    0    0    0  0.00000000000E+00  0.00000000000E+00  0.45593999997E+02  0.45594000000E+02  0.51100000000E-03 0.  1.
         11   -1    0    0    0    0 -0.00000000000E+00 -0.00000000000E+00 -0.45593999997E+02  0.45594000000E+02  0.51100000000E-03 0. -1.
    9900012    2    1    2    0    0 -0.10925781115E+01 -0.44611618207E+00  0.18860421766E-01  0.90007702456E+02  0.89999963328E+02 0.  0.
        -12    1    1    2    0    0  0.10925781115E+01  0.44611618207E+00 -0.18860421766E-01  0.11802975443E+01  0.00000000000E+00 0.  1.
         11    1    3    3    0    0  0.28524664082E+02 -0.15802527143E+02  0.20895524852E+02  0.38729824221E+02  0.51100000000E-03 0. -1.
        -11    1    3    3    0    0  0.72429338694E+00 -0.82149572105E+01 -0.53932778747E+01  0.98538098914E+01  0.51100000000E-03 0.  1.
        -12    1    3    3    0    0 -0.30341535580E+02  0.23571368172E+02 -0.15483386556E+02  0.41424068343E+02  0.00000000000E+00 0.  1.
</event>
<event>
 7    1  0.3863655E-015  0.9000765E+02  0.7816164E-02  0.1186339E+00
        -11   -1    0    0    0    0  0.00000000000E+00  0.00000000000E+00  0.45593999997E+02  0.45594000000E+02  0.51100000000E-03 0. -1.
         11   -1    0    0    0    0 -0.00000000000E+00 -0.00000000000E+00 -0.45593999997E+02  0.45594000000E+02  0.51100000000E-03 0.  1.
    9900012    2    1    2    0    0 -0.46199421189E+00  0.10640956323E+01 -0.21792757917E+00  0.90007648105E+02  0.89999908260E+02 0.  0.
        -12    1    1    2    0    0  0.46199421189E+00 -0.10640956323E+01  0.21792757917E+00  0.11803518951E+01  0.00000000000E+00 0.  1.
         11    1    3    3    0    0 -0.11361661473E+02  0.82318090625E+01 -0.12874435772E+02  0.19042088346E+02  0.51100000000E-03 0. -1.
        -11    1    3    3    0    0  0.39903977318E+01 -0.70257617471E+00 -0.28473904600E+02  0.28760739399E+02  0.51100000000E-03 0.  1.
         12    1    3    3    0    0  0.69092695295E+01 -0.64651372555E+01  0.41130412792E+02  0.42204820360E+02  0.00000000000E+00 0. -1.
</event>
<event>
 7    1  0.3863655E-015  0.9000776E+02  0.7816164E-02  0.1186339E+00
        -11   -1    0    0    0    0  0.00000000000E+00  0.00000000000E+00  0.45593999997E+02  0.45594000000E+02  0.51100000000E-03 0. -1.
         11   -1    0    0    0    0 -0.00000000000E+00 -0.00000000000E+00 -0.45593999997E+02  0.45594000000E+02  0.51100000000E-03 0.  1.
    9900012    2    1    2    0    0  0.37545475262E-01 -0.39611578410E-01  0.11789779769E+01  0.90007759427E+02  0.90000021052E+02 0.  0.
        -12    1    1    2    0    0 -0.37545475262E-01  0.39611578410E-01 -0.11789779769E+01  0.11802405729E+01  0.00000000000E+00 0.  1.
         11    1    3    3    0    0 -0.29575963998E+01 -0.20211844156E+02  0.35554672996E+02  0.41004887425E+02  0.51100000000E-03 0. -1.
        -11    1    3    3    0    0  0.14556382412E+01 -0.61557858838E+01 -0.90430589183E+00  0.63898632179E+01  0.51100000000E-03 0.  1.
        -12    1    3    3    0    0  0.15395036338E+01  0.26328018461E+02 -0.33471389127E+02  0.42613008784E+02  0.00000000000E+00 0.  1.
</event>
<event>
 7    1  0.3863655E-015  0.9000773E+02  0.7816164E-02  0.1186339E+00
        -11   -1    0    0    0    0  0.00000000000E+00  0.00000000000E+00  0.45593999997E+02  0.45594000000E+02  0.51100000000E-03 0.  1.
         11   -1    0    0    0    0 -0.00000000000E+00 -0.00000000000E+00 -0.45593999997E+02  0.45594000000E+02  0.51100000000E-03 0. -1.
    9900012    2    1    2    0    0  0.84410074538E+00 -0.22259690781E+00 -0.79434750416E+00  0.90007727401E+02  0.89999988602E+02 0.  0.
        -12    1    1    2    0    0 -0.84410074538E+00  0.22259690781E+00  0.79434750416E+00  0.11802725995E+01  0.00000000000E+00 0.  1.
         11    1    3    3    0    0 -0.25815402781E+02 -0.13265853871E+02  0.21217985722E+02  0.35953036284E+02  0.51100000000E-03 0. -1.
        -11    1    3    3    0    0  0.42835954799E+01 -0.76154629740E+01  0.75975258288E+01  0.11578724693E+02  0.51100000000E-03 0.  1.
        -12    1    3    3    0    0  0.22375908047E+02  0.20658719937E+02 -0.29609859055E+02  0.42475966423E+02  0.00000000000E+00 0.  1.
</event>
<event>
 7    1  0.3863655E-015  0.9000775E+02  0.7816164E-02  0.1186339E+00
        -11   -1    0    0    0    0  0.00000000000E+00  0.00000000000E+00  0.45593999997E+02  0.45594000000E+02  0.51100000000E-03 0.  1.
         11   -1    0    0    0    0 -0.00000000000E+00 -0.00000000000E+00 -0.45593999997E+02  0.45594000000E+02  0.51100000000E-03 0. -1.
    9900012    2    1    2    0    0 -0.51051464346E+00 -0.26416306307E+00 -0.10308119638E+01  0.90007753996E+02  0.90000015549E+02 0.  0.
        -12    1    1    2    0    0  0.51051464346E+00  0.26416306307E+00  0.10308119638E+01  0.11802460039E+01  0.00000000000E+00 0.  1.
         11    1    3    3    0    0 -0.63423008903E+01  0.85599160229E+01 -0.77645739098E+01  0.13182774790E+02  0.51100000000E-03 0. -1.
        -11    1    3    3    0    0 -0.11470211069E+02 -0.37731047107E+02  0.14905227584E+02  0.42158788732E+02  0.51100000000E-03 0.  1.
         12    1    3    3    0    0  0.17301997315E+02  0.28906968021E+02 -0.81714656385E+01  0.34666190474E+02  0.00000000000E+00 0. -1.
</event>
<event>
 7    1  0.3863655E-015  0.9000768E+02  0.7816164E-02  0.1186339E+00
        -11   -1    0    0    0    0  0.00000000000E+00  0.00000000000E+00  0.45593999997E+02  0.45594000000E+02  0.51100000000E-03 0.  1.
         11   -1    0    0    0    0 -0.00000000000E+00 -0.00000000000E+00 -0.45593999997E+02  0.45594000000E+02  0.51100000000E-03 0. -1.
    9900012    2    1    2    0    0  0.44383560478E+00  0.84925558019E+00 -0.68915417618E+00  0.90007678619E+02  0.89999939176E+02 0.  0.
        -12    1    1    2    0    0 -0.44383560478E+00 -0.84925558019E+00  0.68915417618E+00  0.11803213813E+01  0.00000000000E+00 0.  1.
         11    1    3    3    0    0 -0.45844517913E+01  0.77984168139E+01 -0.28683831427E+01  0.94900013248E+01  0.51100000000E-03 0. -1.
        -11    1    3    3    0    0 -0.23538875005E+02  0.26507912861E+02  0.74012044542E+01  0.36214995629E+02  0.51100000000E-03 0.  1.
         12    1    3    3    0    0  0.28567162401E+02 -0.33457074095E+02 -0.52219754877E+01  0.44302681665E+02  0.00000000000E+00 0. -1.
</event>
<event>
 7    1  0.3863655E-015  0.9000770E+02  0.7816164E-02  0.1186339E+00
        -11   -1    0    0    0    0  0.00000000000E+00  0.00000000000E+00  0.45593999997E+02  0.45594000000E+02  0.51100000000E-03 0. -1.
         11   -1    0    0    0    0 -0.00000000000E+00 -0.00000000000E+00 -0.45593999997E+02  0.45594000000E+02  0.51100000000E-03 0.  1.
    9900012    2    1    2    0    0  0.92958322509E+00 -0.69702801910E+00  0.20769206603E+00  0.90007699603E+02  0.89999960438E+02 0.  0.
        -12    1    1    2    0    0 -0.92958322509E+00  0.69702801910E+00 -0.20769206603E+00  0.11803003965E+01  0.00000000000E+00 0.  1.
         11    1    3    3    0    0  0.19433559778E+02 -0.11391095772E+02  0.32450867632E+02  0.39502900132E+02  0.51100000000E-03 0. -1.
        -11    1    3    3    0    0 -0.13023023589E+02 -0.61649334668E+01 -0.82722356441E+00  0.14432250245E+02  0.51100000000E-03 0.  1.
        -12    1    3    3    0    0 -0.54809529643E+01  0.16859001220E+02 -0.31415952002E+02  0.36072549226E+02  0.00000000000E+00 0.  1.
</event>
<event>
 7    1  0.3863655E-015  0.9000766E+02  0.7816164E-02  0.1186339E+00
        -11   -1    0    0    0    0  0.00000000000E+00  0.00000000000E+00  0.45593999997E+02  0.45594000000E+02  0.51100000000E-03 0. -1.
         11   -1    0    0    0    0 -0.00000000000E+00 -0.00000000000E+00 -0.45593999997E+02  0.45594000000E+02  0.51100000000E-03 0.  1.
    9900012    2    1    2    0    0  0.11897056607E+00 -0.59830452154E+00  0.10104794667E+01  0.90007664857E+02  0.89999925234E+02 0.  0.
        -12    1    1    2    0    0 -0.11897056607E+00  0.59830452154E+00 -0.10104794667E+01  0.11803351426E+01  0.00000000000E+00 0.  1.
         11    1    3    3    0    0 -0.21678098811E+01 -0.65041638149E+01 -0.54819331362E+01  0.87781055919E+01  0.51100000000E-03 0. -1.
        -11    1    3    3    0    0 -0.14515157626E+02  0.33424525382E+02 -0.18091362808E+02  0.40683978498E+02  0.51100000000E-03 0.  1.
         12    1    3    3    0    0  0.16801938073E+02 -0.27518666088E+02  0.24583775411E+02  0.40545580768E+02  0.00000000000E+00 0. -1.
</event>
<event>
 7    1  0.3863655E-015  0.9000780E+02  0.7816164E-02  0.1186339E+00
        -11   -1    0    0    0    0  0.00000000000E+00  0.00000000000E+00  0.45593999997E+02  0.45594000000E+02  0.51100000000E-03 0.  1.
         11   -1    0    0    0    0 -0.00000000000E+00 -0.00000000000E+00 -0.45593999997E+02  0.45594000000E+02  0.51100000000E-03 0. -1.
    9900012    2    1    2    0    0  0.48648944724E+00  0.10448789575E+01 -0.25381904865E+00  0.90007801658E+02  0.90000063839E+02 0.  0.
        -12    1    1    2    0    0 -0.48648944724E+00 -0.10448789575E+01  0.25381904865E+00  0.11801983424E+01  0.00000000000E+00 0.  1.
         11    1    3    3    0    0 -0.62460334236E+01 -0.10335599323E+02 -0.24800138000E+01  0.12328341965E+02  0.51100000000E-03 0. -1.
        -11    1    3    3    0    0  0.39387474102E+02  0.18507944767E+02  0.64328696572E+01  0.43992032778E+02  0.51100000000E-03 0.  1.
         12    1    3    3    0    0 -0.32654951231E+02 -0.71274664870E+01 -0.42066749058E+01  0.33687426915E+02  0.00000000000E+00 0. -1.
</event>
<event>
 7    1  0.3863655E-015  0.9000783E+02  0.7816164E-02  0.1186339E+00
        -11   -1    0    0    0    0  0.00000000000E+00  0.00000000000E+00  0.45593999997E+02  0.45594000000E+02  0.51100000000E-03 0.  1.
         11   -1    0    0    0    0 -0.00000000000E+00 -0.00000000000E+00 -0.45593999997E+02  0.45594000000E+02  0.51100000000E-03 0. -1.
    9900012    2    1    2    0    0 -0.40468142127E+00 -0.95571185232E+00 -0.56183039160E+00  0.90007828154E+02  0.90000090685E+02 0.  0.
        -12    1    1    2    0    0  0.40468142127E+00  0.95571185232E+00  0.56183039160E+00  0.11801718461E+01  0.00000000000E+00 0.  1.
         11    1    3    3    0    0  0.23933472377E+01 -0.77122755274E+01  0.38046472887E+01  0.89265136567E+01  0.51100000000E-03 0. -1.
        -11    1    3    3    0    0  0.65342519262E+01 -0.24350711328E+02  0.26286559906E+02  0.36423025991E+02  0.51100000000E-03 0.  1.
         12    1    3    3    0    0 -0.93322805852E+01  0.31107275003E+02 -0.30653037586E+02  0.44658288506E+02  0.00000000000E+00 0. -1.
</event>
<event>
 7    1  0.3863655E-015  0.9000763E+02  0.7816164E-02  0.1186339E+00
        -11   -1    0    0    0    0  0.00000000000E+00  0.00000000000E+00  0.45593999997E+02  0.45594000000E+02  0.51100000000E-03 0. -1.
         11   -1    0    0    0    0 -0.00000000000E+00 -0.00000000000E+00 -0.45593999997E+02  0.45594000000E+02  0.51100000000E-03 0.  1.
    9900012    2    1    2    0    0 -0.17331820156E+00 -0.61576720181E+00  0.99200515670E+00  0.90007626044E+02  0.89999885907E+02 0.  0.
        -12    1    1    2    0    0  0.17331820156E+00  0.61576720181E+00 -0.99200515670E+00  0.11803739563E+01  0.00000000000E+00 0.  1.
         11    1    3    3    0    0 -0.78443881274E+01 -0.15373469919E+01  0.81100593981E+01  0.11387314195E+02  0.51100000000E-03 0. -1.
        -11    1    3    3    0    0 -0.29599699854E+02 -0.17207008804E+02 -0.13271919367E+02  0.36720120198E+02  0.51100000000E-03 0.  1.
         12    1    3    3    0    0  0.37270769780E+02  0.18128588594E+02  0.61538651254E+01  0.41900191651E+02  0.00000000000E+00 0. -1.
</event>
<event>
 7    1  0.3863655E-015  0.9000765E+02  0.7816164E-02  0.1186339E+00
        -11   -1    0    0    0    0  0.00000000000E+00  0.00000000000E+00  0.45593999997E+02  0.45594000000E+02  0.51100000000E-03 0. -1.
         11   -1    0    0    0    0 -0.00000000000E+00 -0.00000000000E+00 -0.45593999997E+02  0.45594000000E+02  0.51100000000E-03 0.  1.
    9900012    2    1    2    0    0 -0.11789209769E+01  0.16000255988E-01  0.55816374154E-01  0.90007649990E+02  0.89999910170E+02 0.  0.
        -12    1    1    2    0    0  0.11789209769E+01 -0.16000255988E-01 -0.55816374154E-01  0.11803500098E+01  0.00000000000E+00 0.  1.
         11    1    3    3    0    0  0.39629350098E+01  0.71216459698E+01 -0.50969479642E+01  0.96125737460E+01  0.51100000000E-03 0. -1.
        -11    1    3    3    0    0  0.13755193446E+02 -0.23256393214E+02 -0.28030771942E+02  0.38933139457E+02  0.51100000000E-03 0.  1.
         12    1    3    3    0    0 -0.18897049433E+02  0.16150747500E+02  0.33183536280E+02  0.41461936787E+02  0.00000000000E+00 0. -1.
</event>
<event>
 7    1  0.3863655E-015  0.9000773E+02  0.7816164E-02  0.1186339E+00
        -11   -1    0    0    0    0  0.00000000000E+00  0.00000000000E+00  0.45593999997E+02  0.45594000000E+02  0.51100000000E-03 0.  1.
         11   -1    0    0    0    0 -0.00000000000E+00 -0.00000000000E+00 -0.45593999997E+02  0.45594000000E+02  0.51100000000E-03 0. -1.
    9900012    2    1    2    0    0  0.52881297623E+00 -0.10515002338E+01 -0.87969773512E-01  0.90007731138E+02  0.89999992389E+02 0.  0.
        -12    1    1    2    0    0 -0.52881297623E+00  0.10515002338E+01  0.87969773512E-01  0.11802688620E+01  0.00000000000E+00 0.  1.
         11    1    3    3    0    0  0.33829141372E+01 -0.61914086171E+01 -0.87951650488E+01  0.11275308298E+02  0.51100000000E-03 0. -1.
        -11    1    3    3    0    0 -0.25692909535E+02  0.30350404107E+02  0.17730023428E+02  0.43538791449E+02  0.51100000000E-03 0.  1.
         12    1    3    3    0    0  0.22838808374E+02 -0.25210495724E+02 -0.90228281529E+01  0.35193631391E+02  0.00000000000E+00 0. -1.
</event>
<event>
 7    1  0.3863655E-015  0.9000785E+02  0.7816164E-02  0.1186339E+00
        -11   -1    0    0    0    0  0.00000000000E+00  0.00000000000E+00  0.45593999997E+02  0.45594000000E+02  0.51100000000E-03 0.  1.
         11   -1    0    0    0    0 -0.00000000000E+00 -0.00000000000E+00 -0.45593999997E+02  0.45594000000E+02  0.51100000000E-03 0. -1.
    9900012    2    1    2    0    0  0.24100405586E+00  0.11551554462E+01  0.16867805064E-01  0.90007851034E+02  0.90000113867E+02 0.  0.
        -12    1    1    2    0    0 -0.24100405586E+00 -0.11551554462E+01 -0.16867805064E-01  0.11801489664E+01  0.00000000000E+00 0.  1.
         11    1    3    3    0    0 -0.25507362506E+02  0.73915772038E+01 -0.21132270572E+02  0.33938677278E+02  0.51100000000E-03 0. -1.
        -11    1    3    3    0    0  0.49832897253E+01  0.93501656383E+01 -0.10645880914E+02  0.15019772123E+02  0.51100000000E-03 0.  1.
        -12    1    3    3    0    0  0.20765076836E+02 -0.15586587396E+02  0.31795019291E+02  0.41049401633E+02  0.00000000000E+00 0.  1.
</event>
<event>
 7    1  0.3863655E-015  0.9000764E+02  0.7816164E-02  0.1186339E+00
        -11   -1    0    0    0    0  0.00000000000E+00  0.00000000000E+00  0.45593999997E+02  0.45594000000E+02  0.51100000000E-03 0.  1.
         11   -1    0    0    0    0 -0.00000000000E+00 -0.00000000000E+00 -0.45593999997E+02  0.45594000000E+02  0.51100000000E-03 0. -1.
    9900012    2    1    2    0    0 -0.78867622427E-01  0.80360144803E+00  0.86095518901E+00  0.90007644449E+02  0.89999904556E+02 0.  0.
        -12    1    1    2    0    0  0.78867622427E-01 -0.80360144803E+00 -0.86095518901E+00  0.11803555509E+01  0.00000000000E+00 0.  1.
         11    1    3    3    0    0 -0.23919763909E+01 -0.13952783680E+02 -0.13068080748E+02  0.19265940366E+02  0.51100000000E-03 0. -1.
        -11    1    3    3    0    0  0.86208459094E+01 -0.32794039853E+01  0.38515075351E+02  0.39604097064E+02  0.51100000000E-03 0.  1.
         12    1    3    3    0    0 -0.63077371409E+01  0.18035789114E+02 -0.24586039414E+02  0.31137607019E+02  0.00000000000E+00 0. -1.
</event>
<event>
 7    1  0.3863655E-015  0.9000769E+02  0.7816164E-02  0.1186339E+00
        -11   -1    0    0    0    0  0.00000000000E+00  0.00000000000E+00  0.45593999997E+02  0.45594000000E+02  0.51100000000E-03 0. -1.
         11   -1    0    0    0    0 -0.00000000000E+00 -0.00000000000E+00 -0.45593999997E+02  0.45594000000E+02  0.51100000000E-03 0.  1.
    9900012    2    1    2    0    0  0.42992218553E+00 -0.18614316457E+00  0.10833486957E+01  0.90007692091E+02  0.89999952827E+02 0.  0.
        -12    1    1    2    0    0 -0.42992218553E+00  0.18614316457E+00 -0.10833486957E+01  0.11803079089E+01  0.00000000000E+00 0.  1.
         11    1    3    3    0    0 -0.19184839683E+01 -0.62554651187E+01  0.43446488448E+02  0.43936417507E+02  0.51100000000E-03 0. -1.
        -11    1    3    3    0    0  0.57790250980E+01  0.17377666108E+01 -0.38376251665E+01  0.71515264844E+01  0.51100000000E-03 0.  1.
        -12    1    3    3    0    0 -0.34306189442E+01  0.43315553434E+01 -0.38525514586E+02  0.38919748100E+02  0.00000000000E+00 0.  1.
</event>
<event>
 7    1  0.3863655E-015  0.9000770E+02  0.7816164E-02  0.1186339E+00
        -11   -1    0    0    0    0  0.00000000000E+00  0.00000000000E+00  0.45593999997E+02  0.45594000000E+02  0.51100000000E-03 0.  1.
         11   -1    0    0    0    0 -0.00000000000E+00 -0.00000000000E+00 -0.45593999997E+02  0.45594000000E+02  0.51100000000E-03 0. -1.
    9900012    2    1    2    0    0 -0.96281774962E+00  0.15820389134E+00 -0.66413350977E+00  0.90007695036E+02  0.89999955810E+02 0.  0.
        -12    1    1    2    0    0  0.96281774962E+00 -0.15820389134E+00  0.66413350977E+00  0.11803049644E+01  0.00000000000E+00 0.  1.
         11    1    3    3    0    0 -0.18605123149E+02  0.21413770629E+02 -0.32289523015E+02  0.42980384790E+02  0.51100000000E-03 0. -1.
        -11    1    3    3    0    0 -0.83944787613E-01 -0.91210675872E+01  0.40510170842E+00  0.91304451322E+01  0.51100000000E-03 0.  1.
        -12    1    3    3    0    0  0.17726250187E+02 -0.12134499150E+02  0.31220287796E+02  0.37896865113E+02  0.00000000000E+00 0.  1.
</event>
<event>
 7    1  0.3863655E-015  0.9000766E+02  0.7816164E-02  0.1186339E+00
        -11   -1    0    0    0    0  0.00000000000E+00  0.00000000000E+00  0.45593999997E+02  0.45594000000E+02  0.51100000000E-03 0.  1.
         11   -1    0    0    0    0 -0.00000000000E+00 -0.00000000000E+00 -0.45593999997E+02  0.45594000000E+02  0.51100000000E-03 0. -1.
    9900012    2    1    2    0    0  0.66117749889E+00 -0.96894634412E+00 -0.13111307723E+00  0.90007659650E+02  0.89999919957E+02 0.  0.
        -12    1    1    2    0    0 -0.66117749889E+00  0.96894634412E+00  0.13111307723E+00  0.11803403500E+01  0.00000000000E+00 0.  1.
         11    1    3    3    0    0 -0.49533036266E+01 -0.99877795225E+01  0.28999461475E+01  0.11519576578E+02  0.51100000000E-03 0. -1.
        -11    1    3    3    0    0 -0.34935698247E+02 -0.48682153424E+01 -0.47488358939E+01  0.35591487398E+02  0.51100000000E-03 0.  1.
         12    1    3    3    0    0  0.40550179372E+02  0.13887048521E+02  0.17177766692E+01  0.42896595674E+02  0.00000000000E+00 0. -1.
</event>
<event>
 7    1  0.3863655E-015  0.9000742E+02  0.7816164E-02  0.1186340E+00
        -11   -1    0    0    0    0  0.00000000000E+00  0.00000000000E+00  0.45593999997E+02  0.45594000000E+02  0.51100000000E-03 0. -1.
         11   -1    0    0    0    0 -0.00000000000E+00 -0.00000000000E+00 -0.45593999997E+02  0.45594000000E+02  0.51100000000E-03 0.  1.
    9900012    2    1    2    0    0 -0.21274190273E+00 -0.34357889793E+00  0.11092655267E+01  0.90007417269E+02  0.89999674376E+02 0.  0.
        -12    1    1    2    0    0  0.21274190273E+00  0.34357889793E+00 -0.11092655267E+01  0.11805827311E+01  0.00000000000E+00 0.  1.
         11    1    3    3    0    0  0.22934718289E+02 -0.18819948217E+02  0.28725036822E+02  0.41295514219E+02  0.51100000000E-03 0. -1.
        -11    1    3    3    0    0 -0.28549820200E+01 -0.69659619707E+01 -0.42111940212E+01  0.86261059498E+01  0.51100000000E-03 0.  1.
        -12    1    3    3    0    0 -0.20292478172E+02  0.25442331290E+02 -0.23404577274E+02  0.40085797101E+02  0.00000000000E+00 0.  1.
</event>
<event>
 7    1  0.3863655E-015  0.9000777E+02  0.7816164E-02  0.1186339E+00
        -11   -1    0    0    0    0  0.00000000000E+00  0.00000000000E+00  0.45593999997E+02  0.45594000000E+02  0.51100000000E-03 0.  1.
         11   -1    0    0    0    0 -0.00000000000E+00 -0.00000000000E+00 -0.45593999997E+02  0.45594000000E+02  0.51100000000E-03 0. -1.
    9900012    2    1    2    0    0  0.90016789769E+00  0.47902528033E+00  0.59429021559E+00  0.90007767682E+02  0.90000029416E+02 0.  0.
        -12    1    1    2    0    0 -0.90016789769E+00 -0.47902528033E+00 -0.59429021559E+00  0.11802323176E+01  0.00000000000E+00 0.  1.
         11    1    3    3    0    0  0.14805726432E+02 -0.34163302474E+02 -0.35313545472E+01  0.37400684971E+02  0.51100000000E-03 0. -1.
        -11    1    3    3    0    0 -0.15422137448E+01 -0.78949275966E+01 -0.55321652318E+00  0.80631478824E+01  0.51100000000E-03 0.  1.
        -12    1    3    3    0    0 -0.12363344789E+02  0.42537255351E+02  0.46788612860E+01  0.44543934829E+02  0.00000000000E+00 0.  1.
</event>
<event>
 7    1  0.3863655E-015  0.9000774E+02  0.7816164E-02  0.1186339E+00
        -11   -1    0    0    0    0  0.00000000000E+00  0.00000000000E+00  0.45593999997E+02  0.45594000000E+02  0.51100000000E-03 0.  1.
         11   -1    0    0    0    0 -0.00000000000E+00 -0.00000000000E+00 -0.45593999997E+02  0.45594000000E+02  0.51100000000E-03 0. -1.
    9900012    2    1    2    0    0  0.91689153545E-02  0.59464033945E+00 -0.10194765772E+01  0.90007739989E+02  0.90000001357E+02 0.  0.
        -12    1    1    2    0    0 -0.91689153545E-02 -0.59464033945E+00  0.10194765772E+01  0.11802600111E+01  0.00000000000E+00 0.  1.
         11    1    3    3    0    0  0.37080869972E+02  0.84959161625E+01 -0.89420344622E+01  0.39078529782E+02  0.51100000000E-03 0. -1.
        -11    1    3    3    0    0 -0.17188550823E+00 -0.14065558506E+01 -0.95030774139E+01  0.96081436597E+01  0.51100000000E-03 0.  1.
        -12    1    3    3    0    0 -0.36899815549E+02 -0.64947199724E+01  0.17425635299E+02  0.41321066547E+02  0.00000000000E+00 0.  1.
</event>
<event>
 7    1  0.3863655E-015  0.9000785E+02  0.7816164E-02  0.1186339E+00
        -11   -1    0    0    0    0  0.00000000000E+00  0.00000000000E+00  0.45593999997E+02  0.45594000000E+02  0.51100000000E-03 0.  1.
         11   -1    0    0    0    0 -0.00000000000E+00 -0.00000000000E+00 -0.45593999997E+02  0.45594000000E+02  0.51100000000E-03 0. -1.
    9900012    2    1    2    0    0 -0.10257947428E+01 -0.55518425974E+00  0.17965734122E+00  0.90007846969E+02  0.90000109749E+02 0.  0.
        -12    1    1    2    0    0  0.10257947428E+01  0.55518425974E+00 -0.17965734122E+00  0.11801530311E+01  0.00000000000E+00 0.  1.
         11    1    3    3    0    0 -0.73746951549E-01  0.81923917446E+01  0.32987287659E+01  0.88318929365E+01  0.51100000000E-03 0. -1.
        -11    1    3    3    0    0  0.16380036373E+02 -0.14833386748E+02  0.33543754572E+02  0.40168624883E+02  0.51100000000E-03 0.  1.
         12    1    3    3    0    0 -0.17332084164E+02  0.60858107437E+01 -0.36662825996E+02  0.41007329149E+02  0.00000000000E+00 0. -1.
</event>
<event>
 7    1  0.3863655E-015  0.9000767E+02  0.7816164E-02  0.1186339E+00
        -11   -1    0    0    0    0  0.00000000000E+00  0.00000000000E+00  0.45593999997E+02  0.45594000000E+02  0.51100000000E-03 0. -1.
         11   -1    0    0    0    0 -0.00000000000E+00 -0.00000000000E+00 -0.45593999997E+02  0.45594000000E+02  0.51100000000E-03 0.  1.
    9900012    2    1    2    0    0  0.32135626194E+00  0.11357333943E+01 -0.51327755485E-02  0.90007666769E+02  0.89999927171E+02 0.  0.
        -12    1    1    2    0    0 -0.32135626194E+00 -0.11357333943E+01  0.51327755485E-02  0.11803332307E+01  0.00000000000E+00 0.  1.
         11    1    3    3    0    0 -0.31789498509E+02 -0.21436063299E+02  0.28618154739E+01  0.38448238104E+02  0.51100000000E-03 0. -1.
        -11    1    3    3    0    0 -0.42292295682E+01 -0.15152245874E+01 -0.63990516774E+01  0.78185772953E+01  0.51100000000E-03 0.  1.
        -12    1    3    3    0    0  0.36340084339E+02  0.24087021281E+02  0.35321034280E+01  0.43740851370E+02  0.00000000000E+00 0.  1.
</event>
<event>
 7    1  0.3863655E-015  0.9000775E+02  0.7816164E-02  0.1186339E+00
        -11   -1    0    0    0    0  0.00000000000E+00  0.00000000000E+00  0.45593999997E+02  0.45594000000E+02  0.51100000000E-03 0.  1.
         11   -1    0    0    0    0 -0.00000000000E+00 -0.00000000000E+00 -0.45593999997E+02  0.45594000000E+02  0.51100000000E-03 0. -1.
    9900012    2    1    2    0    0  0.33495559101E+00 -0.10114066248E+01 -0.50779470435E+00  0.90007748302E+02  0.90000009780E+02 0.  0.
        -12    1    1    2    0    0 -0.33495559101E+00  0.10114066248E+01  0.50779470435E+00  0.11802516979E+01  0.00000000000E+00 0.  1.
         11    1    3    3    0    0  0.33187740900E+01  0.74723733758E+01 -0.68826554471E+00  0.82051407696E+01  0.51100000000E-03 0. -1.
        -11    1    3    3    0    0 -0.30227708249E+02  0.12967021799E+02  0.23139454916E+02  0.40215573780E+02  0.51100000000E-03 0.  1.
         12    1    3    3    0    0  0.27243889750E+02 -0.21450801799E+02 -0.22958984076E+02  0.41587033753E+02  0.00000000000E+00 0. -1.
</event>
<event>
 7    1  0.3863655E-015  0.9000778E+02  0.7816164E-02  0.1186339E+00
        -11   -1    0    0    0    0  0.00000000000E+00  0.00000000000E+00  0.45593999997E+02  0.45594000000E+02  0.51100000000E-03 0.  1.
         11   -1    0    0    0    0 -0.00000000000E+00 -0.00000000000E+00 -0.45593999997E+02  0.45594000000E+02  0.51100000000E-03 0. -1.
    9900012    2    1    2    0    0 -0.93583957219E+00  0.71692678563E+00  0.55980855792E-01  0.90007782403E+02  0.90000044330E+02 0.  0.
        -12    1    1    2    0    0  0.93583957219E+00 -0.71692678563E+00 -0.55980855792E-01  0.11802175973E+01  0.00000000000E+00 0.  1.
         11    1    3    3    0    0  0.89579789136E+01  0.50920374336E+01 -0.11821286239E+02  0.15681742252E+02  0.51100000000E-03 0. -1.
        -11    1    3    3    0    0 -0.24660667613E+01 -0.13886186240E+02  0.40702464206E+02  0.43076655468E+02  0.51100000000E-03 0.  1.
         12    1    3    3    0    0 -0.74277517244E+01  0.95110755922E+01 -0.28825197111E+02  0.31249384684E+02  0.00000000000E+00 0. -1.
</event>
<event>
 7    1  0.3863655E-015  0.9000777E+02  0.7816164E-02  0.1186339E+00
        -11   -1    0    0    0    0  0.00000000000E+00  0.00000000000E+00  0.45593999997E+02  0.45594000000E+02  0.51100000000E-03 0.  1.
         11   -1    0    0    0    0 -0.00000000000E+00 -0.00000000000E+00 -0.45593999997E+02  0.45594000000E+02  0.51100000000E-03 0. -1.
    9900012    2    1    2    0    0 -0.21775097677E+00 -0.11326509422E+01 -0.25025627416E+00  0.90007770426E+02  0.90000032196E+02 0.  0.
        -12    1    1    2    0    0  0.21775097677E+00  0.11326509422E+01  0.25025627416E+00  0.11802295741E+01  0.00000000000E+00 0.  1.
         11    1    3    3    0    0  0.31392972376E+02 -0.80630783365E+01 -0.16119644396E+02  0.36199100577E+02  0.51100000000E-03 0. -1.
        -11    1    3    3    0    0  0.64980593311E+01 -0.20308029097E+01 -0.59052508905E+01  0.90122651908E+01  0.51100000000E-03 0.  1.
        -12    1    3    3    0    0 -0.38108782684E+02  0.89612303040E+01  0.21774639012E+02  0.44796404658E+02  0.00000000000E+00 0.  1.
</event>
<event>
 7    1  0.3863655E-015  0.9000785E+02  0.7816164E-02  0.1186339E+00
        -11   -1    0    0    0    0  0.00000000000E+00  0.00000000000E+00  0.45593999997E+02  0.45594000000E+02  0.51100000000E-03 0.  1.
         11   -1    0    0    0    0 -0.00000000000E+00 -0.00000000000E+00 -0.45593999997E+02  0.45594000000E+02  0.51100000000E-03 0. -1.
    9900012    2    1    2    0    0 -0.21976381813E+00 -0.42570331844E+00 -0.10785359003E+01  0.90007847832E+02  0.90000110623E+02 0.  0.
        -12    1    1    2    0    0  0.21976381813E+00  0.42570331844E+00  0.10785359003E+01  0.11801521679E+01  0.00000000000E+00 0.  1.
         11    1    3    3    0    0  0.33604604248E+02 -0.10369617659E+02 -0.16609609961E+01  0.35207345664E+02  0.51100000000E-03 0. -1.
        -11    1    3    3    0    0  0.93196849225E+01 -0.26235097106E+01  0.17953687397E+01  0.98469629546E+01  0.51100000000E-03 0.  1.
        -12    1    3    3    0    0 -0.43144052988E+02  0.12567424051E+02 -0.12129436438E+01  0.44953539213E+02  0.00000000000E+00 0.  1.
</event>
<event>
 7    1  0.3863655E-015  0.9000769E+02  0.7816164E-02  0.1186339E+00
        -11   -1    0    0    0    0  0.00000000000E+00  0.00000000000E+00  0.45593999997E+02  0.45594000000E+02  0.51100000000E-03 0.  1.
         11   -1    0    0    0    0 -0.00000000000E+00 -0.00000000000E+00 -0.45593999997E+02  0.45594000000E+02  0.51100000000E-03 0. -1.
    9900012    2    1    2    0    0 -0.61595606159E+00 -0.90577842253E+00 -0.43966280180E+00  0.90007686567E+02  0.89999947230E+02 0.  0.
        -12    1    1    2    0    0  0.61595606159E+00  0.90577842253E+00  0.43966280180E+00  0.11803134329E+01  0.00000000000E+00 0.  1.
         11    1    3    3    0    0 -0.32820424333E+02  0.59213471091E+01 -0.20961746492E+02  0.39390829152E+02  0.51100000000E-03 0. -1.
        -11    1    3    3    0    0  0.14983236712E+00 -0.52888961242E+01 -0.66982116903E+01  0.85358603585E+01  0.51100000000E-03 0.  1.
        -12    1    3    3    0    0  0.32054635904E+02 -0.15382294075E+01  0.27220295381E+02  0.42080997057E+02  0.00000000000E+00 0.  1.
</event>
<event>
 7    1  0.3863655E-015  0.9000773E+02  0.7816164E-02  0.1186339E+00
        -11   -1    0    0    0    0  0.00000000000E+00  0.00000000000E+00  0.45593999997E+02  0.45594000000E+02  0.51100000000E-03 0. -1.
         11   -1    0    0    0    0 -0.00000000000E+00 -0.00000000000E+00 -0.45593999997E+02  0.45594000000E+02  0.51100000000E-03 0.  1.
    9900012    2    1    2    0    0  0.88153023349E+00  0.69105330848E+00 -0.37201291018E+00  0.90007727221E+02  0.89999988420E+02 0.  0.
        -12    1    1    2    0    0 -0.88153023349E+00 -0.69105330848E+00  0.37201291018E+00  0.11802727791E+01  0.00000000000E+00 0.  1.
         11    1    3    3    0    0  0.19910032003E+01  0.45915132401E+01 -0.56037323303E+01  0.75131820068E+01  0.51100000000E-03 0. -1.
        -11    1    3    3    0    0  0.38992753516E+02 -0.49430363656E+01 -0.82741061532E+01  0.40166270280E+02  0.51100000000E-03 0.  1.
         12    1    3    3    0    0 -0.40102226483E+02  0.10425764340E+01  0.13505825573E+02  0.42328274934E+02  0.00000000000E+00 0. -1.
</event>
<event>
 7    1  0.3863655E-015  0.9000780E+02  0.7816164E-02  0.1186339E+00
        -11   -1    0    0    0    0  0.00000000000E+00  0.00000000000E+00  0.45593999997E+02  0.45594000000E+02  0.51100000000E-03 0.  1.
         11   -1    0    0    0    0 -0.00000000000E+00 -0.00000000000E+00 -0.45593999997E+02  0.45594000000E+02  0.51100000000E-03 0. -1.
    9900012    2    1    2    0    0 -0.11509474917E+01 -0.25076140371E+00  0.72833661323E-01  0.90007802494E+02  0.90000064687E+02 0.  0.
        -12    1    1    2    0    0  0.11509474917E+01  0.25076140371E+00 -0.72833661323E-01  0.11801975057E+01  0.00000000000E+00 0.  1.
         11    1    3    3    0    0  0.55350965155E+01  0.68713799244E+01 -0.18127110916E+01  0.90077232009E+01  0.51100000000E-03 0. -1.
        -11    1    3    3    0    0 -0.28142557315E+02  0.19190493403E+02 -0.21036150460E+02  0.40034962167E+02  0.51100000000E-03 0.  1.
         12    1    3    3    0    0  0.21456513308E+02 -0.26312634731E+02  0.22921695213E+02  0.40965117127E+02  0.00000000000E+00 0. -1.
</event>
<event>
 7    1  0.3863655E-015  0.9000774E+02  0.7816164E-02  0.1186339E+00
        -11   -1    0    0    0    0  0.00000000000E+00  0.00000000000E+00  0.45593999997E+02  0.45594000000E+02  0.51100000000E-03 0. -1.
         11   -1    0    0    0    0 -0.00000000000E+00 -0.00000000000E+00 -0.45593999997E+02  0.45594000000E+02  0.51100000000E-03 0.  1.
    9900012    2    1    2    0    0  0.85341282120E+00  0.78817557786E+00  0.20852116920E+00  0.90007739324E+02  0.90000000683E+02 0.  0.
        -12    1    1    2    0    0 -0.85341282120E+00 -0.78817557786E+00 -0.20852116920E+00  0.11802606758E+01  0.00000000000E+00 0.  1.
         11    1    3    3    0    0  0.89278231369E+01 -0.43259544437E+01  0.22811561395E+01  0.10179566857E+02  0.51100000000E-03 0. -1.
        -11    1    3    3    0    0 -0.74636311009E+01 -0.17325725620E+02  0.33102311447E+02  0.38100519430E+02  0.51100000000E-03 0.  1.
         12    1    3    3    0    0 -0.61077921475E+00  0.22439855642E+02 -0.35174946417E+02  0.41727653036E+02  0.00000000000E+00 0. -1.
</event>
<event>
 7    1  0.3863655E-015  0.9000771E+02  0.7816164E-02  0.1186339E+00
        -11   -1    0    0    0    0  0.00000000000E+00  0.00000000000E+00  0.45593999997E+02  0.45594000000E+02  0.51100000000E-03 0.  1.
         11   -1    0    0    0    0 -0.00000000000E+00 -0.00000000000E+00 -0.45593999997E+02  0.45594000000E+02  0.51100000000E-03 0. -1.
    9900012    2    1    2    0    0  0.53584240825E+00 -0.86398032059E+00  0.59958165999E+00  0.90007708829E+02  0.89999969786E+02 0.  0.
        -12    1    1    2    0    0 -0.53584240825E+00  0.86398032059E+00 -0.59958165999E+00  0.11802911708E+01  0.00000000000E+00 0.  1.
         11    1    3    3    0    0  0.56632930931E+01 -0.21457034334E+02 -0.30666904896E+02  0.37854144651E+02  0.51100000000E-03 0. -1.
        -11    1    3    3    0    0 -0.14964964855E+01 -0.97169325759E+01  0.23565556176E+01  0.10109977006E+02  0.51100000000E-03 0.  1.
        -12    1    3    3    0    0 -0.36309541994E+01  0.30309986589E+02  0.28909930939E+02  0.42043587173E+02  0.00000000000E+00 0.  1.
</event>
<event>
 7    1  0.3863655E-015  0.9000777E+02  0.7816164E-02  0.1186339E+00
        -11   -1    0    0    0    0  0.00000000000E+00  0.00000000000E+00  0.45593999997E+02  0.45594000000E+02  0.51100000000E-03 0.  1.
         11   -1    0    0    0    0 -0.00000000000E+00 -0.00000000000E+00 -0.45593999997E+02  0.45594000000E+02  0.51100000000E-03 0. -1.
    9900012    2    1    2    0    0 -0.48583655184E+00 -0.70699547664E+00 -0.81059195620E+00  0.90007771599E+02  0.90000033384E+02 0.  0.
        -12    1    1    2    0    0  0.48583655184E+00  0.70699547664E+00  0.81059195620E+00  0.11802284010E+01  0.00000000000E+00 0.  1.
         11    1    3    3    0    0 -0.43187116576E+01  0.98559850564E+01  0.62198784657E+01  0.12428942039E+02  0.51100000000E-03 0. -1.
        -11    1    3    3    0    0  0.12173229814E+02 -0.21613040014E+02  0.29482358816E+02  0.38529475786E+02  0.51100000000E-03 0.  1.
         12    1    3    3    0    0 -0.83403547084E+01  0.11050059481E+02 -0.36512829238E+02  0.39049353774E+02  0.00000000000E+00 0. -1.
</event>
<event>
 7    1  0.3863655E-015  0.9000729E+02  0.7816164E-02  0.1186340E+00
        -11   -1    0    0    0    0  0.00000000000E+00  0.00000000000E+00  0.45593999997E+02  0.45594000000E+02  0.51100000000E-03 0.  1.
         11   -1    0    0    0    0 -0.00000000000E+00 -0.00000000000E+00 -0.45593999997E+02  0.45594000000E+02  0.51100000000E-03 0. -1.
    9900012    2    1    2    0    0 -0.76595016563E+00  0.66214380936E+00  0.60742762745E+00  0.90007287333E+02  0.89999542724E+02 0.  0.
        -12    1    1    2    0    0  0.76595016563E+00 -0.66214380936E+00 -0.60742762745E+00  0.11807126675E+01  0.00000000000E+00 0.  1.
         11    1    3    3    0    0 -0.53937626006E+01 -0.53463683149E+01 -0.35682809061E+01  0.83910045904E+01  0.51100000000E-03 0. -1.
        -11    1    3    3    0    0 -0.33907659495E+02  0.16785445369E+02  0.14122054157E+02  0.40384563419E+02  0.51100000000E-03 0.  1.
         12    1    3    3    0    0  0.38535471930E+02 -0.10776933245E+02 -0.99463456239E+01  0.41231719323E+02  0.00000000000E+00 0. -1.
</event>
<event>
 7    1  0.3863655E-015  0.9000775E+02  0.7816164E-02  0.1186339E+00
        -11   -1    0    0    0    0  0.00000000000E+00  0.00000000000E+00  0.45593999997E+02  0.45594000000E+02  0.51100000000E-03 0.  1.
         11   -1    0    0    0    0 -0.00000000000E+00 -0.00000000000E+00 -0.45593999997E+02  0.45594000000E+02  0.51100000000E-03 0. -1.
    9900012    2    1    2    0    0 -0.11393284141E+01  0.72677598988E-01 -0.29941091672E+00  0.90007746567E+02  0.90000008022E+02 0.  0.
        -12    1    1    2    0    0  0.11393284141E+01 -0.72677598988E-01  0.29941091672E+00  0.11802534328E+01  0.00000000000E+00 0.  1.
         11    1    3    3    0    0 -0.28994320440E+02 -0.62571255061E+01 -0.22733831360E+02  0.37371771780E+02  0.51100000000E-03 0. -1.
        -11    1    3    3    0    0 -0.55208202697E+01 -0.77577929391E+01 -0.86854434260E+00  0.95612330414E+01  0.51100000000E-03 0.  1.
        -12    1    3    3    0    0  0.33375812295E+02  0.14087596044E+02  0.23302964786E+02  0.43074741746E+02  0.00000000000E+00 0.  1.
</event>
<event>
 7    1  0.4292794E-015  0.9000771E+02  0.7816164E-02  0.1186339E+00
        -11   -1    0    0    0    0  0.00000000000E+00  0.00000000000E+00  0.45593999997E+02  0.45594000000E+02  0.51100000000E-03 0.  1.
         11   -1    0    0    0    0 -0.00000000000E+00 -0.00000000000E+00 -0.45593999997E+02  0.45594000000E+02  0.51100000000E-03 0. -1.
    9900012    2    1    2    0    0 -0.14932240533E+00  0.91639463960E+00  0.72871050187E+00  0.90007705413E+02  0.89999966325E+02 0.  0.
        -12    1    1    2    0    0  0.14932240533E+00 -0.91639463960E+00 -0.72871050187E+00  0.11802945869E+01  0.00000000000E+00 0.  1.
         11    1    3    3    0    0 -0.32664571357E+01  0.91225368410E+01 -0.21926237255E+01  0.99346877000E+01  0.51100000000E-03 0. -1.
        -11    1    3    3    0    0 -0.37163226179E+02 -0.11560809814E+02  0.66410174957E+01  0.39482411492E+02  0.51100000000E-03 0.  1.
         12    1    3    3    0    0  0.40280360909E+02  0.33546676124E+01 -0.37196832684E+01  0.40590606221E+02  0.00000000000E+00 0. -1.
</event>
<event>
 7    1  0.3863655E-015  0.9000770E+02  0.7816164E-02  0.1186339E+00
        -11   -1    0    0    0    0  0.00000000000E+00  0.00000000000E+00  0.45593999997E+02  0.45594000000E+02  0.51100000000E-03 0. -1.
         11   -1    0    0    0    0 -0.00000000000E+00 -0.00000000000E+00 -0.45593999997E+02  0.45594000000E+02  0.51100000000E-03 0.  1.
    9900012    2    1    2    0    0 -0.37577237157E+00  0.27281417353E+00  0.10851204942E+01  0.90007695406E+02  0.89999956185E+02 0.  0.
        -12    1    1    2    0    0  0.37577237157E+00 -0.27281417353E+00 -0.10851204942E+01  0.11803045943E+01  0.00000000000E+00 0.  1.
         11    1    3    3    0    0 -0.25598930743E+02  0.74964400510E+01  0.26303922316E+02  0.37461956677E+02  0.51100000000E-03 0. -1.
        -11    1    3    3    0    0 -0.86310283621E+01  0.48324204877E+01 -0.31847150060E+01  0.10391792352E+02  0.51100000000E-03 0.  1.
        -12    1    3    3    0    0  0.33854186733E+02 -0.12056046365E+02 -0.22034086816E+02  0.42153946377E+02  0.00000000000E+00 0.  1.
</event>
<event>
 7    1  0.3863655E-015  0.9000764E+02  0.7816164E-02  0.1186339E+00
        -11   -1    0    0    0    0  0.00000000000E+00  0.00000000000E+00  0.45593999997E+02  0.45594000000E+02  0.51100000000E-03 0. -1.
         11   -1    0    0    0    0 -0.00000000000E+00 -0.00000000000E+00 -0.45593999997E+02  0.45594000000E+02  0.51100000000E-03 0.  1.
    9900012    2    1    2    0    0  0.26005388846E+00 -0.12530667534E+00  0.11445179905E+01  0.90007639369E+02  0.89999899409E+02 0.  0.
        -12    1    1    2    0    0 -0.26005388846E+00  0.12530667534E+00 -0.11445179905E+01  0.11803606307E+01  0.00000000000E+00 0.  1.
         11    1    3    3    0    0  0.81907130461E+01 -0.73083344570E+01  0.36455100807E+02  0.38071956974E+02  0.51100000000E-03 0. -1.
        -11    1    3    3    0    0  0.54578159485E+00  0.43404837737E+01  0.72383490906E+01  0.84576222875E+01  0.51100000000E-03 0.  1.
        -12    1    3    3    0    0 -0.84764407525E+01  0.28425440079E+01 -0.42548931907E+02  0.43478060108E+02  0.00000000000E+00 0.  1.
</event>
<event>
 7    1  0.3863655E-015  0.9000770E+02  0.7816164E-02  0.1186339E+00
        -11   -1    0    0    0    0  0.00000000000E+00  0.00000000000E+00  0.45593999997E+02  0.45594000000E+02  0.51100000000E-03 0.  1.
         11   -1    0    0    0    0 -0.00000000000E+00 -0.00000000000E+00 -0.45593999997E+02  0.45594000000E+02  0.51100000000E-03 0. -1.
    9900012    2    1    2    0    0  0.11787439075E+01  0.37873610396E-01 -0.47339682437E-01  0.90007698066E+02  0.89999958880E+02 0.  0.
        -12    1    1    2    0    0 -0.11787439075E+01 -0.37873610396E-01  0.47339682437E-01  0.11803019340E+01  0.00000000000E+00 0.  1.
         11    1    3    3    0    0  0.29835828248E+02  0.25334005669E+02 -0.11823083659E+02  0.40887330531E+02  0.51100000000E-03 0. -1.
        -11    1    3    3    0    0  0.53593525635E+01 -0.75068003488E+01  0.11880059302E+01  0.92997886927E+01  0.51100000000E-03 0.  1.
        -12    1    3    3    0    0 -0.34016436904E+02 -0.17789331710E+02  0.10587738046E+02  0.39820578842E+02  0.00000000000E+00 0.  1.
</event>
<event>
 7    1  0.3863655E-015  0.9000771E+02  0.7816164E-02  0.1186339E+00
        -11   -1    0    0    0    0  0.00000000000E+00  0.00000000000E+00  0.45593999997E+02  0.45594000000E+02  0.51100000000E-03 0.  1.
         11   -1    0    0    0    0 -0.00000000000E+00 -0.00000000000E+00 -0.45593999997E+02  0.45594000000E+02  0.51100000000E-03 0. -1.
    9900012    2    1    2    0    0 -0.58609054396E+00 -0.99450810971E+00  0.24603993312E+00  0.90007710140E+02  0.89999971113E+02 0.  0.
        -12    1    1    2    0    0  0.58609054396E+00  0.99450810971E+00 -0.24603993312E+00  0.11802898605E+01  0.00000000000E+00 0.  1.
         11    1    3    3    0    0 -0.30795633055E+02 -0.21928118680E+02 -0.93988900169E+01  0.38955776695E+02  0.51100000000E-03 0. -1.
        -11    1    3    3    0    0 -0.75231555608E+01  0.44948259465E+01 -0.65337261220E-01  0.87638803678E+01  0.51100000000E-03 0.  1.
        -12    1    3    3    0    0  0.37732698072E+02  0.16438784624E+02  0.97102672113E+01  0.42288053077E+02  0.00000000000E+00 0.  1.
</event>
<event>
 7    1  0.3863655E-015  0.9000782E+02  0.7816164E-02  0.1186339E+00
        -11   -1    0    0    0    0  0.00000000000E+00  0.00000000000E+00  0.45593999997E+02  0.45594000000E+02  0.51100000000E-03 0.  1.
         11   -1    0    0    0    0 -0.00000000000E+00 -0.00000000000E+00 -0.45593999997E+02  0.45594000000E+02  0.51100000000E-03 0. -1.
    9900012    2    1    2    0    0  0.82596552821E+00  0.83435352070E+00 -0.12021666713E+00  0.90007823361E+02  0.90000085830E+02 0.  0.
        -12    1    1    2    0    0 -0.82596552821E+00 -0.83435352070E+00  0.12021666713E+00  0.11801766386E+01  0.00000000000E+00 0.  1.
         11    1    3    3    0    0  0.16585822770E+02  0.14695846898E+02 -0.34436084592E+02  0.40949986023E+02  0.51100000000E-03 0. -1.
        -11    1    3    3    0    0 -0.27599698115E+01 -0.98429362487E+01 -0.18754331600E+01  0.10393174547E+02  0.51100000000E-03 0.  1.
        -12    1    3    3    0    0 -0.12999887430E+02 -0.40185571286E+01  0.36191301085E+02  0.38664662792E+02  0.00000000000E+00 0.  1.
</event>
<event>
 7    1  0.3863655E-015  0.9000772E+02  0.7816164E-02  0.1186339E+00
        -11   -1    0    0    0    0  0.00000000000E+00  0.00000000000E+00  0.45593999997E+02  0.45594000000E+02  0.51100000000E-03 0.  1.
         11   -1    0    0    0    0 -0.00000000000E+00 -0.00000000000E+00 -0.45593999997E+02  0.45594000000E+02  0.51100000000E-03 0. -1.
    9900012    2    1    2    0    0 -0.52243645139E+00 -0.10565385868E+01  0.62023083057E-01  0.90007720163E+02  0.89999981269E+02 0.  0.
        -12    1    1    2    0    0  0.52243645139E+00  0.10565385868E+01 -0.62023083057E-01  0.11802798371E+01  0.00000000000E+00 0.  1.
         11    1    3    3    0    0  0.31696219447E+01  0.19634633244E+01  0.73770130838E+01  0.82657131452E+01  0.51100000000E-03 0. -1.
        -11    1    3    3    0    0  0.15068057855E+02 -0.17916076494E+02  0.29598318096E+02  0.37737151440E+02  0.51100000000E-03 0.  1.
         12    1    3    3    0    0 -0.18760116251E+02  0.14896074583E+02 -0.36913308097E+02  0.44004855577E+02  0.00000000000E+00 0. -1.
</event>
<event>
 7    1  0.3863655E-015  0.9000723E+02  0.7816164E-02  0.1186340E+00
        -11   -1    0    0    0    0  0.00000000000E+00  0.00000000000E+00  0.45593999997E+02  0.45594000000E+02  0.51100000000E-03 0. -1.
         11   -1    0    0    0    0 -0.00000000000E+00 -0.00000000000E+00 -0.45593999997E+02  0.45594000000E+02  0.51100000000E-03 0.  1.
    9900012    2    1    2    0    0  0.48355927722E-01  0.10873525963E+01  0.45776757652E+00  0.90007226898E+02  0.89999481492E+02 0.  0.
        -12    1    1    2    0    0 -0.48355927722E-01 -0.10873525963E+01 -0.45776757652E+00  0.11807731020E+01  0.00000000000E+00 0.  1.
         11    1    3    3    0    0 -0.27733080158E+02 -0.20662677142E+02 -0.22576084477E+02  0.41300720966E+02  0.51100000000E-03 0. -1.
        -11    1    3    3    0    0  0.35738495776E-01 -0.19477629761E+01  0.96440418469E+01  0.98388312953E+01  0.51100000000E-03 0.  1.
        -12    1    3    3    0    0  0.27745697590E+02  0.23697792714E+02  0.13389810207E+02  0.38867674637E+02  0.00000000000E+00 0.  1.
</event>
<event>
 7    1  0.3863655E-015  0.9000772E+02  0.7816164E-02  0.1186339E+00
        -11   -1    0    0    0    0  0.00000000000E+00  0.00000000000E+00  0.45593999997E+02  0.45594000000E+02  0.51100000000E-03 0.  1.
         11   -1    0    0    0    0 -0.00000000000E+00 -0.00000000000E+00 -0.45593999997E+02  0.45594000000E+02  0.51100000000E-03 0. -1.
    9900012    2    1    2    0    0  0.11745658087E+01 -0.10006627923E+00  0.58751394484E-01  0.90007716210E+02  0.89999977264E+02 0.  0.
        -12    1    1    2    0    0 -0.11745658087E+01  0.10006627923E+00 -0.58751394484E-01  0.11802837903E+01  0.00000000000E+00 0.  1.
         11    1    3    3    0    0 -0.93162158128E+01 -0.30759370699E-01  0.20528411441E+00  0.93185280511E+01  0.51100000000E-03 0. -1.
        -11    1    3    3    0    0 -0.25085641402E+00  0.30224881353E+02  0.25518467838E+02  0.39557535095E+02  0.51100000000E-03 0.  1.
         12    1    3    3    0    0  0.10741638036E+02 -0.30294188261E+02 -0.25665000558E+02  0.41131653064E+02  0.00000000000E+00 0. -1.
</event>
<event>
 7    1  0.3863655E-015  0.9000770E+02  0.7816164E-02  0.1186339E+00
        -11   -1    0    0    0    0  0.00000000000E+00  0.00000000000E+00  0.45593999997E+02  0.45594000000E+02  0.51100000000E-03 0.  1.
         11   -1    0    0    0    0 -0.00000000000E+00 -0.00000000000E+00 -0.45593999997E+02  0.45594000000E+02  0.51100000000E-03 0. -1.
    9900012    2    1    2    0    0 -0.50601601477E+00 -0.84274728368E+00  0.65332588868E+00  0.90007699230E+02  0.89999960060E+02 0.  0.
        -12    1    1    2    0    0  0.50601601477E+00  0.84274728368E+00 -0.65332588868E+00  0.11803007702E+01  0.00000000000E+00 0.  1.
         11    1    3    3    0    0  0.58151173988E+01 -0.66442919263E+01  0.47820255044E+01  0.10041412936E+02  0.51100000000E-03 0. -1.
        -11    1    3    3    0    0  0.21042525523E+02 -0.16357956018E+02  0.23246058893E+02  0.35365942088E+02  0.51100000000E-03 0.  1.
         12    1    3    3    0    0 -0.27363658936E+02  0.22159500661E+02 -0.27374758508E+02  0.44600344206E+02  0.00000000000E+00 0. -1.
</event>
<event>
 7    1  0.3863655E-015  0.9000777E+02  0.7816164E-02  0.1186339E+00
        -11   -1    0    0    0    0  0.00000000000E+00  0.00000000000E+00  0.45593999997E+02  0.45594000000E+02  0.51100000000E-03 0.  1.
         11   -1    0    0    0    0 -0.00000000000E+00 -0.00000000000E+00 -0.45593999997E+02  0.45594000000E+02  0.51100000000E-03 0. -1.
    9900012    2    1    2    0    0  0.19155386710E+00 -0.11606776402E+01  0.95272382255E-01  0.90007770236E+02  0.90000032003E+02 0.  0.
        -12    1    1    2    0    0 -0.19155386710E+00  0.11606776402E+01 -0.95272382255E-01  0.11802297637E+01  0.00000000000E+00 0.  1.
         11    1    3    3    0    0 -0.55001225671E+01  0.48392505264E+01  0.60519252107E+01  0.95023940629E+01  0.51100000000E-03 0. -1.
        -11    1    3    3    0    0 -0.72463665070E+01  0.23113283441E+02  0.25893048299E+02  0.35456785661E+02  0.51100000000E-03 0.  1.
         12    1    3    3    0    0  0.12938042941E+02 -0.29113211607E+02 -0.31849701127E+02  0.45048590512E+02  0.00000000000E+00 0. -1.
</event>
<event>
 7    1  0.3863655E-015  0.9000859E+02  0.7816164E-02  0.1186337E+00
        -11   -1    0    0    0    0  0.00000000000E+00  0.00000000000E+00  0.45593999997E+02  0.45594000000E+02  0.51100000000E-03 0. -1.
         11   -1    0    0    0    0 -0.00000000000E+00 -0.00000000000E+00 -0.45593999997E+02  0.45594000000E+02  0.51100000000E-03 0.  1.
    9900012    2    1    2    0    0  0.96425438296E+00 -0.65222469189E+00 -0.18929296965E+00  0.90008586844E+02  0.90000859386E+02 0.  0.
        -12    1    1    2    0    0 -0.96425438296E+00  0.65222469189E+00  0.18929296965E+00  0.11794131558E+01  0.00000000000E+00 0.  1.
         11    1    3    3    0    0  0.64614506150E+01 -0.66201972100E+01 -0.92743032134E+00  0.92971760450E+01  0.51100000000E-03 0. -1.
        -11    1    3    3    0    0  0.32254213572E+02 -0.15156846111E+02 -0.81259037233E+01  0.36552627659E+02  0.51100000000E-03 0.  1.
         12    1    3    3    0    0 -0.37751409804E+02  0.21124818629E+02  0.88640410750E+01  0.44158783141E+02  0.00000000000E+00 0. -1.
</event>
<event>
 7    1  0.3863655E-015  0.9000762E+02  0.7816164E-02  0.1186339E+00
        -11   -1    0    0    0    0  0.00000000000E+00  0.00000000000E+00  0.45593999997E+02  0.45594000000E+02  0.51100000000E-03 0.  1.
         11   -1    0    0    0    0 -0.00000000000E+00 -0.00000000000E+00 -0.45593999997E+02  0.45594000000E+02  0.51100000000E-03 0. -1.
    9900012    2    1    2    0    0 -0.95514526166E+00 -0.30938413780E+00 -0.62070523212E+00  0.90007620400E+02  0.89999880189E+02 0.  0.
        -12    1    1    2    0    0  0.95514526166E+00  0.30938413780E+00  0.62070523212E+00  0.11803796003E+01  0.00000000000E+00 0.  1.
         11    1    3    3    0    0 -0.78164355292E+01 -0.21631559804E+01  0.48105529053E+01  0.94295984906E+01  0.51100000000E-03 0. -1.
        -11    1    3    3    0    0  0.42739559556E+02 -0.58579416943E+01  0.17913906833E+01  0.43176318889E+02  0.51100000000E-03 0.  1.
         12    1    3    3    0    0 -0.35878269289E+02  0.77117135369E+01 -0.72226488207E+01  0.37401703020E+02  0.00000000000E+00 0. -1.
</event>
<event>
 7    1  0.3863655E-015  0.9000778E+02  0.7816164E-02  0.1186339E+00
        -11   -1    0    0    0    0  0.00000000000E+00  0.00000000000E+00  0.45593999997E+02  0.45594000000E+02  0.51100000000E-03 0. -1.
         11   -1    0    0    0    0 -0.00000000000E+00 -0.00000000000E+00 -0.45593999997E+02  0.45594000000E+02  0.51100000000E-03 0.  1.
    9900012    2    1    2    0    0  0.16345303914E+00 -0.84651509404E-01  0.11657736853E+01  0.90007783469E+02  0.90000045411E+02 0.  0.
        -12    1    1    2    0    0 -0.16345303914E+00  0.84651509404E-01 -0.11657736853E+01  0.11802165308E+01  0.00000000000E+00 0.  1.
         11    1    3    3    0    0  0.56403788714E+01  0.47728794559E+01 -0.53671193395E+01  0.91323722208E+01  0.51100000000E-03 0. -1.
        -11    1    3    3    0    0  0.13955625306E+02  0.25824567775E+02 -0.20325927742E+02  0.35704497157E+02  0.51100000000E-03 0.  1.
         12    1    3    3    0    0 -0.19432551138E+02 -0.30682098740E+02  0.26858820766E+02  0.45170914091E+02  0.00000000000E+00 0. -1.
</event>
<event>
 7    1  0.3863655E-015  0.9000772E+02  0.7816164E-02  0.1186339E+00
        -11   -1    0    0    0    0  0.00000000000E+00  0.00000000000E+00  0.45593999997E+02  0.45594000000E+02  0.51100000000E-03 0.  1.
         11   -1    0    0    0    0 -0.00000000000E+00 -0.00000000000E+00 -0.45593999997E+02  0.45594000000E+02  0.51100000000E-03 0. -1.
    9900012    2    1    2    0    0 -0.13857562000E+00 -0.11137902221E+01  0.36512828951E+00  0.90007724384E+02  0.89999985546E+02 0.  0.
        -12    1    1    2    0    0  0.13857562000E+00  0.11137902221E+01 -0.36512828951E+00  0.11802756157E+01  0.00000000000E+00 0.  1.
         11    1    3    3    0    0  0.18709529078E+01  0.57960835396E+01 -0.28211793415E+02  0.28861745219E+02  0.51100000000E-03 0. -1.
        -11    1    3    3    0    0 -0.53615287587E+01  0.20684240454E+02  0.12340813407E+00  0.21368177826E+02  0.51100000000E-03 0.  1.
        -12    1    3    3    0    0  0.33520002309E+01 -0.27594114215E+02  0.28453513570E+02  0.39777801339E+02  0.00000000000E+00 0.  1.
</event>
<event>
 7    1  0.3863655E-015  0.9000772E+02  0.7816164E-02  0.1186339E+00
        -11   -1    0    0    0    0  0.00000000000E+00  0.00000000000E+00  0.45593999997E+02  0.45594000000E+02  0.51100000000E-03 0. -1.
         11   -1    0    0    0    0 -0.00000000000E+00 -0.00000000000E+00 -0.45593999997E+02  0.45594000000E+02  0.51100000000E-03 0.  1.
    9900012    2    1    2    0    0 -0.14632164214E+00 -0.24970884953E-01  0.11709052569E+01  0.90007723469E+02  0.89999984619E+02 0.  0.
        -12    1    1    2    0    0  0.14632164214E+00  0.24970884953E-01 -0.11709052569E+01  0.11802765306E+01  0.00000000000E+00 0.  1.
         11    1    3    3    0    0  0.31426713270E+02  0.60228297080E+01  0.29819198108E+02  0.43738968446E+02  0.51100000000E-03 0. -1.
        -11    1    3    3    0    0 -0.89614938026E-02 -0.32477171981E+01 -0.74965931073E+01  0.81698626540E+01  0.51100000000E-03 0.  1.
        -12    1    3    3    0    0 -0.31564073418E+02 -0.28000833948E+01 -0.21151699744E+02  0.38098892370E+02  0.00000000000E+00 0.  1.
</event>
<event>
 7    1  0.3863655E-015  0.9000762E+02  0.7816164E-02  0.1186339E+00
        -11   -1    0    0    0    0  0.00000000000E+00  0.00000000000E+00  0.45593999997E+02  0.45594000000E+02  0.51100000000E-03 0. -1.
         11   -1    0    0    0    0 -0.00000000000E+00 -0.00000000000E+00 -0.45593999997E+02  0.45594000000E+02  0.51100000000E-03 0.  1.
    9900012    2    1    2    0    0 -0.98108377805E+00 -0.36646692987E+00  0.54448686419E+00  0.90007623223E+02  0.89999883050E+02 0.  0.
        -12    1    1    2    0    0  0.98108377805E+00  0.36646692987E+00 -0.54448686419E+00  0.11803767769E+01  0.00000000000E+00 0.  1.
         11    1    3    3    0    0  0.66349870962E+01 -0.32790622192E+02  0.13002444044E+02  0.35893056555E+02  0.51100000000E-03 0. -1.
        -11    1    3    3    0    0  0.67683655201E+01 -0.34713664768E+01  0.74269498204E+01  0.10631121339E+02  0.51100000000E-03 0.  1.
        -12    1    3    3    0    0 -0.14384436394E+02  0.35895521739E+02 -0.19884907000E+02  0.43483445329E+02  0.00000000000E+00 0.  1.
</event>
<event>
 7    1  0.3863655E-015  0.9000766E+02  0.7816164E-02  0.1186339E+00
        -11   -1    0    0    0    0  0.00000000000E+00  0.00000000000E+00  0.45593999997E+02  0.45594000000E+02  0.51100000000E-03 0.  1.
         11   -1    0    0    0    0 -0.00000000000E+00 -0.00000000000E+00 -0.45593999997E+02  0.45594000000E+02  0.51100000000E-03 0. -1.
    9900012    2    1    2    0    0  0.66748832652E+00  0.59608113443E+00  0.76964360925E+00  0.90007659087E+02  0.89999919387E+02 0.  0.
        -12    1    1    2    0    0 -0.66748832652E+00 -0.59608113443E+00 -0.76964360925E+00  0.11803409127E+01  0.00000000000E+00 0.  1.
         11    1    3    3    0    0  0.55278329244E+01 -0.77444078878E+01 -0.37703736531E+01  0.10234671862E+02  0.51100000000E-03 0. -1.
        -11    1    3    3    0    0 -0.38393588796E+02  0.10537970980E+02 -0.12978726991E+02  0.41875575788E+02  0.51100000000E-03 0.  1.
         12    1    3    3    0    0  0.33533244198E+02 -0.21974819577E+01  0.17518744254E+02  0.37897411437E+02  0.00000000000E+00 0. -1.
</event>
<event>
 7    1  0.3863655E-015  0.9000793E+02  0.7816164E-02  0.1186339E+00
        -11   -1    0    0    0    0  0.00000000000E+00  0.00000000000E+00  0.45593999997E+02  0.45594000000E+02  0.51100000000E-03 0.  1.
         11   -1    0    0    0    0 -0.00000000000E+00 -0.00000000000E+00 -0.45593999997E+02  0.45594000000E+02  0.51100000000E-03 0. -1.
    9900012    2    1    2    0    0  0.38210288677E-01  0.11672274456E+01 -0.16934752680E+00  0.90007932832E+02  0.90000196745E+02 0.  0.
        -12    1    1    2    0    0 -0.38210288677E-01 -0.11672274456E+01  0.16934752680E+00  0.11800671679E+01  0.00000000000E+00 0.  1.
         11    1    3    3    0    0  0.83830778020E+00 -0.39228416086E+02  0.87829795708E+01  0.40208358819E+02  0.51100000000E-03 0. -1.
        -11    1    3    3    0    0  0.39944612106E+01  0.53623071982E+01  0.81326035314E+01  0.10528499385E+02  0.51100000000E-03 0.  1.
        -12    1    3    3    0    0 -0.47945587021E+01  0.35033336333E+02 -0.17084930629E+02  0.39271074627E+02  0.00000000000E+00 0.  1.
</event>
<event>
 7    1  0.3863655E-015  0.9000773E+02  0.7816164E-02  0.1186339E+00
        -11   -1    0    0    0    0  0.00000000000E+00  0.00000000000E+00  0.45593999997E+02  0.45594000000E+02  0.51100000000E-03 0. -1.
         11   -1    0    0    0    0 -0.00000000000E+00 -0.00000000000E+00 -0.45593999997E+02  0.45594000000E+02  0.51100000000E-03 0.  1.
    9900012    2    1    2    0    0  0.57963478144E-03  0.10042340542E+01  0.62012516529E+00  0.90007728170E+02  0.89999989382E+02 0.  0.
        -12    1    1    2    0    0 -0.57963478144E-03 -0.10042340542E+01 -0.62012516529E+00  0.11802718298E+01  0.00000000000E+00 0.  1.
         11    1    3    3    0    0  0.12496502296E+02  0.10978854483E+02  0.33177963615E+02  0.37114351473E+02  0.51100000000E-03 0. -1.
        -11    1    3    3    0    0 -0.14734450409E+01  0.10401503732E+02  0.25692426419E+01  0.10814958539E+02  0.51100000000E-03 0.  1.
        -12    1    3    3    0    0 -0.11022477620E+02 -0.20376124161E+02 -0.35127081092E+02  0.42078418158E+02  0.00000000000E+00 0.  1.
</event>
<event>
 7    1  0.4170063E-015  0.9000772E+02  0.7816164E-02  0.1186339E+00
        -11   -1    0    0    0    0  0.00000000000E+00  0.00000000000E+00  0.45593999997E+02  0.45594000000E+02  0.51100000000E-03 0. -1.
         11   -1    0    0    0    0 -0.00000000000E+00 -0.00000000000E+00 -0.45593999997E+02  0.45594000000E+02  0.51100000000E-03 0.  1.
    9900012    2    1    2    0    0 -0.98178204328E+00  0.60826529863E+00  0.24325313348E+00  0.90007722600E+02  0.89999983738E+02 0.  0.
        -12    1    1    2    0    0  0.98178204328E+00 -0.60826529863E+00 -0.24325313348E+00  0.11802774000E+01  0.00000000000E+00 0.  1.
         11    1    3    3    0    0  0.26962835808E+01 -0.93724633951E+01 -0.10351420954E+01  0.98073714450E+01  0.51100000000E-03 0. -1.
        -11    1    3    3    0    0 -0.68981074306E+01 -0.32740814497E+02 -0.11681866039E+02  0.35440242867E+02  0.51100000000E-03 0.  1.
         12    1    3    3    0    0  0.32200418065E+01  0.42721543191E+02  0.12960261268E+02  0.44760108288E+02  0.00000000000E+00 0. -1.
</event>
<event>
 7    1  0.3863655E-015  0.9000763E+02  0.7816164E-02  0.1186339E+00
        -11   -1    0    0    0    0  0.00000000000E+00  0.00000000000E+00  0.45593999997E+02  0.45594000000E+02  0.51100000000E-03 0.  1.
         11   -1    0    0    0    0 -0.00000000000E+00 -0.00000000000E+00 -0.45593999997E+02  0.45594000000E+02  0.51100000000E-03 0. -1.
    9900012    2    1    2    0    0  0.26048775897E+00 -0.83199641565E+00 -0.79573549670E+00  0.90007632731E+02  0.89999892683E+02 0.  0.
        -12    1    1    2    0    0 -0.26048775897E+00  0.83199641565E+00  0.79573549670E+00  0.11803672687E+01  0.00000000000E+00 0.  1.
         11    1    3    3    0    0  0.20772429609E+02  0.27353893766E+02 -0.19154344546E+02  0.39327067666E+02  0.51100000000E-03 0. -1.
        -11    1    3    3    0    0 -0.68313235403E+01  0.64419036257E+01  0.54277615686E+00  0.94053022201E+01  0.51100000000E-03 0.  1.
        -12    1    3    3    0    0 -0.13680618310E+02 -0.34627793807E+02  0.17815832892E+02  0.41275262845E+02  0.00000000000E+00 0.  1.
</event>
<event>
 7    1  0.3863655E-015  0.9000778E+02  0.7816164E-02  0.1186339E+00
        -11   -1    0    0    0    0  0.00000000000E+00  0.00000000000E+00  0.45593999997E+02  0.45594000000E+02  0.51100000000E-03 0. -1.
         11   -1    0    0    0    0 -0.00000000000E+00 -0.00000000000E+00 -0.45593999997E+02  0.45594000000E+02  0.51100000000E-03 0.  1.
    9900012    2    1    2    0    0 -0.41404903433E-01 -0.10681874088E+01  0.50019086734E+00  0.90007775610E+02  0.90000037448E+02 0.  0.
        -12    1    1    2    0    0  0.41404903433E-01  0.10681874088E+01 -0.50019086734E+00  0.11802243898E+01  0.00000000000E+00 0.  1.
         11    1    3    3    0    0 -0.72850138821E+01  0.12858607170E+02 -0.31570005556E+01  0.15112308176E+02  0.51100000000E-03 0. -1.
        -11    1    3    3    0    0 -0.61201592721E+01 -0.40402641082E+02 -0.10264614345E+02  0.42133028183E+02  0.51100000000E-03 0.  1.
         12    1    3    3    0    0  0.13363768251E+02  0.26475846503E+02  0.13921805768E+02  0.32762439252E+02  0.00000000000E+00 0. -1.
</event>
<event>
 7    1  0.3863655E-015  0.9000745E+02  0.7816164E-02  0.1186340E+00
        -11   -1    0    0    0    0  0.00000000000E+00  0.00000000000E+00  0.45593999997E+02  0.45594000000E+02  0.51100000000E-03 0.  1.
         11   -1    0    0    0    0 -0.00000000000E+00 -0.00000000000E+00 -0.45593999997E+02  0.45594000000E+02  0.51100000000E-03 0. -1.
    9900012    2    1    2    0    0 -0.10387491969E+01 -0.55777551732E+00 -0.59954384521E-01  0.90007445914E+02  0.89999703400E+02 0.  0.
        -12    1    1    2    0    0  0.10387491969E+01  0.55777551732E+00  0.59954384521E-01  0.11805540860E+01  0.00000000000E+00 0.  1.
         11    1    3    3    0    0 -0.21448981314E+02 -0.30735486430E+02  0.46750644558E+01  0.37770162211E+02  0.51100000000E-03 0. -1.
        -11    1    3    3    0    0 -0.27034638020E+01  0.89252767308E+01  0.13135124001E+02  0.16109027408E+02  0.51100000000E-03 0.  1.
        -12    1    3    3    0    0  0.23113695919E+02  0.21252434182E+02 -0.17870142842E+02  0.36128256295E+02  0.00000000000E+00 0.  1.
</event>
<event>
 7    1  0.3863655E-015  0.9000773E+02  0.7816164E-02  0.1186339E+00
        -11   -1    0    0    0    0  0.00000000000E+00  0.00000000000E+00  0.45593999997E+02  0.45594000000E+02  0.51100000000E-03 0.  1.
         11   -1    0    0    0    0 -0.00000000000E+00 -0.00000000000E+00 -0.45593999997E+02  0.45594000000E+02  0.51100000000E-03 0. -1.
    9900012    2    1    2    0    0 -0.83895186729E+00 -0.73605217785E+00  0.38394988511E+00  0.90007732844E+02  0.89999994118E+02 0.  0.
        -12    1    1    2    0    0  0.83895186729E+00  0.73605217785E+00 -0.38394988511E+00  0.11802671555E+01  0.00000000000E+00 0.  1.
         11    1    3    3    0    0  0.93749309646E+01  0.33518976169E+02 -0.20626370319E+01  0.34866395939E+02  0.51100000000E-03 0. -1.
        -11    1    3    3    0    0 -0.71598907147E+00  0.95682810454E+01  0.36983733225E+01  0.10283122483E+02  0.51100000000E-03 0.  1.
        -12    1    3    3    0    0 -0.94978937605E+01 -0.43823309392E+02 -0.12517864055E+01  0.44858214422E+02  0.00000000000E+00 0.  1.
</event>
<event>
 7    1  0.3863655E-015  0.9000780E+02  0.7816164E-02  0.1186339E+00
        -11   -1    0    0    0    0  0.00000000000E+00  0.00000000000E+00  0.45593999997E+02  0.45594000000E+02  0.51100000000E-03 0.  1.
         11   -1    0    0    0    0 -0.00000000000E+00 -0.00000000000E+00 -0.45593999997E+02  0.45594000000E+02  0.51100000000E-03 0. -1.
    9900012    2    1    2    0    0 -0.61750661312E+00 -0.57263831833E+00 -0.82683161691E+00  0.90007796804E+02  0.90000058922E+02 0.  0.
        -12    1    1    2    0    0  0.61750661312E+00  0.57263831833E+00  0.82683161691E+00  0.11802031959E+01  0.00000000000E+00 0.  1.
         11    1    3    3    0    0 -0.69296274232E+01  0.69382671687E+01 -0.33808340361E+02  0.35201749470E+02  0.51100000000E-03 0. -1.
        -11    1    3    3    0    0 -0.41844674053E+01  0.14828317569E+02  0.25399375666E+01  0.15615378717E+02  0.51100000000E-03 0.  1.
         12    1    3    3    0    0  0.10496588215E+02 -0.22339223056E+02  0.30441571177E+02  0.39190668617E+02  0.00000000000E+00 0. -1.
</event>
<event>
 7    1  0.3863655E-015  0.9000770E+02  0.7816164E-02  0.1186339E+00
        -11   -1    0    0    0    0  0.00000000000E+00  0.00000000000E+00  0.45593999997E+02  0.45594000000E+02  0.51100000000E-03 0. -1.
         11   -1    0    0    0    0 -0.00000000000E+00 -0.00000000000E+00 -0.45593999997E+02  0.45594000000E+02  0.51100000000E-03 0.  1.
    9900012    2    1    2    0    0 -0.11780385325E+01  0.66516100887E-01  0.30217132506E-01  0.90007698237E+02  0.89999959054E+02 0.  0.
        -12    1    1    2    0    0  0.11780385325E+01 -0.66516100887E-01 -0.30217132506E-01  0.11803017626E+01  0.00000000000E+00 0.  1.
         11    1    3    3    0    0  0.75899906471E+01 -0.46844056256E+01  0.61724742485E+01  0.10846706998E+02  0.51100000000E-03 0. -1.
        -11    1    3    3    0    0  0.31642711035E+02  0.17865815897E+02 -0.48054127515E+01  0.36654338506E+02  0.51100000000E-03 0.  1.
         12    1    3    3    0    0 -0.40410740214E+02 -0.13114894171E+02 -0.13368443646E+01  0.42506652734E+02  0.00000000000E+00 0. -1.
</event>
<event>
 7    1  0.3863655E-015  0.9000773E+02  0.7816164E-02  0.1186339E+00
        -11   -1    0    0    0    0  0.00000000000E+00  0.00000000000E+00  0.45593999997E+02  0.45594000000E+02  0.51100000000E-03 0.  1.
         11   -1    0    0    0    0 -0.00000000000E+00 -0.00000000000E+00 -0.45593999997E+02  0.45594000000E+02  0.51100000000E-03 0. -1.
    9900012    2    1    2    0    0 -0.71261420447E+00 -0.84805545238E+00 -0.40744873228E+00  0.90007732435E+02  0.89999993704E+02 0.  0.
        -12    1    1    2    0    0  0.71261420447E+00  0.84805545238E+00  0.40744873228E+00  0.11802675646E+01  0.00000000000E+00 0.  1.
         11    1    3    3    0    0 -0.65704940128E-01 -0.63123043848E+01  0.82736674521E+01  0.10406876436E+02  0.51100000000E-03 0. -1.
        -11    1    3    3    0    0  0.38645701540E+02  0.50546619320E+01 -0.10163222542E+02  0.40278169614E+02  0.51100000000E-03 0.  1.
         12    1    3    3    0    0 -0.39292610804E+02  0.40958700042E+00  0.14821063572E+01  0.39322686385E+02  0.00000000000E+00 0. -1.
</event>
<event>
 7    1  0.3863655E-015  0.9000773E+02  0.7816164E-02  0.1186339E+00
        -11   -1    0    0    0    0  0.00000000000E+00  0.00000000000E+00  0.45593999997E+02  0.45594000000E+02  0.51100000000E-03 0. -1.
         11   -1    0    0    0    0 -0.00000000000E+00 -0.00000000000E+00 -0.45593999997E+02  0.45594000000E+02  0.51100000000E-03 0.  1.
    9900012    2    1    2    0    0 -0.54620802095E+00  0.91850605660E+00  0.50104603650E+00  0.90007727274E+02  0.89999988474E+02 0.  0.
        -12    1    1    2    0    0  0.54620802095E+00 -0.91850605660E+00 -0.50104603650E+00  0.11802727265E+01  0.00000000000E+00 0.  1.
         11    1    3    3    0    0 -0.25316613724E+02  0.44006907696E+01  0.15097507912E+02  0.29803217194E+02  0.51100000000E-03 0. -1.
        -11    1    3    3    0    0 -0.11845649948E+02  0.84229692510E+01  0.69192552467E+01  0.16097885797E+02  0.51100000000E-03 0.  1.
        -12    1    3    3    0    0  0.36616055651E+02 -0.11905153964E+02 -0.21515717123E+02  0.44106624283E+02  0.00000000000E+00 0.  1.
</event>
<event>
 7    1  0.3863655E-015  0.9000778E+02  0.7816164E-02  0.1186339E+00
        -11   -1    0    0    0    0  0.00000000000E+00  0.00000000000E+00  0.45593999997E+02  0.45594000000E+02  0.51100000000E-03 0.  1.
         11   -1    0    0    0    0 -0.00000000000E+00 -0.00000000000E+00 -0.45593999997E+02  0.45594000000E+02  0.51100000000E-03 0. -1.
    9900012    2    1    2    0    0  0.88490622509E+00  0.38909664188E+00 -0.67710185676E+00  0.90007778771E+02  0.90000040651E+02 0.  0.
        -12    1    1    2    0    0 -0.88490622509E+00 -0.38909664188E+00  0.67710185676E+00  0.11802212286E+01  0.00000000000E+00 0.  1.
         11    1    3    3    0    0 -0.11744934762E+01 -0.46130156434E+01 -0.83919497498E+01  0.96480137394E+01  0.51100000000E-03 0. -1.
        -11    1    3    3    0    0  0.13665362353E+02 -0.14269905385E+02  0.37883699286E+02  0.42726420395E+02  0.51100000000E-03 0.  1.
         12    1    3    3    0    0 -0.11605962652E+02  0.19272017670E+02 -0.30168851393E+02  0.37633344637E+02  0.00000000000E+00 0. -1.
</event>
<event>
 7    1  0.3863655E-015  0.9000829E+02  0.7816164E-02  0.1186338E+00
        -11   -1    0    0    0    0  0.00000000000E+00  0.00000000000E+00  0.45593999997E+02  0.45594000000E+02  0.51100000000E-03 0. -1.
         11   -1    0    0    0    0 -0.00000000000E+00 -0.00000000000E+00 -0.45593999997E+02  0.45594000000E+02  0.51100000000E-03 0.  1.
    9900012    2    1    2    0    0  0.38524477417E+00 -0.11072019358E+01  0.13193585712E+00  0.90008289555E+02  0.90000558176E+02 0.  0.
        -12    1    1    2    0    0 -0.38524477417E+00  0.11072019358E+01 -0.13193585712E+00  0.11797104446E+01  0.00000000000E+00 0.  1.
         11    1    3    3    0    0 -0.24578745858E+02 -0.36156159778E+01  0.30137170292E+02  0.39056836282E+02  0.51100000000E-03 0. -1.
        -11    1    3    3    0    0 -0.21283841358E+01 -0.79668660709E+01  0.11842738283E+01  0.83308750310E+01  0.51100000000E-03 0.  1.
        -12    1    3    3    0    0  0.27092374768E+02  0.10475280113E+02 -0.31189508264E+02  0.42620578243E+02  0.00000000000E+00 0.  1.
</event>
<event>
 7    1  0.3863655E-015  0.9000767E+02  0.7816164E-02  0.1186339E+00
        -11   -1    0    0    0    0  0.00000000000E+00  0.00000000000E+00  0.45593999997E+02  0.45594000000E+02  0.51100000000E-03 0. -1.
         11   -1    0    0    0    0 -0.00000000000E+00 -0.00000000000E+00 -0.45593999997E+02  0.45594000000E+02  0.51100000000E-03 0.  1.
    9900012    2    1    2    0    0  0.10921958693E+01  0.31044431443E+00 -0.32234534046E+00  0.90007672076E+02  0.89999932548E+02 0.  0.
        -12    1    1    2    0    0 -0.10921958693E+01 -0.31044431443E+00  0.32234534046E+00  0.11803279238E+01  0.00000000000E+00 0.  1.
         11    1    3    3    0    0  0.10456056790E+02  0.66739311732E+01  0.80327393080E+01  0.14778206317E+02  0.51100000000E-03 0. -1.
        -11    1    3    3    0    0 -0.34901848154E+02  0.18056985283E+02 -0.66382391461E+01  0.39852979076E+02  0.51100000000E-03 0.  1.
         12    1    3    3    0    0  0.25537987233E+02 -0.24420472141E+02 -0.17168455024E+01  0.35376486683E+02  0.00000000000E+00 0. -1.
</event>
<event>
 7    1  0.3863655E-015  0.9000767E+02  0.7816164E-02  0.1186339E+00
        -11   -1    0    0    0    0  0.00000000000E+00  0.00000000000E+00  0.45593999997E+02  0.45594000000E+02  0.51100000000E-03 0.  1.
         11   -1    0    0    0    0 -0.00000000000E+00 -0.00000000000E+00 -0.45593999997E+02  0.45594000000E+02  0.51100000000E-03 0. -1.
    9900012    2    1    2    0    0  0.43876888829E+00  0.10874358928E+01  0.13473947164E+00  0.90007665436E+02  0.89999925819E+02 0.  0.
        -12    1    1    2    0    0 -0.43876888829E+00 -0.10874358928E+01 -0.13473947164E+00  0.11803345643E+01  0.00000000000E+00 0.  1.
         11    1    3    3    0    0  0.11583438082E+02  0.22438463035E+02 -0.35324253017E+02  0.43421924332E+02  0.51100000000E-03 0. -1.
        -11    1    3    3    0    0 -0.83395230761E+01 -0.18666528333E+01  0.39072504318E+01  0.93967358234E+01  0.51100000000E-03 0.  1.
        -12    1    3    3    0    0 -0.28051461181E+01 -0.19484374309E+02  0.31551742057E+02  0.37189005281E+02  0.00000000000E+00 0.  1.
</event>
<event>
 7    1  0.3863655E-015  0.9000773E+02  0.7816164E-02  0.1186339E+00
        -11   -1    0    0    0    0  0.00000000000E+00  0.00000000000E+00  0.45593999997E+02  0.45594000000E+02  0.51100000000E-03 0.  1.
         11   -1    0    0    0    0 -0.00000000000E+00 -0.00000000000E+00 -0.45593999997E+02  0.45594000000E+02  0.51100000000E-03 0. -1.
    9900012    2    1    2    0    0  0.35104385676E-01 -0.42242325117E+00 -0.11015267350E+01  0.90007731018E+02  0.89999992268E+02 0.  0.
        -12    1    1    2    0    0 -0.35104385676E-01  0.42242325117E+00  0.11015267350E+01  0.11802689816E+01  0.00000000000E+00 0.  1.
         11    1    3    3    0    0  0.31258119429E+02 -0.17244988661E+02 -0.15996118180E+02  0.39119502313E+02  0.51100000000E-03 0. -1.
        -11    1    3    3    0    0  0.62028764841E+01 -0.92285702690E+00  0.56685065233E+01  0.84533607657E+01  0.51100000000E-03 0.  1.
        -12    1    3    3    0    0 -0.37425891527E+02  0.17745422436E+02  0.92260849215E+01  0.42434867940E+02  0.00000000000E+00 0.  1.
</event>
<event>
 7    1  0.3863655E-015  0.9000775E+02  0.7816164E-02  0.1186339E+00
        -11   -1    0    0    0    0  0.00000000000E+00  0.00000000000E+00  0.45593999997E+02  0.45594000000E+02  0.51100000000E-03 0. -1.
         11   -1    0    0    0    0 -0.00000000000E+00 -0.00000000000E+00 -0.45593999997E+02  0.45594000000E+02  0.51100000000E-03 0.  1.
    9900012    2    1    2    0    0  0.10209504297E+01 -0.58487069335E+00  0.92559926608E-01  0.90007753904E+02  0.90000015455E+02 0.  0.
        -12    1    1    2    0    0 -0.10209504297E+01  0.58487069335E+00 -0.92559926608E-01  0.11802460963E+01  0.00000000000E+00 0.  1.
         11    1    3    3    0    0 -0.67379838736E+01  0.52235432403E+01 -0.19188971698E+01  0.87388784906E+01  0.51100000000E-03 0. -1.
        -11    1    3    3    0    0 -0.14510239622E+02  0.32007618584E+02 -0.84686245325E+01  0.36149029074E+02  0.51100000000E-03 0.  1.
         12    1    3    3    0    0  0.22269173926E+02 -0.37816032517E+02  0.10480081629E+02  0.45119846339E+02  0.00000000000E+00 0. -1.
</event>
<event>
 7    1  0.3863655E-015  0.9000775E+02  0.7816164E-02  0.1186339E+00
        -11   -1    0    0    0    0  0.00000000000E+00  0.00000000000E+00  0.45593999997E+02  0.45594000000E+02  0.51100000000E-03 0.  1.
         11   -1    0    0    0    0 -0.00000000000E+00 -0.00000000000E+00 -0.45593999997E+02  0.45594000000E+02  0.51100000000E-03 0. -1.
    9900012    2    1    2    0    0 -0.10505710587E+01 -0.50961426042E+00  0.17200070075E+00  0.90007749821E+02  0.90000011319E+02 0.  0.
        -12    1    1    2    0    0  0.10505710587E+01  0.50961426042E+00 -0.17200070075E+00  0.11802501789E+01  0.00000000000E+00 0.  1.
         11    1    3    3    0    0  0.81637094407E+01  0.18066480313E+02 -0.34627644119E+02  0.39901348351E+02  0.51100000000E-03 0. -1.
        -11    1    3    3    0    0 -0.58647828019E+01 -0.77719128597E+01 -0.33643956468E+01  0.10301333173E+02  0.51100000000E-03 0.  1.
        -12    1    3    3    0    0 -0.33494976974E+01 -0.10804181714E+02  0.38164040467E+02  0.39805068297E+02  0.00000000000E+00 0.  1.
</event>
<event>
 7    1  0.3863655E-015  0.9000747E+02  0.7816164E-02  0.1186340E+00
        -11   -1    0    0    0    0  0.00000000000E+00  0.00000000000E+00  0.45593999997E+02  0.45594000000E+02  0.51100000000E-03 0. -1.
         11   -1    0    0    0    0 -0.00000000000E+00 -0.00000000000E+00 -0.45593999997E+02  0.45594000000E+02  0.51100000000E-03 0.  1.
    9900012    2    1    2    0    0  0.52389157153E-01 -0.76666805184E+00  0.89616852368E+00  0.90007473614E+02  0.89999731465E+02 0.  0.
        -12    1    1    2    0    0 -0.52389157153E-01  0.76666805184E+00 -0.89616852368E+00  0.11805263861E+01  0.00000000000E+00 0.  1.
         11    1    3    3    0    0  0.15461156788E+01  0.13017514893E+02 -0.52583488005E+01  0.14124319454E+02  0.51100000000E-03 0. -1.
        -11    1    3    3    0    0  0.24070539514E+02  0.73188078345E+01 -0.21203928179E+02  0.32902315893E+02  0.51100000000E-03 0.  1.
         12    1    3    3    0    0 -0.25564266036E+02 -0.21102990779E+02  0.27358445503E+02  0.42980838267E+02  0.00000000000E+00 0. -1.
</event>
<event>
 7    1  0.3863655E-015  0.9000774E+02  0.7816164E-02  0.1186339E+00
        -11   -1    0    0    0    0  0.00000000000E+00  0.00000000000E+00  0.45593999997E+02  0.45594000000E+02  0.51100000000E-03 0. -1.
         11   -1    0    0    0    0 -0.00000000000E+00 -0.00000000000E+00 -0.45593999997E+02  0.45594000000E+02  0.51100000000E-03 0.  1.
    9900012    2    1    2    0    0  0.45858975238E+00  0.47914961124E+00  0.97628286086E+00  0.90007738531E+02  0.89999999880E+02 0.  0.
        -12    1    1    2    0    0 -0.45858975238E+00 -0.47914961124E+00 -0.97628286086E+00  0.11802614691E+01  0.00000000000E+00 0.  1.
         11    1    3    3    0    0  0.17381591439E+02  0.33608670961E+02  0.53613807140E+01  0.38215270353E+02  0.51100000000E-03 0. -1.
        -11    1    3    3    0    0  0.70319433751E+01  0.18513062332E+01 -0.59066785996E+01  0.93682663679E+01  0.51100000000E-03 0.  1.
        -12    1    3    3    0    0 -0.23954945062E+02 -0.34980827583E+02  0.15215807465E+01  0.42424201810E+02  0.00000000000E+00 0.  1.
</event>
<event>
 7    1  0.3863655E-015  0.9000774E+02  0.7816164E-02  0.1186339E+00
        -11   -1    0    0    0    0  0.00000000000E+00  0.00000000000E+00  0.45593999997E+02  0.45594000000E+02  0.51100000000E-03 0.  1.
         11   -1    0    0    0    0 -0.00000000000E+00 -0.00000000000E+00 -0.45593999997E+02  0.45594000000E+02  0.51100000000E-03 0. -1.
    9900012    2    1    2    0    0 -0.61997884994E+00 -0.99712707312E+00 -0.11992331944E+00  0.90007738259E+02  0.89999999604E+02 0.  0.
        -12    1    1    2    0    0  0.61997884994E+00  0.99712707312E+00  0.11992331944E+00  0.11802617408E+01  0.00000000000E+00 0.  1.
         11    1    3    3    0    0 -0.39026757681E+02 -0.10597711746E+02 -0.14652765517E+02  0.43012821890E+02  0.51100000000E-03 0. -1.
        -11    1    3    3    0    0  0.55110139328E+01 -0.60793083745E+01  0.18690138042E+01  0.84156091724E+01  0.51100000000E-03 0.  1.
        -12    1    3    3    0    0  0.32895764898E+02  0.15679893048E+02  0.12663828394E+02  0.38579307197E+02  0.00000000000E+00 0.  1.
</event>
<event>
 7    1  0.3863655E-015  0.9000742E+02  0.7816164E-02  0.1186340E+00
        -11   -1    0    0    0    0  0.00000000000E+00  0.00000000000E+00  0.45593999997E+02  0.45594000000E+02  0.51100000000E-03 0. -1.
         11   -1    0    0    0    0 -0.00000000000E+00 -0.00000000000E+00 -0.45593999997E+02  0.45594000000E+02  0.51100000000E-03 0.  1.
    9900012    2    1    2    0    0  0.80482040992E+00 -0.82835759283E-01  0.85974488871E+00  0.90007424323E+02  0.89999681524E+02 0.  0.
        -12    1    1    2    0    0 -0.80482040992E+00  0.82835759283E-01 -0.85974488871E+00  0.11805756769E+01  0.00000000000E+00 0.  1.
         11    1    3    3    0    0 -0.71375666913E+01 -0.30519095732E+02  0.29609880155E+02  0.43117340660E+02  0.51100000000E-03 0. -1.
        -11    1    3    3    0    0 -0.46889145437E+01  0.93335219556E+01 -0.21531289682E+01  0.10664732360E+02  0.51100000000E-03 0.  1.
        -12    1    3    3    0    0  0.12631301645E+02  0.21102738017E+02 -0.26597006298E+02  0.36225351303E+02  0.00000000000E+00 0.  1.
</event>
<event>
 7    1  0.3863655E-015  0.9000782E+02  0.7816164E-02  0.1186339E+00
        -11   -1    0    0    0    0  0.00000000000E+00  0.00000000000E+00  0.45593999997E+02  0.45594000000E+02  0.51100000000E-03 0. -1.
         11   -1    0    0    0    0 -0.00000000000E+00 -0.00000000000E+00 -0.45593999997E+02  0.45594000000E+02  0.51100000000E-03 0.  1.
    9900012    2    1    2    0    0 -0.10875327944E+00  0.10073971988E+01  0.60510376675E+00  0.90007819098E+02  0.90000081510E+02 0.  0.
        -12    1    1    2    0    0  0.10875327944E+00 -0.10073971988E+01 -0.60510376675E+00  0.11801809016E+01  0.00000000000E+00 0.  1.
         11    1    3    3    0    0  0.13814653319E+02  0.30758003964E+02  0.22414429387E+02  0.40488345227E+02  0.51100000000E-03 0. -1.
        -11    1    3    3    0    0 -0.83855248945E+01  0.91365088014E+00  0.37369249626E+01  0.92258546555E+01  0.51100000000E-03 0.  1.
        -12    1    3    3    0    0 -0.55378817035E+01 -0.30664257646E+02 -0.25546250583E+02  0.40293619216E+02  0.00000000000E+00 0.  1.
</event>
<event>
 7    1  0.3863655E-015  0.9000747E+02  0.7816164E-02  0.1186340E+00
        -11   -1    0    0    0    0  0.00000000000E+00  0.00000000000E+00  0.45593999997E+02  0.45594000000E+02  0.51100000000E-03 0. -1.
         11   -1    0    0    0    0 -0.00000000000E+00 -0.00000000000E+00 -0.45593999997E+02  0.45594000000E+02  0.51100000000E-03 0.  1.
    9900012    2    1    2    0    0  0.10993912591E+01  0.39449141848E+00  0.17134211861E+00  0.90007473532E+02  0.89999731382E+02 0.  0.
        -12    1    1    2    0    0 -0.10993912591E+01 -0.39449141848E+00 -0.17134211861E+00  0.11805264679E+01  0.00000000000E+00 0.  1.
         11    1    3    3    0    0  0.33400771751E+00 -0.40063875479E+02  0.99709111119E+01  0.41287343681E+02  0.51100000000E-03 0. -1.
        -11    1    3    3    0    0 -0.94348118944E+01  0.58848786117E+01  0.79667957221E+00  0.11148191349E+02  0.51100000000E-03 0.  1.
        -12    1    3    3    0    0  0.10200195436E+02  0.34573488286E+02 -0.10596248565E+02  0.37571938502E+02  0.00000000000E+00 0.  1.
</event>
<event>
 7    1  0.3863655E-015  0.9000772E+02  0.7816164E-02  0.1186339E+00
        -11   -1    0    0    0    0  0.00000000000E+00  0.00000000000E+00  0.45593999997E+02  0.45594000000E+02  0.51100000000E-03 0. -1.
         11   -1    0    0    0    0 -0.00000000000E+00 -0.00000000000E+00 -0.45593999997E+02  0.45594000000E+02  0.51100000000E-03 0.  1.
    9900012    2    1    2    0    0 -0.11277075974E+01  0.10852225458E-01  0.34817234638E+00  0.90007717755E+02  0.89999978829E+02 0.  0.
        -12    1    1    2    0    0  0.11277075974E+01 -0.10852225458E-01 -0.34817234638E+00  0.11802822454E+01  0.00000000000E+00 0.  1.
         11    1    3    3    0    0 -0.79908878801E+01  0.11789067841E+01  0.39033535454E+01  0.89710801735E+01  0.51100000000E-03 0. -1.
        -11    1    3    3    0    0 -0.11774328246E+02  0.63360722263E+01 -0.38484529231E+02  0.40741129185E+02  0.51100000000E-03 0.  1.
         12    1    3    3    0    0  0.18637508528E+02 -0.75041267850E+01  0.34929348032E+02  0.40295508396E+02  0.00000000000E+00 0. -1.
</event>
<event>
 7    1  0.3863655E-015  0.9000777E+02  0.7816164E-02  0.1186339E+00
        -11   -1    0    0    0    0  0.00000000000E+00  0.00000000000E+00  0.45593999997E+02  0.45594000000E+02  0.51100000000E-03 0. -1.
         11   -1    0    0    0    0 -0.00000000000E+00 -0.00000000000E+00 -0.45593999997E+02  0.45594000000E+02  0.51100000000E-03 0.  1.
    9900012    2    1    2    0    0  0.81815745410E+00  0.72531192651E+00  0.44440423819E+00  0.90007765219E+02  0.90000026920E+02 0.  0.
        -12    1    1    2    0    0 -0.81815745410E+00 -0.72531192651E+00 -0.44440423819E+00  0.11802347806E+01  0.00000000000E+00 0.  1.
         11    1    3    3    0    0  0.55095331557E+01  0.17035108230E+02 -0.14239808158E+02  0.22876232309E+02  0.51100000000E-03 0. -1.
        -11    1    3    3    0    0  0.11912107868E+01 -0.13600413101E+01 -0.24611898264E+02  0.24678213710E+02  0.51100000000E-03 0.  1.
         12    1    3    3    0    0 -0.58825864884E+01 -0.14949754993E+02  0.39296110660E+02  0.42453319201E+02  0.00000000000E+00 0. -1.
</event>
<event>
 7    1  0.3863655E-015  0.9000771E+02  0.7816164E-02  0.1186339E+00
        -11   -1    0    0    0    0  0.00000000000E+00  0.00000000000E+00  0.45593999997E+02  0.45594000000E+02  0.51100000000E-03 0. -1.
         11   -1    0    0    0    0 -0.00000000000E+00 -0.00000000000E+00 -0.45593999997E+02  0.45594000000E+02  0.51100000000E-03 0.  1.
    9900012    2    1    2    0    0 -0.55807800762E+00  0.10384972690E+01  0.56167196504E-01  0.90007710885E+02  0.89999971869E+02 0.  0.
        -12    1    1    2    0    0  0.55807800762E+00 -0.10384972690E+01 -0.56167196504E-01  0.11802891147E+01  0.00000000000E+00 0.  1.
         11    1    3    3    0    0  0.27567310179E+02 -0.81199681024E+01  0.12461586917E+02  0.31323818752E+02  0.51100000000E-03 0. -1.
        -11    1    3    3    0    0  0.10381034600E+02 -0.49459820118E+01 -0.13407664469E+02  0.17663354273E+02  0.51100000000E-03 0.  1.
        -12    1    3    3    0    0 -0.38506422786E+02  0.14104447383E+02  0.10022447484E+01  0.41020537860E+02  0.00000000000E+00 0.  1.
</event>
<event>
 7    1  0.3863655E-015  0.9000850E+02  0.7816164E-02  0.1186338E+00
        -11   -1    0    0    0    0  0.00000000000E+00  0.00000000000E+00  0.45593999997E+02  0.45594000000E+02  0.51100000000E-03 0.  1.
         11   -1    0    0    0    0 -0.00000000000E+00 -0.00000000000E+00 -0.45593999997E+02  0.45594000000E+02  0.51100000000E-03 0. -1.
    9900012    2    1    2    0    0  0.15696046649E+00  0.35871084314E-01 -0.11684603984E+01  0.90008498823E+02  0.90000770205E+02 0.  0.
        -12    1    1    2    0    0 -0.15696046649E+00 -0.35871084314E-01  0.11684603984E+01  0.11795011765E+01  0.00000000000E+00 0.  1.
         11    1    3    3    0    0  0.81435613056E+01 -0.29892123175E+01  0.54864022773E+00  0.86921796678E+01  0.51100000000E-03 0. -1.
        -11    1    3    3    0    0  0.28010071190E+02 -0.13352522507E+02  0.19288833283E+02  0.36536461721E+02  0.51100000000E-03 0.  1.
         12    1    3    3    0    0 -0.35996672029E+02  0.16377605909E+02 -0.21005933909E+02  0.44779857435E+02  0.00000000000E+00 0. -1.
</event>
<event>
 7    1  0.3863655E-015  0.9000761E+02  0.7816164E-02  0.1186339E+00
        -11   -1    0    0    0    0  0.00000000000E+00  0.00000000000E+00  0.45593999997E+02  0.45594000000E+02  0.51100000000E-03 0. -1.
         11   -1    0    0    0    0 -0.00000000000E+00 -0.00000000000E+00 -0.45593999997E+02  0.45594000000E+02  0.51100000000E-03 0.  1.
    9900012    2    1    2    0    0 -0.11597668828E+01  0.31550473006E-01  0.21738538094E+00  0.90007614021E+02  0.89999873726E+02 0.  0.
        -12    1    1    2    0    0  0.11597668828E+01 -0.31550473006E-01 -0.21738538094E+00  0.11803859787E+01  0.00000000000E+00 0.  1.
         11    1    3    3    0    0 -0.16501420140E+02 -0.16284914203E+02  0.27180185890E+02  0.35724750559E+02  0.51100000000E-03 0. -1.
        -11    1    3    3    0    0 -0.45047391948E+01 -0.16472235974E+01  0.85545876498E+01  0.98074966690E+01  0.51100000000E-03 0.  1.
        -12    1    3    3    0    0  0.19846392452E+02  0.17963688273E+02 -0.35517388159E+02  0.44475366793E+02  0.00000000000E+00 0.  1.
</event>
<event>
 7    1  0.3863655E-015  0.9000772E+02  0.7816164E-02  0.1186339E+00
        -11   -1    0    0    0    0  0.00000000000E+00  0.00000000000E+00  0.45593999997E+02  0.45594000000E+02  0.51100000000E-03 0.  1.
         11   -1    0    0    0    0 -0.00000000000E+00 -0.00000000000E+00 -0.45593999997E+02  0.45594000000E+02  0.51100000000E-03 0. -1.
    9900012    2    1    2    0    0 -0.11352688900E+01 -0.32282510086E+00  0.36710567402E-02  0.90007718265E+02  0.89999979346E+02 0.  0.
        -12    1    1    2    0    0  0.11352688900E+01  0.32282510086E+00 -0.36710567402E-02  0.11802817354E+01  0.00000000000E+00 0.  1.
         11    1    3    3    0    0  0.25152924957E+02 -0.13594223792E+01  0.24608827250E+02  0.35215224577E+02  0.51100000000E-03 0. -1.
        -11    1    3    3    0    0  0.10820356397E+02 -0.41932208773E+00 -0.11987916307E+01  0.10894633780E+02  0.51100000000E-03 0.  1.
        -12    1    3    3    0    0 -0.37108550244E+02  0.14559193660E+01 -0.23406364562E+02  0.43897859908E+02  0.00000000000E+00 0.  1.
</event>
<event>
 7    1  0.3863655E-015  0.9000776E+02  0.7816164E-02  0.1186339E+00
        -11   -1    0    0    0    0  0.00000000000E+00  0.00000000000E+00  0.45593999997E+02  0.45594000000E+02  0.51100000000E-03 0.  1.
         11   -1    0    0    0    0 -0.00000000000E+00 -0.00000000000E+00 -0.45593999997E+02  0.45594000000E+02  0.51100000000E-03 0. -1.
    9900012    2    1    2    0    0 -0.13073602669E+00 -0.11729420482E+01 -0.92443681856E-02  0.90007758323E+02  0.90000019933E+02 0.  0.
        -12    1    1    2    0    0  0.13073602669E+00  0.11729420482E+01  0.92443681856E-02  0.11802416768E+01  0.00000000000E+00 0.  1.
         11    1    3    3    0    0  0.27679487438E+01  0.18152671657E+01  0.87620172317E+01  0.93664124061E+01  0.51100000000E-03 0. -1.
        -11    1    3    3    0    0  0.20514795484E+02 -0.34841728687E+02 -0.72629416960E+01  0.41079839508E+02  0.51100000000E-03 0.  1.
         12    1    3    3    0    0 -0.23413480254E+02  0.31853519473E+02 -0.15083199039E+01  0.39561506409E+02  0.00000000000E+00 0. -1.
</event>
<event>
 7    1  0.3863655E-015  0.9000782E+02  0.7816164E-02  0.1186339E+00
        -11   -1    0    0    0    0  0.00000000000E+00  0.00000000000E+00  0.45593999997E+02  0.45594000000E+02  0.51100000000E-03 0.  1.
         11   -1    0    0    0    0 -0.00000000000E+00 -0.00000000000E+00 -0.45593999997E+02  0.45594000000E+02  0.51100000000E-03 0. -1.
    9900012    2    1    2    0    0  0.41125372585E+00  0.88359771865E+00  0.66554818613E+00  0.90007818258E+02  0.90000080659E+02 0.  0.
        -12    1    1    2    0    0 -0.41125372585E+00 -0.88359771865E+00 -0.66554818613E+00  0.11801817417E+01  0.00000000000E+00 0.  1.
         11    1    3    3    0    0  0.11103555693E+02 -0.37509966879E+01 -0.23356523043E+01  0.11950489410E+02  0.51100000000E-03 0. -1.
        -11    1    3    3    0    0  0.19660658987E+02 -0.84819471146E+00 -0.28066904103E+02  0.34278448801E+02  0.51100000000E-03 0.  1.
         12    1    3    3    0    0 -0.30352960954E+02  0.54827891180E+01  0.31068104593E+02  0.43778880047E+02  0.00000000000E+00 0. -1.
</event>
<event>
 7    1  0.3863655E-015  0.9000766E+02  0.7816164E-02  0.1186339E+00
        -11   -1    0    0    0    0  0.00000000000E+00  0.00000000000E+00  0.45593999997E+02  0.45594000000E+02  0.51100000000E-03 0. -1.
         11   -1    0    0    0    0 -0.00000000000E+00 -0.00000000000E+00 -0.45593999997E+02  0.45594000000E+02  0.51100000000E-03 0.  1.
    9900012    2    1    2    0    0 -0.91244694874E+00 -0.32013170518E+00  0.67688069815E+00  0.90007656312E+02  0.89999916575E+02 0.  0.
        -12    1    1    2    0    0  0.91244694874E+00  0.32013170518E+00 -0.67688069815E+00  0.11803436883E+01  0.00000000000E+00 0.  1.
         11    1    3    3    0    0 -0.39283176089E+02 -0.14905722013E+02  0.78875108481E+00  0.42023452987E+02  0.51100000000E-03 0. -1.
        -11    1    3    3    0    0  0.75052816693E+00  0.80859367965E+01 -0.49358914849E+01  0.95030885200E+01  0.51100000000E-03 0.  1.
        -12    1    3    3    0    0  0.37620200974E+02  0.64996535112E+01  0.48240210983E+01  0.38481114805E+02  0.00000000000E+00 0.  1.
</event>
<event>
 7    1  0.3863655E-015  0.9000769E+02  0.7816164E-02  0.1186339E+00
        -11   -1    0    0    0    0  0.00000000000E+00  0.00000000000E+00  0.45593999997E+02  0.45594000000E+02  0.51100000000E-03 0. -1.
         11   -1    0    0    0    0 -0.00000000000E+00 -0.00000000000E+00 -0.45593999997E+02  0.45594000000E+02  0.51100000000E-03 0.  1.
    9900012    2    1    2    0    0  0.16503860524E+00  0.11214673859E+01 -0.32893485436E+00  0.90007692846E+02  0.89999953592E+02 0.  0.
        -12    1    1    2    0    0 -0.16503860524E+00 -0.11214673859E+01  0.32893485436E+00  0.11803071538E+01  0.00000000000E+00 0.  1.
         11    1    3    3    0    0  0.30949458414E+00  0.68587923640E+01  0.66517489754E+01  0.95595284551E+01  0.51100000000E-03 0. -1.
        -11    1    3    3    0    0 -0.78667401855E+00  0.34948275789E+02 -0.16505033318E+02  0.38657689555E+02  0.51100000000E-03 0.  1.
         12    1    3    3    0    0  0.64221803965E+00 -0.40685600767E+02  0.95243494886E+01  0.41790474836E+02  0.00000000000E+00 0. -1.
</event>
<event>
 7    1  0.3863655E-015  0.9000770E+02  0.7816164E-02  0.1186339E+00
        -11   -1    0    0    0    0  0.00000000000E+00  0.00000000000E+00  0.45593999997E+02  0.45594000000E+02  0.51100000000E-03 0.  1.
         11   -1    0    0    0    0 -0.00000000000E+00 -0.00000000000E+00 -0.45593999997E+02  0.45594000000E+02  0.51100000000E-03 0. -1.
    9900012    2    1    2    0    0  0.18624041215E+00 -0.86040181297E+00  0.78621856353E+00  0.90007696479E+02  0.89999957273E+02 0.  0.
        -12    1    1    2    0    0 -0.18624041215E+00  0.86040181297E+00 -0.78621856353E+00  0.11803035205E+01  0.00000000000E+00 0.  1.
         11    1    3    3    0    0 -0.26619660849E+01  0.45936597717E+01  0.54779377518E+01  0.76286024807E+01  0.51100000000E-03 0. -1.
        -11    1    3    3    0    0 -0.19942027450E+02  0.34657438645E+01  0.32244246263E+02  0.38070818965E+02  0.51100000000E-03 0.  1.
         12    1    3    3    0    0  0.22790233947E+02 -0.89198054492E+01 -0.36935965451E+02  0.44308275033E+02  0.00000000000E+00 0. -1.
</event>
<event>
 7    1  0.3863655E-015  0.9000761E+02  0.7816164E-02  0.1186339E+00
        -11   -1    0    0    0    0  0.00000000000E+00  0.00000000000E+00  0.45593999997E+02  0.45594000000E+02  0.51100000000E-03 0.  1.
         11   -1    0    0    0    0 -0.00000000000E+00 -0.00000000000E+00 -0.45593999997E+02  0.45594000000E+02  0.51100000000E-03 0. -1.
    9900012    2    1    2    0    0  0.18581340987E+00  0.11516103825E+01 -0.18049618546E+00  0.90007613636E+02  0.89999873335E+02 0.  0.
        -12    1    1    2    0    0 -0.18581340987E+00 -0.11516103825E+01  0.18049618546E+00  0.11803863644E+01  0.00000000000E+00 0.  1.
         11    1    3    3    0    0  0.96816971186E+01  0.35990360336E+01  0.20053251341E+01  0.10521865263E+02  0.51100000000E-03 0. -1.
        -11    1    3    3    0    0  0.19064771274E+02 -0.29836592261E+02 -0.14173130866E+02  0.38138764797E+02  0.51100000000E-03 0.  1.
         12    1    3    3    0    0 -0.28560654982E+02  0.27389166610E+02  0.11987309546E+02  0.41346983575E+02  0.00000000000E+00 0. -1.
</event>
<event>
 7    1  0.3863655E-015  0.9000765E+02  0.7816164E-02  0.1186339E+00
        -11   -1    0    0    0    0  0.00000000000E+00  0.00000000000E+00  0.45593999997E+02  0.45594000000E+02  0.51100000000E-03 0. -1.
         11   -1    0    0    0    0 -0.00000000000E+00 -0.00000000000E+00 -0.45593999997E+02  0.45594000000E+02  0.51100000000E-03 0.  1.
    9900012    2    1    2    0    0  0.84615047658E+00  0.34016065966E+00  0.74935965869E+00  0.90007652678E+02  0.89999912893E+02 0.  0.
        -12    1    1    2    0    0 -0.84615047658E+00 -0.34016065966E+00 -0.74935965869E+00  0.11803473224E+01  0.00000000000E+00 0.  1.
         11    1    3    3    0    0  0.15241199484E+02  0.21775012657E+02  0.29914591539E+02  0.40016598120E+02  0.51100000000E-03 0. -1.
        -11    1    3    3    0    0 -0.52835317660E+01  0.79471333850E+01 -0.44479530388E+01  0.10528861451E+02  0.51100000000E-03 0.  1.
        -12    1    3    3    0    0 -0.91115172414E+01 -0.29381985383E+02 -0.24717278841E+02  0.39462193106E+02  0.00000000000E+00 0.  1.
</event>
<event>
 7    1  0.3863655E-015  0.9000775E+02  0.7816164E-02  0.1186339E+00
        -11   -1    0    0    0    0  0.00000000000E+00  0.00000000000E+00  0.45593999997E+02  0.45594000000E+02  0.51100000000E-03 0.  1.
         11   -1    0    0    0    0 -0.00000000000E+00 -0.00000000000E+00 -0.45593999997E+02  0.45594000000E+02  0.51100000000E-03 0. -1.
    9900012    2    1    2    0    0 -0.80931259399E+00  0.84030631994E+00 -0.17859022183E+00  0.90007747462E+02  0.90000008929E+02 0.  0.
        -12    1    1    2    0    0  0.80931259399E+00 -0.84030631994E+00  0.17859022183E+00  0.11802525380E+01  0.00000000000E+00 0.  1.
         11    1    3    3    0    0  0.19763029930E+02 -0.20852081784E+02 -0.27078115568E+02  0.39479247836E+02  0.51100000000E-03 0. -1.
        -11    1    3    3    0    0 -0.40240628817E+01  0.10226636905E+02 -0.55725058138E+01  0.12321931900E+02  0.51100000000E-03 0.  1.
        -12    1    3    3    0    0 -0.16548279642E+02  0.11465751200E+02  0.32472031160E+02  0.38206567725E+02  0.00000000000E+00 0.  1.
</event>
<event>
 7    1  0.3863655E-015  0.9000772E+02  0.7816164E-02  0.1186339E+00
        -11   -1    0    0    0    0  0.00000000000E+00  0.00000000000E+00  0.45593999997E+02  0.45594000000E+02  0.51100000000E-03 0. -1.
         11   -1    0    0    0    0 -0.00000000000E+00 -0.00000000000E+00 -0.45593999997E+02  0.45594000000E+02  0.51100000000E-03 0.  1.
    9900012    2    1    2    0    0 -0.39381623506E+00 -0.10636475569E+01 -0.32652879763E+00  0.90007721047E+02  0.89999982164E+02 0.  0.
        -12    1    1    2    0    0  0.39381623506E+00  0.10636475569E+01  0.32652879763E+00  0.11802789535E+01  0.00000000000E+00 0.  1.
         11    1    3    3    0    0  0.83567939491E+00 -0.43301045334E+01 -0.88391193733E+01  0.98781676882E+01  0.51100000000E-03 0. -1.
        -11    1    3    3    0    0  0.19381662121E+02 -0.29274981216E+02 -0.11208279554E+02  0.36855106601E+02  0.51100000000E-03 0.  1.
         12    1    3    3    0    0 -0.20611157751E+02  0.32541438193E+02  0.19720870129E+02  0.43274446757E+02  0.00000000000E+00 0. -1.
</event>
<event>
 7    1  0.3863655E-015  0.9000774E+02  0.7816164E-02  0.1186339E+00
        -11   -1    0    0    0    0  0.00000000000E+00  0.00000000000E+00  0.45593999997E+02  0.45594000000E+02  0.51100000000E-03 0.  1.
         11   -1    0    0    0    0 -0.00000000000E+00 -0.00000000000E+00 -0.45593999997E+02  0.45594000000E+02  0.51100000000E-03 0. -1.
    9900012    2    1    2    0    0 -0.37531985251E+00  0.11000812803E+01  0.20486383082E+00  0.90007740281E+02  0.90000001653E+02 0.  0.
        -12    1    1    2    0    0  0.37531985251E+00 -0.11000812803E+01 -0.20486383082E+00  0.11802597189E+01  0.00000000000E+00 0.  1.
         11    1    3    3    0    0  0.11064136963E+02  0.94141689507E+01 -0.30622487532E+02  0.33893634309E+02  0.51100000000E-03 0. -1.
        -11    1    3    3    0    0  0.48978611534E+01 -0.81923102636E+01 -0.89672041443E+01  0.13096325506E+02  0.51100000000E-03 0.  1.
        -12    1    3    3    0    0 -0.16337317969E+02 -0.12177740683E+00  0.39794555508E+02  0.43017780466E+02  0.00000000000E+00 0.  1.
</event>
<event>
 7    1  0.3863655E-015  0.9000780E+02  0.7816164E-02  0.1186339E+00
        -11   -1    0    0    0    0  0.00000000000E+00  0.00000000000E+00  0.45593999997E+02  0.45594000000E+02  0.51100000000E-03 0.  1.
         11   -1    0    0    0    0 -0.00000000000E+00 -0.00000000000E+00 -0.45593999997E+02  0.45594000000E+02  0.51100000000E-03 0. -1.
    9900012    2    1    2    0    0  0.64495929548E+00  0.26057690838E+00 -0.95341313028E+00  0.90007801112E+02  0.90000063287E+02 0.  0.
        -12    1    1    2    0    0 -0.64495929548E+00 -0.26057690838E+00  0.95341313028E+00  0.11801988879E+01  0.00000000000E+00 0.  1.
         11    1    3    3    0    0  0.51449998473E+01 -0.78513367901E+01  0.14213567065E+00  0.93880091409E+01  0.51100000000E-03 0. -1.
        -11    1    3    3    0    0 -0.33046096512E+02  0.65077433298E+00 -0.25965192075E+02  0.42031645241E+02  0.51100000000E-03 0.  1.
         12    1    3    3    0    0  0.28546055960E+02  0.74611393655E+01  0.24869643274E+02  0.38588146730E+02  0.00000000000E+00 0. -1.
</event>
<event>
 7    1  0.3863655E-015  0.9000741E+02  0.7816164E-02  0.1186340E+00
        -11   -1    0    0    0    0  0.00000000000E+00  0.00000000000E+00  0.45593999997E+02  0.45594000000E+02  0.51100000000E-03 0.  1.
         11   -1    0    0    0    0 -0.00000000000E+00 -0.00000000000E+00 -0.45593999997E+02  0.45594000000E+02  0.51100000000E-03 0. -1.
    9900012    2    1    2    0    0 -0.91144721641E+00 -0.54111970523E+00  0.51984346371E+00  0.90007413794E+02  0.89999670855E+02 0.  0.
        -12    1    1    2    0    0  0.91144721641E+00  0.54111970523E+00 -0.51984346371E+00  0.11805862063E+01  0.00000000000E+00 0.  1.
         11    1    3    3    0    0 -0.95921904024E+01 -0.33678360545E+01  0.46276430550E+01  0.11169938089E+02  0.51100000000E-03 0. -1.
        -11    1    3    3    0    0  0.42266516764E+01 -0.21343854119E+02  0.29837781976E+02  0.36928551645E+02  0.51100000000E-03 0.  1.
         12    1    3    3    0    0  0.44540915096E+01  0.24170570469E+02 -0.33945581567E+02  0.41908924060E+02  0.00000000000E+00 0. -1.
</event>
<event>
 7    1  0.3863655E-015  0.9000760E+02  0.7816164E-02  0.1186339E+00
        -11   -1    0    0    0    0  0.00000000000E+00  0.00000000000E+00  0.45593999997E+02  0.45594000000E+02  0.51100000000E-03 0. -1.
         11   -1    0    0    0    0 -0.00000000000E+00 -0.00000000000E+00 -0.45593999997E+02  0.45594000000E+02  0.51100000000E-03 0.  1.
    9900012    2    1    2    0    0  0.72870232418E+00 -0.90784563860E+00  0.19530144839E+00  0.90007604542E+02  0.89999864122E+02 0.  0.
        -12    1    1    2    0    0 -0.72870232418E+00  0.90784563860E+00 -0.19530144839E+00  0.11803954577E+01  0.00000000000E+00 0.  1.
         11    1    3    3    0    0  0.15174073663E+00  0.51355544893E+01 -0.75900010434E+01  0.91654275004E+01  0.51100000000E-03 0. -1.
        -11    1    3    3    0    0  0.31679683730E+02  0.19689724019E+02 -0.68103320046E+01  0.37916595515E+02  0.51100000000E-03 0.  1.
         12    1    3    3    0    0 -0.31102722143E+02 -0.25733124147E+02  0.14595634496E+02  0.42925581527E+02  0.00000000000E+00 0. -1.
</event>
<event>
 7    1  0.3863655E-015  0.9000769E+02  0.7816164E-02  0.1186339E+00
        -11   -1    0    0    0    0  0.00000000000E+00  0.00000000000E+00  0.45593999997E+02  0.45594000000E+02  0.51100000000E-03 0.  1.
         11   -1    0    0    0    0 -0.00000000000E+00 -0.00000000000E+00 -0.45593999997E+02  0.45594000000E+02  0.51100000000E-03 0. -1.
    9900012    2    1    2    0    0 -0.10491547344E+01  0.48143647229E+00 -0.24620470472E+00  0.90007693476E+02  0.89999954230E+02 0.  0.
        -12    1    1    2    0    0  0.10491547344E+01 -0.48143647229E+00  0.24620470472E+00  0.11803065238E+01  0.00000000000E+00 0.  1.
         11    1    3    3    0    0 -0.82621430937E+01 -0.23931828270E+01  0.13912294339E+01  0.87135441780E+01  0.51100000000E-03 0. -1.
        -11    1    3    3    0    0 -0.11226132085E+02 -0.24575593234E+02  0.26522257839E+02  0.37860480524E+02  0.51100000000E-03 0.  1.
         12    1    3    3    0    0  0.18439120444E+02  0.27450212534E+02 -0.28159691977E+02  0.43433668774E+02  0.00000000000E+00 0. -1.
</event>
<event>
 7    1  0.3863655E-015  0.9000762E+02  0.7816164E-02  0.1186339E+00
        -11   -1    0    0    0    0  0.00000000000E+00  0.00000000000E+00  0.45593999997E+02  0.45594000000E+02  0.51100000000E-03 0.  1.
         11   -1    0    0    0    0 -0.00000000000E+00 -0.00000000000E+00 -0.45593999997E+02  0.45594000000E+02  0.51100000000E-03 0. -1.
    9900012    2    1    2    0    0  0.35315726763E+00 -0.10357571204E+01  0.44247045694E+00  0.90007621682E+02  0.89999881488E+02 0.  0.
        -12    1    1    2    0    0 -0.35315726763E+00  0.10357571204E+01 -0.44247045694E+00  0.11803783179E+01  0.00000000000E+00 0.  1.
         11    1    3    3    0    0  0.72633996049E+01 -0.52341083609E+01  0.45529638990E+00  0.89643828130E+01  0.51100000000E-03 0. -1.
        -11    1    3    3    0    0  0.19641774038E+02 -0.23601768687E+02  0.21030918137E+02  0.37217499788E+02  0.51100000000E-03 0.  1.
         12    1    3    3    0    0 -0.26552016375E+02  0.27800119927E+02 -0.21043744070E+02  0.43825739081E+02  0.00000000000E+00 0. -1.
</event>
<event>
 7    1  0.3863655E-015  0.9000767E+02  0.7816164E-02  0.1186339E+00
        -11   -1    0    0    0    0  0.00000000000E+00  0.00000000000E+00  0.45593999997E+02  0.45594000000E+02  0.51100000000E-03 0. -1.
         11   -1    0    0    0    0 -0.00000000000E+00 -0.00000000000E+00 -0.45593999997E+02  0.45594000000E+02  0.51100000000E-03 0.  1.
    9900012    2    1    2    0    0  0.30848384006E+00  0.11270674390E+01  0.16654625873E+00  0.90007669136E+02  0.89999929569E+02 0.  0.
        -12    1    1    2    0    0 -0.30848384006E+00 -0.11270674390E+01 -0.16654625873E+00  0.11803308637E+01  0.00000000000E+00 0.  1.
         11    1    3    3    0    0  0.22589646375E+02 -0.17322031921E+02  0.78708883164E+01  0.29534654160E+02  0.51100000000E-03 0. -1.
        -11    1    3    3    0    0 -0.97310061471E+00  0.39004203396E+01 -0.27600369558E+02  0.27891586610E+02  0.51100000000E-03 0.  1.
         12    1    3    3    0    0 -0.21308061920E+02  0.14548679021E+02  0.19896027501E+02  0.32581428366E+02  0.00000000000E+00 0. -1.
</event>
<event>
 7    1  0.3863655E-015  0.9000778E+02  0.7816164E-02  0.1186339E+00
        -11   -1    0    0    0    0  0.00000000000E+00  0.00000000000E+00  0.45593999997E+02  0.45594000000E+02  0.51100000000E-03 0.  1.
         11   -1    0    0    0    0 -0.00000000000E+00 -0.00000000000E+00 -0.45593999997E+02  0.45594000000E+02  0.51100000000E-03 0. -1.
    9900012    2    1    2    0    0  0.92138384867E+00  0.32132494928E+00  0.66386174549E+00  0.90007783775E+02  0.90000045721E+02 0.  0.
        -12    1    1    2    0    0 -0.92138384867E+00 -0.32132494928E+00 -0.66386174549E+00  0.11802162246E+01  0.00000000000E+00 0.  1.
         11    1    3    3    0    0  0.45881193796E+01  0.62697156084E+01 -0.63797954410E+01  0.10052957942E+02  0.51100000000E-03 0. -1.
        -11    1    3    3    0    0 -0.48217846879E+01  0.34928367669E+02  0.14960974391E+02  0.38302365862E+02  0.51100000000E-03 0.  1.
         12    1    3    3    0    0  0.11550491570E+01 -0.40876758328E+02 -0.79173172044E+01  0.41652459972E+02  0.00000000000E+00 0. -1.
</event>
<event>
 7    1  0.3863655E-015  0.9000773E+02  0.7816164E-02  0.1186339E+00
        -11   -1    0    0    0    0  0.00000000000E+00  0.00000000000E+00  0.45593999997E+02  0.45594000000E+02  0.51100000000E-03 0.  1.
         11   -1    0    0    0    0 -0.00000000000E+00 -0.00000000000E+00 -0.45593999997E+02  0.45594000000E+02  0.51100000000E-03 0. -1.
    9900012    2    1    2    0    0 -0.36044172978E+00 -0.11212189174E+01  0.77331327910E-01  0.90007732981E+02  0.89999994257E+02 0.  0.
        -12    1    1    2    0    0  0.36044172978E+00  0.11212189174E+01 -0.77331327910E-01  0.11802670187E+01  0.00000000000E+00 0.  1.
         11    1    3    3    0    0 -0.56724638939E+01  0.68269715080E+01 -0.25177313670E+01  0.92262320638E+01  0.51100000000E-03 0. -1.
        -11    1    3    3    0    0  0.13555194203E+02  0.24962050689E+02  0.26841690237E+02  0.39080987699E+02  0.51100000000E-03 0.  1.
         12    1    3    3    0    0 -0.82431720390E+01 -0.32910241115E+02 -0.24246627542E+02  0.41700513218E+02  0.00000000000E+00 0. -1.
</event>
<event>
 7    1  0.3863655E-015  0.9000770E+02  0.7816164E-02  0.1186339E+00
        -11   -1    0    0    0    0  0.00000000000E+00  0.00000000000E+00  0.45593999997E+02  0.45594000000E+02  0.51100000000E-03 0.  1.
         11   -1    0    0    0    0 -0.00000000000E+00 -0.00000000000E+00 -0.45593999997E+02  0.45594000000E+02  0.51100000000E-03 0. -1.
    9900012    2    1    2    0    0  0.97163930871E+00  0.77557872629E-01 -0.66559525931E+00  0.90007696980E+02  0.89999957780E+02 0.  0.
        -12    1    1    2    0    0 -0.97163930871E+00 -0.77557872629E-01  0.66559525931E+00  0.11803030200E+01  0.00000000000E+00 0.  1.
         11    1    3    3    0    0 -0.14043436521E+02  0.34001445473E+02 -0.73161737639E+01  0.37507903199E+02  0.51100000000E-03 0. -1.
        -11    1    3    3    0    0 -0.98869705438E+00 -0.87118045574E+00 -0.11472557916E+02  0.11547989550E+02  0.51100000000E-03 0.  1.
        -12    1    3    3    0    0  0.16003772884E+02 -0.33052707144E+02  0.18123136420E+02  0.40951804231E+02  0.00000000000E+00 0.  1.
</event>
<event>
 7    1  0.3863655E-015  0.9000804E+02  0.7816164E-02  0.1186338E+00
        -11   -1    0    0    0    0  0.00000000000E+00  0.00000000000E+00  0.45593999997E+02  0.45594000000E+02  0.51100000000E-03 0. -1.
         11   -1    0    0    0    0 -0.00000000000E+00 -0.00000000000E+00 -0.45593999997E+02  0.45594000000E+02  0.51100000000E-03 0.  1.
    9900012    2    1    2    0    0  0.42498547407E+00  0.26387709892E+00  0.10686731346E+01  0.90008039812E+02  0.90000305137E+02 0.  0.
        -12    1    1    2    0    0 -0.42498547407E+00 -0.26387709892E+00 -0.10686731346E+01  0.11799601879E+01  0.00000000000E+00 0.  1.
         11    1    3    3    0    0  0.39298727927E+02  0.40569195022E+01  0.80236472295E+01  0.40314110776E+02  0.51100000000E-03 0. -1.
        -11    1    3    3    0    0 -0.19075307616E+01  0.95205263112E+01  0.41268179576E+00  0.97185081867E+01  0.51100000000E-03 0.  1.
        -12    1    3    3    0    0 -0.36966211692E+02 -0.13313568714E+02 -0.73676558907E+01  0.39975420849E+02  0.00000000000E+00 0.  1.
</event>
<event>
 7    1  0.3863655E-015  0.9000772E+02  0.7816164E-02  0.1186339E+00
        -11   -1    0    0    0    0  0.00000000000E+00  0.00000000000E+00  0.45593999997E+02  0.45594000000E+02  0.51100000000E-03 0. -1.
         11   -1    0    0    0    0 -0.00000000000E+00 -0.00000000000E+00 -0.45593999997E+02  0.45594000000E+02  0.51100000000E-03 0.  1.
    9900012    2    1    2    0    0  0.55891573543E+00  0.10304780867E+01 -0.13704966986E+00  0.90007722703E+02  0.89999983842E+02 0.  0.
        -12    1    1    2    0    0 -0.55891573543E+00 -0.10304780867E+01  0.13704966986E+00  0.11802772973E+01  0.00000000000E+00 0.  1.
         11    1    3    3    0    0  0.15947322510E+02  0.24364775659E+02  0.16724409538E+02  0.33580727550E+02  0.51100000000E-03 0. -1.
        -11    1    3    3    0    0  0.20310602982E+01  0.62367082460E+01  0.10604808330E+02  0.12469310152E+02  0.51100000000E-03 0.  1.
        -12    1    3    3    0    0 -0.17419467072E+02 -0.29571005818E+02 -0.27466267538E+02  0.43957685001E+02  0.00000000000E+00 0.  1.
</event>
<event>
 7    1  0.3863655E-015  0.9000804E+02  0.7816164E-02  0.1186338E+00
        -11   -1    0    0    0    0  0.00000000000E+00  0.00000000000E+00  0.45593999997E+02  0.45594000000E+02  0.51100000000E-03 0.  1.
         11   -1    0    0    0    0 -0.00000000000E+00 -0.00000000000E+00 -0.45593999997E+02  0.45594000000E+02  0.51100000000E-03 0. -1.
    9900012    2    1    2    0    0  0.29032946687E+00  0.63353838927E+00 -0.95218153241E+00  0.90008037390E+02  0.90000302683E+02 0.  0.
        -12    1    1    2    0    0 -0.29032946687E+00 -0.63353838927E+00  0.95218153241E+00  0.11799626099E+01  0.00000000000E+00 0.  1.
         11    1    3    3    0    0 -0.63480613403E+01  0.80540723572E+01 -0.30427893644E+01  0.10696940296E+02  0.51100000000E-03 0. -1.
        -11    1    3    3    0    0 -0.27055359677E+02  0.18127354267E+02  0.13899333904E+02  0.35408825782E+02  0.51100000000E-03 0.  1.
         12    1    3    3    0    0  0.33693750484E+02 -0.25547888235E+02 -0.11808726072E+02  0.43902271313E+02  0.00000000000E+00 0. -1.
</event>
<event>
 7    1  0.3863655E-015  0.9000761E+02  0.7816164E-02  0.1186339E+00
        -11   -1    0    0    0    0  0.00000000000E+00  0.00000000000E+00  0.45593999997E+02  0.45594000000E+02  0.51100000000E-03 0. -1.
         11   -1    0    0    0    0 -0.00000000000E+00 -0.00000000000E+00 -0.45593999997E+02  0.45594000000E+02  0.51100000000E-03 0.  1.
    9900012    2    1    2    0    0 -0.10294800256E+01 -0.56362942140E+00  0.12573904820E+00  0.90007611269E+02  0.89999870938E+02 0.  0.
        -12    1    1    2    0    0  0.10294800256E+01  0.56362942140E+00 -0.12573904820E+00  0.11803887309E+01  0.00000000000E+00 0.  1.
         11    1    3    3    0    0  0.31336478980E+02 -0.21780215634E+02  0.15567317642E+02  0.41215216689E+02  0.51100000000E-03 0. -1.
        -11    1    3    3    0    0 -0.77242603422E+01 -0.36496945419E+01  0.32096296041E+01  0.91261268093E+01  0.51100000000E-03 0.  1.
        -12    1    3    3    0    0 -0.24641698663E+02  0.24866280755E+02 -0.18651208198E+02  0.39666267770E+02  0.00000000000E+00 0.  1.
</event>
<event>
 7    1  0.3863655E-015  0.9000771E+02  0.7816164E-02  0.1186339E+00
        -11   -1    0    0    0    0  0.00000000000E+00  0.00000000000E+00  0.45593999997E+02  0.45594000000E+02  0.51100000000E-03 0.  1.
         11   -1    0    0    0    0 -0.00000000000E+00 -0.00000000000E+00 -0.45593999997E+02  0.45594000000E+02  0.51100000000E-03 0. -1.
    9900012    2    1    2    0    0  0.58265740568E+00  0.27140764025E+00 -0.98991423729E+00  0.90007711071E+02  0.89999972057E+02 0.  0.
        -12    1    1    2    0    0 -0.58265740568E+00 -0.27140764025E+00  0.98991423729E+00  0.11802889294E+01  0.00000000000E+00 0.  1.
         11    1    3    3    0    0 -0.76577351626E+00  0.48968289151E+01  0.13403158332E+00  0.49581556277E+01  0.51100000000E-03 0. -1.
        -11    1    3    3    0    0 -0.20634470544E+02  0.29424024987E+02  0.18046956045E+02  0.40215012667E+02  0.51100000000E-03 0.  1.
         12    1    3    3    0    0  0.21982901466E+02 -0.34049446262E+02 -0.19170901865E+02  0.44834542776E+02  0.00000000000E+00 0. -1.
</event>
<event>
 7    1  0.3863655E-015  0.9000765E+02  0.7816164E-02  0.1186339E+00
        -11   -1    0    0    0    0  0.00000000000E+00  0.00000000000E+00  0.45593999997E+02  0.45594000000E+02  0.51100000000E-03 0.  1.
         11   -1    0    0    0    0 -0.00000000000E+00 -0.00000000000E+00 -0.45593999997E+02  0.45594000000E+02  0.51100000000E-03 0. -1.
    9900012    2    1    2    0    0  0.13631636853E+00 -0.95371511698E+00 -0.68195735996E+00  0.90007652374E+02  0.89999912586E+02 0.  0.
        -12    1    1    2    0    0 -0.13631636853E+00  0.95371511698E+00  0.68195735996E+00  0.11803476257E+01  0.00000000000E+00 0.  1.
         11    1    3    3    0    0  0.21025583383E+01 -0.47484894904E+01 -0.72016020461E+01  0.88787373144E+01  0.51100000000E-03 0. -1.
        -11    1    3    3    0    0 -0.19059061327E+01 -0.37847374912E+02  0.10427377700E+02  0.39303771726E+02  0.51100000000E-03 0.  1.
         12    1    3    3    0    0 -0.60335837110E-01  0.41642149286E+02 -0.39077330139E+01  0.41825143334E+02  0.00000000000E+00 0. -1.
</event>
<event>
 7    1  0.3863655E-015  0.9000780E+02  0.7816164E-02  0.1186339E+00
        -11   -1    0    0    0    0  0.00000000000E+00  0.00000000000E+00  0.45593999997E+02  0.45594000000E+02  0.51100000000E-03 0. -1.
         11   -1    0    0    0    0 -0.00000000000E+00 -0.00000000000E+00 -0.45593999997E+02  0.45594000000E+02  0.51100000000E-03 0.  1.
    9900012    2    1    2    0    0  0.11430462313E+01 -0.15228322825E+00  0.25126827724E+00  0.90007796367E+02  0.90000058479E+02 0.  0.
        -12    1    1    2    0    0 -0.11430462313E+01  0.15228322825E+00 -0.25126827724E+00  0.11802036331E+01  0.00000000000E+00 0.  1.
         11    1    3    3    0    0 -0.68148420851E+01  0.28898486943E+01 -0.66804325152E+01  0.99710318910E+01  0.51100000000E-03 0. -1.
        -11    1    3    3    0    0 -0.14833545963E+02 -0.26236107985E+02 -0.21354722664E+02  0.36937672211E+02  0.51100000000E-03 0.  1.
         12    1    3    3    0    0  0.22791434279E+02  0.23193976062E+02  0.28286423457E+02  0.43099092265E+02  0.00000000000E+00 0. -1.
</event>
<event>
 7    1  0.3863655E-015  0.9000770E+02  0.7816164E-02  0.1186339E+00
        -11   -1    0    0    0    0  0.00000000000E+00  0.00000000000E+00  0.45593999997E+02  0.45594000000E+02  0.51100000000E-03 0. -1.
         11   -1    0    0    0    0 -0.00000000000E+00 -0.00000000000E+00 -0.45593999997E+02  0.45594000000E+02  0.51100000000E-03 0.  1.
    9900012    2    1    2    0    0  0.30063834421E-01 -0.11597523966E+01  0.21723163369E+00  0.90007695362E+02  0.89999956141E+02 0.  0.
        -12    1    1    2    0    0 -0.30063834421E-01  0.11597523966E+01 -0.21723163369E+00  0.11803046379E+01  0.00000000000E+00 0.  1.
         11    1    3    3    0    0  0.35612569520E+02 -0.10822864709E+02 -0.17595149540E+01  0.37262385880E+02  0.51100000000E-03 0. -1.
        -11    1    3    3    0    0  0.18636838442E+01 -0.86222722456E+01  0.63137114984E+01  0.10848034352E+02  0.51100000000E-03 0.  1.
        -12    1    3    3    0    0 -0.37446189530E+02  0.18285384558E+02 -0.43369649107E+01  0.41897275131E+02  0.00000000000E+00 0.  1.
</event>
<event>
 7    1  0.3863655E-015  0.9000771E+02  0.7816164E-02  0.1186339E+00
        -11   -1    0    0    0    0  0.00000000000E+00  0.00000000000E+00  0.45593999997E+02  0.45594000000E+02  0.51100000000E-03 0. -1.
         11   -1    0    0    0    0 -0.00000000000E+00 -0.00000000000E+00 -0.45593999997E+02  0.45594000000E+02  0.51100000000E-03 0.  1.
    9900012    2    1    2    0    0  0.34798705652E+00  0.59095546921E+00  0.96060448396E+00  0.90007710064E+02  0.89999971037E+02 0.  0.
        -12    1    1    2    0    0 -0.34798705652E+00 -0.59095546921E+00 -0.96060448396E+00  0.11802899359E+01  0.00000000000E+00 0.  1.
         11    1    3    3    0    0  0.36890108113E+01 -0.44417773811E+01  0.17137383869E+02  0.18083918636E+02  0.51100000000E-03 0. -1.
        -11    1    3    3    0    0  0.29956472422E+02 -0.10014056065E+02 -0.15947774139E+02  0.35383655253E+02  0.51100000000E-03 0.  1.
         12    1    3    3    0    0 -0.33297496177E+02  0.15046788915E+02 -0.22900524599E+00  0.36540136175E+02  0.00000000000E+00 0. -1.
</event>
<event>
 7    1  0.3863655E-015  0.9000766E+02  0.7816164E-02  0.1186339E+00
        -11   -1    0    0    0    0  0.00000000000E+00  0.00000000000E+00  0.45593999997E+02  0.45594000000E+02  0.51100000000E-03 0.  1.
         11   -1    0    0    0    0 -0.00000000000E+00 -0.00000000000E+00 -0.45593999997E+02  0.45594000000E+02  0.51100000000E-03 0. -1.
    9900012    2    1    2    0    0  0.75935829287E+00 -0.86284082285E+00  0.26847191620E+00  0.90007662560E+02  0.89999922906E+02 0.  0.
        -12    1    1    2    0    0 -0.75935829287E+00  0.86284082285E+00 -0.26847191620E+00  0.11803374400E+01  0.00000000000E+00 0.  1.
         11    1    3    3    0    0  0.28241698773E+01  0.52935089485E+01  0.10933024892E+02  0.12471094821E+02  0.51100000000E-03 0. -1.
        -11    1    3    3    0    0 -0.31491816767E+02  0.11808391725E+02 -0.23192004371E+02  0.40853906856E+02  0.51100000000E-03 0.  1.
         12    1    3    3    0    0  0.29427005182E+02 -0.17964741496E+02  0.12527451395E+02  0.36682660883E+02  0.00000000000E+00 0. -1.
</event>
<event>
 7    1  0.3863655E-015  0.9000805E+02  0.7816164E-02  0.1186338E+00
        -11   -1    0    0    0    0  0.00000000000E+00  0.00000000000E+00  0.45593999997E+02  0.45594000000E+02  0.51100000000E-03 0.  1.
         11   -1    0    0    0    0 -0.00000000000E+00 -0.00000000000E+00 -0.45593999997E+02  0.45594000000E+02  0.51100000000E-03 0. -1.
    9900012    2    1    2    0    0 -0.86135240461E+00 -0.65186921822E+00 -0.47478630321E+00  0.90008049375E+02  0.90000314827E+02 0.  0.
        -12    1    1    2    0    0  0.86135240461E+00  0.65186921822E+00  0.47478630321E+00  0.11799506245E+01  0.00000000000E+00 0.  1.
         11    1    3    3    0    0  0.65157890922E+01 -0.38404521234E+01 -0.64535387199E+01  0.99424716382E+01  0.51100000000E-03 0. -1.
        -11    1    3    3    0    0  0.16175258477E+02  0.19255024356E+02  0.32522923081E+02  0.41111257288E+02  0.51100000000E-03 0.  1.
         12    1    3    3    0    0 -0.23552399973E+02 -0.16066441451E+02 -0.26544170665E+02  0.38954320450E+02  0.00000000000E+00 0. -1.
</event>
<event>
 7    1  0.3863655E-015  0.9000760E+02  0.7816164E-02  0.1186339E+00
        -11   -1    0    0    0    0  0.00000000000E+00  0.00000000000E+00  0.45593999997E+02  0.45594000000E+02  0.51100000000E-03 0. -1.
         11   -1    0    0    0    0 -0.00000000000E+00 -0.00000000000E+00 -0.45593999997E+02  0.45594000000E+02  0.51100000000E-03 0.  1.
    9900012    2    1    2    0    0  0.11705658576E+01  0.14051251992E+00 -0.58033578682E-01  0.90007603418E+02  0.89999862983E+02 0.  0.
        -12    1    1    2    0    0 -0.11705658576E+01 -0.14051251992E+00  0.58033578682E-01  0.11803965823E+01  0.00000000000E+00 0.  1.
         11    1    3    3    0    0 -0.15040669585E+02 -0.39799950322E+01 -0.34532374174E+02  0.37875413771E+02  0.51100000000E-03 0. -1.
        -11    1    3    3    0    0 -0.66802277870E+01  0.60248724888E+01 -0.18214694866E+01  0.91783595018E+01  0.51100000000E-03 0.  1.
        -12    1    3    3    0    0  0.22891463230E+02 -0.19043649367E+01  0.36295810082E+02  0.42953830145E+02  0.00000000000E+00 0.  1.
</event>
<event>
 7    1  0.3863655E-015  0.9000773E+02  0.7816164E-02  0.1186339E+00
        -11   -1    0    0    0    0  0.00000000000E+00  0.00000000000E+00  0.45593999997E+02  0.45594000000E+02  0.51100000000E-03 0.  1.
         11   -1    0    0    0    0 -0.00000000000E+00 -0.00000000000E+00 -0.45593999997E+02  0.45594000000E+02  0.51100000000E-03 0. -1.
    9900012    2    1    2    0    0 -0.36485536927E+00  0.11213824396E+01  0.49232853551E-01  0.90007728044E+02  0.89999989254E+02 0.  0.
        -12    1    1    2    0    0  0.36485536927E+00 -0.11213824396E+01 -0.49232853551E-01  0.11802719561E+01  0.00000000000E+00 0.  1.
         11    1    3    3    0    0  0.63636958600E+01  0.74476595789E+01  0.14505618181E+01  0.99029484524E+01  0.51100000000E-03 0. -1.
        -11    1    3    3    0    0 -0.15022744794E+02  0.13413565721E+02  0.33541634199E+02  0.39123494623E+02  0.51100000000E-03 0.  1.
         12    1    3    3    0    0  0.82941935648E+01 -0.19739842861E+02 -0.34942963163E+02  0.40981284969E+02  0.00000000000E+00 0. -1.
</event>
<event>
 7    1  0.3863655E-015  0.9000765E+02  0.7816164E-02  0.1186339E+00
        -11   -1    0    0    0    0  0.00000000000E+00  0.00000000000E+00  0.45593999997E+02  0.45594000000E+02  0.51100000000E-03 0.  1.
         11   -1    0    0    0    0 -0.00000000000E+00 -0.00000000000E+00 -0.45593999997E+02  0.45594000000E+02  0.51100000000E-03 0. -1.
    9900012    2    1    2    0    0 -0.83768266538E+00  0.69877363927E+00 -0.45081229267E+00  0.90007648963E+02  0.89999909129E+02 0.  0.
        -12    1    1    2    0    0  0.83768266538E+00 -0.69877363927E+00  0.45081229267E+00  0.11803510368E+01  0.00000000000E+00 0.  1.
         11    1    3    3    0    0  0.20827997703E+02 -0.55370570280E+01 -0.34826027769E+02  0.40955057066E+02  0.51100000000E-03 0. -1.
        -11    1    3    3    0    0 -0.89943776088E+01 -0.20953711060E+01 -0.21692621866E+01  0.94865751110E+01  0.51100000000E-03 0.  1.
        -12    1    3    3    0    0 -0.12671302759E+02  0.83312017732E+01  0.36544477663E+02  0.39566016786E+02  0.00000000000E+00 0.  1.
</event>
<event>
 7    1  0.3863655E-015  0.9000773E+02  0.7816164E-02  0.1186339E+00
        -11   -1    0    0    0    0  0.00000000000E+00  0.00000000000E+00  0.45593999997E+02  0.45594000000E+02  0.51100000000E-03 0. -1.
         11   -1    0    0    0    0 -0.00000000000E+00 -0.00000000000E+00 -0.45593999997E+02  0.45594000000E+02  0.51100000000E-03 0.  1.
    9900012    2    1    2    0    0  0.87968669583E+00 -0.17686742888E+00 -0.76675417255E+00  0.90007727688E+02  0.89999988893E+02 0.  0.
        -12    1    1    2    0    0 -0.87968669583E+00  0.17686742888E+00  0.76675417255E+00  0.11802723124E+01  0.00000000000E+00 0.  1.
         11    1    3    3    0    0  0.79637871656E+01 -0.50352321309E+01  0.17431885906E+01  0.95819713710E+01  0.51100000000E-03 0. -1.
        -11    1    3    3    0    0  0.29872145447E+01 -0.11526069814E+02 -0.38129687295E+02  0.39945547806E+02  0.51100000000E-03 0.  1.
         12    1    3    3    0    0 -0.10071315014E+02  0.16384434516E+02  0.35619744532E+02  0.40480208510E+02  0.00000000000E+00 0. -1.
</event>
<event>
 7    1  0.3863655E-015  0.9000766E+02  0.7816164E-02  0.1186339E+00
        -11   -1    0    0    0    0  0.00000000000E+00  0.00000000000E+00  0.45593999997E+02  0.45594000000E+02  0.51100000000E-03 0.  1.
         11   -1    0    0    0    0 -0.00000000000E+00 -0.00000000000E+00 -0.45593999997E+02  0.45594000000E+02  0.51100000000E-03 0. -1.
    9900012    2    1    2    0    0 -0.26122519086E+00 -0.48931135571E+00 -0.10418933710E+01  0.90007658524E+02  0.89999918817E+02 0.  0.
        -12    1    1    2    0    0  0.26122519086E+00  0.48931135571E+00  0.10418933710E+01  0.11803414759E+01  0.00000000000E+00 0.  1.
         11    1    3    3    0    0  0.36369984036E+02  0.33025443199E+00 -0.19194835716E+02  0.41125740421E+02  0.51100000000E-03 0. -1.
        -11    1    3    3    0    0 -0.73100801422E+01 -0.68684633761E+01 -0.48357564002E+01  0.11135421009E+02  0.51100000000E-03 0.  1.
        -12    1    3    3    0    0 -0.29321129085E+02  0.60488975884E+01  0.22988698745E+02  0.37746497093E+02  0.00000000000E+00 0.  1.
</event>
<event>
 7    1  0.3863655E-015  0.9000769E+02  0.7816164E-02  0.1186339E+00
        -11   -1    0    0    0    0  0.00000000000E+00  0.00000000000E+00  0.45593999997E+02  0.45594000000E+02  0.51100000000E-03 0. -1.
         11   -1    0    0    0    0 -0.00000000000E+00 -0.00000000000E+00 -0.45593999997E+02  0.45594000000E+02  0.51100000000E-03 0.  1.
    9900012    2    1    2    0    0  0.10435320702E+01 -0.17128369035E+00  0.52425024320E+00  0.90007688346E+02  0.89999949032E+02 0.  0.
        -12    1    1    2    0    0 -0.10435320702E+01  0.17128369035E+00 -0.52425024320E+00  0.11803116545E+01  0.00000000000E+00 0.  1.
         11    1    3    3    0    0  0.26121749949E+01 -0.21073562176E+01  0.90383377637E+01  0.96413670309E+01  0.51100000000E-03 0. -1.
        -11    1    3    3    0    0  0.80133237400E+01  0.39894167635E+02 -0.26080612396E+01  0.40774501252E+02  0.51100000000E-03 0.  1.
         12    1    3    3    0    0 -0.95819666648E+01 -0.37958095108E+02 -0.59060262809E+01  0.39591820062E+02  0.00000000000E+00 0. -1.
</event>
<event>
 7    1  0.3863655E-015  0.9000725E+02  0.7816164E-02  0.1186340E+00
        -11   -1    0    0    0    0  0.00000000000E+00  0.00000000000E+00  0.45593999997E+02  0.45594000000E+02  0.51100000000E-03 0.  1.
         11   -1    0    0    0    0 -0.00000000000E+00 -0.00000000000E+00 -0.45593999997E+02  0.45594000000E+02  0.51100000000E-03 0. -1.
    9900012    2    1    2    0    0  0.62939210198E+00 -0.94456301163E+00  0.32533599363E+00  0.90007247185E+02  0.89999502047E+02 0.  0.
        -12    1    1    2    0    0 -0.62939210198E+00  0.94456301163E+00 -0.32533599363E+00  0.11807528148E+01  0.00000000000E+00 0.  1.
         11    1    3    3    0    0  0.66895558249E+01 -0.62713756198E+01  0.34501028428E+01  0.97971179020E+01  0.51100000000E-03 0. -1.
        -11    1    3    3    0    0  0.21554190936E+02  0.33965110237E+02  0.79000293455E+00  0.40234760658E+02  0.51100000000E-03 0.  1.
         12    1    3    3    0    0 -0.27614354659E+02 -0.28638297628E+02 -0.39147697837E+01  0.39975368625E+02  0.00000000000E+00 0. -1.
</event>
<event>
 7    1  0.3863655E-015  0.9000769E+02  0.7816164E-02  0.1186339E+00
        -11   -1    0    0    0    0  0.00000000000E+00  0.00000000000E+00  0.45593999997E+02  0.45594000000E+02  0.51100000000E-03 0. -1.
         11   -1    0    0    0    0 -0.00000000000E+00 -0.00000000000E+00 -0.45593999997E+02  0.45594000000E+02  0.51100000000E-03 0.  1.
    9900012    2    1    2    0    0 -0.55222159761E+00  0.52970355566E-01  0.10418141499E+01  0.90007690179E+02  0.89999950889E+02 0.  0.
        -12    1    1    2    0    0  0.55222159761E+00 -0.52970355566E-01 -0.10418141499E+01  0.11803098213E+01  0.00000000000E+00 0.  1.
         11    1    3    3    0    0  0.28628380774E+02 -0.11443986007E+02  0.20628863217E+02  0.37095808380E+02  0.51100000000E-03 0. -1.
        -11    1    3    3    0    0  0.87688323089E+01 -0.17234996236E+01 -0.42849506555E+01  0.99107857103E+01  0.51100000000E-03 0.  1.
        -12    1    3    3    0    0 -0.37949434680E+02  0.13220455986E+02 -0.15302098412E+02  0.43001096089E+02  0.00000000000E+00 0.  1.
</event>
<event>
 7    1  0.3863655E-015  0.9000766E+02  0.7816164E-02  0.1186339E+00
        -11   -1    0    0    0    0  0.00000000000E+00  0.00000000000E+00  0.45593999997E+02  0.45594000000E+02  0.51100000000E-03 0. -1.
         11   -1    0    0    0    0 -0.00000000000E+00 -0.00000000000E+00 -0.45593999997E+02  0.45594000000E+02  0.51100000000E-03 0.  1.
    9900012    2    1    2    0    0 -0.11075343712E+01 -0.39001650127E+00 -0.12027124766E+00  0.90007656648E+02  0.89999916916E+02 0.  0.
        -12    1    1    2    0    0  0.11075343712E+01  0.39001650127E+00  0.12027124766E+00  0.11803433516E+01  0.00000000000E+00 0.  1.
         11    1    3    3    0    0  0.25279844370E+02 -0.14389563529E+02 -0.92136390578E+01  0.30512640247E+02  0.51100000000E-03 0. -1.
        -11    1    3    3    0    0 -0.71047934720E+01 -0.12895998494E+02 -0.13051580152E+02  0.19675584163E+02  0.51100000000E-03 0.  1.
         12    1    3    3    0    0 -0.19282585269E+02  0.26895545521E+02  0.22144947962E+02  0.39819432238E+02  0.00000000000E+00 0. -1.
</event>
<event>
 7    1  0.3863655E-015  0.9000828E+02  0.7816164E-02  0.1186338E+00
        -11   -1    0    0    0    0  0.00000000000E+00  0.00000000000E+00  0.45593999997E+02  0.45594000000E+02  0.51100000000E-03 0. -1.
         11   -1    0    0    0    0 -0.00000000000E+00 -0.00000000000E+00 -0.45593999997E+02  0.45594000000E+02  0.51100000000E-03 0.  1.
    9900012    2    1    2    0    0  0.16163461433E+00  0.10988276801E+01  0.39772922447E+00  0.90008281154E+02  0.90000549664E+02 0.  0.
        -12    1    1    2    0    0 -0.16163461433E+00 -0.10988276801E+01 -0.39772922447E+00  0.11797188458E+01  0.00000000000E+00 0.  1.
         11    1    3    3    0    0  0.90248539363E+01 -0.31621381798E+02 -0.18380668539E+02  0.37672387124E+02  0.51100000000E-03 0. -1.
        -11    1    3    3    0    0  0.47698360479E+01  0.13930219245E+02 -0.81120756046E+01  0.16810952234E+02  0.51100000000E-03 0.  1.
        -12    1    3    3    0    0 -0.13633055370E+02  0.18789990233E+02  0.26890473368E+02  0.35524941796E+02  0.00000000000E+00 0.  1.
</event>
<event>
 7    1  0.3863655E-015  0.9000773E+02  0.7816164E-02  0.1186339E+00
        -11   -1    0    0    0    0  0.00000000000E+00  0.00000000000E+00  0.45593999997E+02  0.45594000000E+02  0.51100000000E-03 0. -1.
         11   -1    0    0    0    0 -0.00000000000E+00 -0.00000000000E+00 -0.45593999997E+02  0.45594000000E+02  0.51100000000E-03 0.  1.
    9900012    2    1    2    0    0  0.40254492987E+00 -0.10824189455E+01  0.24365284937E+00  0.90007728885E+02  0.89999990106E+02 0.  0.
        -12    1    1    2    0    0 -0.40254492987E+00  0.10824189455E+01 -0.24365284937E+00  0.11802711151E+01  0.00000000000E+00 0.  1.
         11    1    3    3    0    0 -0.24216966692E+01  0.80889952144E+01 -0.34999150968E+01  0.91403426786E+01  0.51100000000E-03 0. -1.
        -11    1    3    3    0    0 -0.34986212420E+02  0.10134769723E+02 -0.69625931165E+01  0.37084044009E+02  0.51100000000E-03 0.  1.
         12    1    3    3    0    0  0.37810454019E+02 -0.19306183883E+02  0.10706161063E+02  0.43783342198E+02  0.00000000000E+00 0. -1.
</event>
<event>
 7    1  0.3863655E-015  0.9000775E+02  0.7816164E-02  0.1186339E+00
        -11   -1    0    0    0    0  0.00000000000E+00  0.00000000000E+00  0.45593999997E+02  0.45594000000E+02  0.51100000000E-03 0.  1.
         11   -1    0    0    0    0 -0.00000000000E+00 -0.00000000000E+00 -0.45593999997E+02  0.45594000000E+02  0.51100000000E-03 0. -1.
    9900012    2    1    2    0    0  0.87240847847E+00 -0.28999725434E+00 -0.74013492233E+00  0.90007748051E+02  0.90000009525E+02 0.  0.
        -12    1    1    2    0    0 -0.87240847847E+00  0.28999725434E+00  0.74013492233E+00  0.11802519494E+01  0.00000000000E+00 0.  1.
         11    1    3    3    0    0 -0.90611479833E+01  0.41078231264E+00  0.41928989188E+01  0.99926746414E+01  0.51100000000E-03 0. -1.
        -11    1    3    3    0    0 -0.16838504112E+01 -0.29617296302E+02  0.23488281644E+02  0.37838062415E+02  0.51100000000E-03 0.  1.
         12    1    3    3    0    0  0.11617406873E+02  0.28916516735E+02 -0.28421315485E+02  0.42177010995E+02  0.00000000000E+00 0. -1.
</event>
<event>
 7    1  0.3863655E-015  0.9000783E+02  0.7816164E-02  0.1186339E+00
        -11   -1    0    0    0    0  0.00000000000E+00  0.00000000000E+00  0.45593999997E+02  0.45594000000E+02  0.51100000000E-03 0.  1.
         11   -1    0    0    0    0 -0.00000000000E+00 -0.00000000000E+00 -0.45593999997E+02  0.45594000000E+02  0.51100000000E-03 0. -1.
    9900012    2    1    2    0    0 -0.75027045129E+00  0.56186797064E+00 -0.71707169562E+00  0.90007833409E+02  0.90000096010E+02 0.  0.
        -12    1    1    2    0    0  0.75027045129E+00 -0.56186797064E+00  0.71707169562E+00  0.11801665913E+01  0.00000000000E+00 0.  1.
         11    1    3    3    0    0  0.46282216795E+01 -0.16674588028E+02 -0.32696487869E+02  0.36993548641E+02  0.51100000000E-03 0. -1.
        -11    1    3    3    0    0  0.43487523298E+01 -0.96850544349E+01  0.73835547874E+00  0.10642231688E+02  0.51100000000E-03 0.  1.
        -12    1    3    3    0    0 -0.97272444606E+01  0.26921510434E+02  0.31241060695E+02  0.42372053079E+02  0.00000000000E+00 0.  1.
</event>
<event>
 7    1  0.3863655E-015  0.9000777E+02  0.7816164E-02  0.1186339E+00
        -11   -1    0    0    0    0  0.00000000000E+00  0.00000000000E+00  0.45593999997E+02  0.45594000000E+02  0.51100000000E-03 0.  1.
         11   -1    0    0    0    0 -0.00000000000E+00 -0.00000000000E+00 -0.45593999997E+02  0.45594000000E+02  0.51100000000E-03 0. -1.
    9900012    2    1    2    0    0  0.47351984811E+00 -0.63151485729E+00 -0.87744785878E+00  0.90007768325E+02  0.90000030067E+02 0.  0.
        -12    1    1    2    0    0 -0.47351984811E+00  0.63151485729E+00  0.87744785878E+00  0.11802316749E+01  0.00000000000E+00 0.  1.
         11    1    3    3    0    0  0.12345815593E+02  0.83643655183E+01 -0.30567809805E+02  0.34011362362E+02  0.51100000000E-03 0. -1.
        -11    1    3    3    0    0  0.61574426592E+01 -0.62330708424E+01 -0.94059586540E+01  0.12854467344E+02  0.51100000000E-03 0.  1.
        -12    1    3    3    0    0 -0.18029738404E+02 -0.27628095332E+01  0.39096320600E+02  0.43141938620E+02  0.00000000000E+00 0.  1.
</event>
<event>
 7    1  0.3863655E-015  0.9000773E+02  0.7816164E-02  0.1186339E+00
        -11   -1    0    0    0    0  0.00000000000E+00  0.00000000000E+00  0.45593999997E+02  0.45594000000E+02  0.51100000000E-03 0. -1.
         11   -1    0    0    0    0 -0.00000000000E+00 -0.00000000000E+00 -0.45593999997E+02  0.45594000000E+02  0.51100000000E-03 0.  1.
    9900012    2    1    2    0    0  0.85283550490E+00 -0.63042639476E+00  0.51795396730E+00  0.90007727934E+02  0.89999989143E+02 0.  0.
        -12    1    1    2    0    0 -0.85283550490E+00  0.63042639476E+00 -0.51795396730E+00  0.11802720660E+01  0.00000000000E+00 0.  1.
         11    1    3    3    0    0  0.71399316355E+00 -0.13482690327E+01  0.35481270781E+02  0.35514056262E+02  0.51100000000E-03 0. -1.
        -11    1    3    3    0    0  0.48838437595E+00  0.37570618402E+01  0.93429556952E+01  0.10081907278E+02  0.51100000000E-03 0.  1.
        -12    1    3    3    0    0 -0.34954203460E+00 -0.30392192023E+01 -0.44306272509E+02  0.44411764395E+02  0.00000000000E+00 0.  1.
</event>
<event>
 7    1  0.3863655E-015  0.9000725E+02  0.7816164E-02  0.1186340E+00
        -11   -1    0    0    0    0  0.00000000000E+00  0.00000000000E+00  0.45593999997E+02  0.45594000000E+02  0.51100000000E-03 0. -1.
         11   -1    0    0    0    0 -0.00000000000E+00 -0.00000000000E+00 -0.45593999997E+02  0.45594000000E+02  0.51100000000E-03 0.  1.
    9900012    2    1    2    0    0 -0.46249372275E+00  0.10554915375E+01  0.25729067854E+00  0.90007253913E+02  0.89999508863E+02 0.  0.
        -12    1    1    2    0    0  0.46249372275E+00 -0.10554915375E+01 -0.25729067854E+00  0.11807460873E+01  0.00000000000E+00 0.  1.
         11    1    3    3    0    0 -0.32221752488E+01 -0.89651629160E+01 -0.19103150450E+01  0.97162679706E+01  0.51100000000E-03 0. -1.
        -11    1    3    3    0    0 -0.22426798758E+02 -0.26904514153E+02  0.55639521485E+01  0.35465077867E+02  0.51100000000E-03 0.  1.
         12    1    3    3    0    0  0.25186480284E+02  0.36925168607E+02 -0.33963464250E+01  0.44825908075E+02  0.00000000000E+00 0. -1.
</event>
<event>
 7    1  0.3863655E-015  0.9000771E+02  0.7816164E-02  0.1186339E+00
        -11   -1    0    0    0    0  0.00000000000E+00  0.00000000000E+00  0.45593999997E+02  0.45594000000E+02  0.51100000000E-03 0. -1.
         11   -1    0    0    0    0 -0.00000000000E+00 -0.00000000000E+00 -0.45593999997E+02  0.45594000000E+02  0.51100000000E-03 0.  1.
    9900012    2    1    2    0    0  0.38629961546E+00 -0.79057153397E+00  0.78667182889E+00  0.90007710498E+02  0.89999971476E+02 0.  0.
        -12    1    1    2    0    0 -0.38629961546E+00  0.79057153397E+00 -0.78667182889E+00  0.11802895024E+01  0.00000000000E+00 0.  1.
         11    1    3    3    0    0  0.18951672569E+02  0.26521045343E+02  0.14907723134E+02  0.35843715607E+02  0.51100000000E-03 0. -1.
        -11    1    3    3    0    0 -0.14580249227E+02  0.18840683659E+01  0.85306571597E+01  0.16997220154E+02  0.51100000000E-03 0.  1.
        -12    1    3    3    0    0 -0.39851237258E+01 -0.29195685242E+02 -0.22651708465E+02  0.37166774736E+02  0.00000000000E+00 0.  1.
</event>
<event>
 7    1  0.3863655E-015  0.9000777E+02  0.7816164E-02  0.1186339E+00
        -11   -1    0    0    0    0  0.00000000000E+00  0.00000000000E+00  0.45593999997E+02  0.45594000000E+02  0.51100000000E-03 0. -1.
         11   -1    0    0    0    0 -0.00000000000E+00 -0.00000000000E+00 -0.45593999997E+02  0.45594000000E+02  0.51100000000E-03 0.  1.
    9900012    2    1    2    0    0 -0.46726723051E+00  0.54166714920E+00  0.93872075026E+00  0.90007771797E+02  0.90000033584E+02 0.  0.
        -12    1    1    2    0    0  0.46726723051E+00 -0.54166714920E+00 -0.93872075026E+00  0.11802282034E+01  0.00000000000E+00 0.  1.
         11    1    3    3    0    0  0.18691555786E+01  0.95833165840E+01  0.17639466544E+01  0.99219558247E+01  0.51100000000E-03 0. -1.
        -11    1    3    3    0    0 -0.18048923690E+02  0.27689007321E+02  0.16019306858E+02  0.36729592501E+02  0.51100000000E-03 0.  1.
         12    1    3    3    0    0  0.15712500881E+02 -0.36730656756E+02 -0.16844532763E+02  0.43356223471E+02  0.00000000000E+00 0. -1.
</event>
<event>
 7    1  0.3863655E-015  0.9000772E+02  0.7816164E-02  0.1186339E+00
        -11   -1    0    0    0    0  0.00000000000E+00  0.00000000000E+00  0.45593999997E+02  0.45594000000E+02  0.51100000000E-03 0. -1.
         11   -1    0    0    0    0 -0.00000000000E+00 -0.00000000000E+00 -0.45593999997E+02  0.45594000000E+02  0.51100000000E-03 0.  1.
    9900012    2    1    2    0    0 -0.64305258564E+00 -0.45505970063E+00 -0.87889627782E+00  0.90007722649E+02  0.89999983788E+02 0.  0.
        -12    1    1    2    0    0  0.64305258564E+00  0.45505970063E+00  0.87889627782E+00  0.11802773514E+01  0.00000000000E+00 0.  1.
         11    1    3    3    0    0  0.31949059278E+02  0.17488274810E+01  0.19628630518E+02  0.37537766617E+02  0.51100000000E-03 0. -1.
        -11    1    3    3    0    0  0.19450937216E+01 -0.10670601706E+02  0.10317466830E+01  0.10895394983E+02  0.51100000000E-03 0.  1.
        -12    1    3    3    0    0 -0.34537205585E+02  0.84667145240E+01 -0.21539273479E+02  0.41574561049E+02  0.00000000000E+00 0.  1.
</event>
<event>
 7    1  0.3863655E-015  0.9000766E+02  0.7816164E-02  0.1186339E+00
        -11   -1    0    0    0    0  0.00000000000E+00  0.00000000000E+00  0.45593999997E+02  0.45594000000E+02  0.51100000000E-03 0. -1.
         11   -1    0    0    0    0 -0.00000000000E+00 -0.00000000000E+00 -0.45593999997E+02  0.45594000000E+02  0.51100000000E-03 0.  1.
    9900012    2    1    2    0    0  0.10999956268E+00 -0.11132360143E+01  0.37656955800E+00  0.90007661506E+02  0.89999921838E+02 0.  0.
        -12    1    1    2    0    0 -0.10999956268E+00  0.11132360143E+01 -0.37656955800E+00  0.11803384936E+01  0.00000000000E+00 0.  1.
         11    1    3    3    0    0 -0.91350563805E+01 -0.40975886490E+01 -0.39066913750E+01  0.10747172911E+02  0.51100000000E-03 0. -1.
        -11    1    3    3    0    0 -0.34108306972E+02  0.67431895043E+01 -0.38837718816E+01  0.34984723716E+02  0.51100000000E-03 0.  1.
         12    1    3    3    0    0  0.43353362915E+02 -0.37588368695E+01  0.81670328146E+01  0.44275764880E+02  0.00000000000E+00 0. -1.
</event>
<event>
 7    1  0.3863655E-015  0.9000772E+02  0.7816164E-02  0.1186339E+00
        -11   -1    0    0    0    0  0.00000000000E+00  0.00000000000E+00  0.45593999997E+02  0.45594000000E+02  0.51100000000E-03 0. -1.
         11   -1    0    0    0    0 -0.00000000000E+00 -0.00000000000E+00 -0.45593999997E+02  0.45594000000E+02  0.51100000000E-03 0.  1.
    9900012    2    1    2    0    0 -0.10061419335E+00 -0.99515569886E+00 -0.62657300412E+00  0.90007723841E+02  0.89999984996E+02 0.  0.
        -12    1    1    2    0    0  0.10061419335E+00  0.99515569886E+00  0.62657300412E+00  0.11802761585E+01  0.00000000000E+00 0.  1.
         11    1    3    3    0    0  0.10707527997E+02  0.43783036945E+01  0.12069001011E+02  0.16717699744E+02  0.51100000000E-03 0. -1.
        -11    1    3    3    0    0  0.13318915258E+02 -0.13496287578E+02 -0.34763767563E+02  0.39598772929E+02  0.51100000000E-03 0.  1.
         12    1    3    3    0    0 -0.24127057448E+02  0.81228281846E+01  0.22068193548E+02  0.33691251169E+02  0.00000000000E+00 0. -1.
</event>
<event>
 7    1  0.3863655E-015  0.9000769E+02  0.7816164E-02  0.1186339E+00
        -11   -1    0    0    0    0  0.00000000000E+00  0.00000000000E+00  0.45593999997E+02  0.45594000000E+02  0.51100000000E-03 0. -1.
         11   -1    0    0    0    0 -0.00000000000E+00 -0.00000000000E+00 -0.45593999997E+02  0.45594000000E+02  0.51100000000E-03 0.  1.
    9900012    2    1    2    0    0  0.31770606020E-02  0.10297750402E+01  0.57678588777E+00  0.90007691275E+02  0.89999951999E+02 0.  0.
        -12    1    1    2    0    0 -0.31770606020E-02 -0.10297750402E+01 -0.57678588777E+00  0.11803087255E+01  0.00000000000E+00 0.  1.
         11    1    3    3    0    0 -0.34041808456E+02 -0.76472620477E+01 -0.90643473316E+01  0.36048408184E+02  0.51100000000E-03 0. -1.
        -11    1    3    3    0    0 -0.90187602238E+01  0.19092524415E+01  0.38250595088E+01  0.99806994427E+01  0.51100000000E-03 0.  1.
        -12    1    3    3    0    0  0.43063745741E+02  0.67677846463E+01  0.58160737106E+01  0.43978583648E+02  0.00000000000E+00 0.  1.
</event>
<event>
 7    1  0.3863655E-015  0.9000770E+02  0.7816164E-02  0.1186339E+00
        -11   -1    0    0    0    0  0.00000000000E+00  0.00000000000E+00  0.45593999997E+02  0.45594000000E+02  0.51100000000E-03 0.  1.
         11   -1    0    0    0    0 -0.00000000000E+00 -0.00000000000E+00 -0.45593999997E+02  0.45594000000E+02  0.51100000000E-03 0. -1.
    9900012    2    1    2    0    0 -0.57407885479E+00 -0.30469239534E+00 -0.98524239320E+00  0.90007700648E+02  0.89999961496E+02 0.  0.
        -12    1    1    2    0    0  0.57407885479E+00  0.30469239534E+00  0.98524239320E+00  0.11802993521E+01  0.00000000000E+00 0.  1.
         11    1    3    3    0    0 -0.33675661403E+01  0.90186266373E+01  0.54594068247E+00  0.96423119439E+01  0.51100000000E-03 0. -1.
        -11    1    3    3    0    0 -0.11828510941E+02  0.81703136824E+01  0.34698469110E+02  0.37558640226E+02  0.51100000000E-03 0.  1.
         12    1    3    3    0    0  0.14621998227E+02 -0.17493632715E+02 -0.36229652186E+02  0.42806748478E+02  0.00000000000E+00 0. -1.
</event>
<event>
 7    1  0.3863655E-015  0.9000782E+02  0.7816164E-02  0.1186339E+00
        -11   -1    0    0    0    0  0.00000000000E+00  0.00000000000E+00  0.45593999997E+02  0.45594000000E+02  0.51100000000E-03 0.  1.
         11   -1    0    0    0    0 -0.00000000000E+00 -0.00000000000E+00 -0.45593999997E+02  0.45594000000E+02  0.51100000000E-03 0. -1.
    9900012    2    1    2    0    0 -0.44260659780E+00 -0.14328489481E+00 -0.10846127616E+01  0.90007823740E+02  0.90000086214E+02 0.  0.
        -12    1    1    2    0    0  0.44260659780E+00  0.14328489481E+00  0.10846127616E+01  0.11801762597E+01  0.00000000000E+00 0.  1.
         11    1    3    3    0    0 -0.10179721774E+02  0.21411433765E+01  0.10414554825E+01  0.10454466038E+02  0.51100000000E-03 0. -1.
        -11    1    3    3    0    0 -0.31652996152E+02  0.32718256580E+01  0.14028056397E+02  0.34776477324E+02  0.51100000000E-03 0.  1.
         12    1    3    3    0    0  0.41390111328E+02 -0.55562539293E+01 -0.16154124641E+02  0.44776880378E+02  0.00000000000E+00 0. -1.
</event>
<event>
 7    1  0.3863655E-015  0.9000818E+02  0.7816164E-02  0.1186338E+00
        -11   -1    0    0    0    0  0.00000000000E+00  0.00000000000E+00  0.45593999997E+02  0.45594000000E+02  0.51100000000E-03 0. -1.
         11   -1    0    0    0    0 -0.00000000000E+00 -0.00000000000E+00 -0.45593999997E+02  0.45594000000E+02  0.51100000000E-03 0.  1.
    9900012    2    1    2    0    0 -0.89634529455E+00  0.57931307760E-01  0.76497499834E+00  0.90008178966E+02  0.90000446128E+02 0.  0.
        -12    1    1    2    0    0  0.89634529455E+00 -0.57931307760E-01 -0.76497499834E+00  0.11798210337E+01  0.00000000000E+00 0.  1.
         11    1    3    3    0    0  0.14366266537E+02 -0.21481117472E+01 -0.32394099021E+02  0.35501854176E+02  0.51100000000E-03 0. -1.
        -11    1    3    3    0    0 -0.38102954901E+01 -0.10499053800E+02 -0.53388934133E+01  0.12379509908E+02  0.51100000000E-03 0.  1.
        -12    1    3    3    0    0 -0.11452316342E+02  0.12705096855E+02  0.38497967433E+02  0.42126814882E+02  0.00000000000E+00 0.  1.
</event>
<event>
 7    1  0.3863655E-015  0.9000777E+02  0.7816164E-02  0.1186339E+00
        -11   -1    0    0    0    0  0.00000000000E+00  0.00000000000E+00  0.45593999997E+02  0.45594000000E+02  0.51100000000E-03 0. -1.
         11   -1    0    0    0    0 -0.00000000000E+00 -0.00000000000E+00 -0.45593999997E+02  0.45594000000E+02  0.51100000000E-03 0.  1.
    9900012    2    1    2    0    0  0.71259542361E+00 -0.91984991747E+00  0.19756840219E+00  0.90007767234E+02  0.90000028961E+02 0.  0.
        -12    1    1    2    0    0 -0.71259542361E+00  0.91984991747E+00 -0.19756840219E+00  0.11802327660E+01  0.00000000000E+00 0.  1.
         11    1    3    3    0    0  0.48278299324E+01 -0.33334564737E+02  0.27708468709E+02  0.43614910140E+02  0.51100000000E-03 0. -1.
        -11    1    3    3    0    0 -0.67359883556E+01  0.48551415917E+01 -0.15622213444E+01  0.84490517096E+01  0.51100000000E-03 0.  1.
        -12    1    3    3    0    0  0.26207538467E+01  0.27559573228E+02 -0.25948678962E+02  0.37943805385E+02  0.00000000000E+00 0.  1.
</event>
<event>
 7    1  0.3863655E-015  0.9000706E+02  0.7816164E-02  0.1186340E+00
        -11   -1    0    0    0    0  0.00000000000E+00  0.00000000000E+00  0.45593999997E+02  0.45594000000E+02  0.51100000000E-03 0. -1.
         11   -1    0    0    0    0 -0.00000000000E+00 -0.00000000000E+00 -0.45593999997E+02  0.45594000000E+02  0.51100000000E-03 0.  1.
    9900012    2    1    2    0    0  0.40175167742E+00  0.83211784541E+00  0.73538936851E+00  0.90007058832E+02  0.89999311206E+02 0.  0.
        -12    1    1    2    0    0 -0.40175167742E+00 -0.83211784541E+00 -0.73538936851E+00  0.11809411680E+01  0.00000000000E+00 0.  1.
         11    1    3    3    0    0  0.37394817510E+02 -0.84228403109E+01  0.15879480645E+02  0.41490655832E+02  0.51100000000E-03 0. -1.
        -11    1    3    3    0    0  0.25556474782E+01  0.56971990445E+01 -0.33890269823E+01  0.71045700175E+01  0.51100000000E-03 0.  1.
        -12    1    3    3    0    0 -0.39548713311E+02  0.35577591118E+01 -0.11755064294E+02  0.41411832983E+02  0.00000000000E+00 0.  1.
</event>
<event>
 7    1  0.3863655E-015  0.9000769E+02  0.7816164E-02  0.1186339E+00
        -11   -1    0    0    0    0  0.00000000000E+00  0.00000000000E+00  0.45593999997E+02  0.45594000000E+02  0.51100000000E-03 0. -1.
         11   -1    0    0    0    0 -0.00000000000E+00 -0.00000000000E+00 -0.45593999997E+02  0.45594000000E+02  0.51100000000E-03 0.  1.
    9900012    2    1    2    0    0  0.17739714760E+00  0.58090102007E+00  0.10120349913E+01  0.90007690478E+02  0.89999951193E+02 0.  0.
        -12    1    1    2    0    0 -0.17739714760E+00 -0.58090102007E+00 -0.10120349913E+01  0.11803095216E+01  0.00000000000E+00 0.  1.
         11    1    3    3    0    0  0.44100116405E+01  0.13058883906E+01 -0.14203276003E+02  0.14929387014E+02  0.51100000000E-03 0. -1.
        -11    1    3    3    0    0  0.12623137966E+02 -0.26742997319E+01 -0.26811771355E+02  0.29755110059E+02  0.51100000000E-03 0.  1.
         12    1    3    3    0    0 -0.16855752459E+02  0.19493123614E+01  0.42027082349E+02  0.45323193405E+02  0.00000000000E+00 0. -1.
</event>
<event>
 7    1  0.3863655E-015  0.9000777E+02  0.7816164E-02  0.1186339E+00
        -11   -1    0    0    0    0  0.00000000000E+00  0.00000000000E+00  0.45593999997E+02  0.45594000000E+02  0.51100000000E-03 0. -1.
         11   -1    0    0    0    0 -0.00000000000E+00 -0.00000000000E+00 -0.45593999997E+02  0.45594000000E+02  0.51100000000E-03 0.  1.
    9900012    2    1    2    0    0 -0.11424422826E-01 -0.11088327911E+01 -0.40409219202E+00  0.90007774947E+02  0.90000036776E+02 0.  0.
        -12    1    1    2    0    0  0.11424422826E-01  0.11088327911E+01  0.40409219202E+00  0.11802250530E+01  0.00000000000E+00 0.  1.
         11    1    3    3    0    0  0.33012808341E+01  0.84313312375E+01 -0.10264944083E+01  0.91126007601E+01  0.51100000000E-03 0. -1.
        -11    1    3    3    0    0  0.34164448916E+02 -0.14774797293E+02  0.15384965329E+02  0.40276560966E+02  0.51100000000E-03 0.  1.
         12    1    3    3    0    0 -0.37477154173E+02  0.52346332643E+01 -0.14762563113E+02  0.40618613221E+02  0.00000000000E+00 0. -1.
</event>
<event>
 7    1  0.3863655E-015  0.9000774E+02  0.7816164E-02  0.1186339E+00
        -11   -1    0    0    0    0  0.00000000000E+00  0.00000000000E+00  0.45593999997E+02  0.45594000000E+02  0.51100000000E-03 0. -1.
         11   -1    0    0    0    0 -0.00000000000E+00 -0.00000000000E+00 -0.45593999997E+02  0.45594000000E+02  0.51100000000E-03 0.  1.
    9900012    2    1    2    0    0 -0.11095051969E+01 -0.31721547925E+00  0.24776984601E+00  0.90007738445E+02  0.89999999792E+02 0.  0.
        -12    1    1    2    0    0  0.11095051969E+01  0.31721547925E+00 -0.24776984601E+00  0.11802615552E+01  0.00000000000E+00 0.  1.
         11    1    3    3    0    0  0.66955777280E+01  0.46254258865E+01 -0.76405029430E+01  0.11162553974E+02  0.51100000000E-03 0. -1.
        -11    1    3    3    0    0  0.76542387313E+01 -0.80146369029E+01 -0.33113199018E+02  0.34918558457E+02  0.51100000000E-03 0.  1.
         12    1    3    3    0    0 -0.15459321656E+02  0.30719955371E+01  0.41001471807E+02  0.43926626014E+02  0.00000000000E+00 0. -1.
</event>
<event>
 7    1  0.3863655E-015  0.9000769E+02  0.7816164E-02  0.1186339E+00
        -11   -1    0    0    0    0  0.00000000000E+00  0.00000000000E+00  0.45593999997E+02  0.45594000000E+02  0.51100000000E-03 0. -1.
         11   -1    0    0    0    0 -0.00000000000E+00 -0.00000000000E+00 -0.45593999997E+02  0.45594000000E+02  0.51100000000E-03 0.  1.
    9900012    2    1    2    0    0  0.35955156150E+00  0.39510965065E+00  0.10524908056E+01  0.90007692473E+02  0.89999953214E+02 0.  0.
        -12    1    1    2    0    0 -0.35955156150E+00 -0.39510965065E+00 -0.10524908056E+01  0.11803075266E+01  0.00000000000E+00 0.  1.
         11    1    3    3    0    0 -0.25955561418E+02 -0.26890505323E+02  0.80305954284E+01  0.38226704125E+02  0.51100000000E-03 0. -1.
        -11    1    3    3    0    0  0.43506638144E+01 -0.74747185686E+01  0.35297335318E+01  0.93412371971E+01  0.51100000000E-03 0.  1.
        -12    1    3    3    0    0  0.21964449166E+02  0.34760333542E+02 -0.10507838155E+02  0.42439751151E+02  0.00000000000E+00 0.  1.
</event>
<event>
 7    1  0.3863655E-015  0.9000808E+02  0.7816164E-02  0.1186338E+00
        -11   -1    0    0    0    0  0.00000000000E+00  0.00000000000E+00  0.45593999997E+02  0.45594000000E+02  0.51100000000E-03 0.  1.
         11   -1    0    0    0    0 -0.00000000000E+00 -0.00000000000E+00 -0.45593999997E+02  0.45594000000E+02  0.51100000000E-03 0. -1.
    9900012    2    1    2    0    0 -0.93997000169E+00 -0.54673750902E+00  0.45796971922E+00  0.90008083998E+02  0.90000349906E+02 0.  0.
        -12    1    1    2    0    0  0.93997000169E+00  0.54673750902E+00 -0.45796971922E+00  0.11799160019E+01  0.00000000000E+00 0.  1.
         11    1    3    3    0    0  0.30971068950E+01  0.70291969336E+01  0.59834022887E+01  0.97366721143E+01  0.51100000000E-03 0. -1.
        -11    1    3    3    0    0  0.13857857549E+01  0.28172464396E+02  0.21220006781E+02  0.35297263922E+02  0.51100000000E-03 0.  1.
         12    1    3    3    0    0 -0.54228626516E+01 -0.35748398839E+02 -0.26745439351E+02  0.44974147962E+02  0.00000000000E+00 0. -1.
</event>
<event>
 7    1  0.4890579E-015  0.9000768E+02  0.7816164E-02  0.1186339E+00
        -11   -1    0    0    0    0  0.00000000000E+00  0.00000000000E+00  0.45593999997E+02  0.45594000000E+02  0.51100000000E-03 0. -1.
         11   -1    0    0    0    0 -0.00000000000E+00 -0.00000000000E+00 -0.45593999997E+02  0.45594000000E+02  0.51100000000E-03 0.  1.
    9900012    2    1    2    0    0 -0.66585021272E+00 -0.28656460713E-02  0.97457523275E+00  0.90007677331E+02  0.89999937872E+02 0.  0.
        -12    1    1    2    0    0  0.66585021272E+00  0.28656460713E-02 -0.97457523275E+00  0.11803226686E+01  0.00000000000E+00 0.  1.
         11    1    3    3    0    0 -0.84241935595E+00  0.14681671262E+02  0.37245642728E+02  0.40043714162E+02  0.51100000000E-03 0. -1.
        -11    1    3    3    0    0  0.79786179039E+01  0.44244917949E+01 -0.11076522741E+01  0.91902864548E+01  0.51100000000E-03 0.  1.
        -12    1    3    3    0    0 -0.78020487606E+01 -0.19109028703E+02 -0.35163415221E+02  0.40773676715E+02  0.00000000000E+00 0.  1.
</event>
<event>
 7    1  0.3863655E-015  0.9000779E+02  0.7816164E-02  0.1186339E+00
        -11   -1    0    0    0    0  0.00000000000E+00  0.00000000000E+00  0.45593999997E+02  0.45594000000E+02  0.51100000000E-03 0. -1.
         11   -1    0    0    0    0 -0.00000000000E+00 -0.00000000000E+00 -0.45593999997E+02  0.45594000000E+02  0.51100000000E-03 0.  1.
    9900012    2    1    2    0    0  0.42727568300E+00  0.10562898798E+01 -0.30756009800E+00  0.90007785599E+02  0.90000047568E+02 0.  0.
        -12    1    1    2    0    0 -0.42727568300E+00 -0.10562898798E+01  0.30756009800E+00  0.11802144015E+01  0.00000000000E+00 0.  1.
         11    1    3    3    0    0 -0.21838948475E+02 -0.14215431854E+02  0.24470248632E+02  0.35746485724E+02  0.51100000000E-03 0. -1.
        -11    1    3    3    0    0 -0.10002115683E+01 -0.96534544098E+00  0.95929642994E+01  0.96931563132E+01  0.51100000000E-03 0.  1.
        -12    1    3    3    0    0  0.23266435726E+02  0.16237067174E+02 -0.34370773030E+02  0.44568143561E+02  0.00000000000E+00 0.  1.
</event>
<event>
 7    1  0.3863655E-015  0.9000760E+02  0.7816164E-02  0.1186339E+00
        -11   -1    0    0    0    0  0.00000000000E+00  0.00000000000E+00  0.45593999997E+02  0.45594000000E+02  0.51100000000E-03 0. -1.
         11   -1    0    0    0    0 -0.00000000000E+00 -0.00000000000E+00 -0.45593999997E+02  0.45594000000E+02  0.51100000000E-03 0.  1.
    9900012    2    1    2    0    0  0.59157492723E-01  0.11295385442E+01  0.33761165743E+00  0.90007602371E+02  0.89999861922E+02 0.  0.
        -12    1    1    2    0    0 -0.59157492723E-01 -0.11295385442E+01 -0.33761165743E+00  0.11803976292E+01  0.00000000000E+00 0.  1.
         11    1    3    3    0    0  0.69492477261E+01 -0.29535352798E+02  0.24297835480E+02  0.38871762478E+02  0.51100000000E-03 0. -1.
        -11    1    3    3    0    0 -0.50866881490E+01  0.14879541195E+01  0.68523762913E+01  0.86627631207E+01  0.51100000000E-03 0.  1.
        -12    1    3    3    0    0 -0.18034020844E+01  0.29176937222E+02 -0.30812600114E+02  0.42473076773E+02  0.00000000000E+00 0.  1.
</event>
<event>
 7    1  0.3863655E-015  0.9000825E+02  0.7816164E-02  0.1186338E+00
        -11   -1    0    0    0    0  0.00000000000E+00  0.00000000000E+00  0.45593999997E+02  0.45594000000E+02  0.51100000000E-03 0.  1.
         11   -1    0    0    0    0 -0.00000000000E+00 -0.00000000000E+00 -0.45593999997E+02  0.45594000000E+02  0.51100000000E-03 0. -1.
    9900012    2    1    2    0    0 -0.80378681559E+00  0.15800465110E+00 -0.84898712076E+00  0.90008246701E+02  0.90000514756E+02 0.  0.
        -12    1    1    2    0    0  0.80378681559E+00 -0.15800465110E+00  0.84898712076E+00  0.11797532987E+01  0.00000000000E+00 0.  1.
         11    1    3    3    0    0  0.76895558426E+01  0.10625030364E+02  0.43174993453E+01  0.13808017242E+02  0.51100000000E-03 0. -1.
        -11    1    3    3    0    0  0.24737889942E+02 -0.64623501705E+01  0.21498837503E+02  0.33405466360E+02  0.51100000000E-03 0.  1.
         12    1    3    3    0    0 -0.33231232600E+02 -0.40046755428E+01 -0.26665323969E+02  0.42794763099E+02  0.00000000000E+00 0. -1.
</event>
<event>
 7    1  0.3863655E-015  0.9000733E+02  0.7816164E-02  0.1186340E+00
        -11   -1    0    0    0    0  0.00000000000E+00  0.00000000000E+00  0.45593999997E+02  0.45594000000E+02  0.51100000000E-03 0. -1.
         11   -1    0    0    0    0 -0.00000000000E+00 -0.00000000000E+00 -0.45593999997E+02  0.45594000000E+02  0.51100000000E-03 0.  1.
    9900012    2    1    2    0    0  0.26165658918E+00  0.71563415471E+00  0.90187622406E+00  0.90007331910E+02  0.89999587891E+02 0.  0.
        -12    1    1    2    0    0 -0.26165658918E+00 -0.71563415471E+00 -0.90187622406E+00  0.11806680895E+01  0.00000000000E+00 0.  1.
         11    1    3    3    0    0  0.20776447500E+02  0.36450944204E+02 -0.95075311262E+01  0.43020056397E+02  0.51100000000E-03 0. -1.
        -11    1    3    3    0    0 -0.90286384807E+01 -0.17147221772E+01 -0.11582100461E+01  0.92627229114E+01  0.51100000000E-03 0.  1.
        -12    1    3    3    0    0 -0.11486152430E+02 -0.34020587872E+02  0.11567617396E+02  0.37724552602E+02  0.00000000000E+00 0.  1.
</event>
<event>
 7    1  0.3863655E-015  0.9000773E+02  0.7816164E-02  0.1186339E+00
        -11   -1    0    0    0    0  0.00000000000E+00  0.00000000000E+00  0.45593999997E+02  0.45594000000E+02  0.51100000000E-03 0.  1.
         11   -1    0    0    0    0 -0.00000000000E+00 -0.00000000000E+00 -0.45593999997E+02  0.45594000000E+02  0.51100000000E-03 0. -1.
    9900012    2    1    2    0    0 -0.26726190995E+00  0.19318505014E+00 -0.11332655733E+01  0.90007728738E+02  0.89999989957E+02 0.  0.
        -12    1    1    2    0    0  0.26726190995E+00 -0.19318505014E+00  0.11332655733E+01  0.11802712619E+01  0.00000000000E+00 0.  1.
         11    1    3    3    0    0  0.10097712749E+02  0.32339695094E+01  0.39157469013E+00  0.10610169299E+02  0.51100000000E-03 0. -1.
        -11    1    3    3    0    0  0.15632746091E+02  0.28036919828E+02  0.15256750877E+02  0.35541807374E+02  0.51100000000E-03 0.  1.
         12    1    3    3    0    0 -0.25997720750E+02 -0.31077704288E+02 -0.16781591141E+02  0.43855752065E+02  0.00000000000E+00 0. -1.
</event>
<event>
 7    1  0.3863655E-015  0.9000772E+02  0.7816164E-02  0.1186339E+00
        -11   -1    0    0    0    0  0.00000000000E+00  0.00000000000E+00  0.45593999997E+02  0.45594000000E+02  0.51100000000E-03 0.  1.
         11   -1    0    0    0    0 -0.00000000000E+00 -0.00000000000E+00 -0.45593999997E+02  0.45594000000E+02  0.51100000000E-03 0. -1.
    9900012    2    1    2    0    0  0.57647474133E+00 -0.92601517662E+00  0.45080697414E+00  0.90007722845E+02  0.89999983987E+02 0.  0.
        -12    1    1    2    0    0 -0.57647474133E+00  0.92601517662E+00 -0.45080697414E+00  0.11802771550E+01  0.00000000000E+00 0.  1.
         11    1    3    3    0    0  0.95875902264E+01  0.27251485338E+02 -0.22325907369E+02  0.36510429737E+02  0.51100000000E-03 0. -1.
        -11    1    3    3    0    0  0.83110798949E+01  0.43725368773E+01 -0.12702202282E+01  0.94766337616E+01  0.51100000000E-03 0.  1.
        -12    1    3    3    0    0 -0.17322195380E+02 -0.32550037392E+02  0.24046934572E+02  0.44020659346E+02  0.00000000000E+00 0.  1.
</event>
<event>
 7    1  0.3863655E-015  0.9000777E+02  0.7816164E-02  0.1186339E+00
        -11   -1    0    0    0    0  0.00000000000E+00  0.00000000000E+00  0.45593999997E+02  0.45594000000E+02  0.51100000000E-03 0. -1.
         11   -1    0    0    0    0 -0.00000000000E+00 -0.00000000000E+00 -0.45593999997E+02  0.45594000000E+02  0.51100000000E-03 0.  1.
    9900012    2    1    2    0    0  0.58194106845E+00 -0.78255889306E+00  0.66475362059E+00  0.90007766462E+02  0.90000028179E+02 0.  0.
        -12    1    1    2    0    0 -0.58194106845E+00  0.78255889306E+00 -0.66475362059E+00  0.11802335381E+01  0.00000000000E+00 0.  1.
         11    1    3    3    0    0  0.60535734715E+01  0.92711051526E+01 -0.15533564682E+01  0.11180879174E+02  0.51100000000E-03 0. -1.
        -11    1    3    3    0    0 -0.40405113158E+02 -0.52066356111E+01 -0.91837045172E+01  0.41761497251E+02  0.51100000000E-03 0.  1.
         12    1    3    3    0    0  0.34933480755E+02 -0.48470284345E+01  0.11401814606E+02  0.37065390037E+02  0.00000000000E+00 0. -1.
</event>
<event>
 7    1  0.3863655E-015  0.9000775E+02  0.7816164E-02  0.1186339E+00
        -11   -1    0    0    0    0  0.00000000000E+00  0.00000000000E+00  0.45593999997E+02  0.45594000000E+02  0.51100000000E-03 0.  1.
         11   -1    0    0    0    0 -0.00000000000E+00 -0.00000000000E+00 -0.45593999997E+02  0.45594000000E+02  0.51100000000E-03 0. -1.
    9900012    2    1    2    0    0 -0.10573560942E+01  0.43783311651E+00 -0.28860603965E+00  0.90007748673E+02  0.90000010156E+02 0.  0.
        -12    1    1    2    0    0  0.10573560942E+01 -0.43783311651E+00  0.28860603965E+00  0.11802513267E+01  0.00000000000E+00 0.  1.
         11    1    3    3    0    0  0.33681202527E+02  0.11055324444E+02 -0.15637751560E+02  0.38745101320E+02  0.51100000000E-03 0. -1.
        -11    1    3    3    0    0 -0.15918239741E+01 -0.88138630384E+00 -0.88810253138E+01  0.90655036411E+01  0.51100000000E-03 0.  1.
        -12    1    3    3    0    0 -0.33146734647E+02 -0.97361050232E+01  0.24230170834E+02  0.42197143712E+02  0.00000000000E+00 0.  1.
</event>
<event>
 7    1  0.3863655E-015  0.9000775E+02  0.7816164E-02  0.1186339E+00
        -11   -1    0    0    0    0  0.00000000000E+00  0.00000000000E+00  0.45593999997E+02  0.45594000000E+02  0.51100000000E-03 0. -1.
         11   -1    0    0    0    0 -0.00000000000E+00 -0.00000000000E+00 -0.45593999997E+02  0.45594000000E+02  0.51100000000E-03 0.  1.
    9900012    2    1    2    0    0 -0.80537028281E+00  0.24276638808E+00  0.82790295184E+00  0.90007754217E+02  0.90000015772E+02 0.  0.
        -12    1    1    2    0    0  0.80537028281E+00 -0.24276638808E+00 -0.82790295184E+00  0.11802457834E+01  0.00000000000E+00 0.  1.
         11    1    3    3    0    0 -0.64372252688E+01  0.22217529825E+01  0.38481047399E+01  0.78218901697E+01  0.51100000000E-03 0. -1.
        -11    1    3    3    0    0  0.41025703954E+02  0.13800237170E+02  0.36797011035E+00  0.43286144817E+02  0.51100000000E-03 0.  1.
         12    1    3    3    0    0 -0.35393848968E+02 -0.15779223765E+02 -0.33881718984E+01  0.38899719230E+02  0.00000000000E+00 0. -1.
</event>
<event>
 7    1  0.3863655E-015  0.9000772E+02  0.7816164E-02  0.1186339E+00
        -11   -1    0    0    0    0  0.00000000000E+00  0.00000000000E+00  0.45593999997E+02  0.45594000000E+02  0.51100000000E-03 0.  1.
         11   -1    0    0    0    0 -0.00000000000E+00 -0.00000000000E+00 -0.45593999997E+02  0.45594000000E+02  0.51100000000E-03 0. -1.
    9900012    2    1    2    0    0 -0.27116733233E+00 -0.32442344844E+00 -0.11019380771E+01  0.90007724684E+02  0.89999985850E+02 0.  0.
        -12    1    1    2    0    0  0.27116733233E+00  0.32442344844E+00  0.11019380771E+01  0.11802753161E+01  0.00000000000E+00 0.  1.
         11    1    3    3    0    0 -0.14267096286E+02 -0.32357605996E+02  0.12288130790E+02  0.37437452648E+02  0.51100000000E-03 0. -1.
        -11    1    3    3    0    0 -0.10629805319E+02  0.11339276952E+01  0.46331881443E+00  0.10700150360E+02  0.51100000000E-03 0.  1.
        -12    1    3    3    0    0  0.24625734273E+02  0.30899254852E+02 -0.13853387682E+02  0.41870121676E+02  0.00000000000E+00 0.  1.
</event>
<event>
 7    1  0.3863655E-015  0.9000769E+02  0.7816164E-02  0.1186339E+00
        -11   -1    0    0    0    0  0.00000000000E+00  0.00000000000E+00  0.45593999997E+02  0.45594000000E+02  0.51100000000E-03 0.  1.
         11   -1    0    0    0    0 -0.00000000000E+00 -0.00000000000E+00 -0.45593999997E+02  0.45594000000E+02  0.51100000000E-03 0. -1.
    9900012    2    1    2    0    0 -0.38130427335E-01 -0.24681105955E+00 -0.11535830753E+01  0.90007693455E+02  0.89999954209E+02 0.  0.
        -12    1    1    2    0    0  0.38130427335E-01  0.24681105955E+00  0.11535830753E+01  0.11803065450E+01  0.00000000000E+00 0.  1.
         11    1    3    3    0    0  0.34450954843E+02  0.31785497751E+01  0.19293103563E+02  0.39613069984E+02  0.51100000000E-03 0. -1.
        -11    1    3    3    0    0  0.79439842682E+00  0.86951193167E+01 -0.32768732627E+01  0.93259888180E+01  0.51100000000E-03 0.  1.
        -12    1    3    3    0    0 -0.35283483697E+02 -0.12120480151E+02 -0.17169813375E+02  0.41068634653E+02  0.00000000000E+00 0.  1.
</event>
<event>
 7    1  0.3863655E-015  0.9000772E+02  0.7816164E-02  0.1186339E+00
        -11   -1    0    0    0    0  0.00000000000E+00  0.00000000000E+00  0.45593999997E+02  0.45594000000E+02  0.51100000000E-03 0.  1.
         11   -1    0    0    0    0 -0.00000000000E+00 -0.00000000000E+00 -0.45593999997E+02  0.45594000000E+02  0.51100000000E-03 0. -1.
    9900012    2    1    2    0    0 -0.11044695217E+01 -0.12728242522E-01  0.41599258921E+00  0.90007718353E+02  0.89999979435E+02 0.  0.
        -12    1    1    2    0    0  0.11044695217E+01  0.12728242522E-01 -0.41599258921E+00  0.11802816472E+01  0.00000000000E+00 0.  1.
         11    1    3    3    0    0 -0.50523355657E+01 -0.30146765425E+02 -0.31778269335E+02  0.44093219008E+02  0.51100000000E-03 0. -1.
        -11    1    3    3    0    0  0.84080351697E+00  0.82594191726E+01  0.20696927518E+01  0.85562014920E+01  0.51100000000E-03 0.  1.
        -12    1    3    3    0    0  0.31070625271E+01  0.21874618010E+02  0.30124569173E+02  0.37358297853E+02  0.00000000000E+00 0.  1.
</event>
<event>
 7    1  0.3863655E-015  0.9000784E+02  0.7816164E-02  0.1186339E+00
        -11   -1    0    0    0    0  0.00000000000E+00  0.00000000000E+00  0.45593999997E+02  0.45594000000E+02  0.51100000000E-03 0.  1.
         11   -1    0    0    0    0 -0.00000000000E+00 -0.00000000000E+00 -0.45593999997E+02  0.45594000000E+02  0.51100000000E-03 0. -1.
    9900012    2    1    2    0    0  0.15904498787E-01  0.10963669466E+01 -0.43647714169E+00  0.90007836566E+02  0.90000099209E+02 0.  0.
        -12    1    1    2    0    0 -0.15904498787E-01 -0.10963669466E+01  0.43647714169E+00  0.11801634335E+01  0.00000000000E+00 0.  1.
         11    1    3    3    0    0 -0.13141348617E+02  0.17078178050E+02 -0.29655027477E+02  0.36657603085E+02  0.51100000000E-03 0. -1.
        -11    1    3    3    0    0  0.86700149779E+00  0.27834180023E+01 -0.87652056002E+01  0.92373122090E+01  0.51100000000E-03 0.  1.
        -12    1    3    3    0    0  0.12290251618E+02 -0.18765229105E+02  0.37983755936E+02  0.44112921273E+02  0.00000000000E+00 0.  1.
</event>
<event>
 7    1  0.3863655E-015  0.9000780E+02  0.7816164E-02  0.1186339E+00
        -11   -1    0    0    0    0  0.00000000000E+00  0.00000000000E+00  0.45593999997E+02  0.45594000000E+02  0.51100000000E-03 0.  1.
         11   -1    0    0    0    0 -0.00000000000E+00 -0.00000000000E+00 -0.45593999997E+02  0.45594000000E+02  0.51100000000E-03 0. -1.
    9900012    2    1    2    0    0  0.26409487949E+00  0.62911497198E-01 -0.11485508673E+01  0.90007799569E+02  0.90000061724E+02 0.  0.
        -12    1    1    2    0    0 -0.26409487949E+00 -0.62911497198E-01  0.11485508673E+01  0.11802004307E+01  0.00000000000E+00 0.  1.
         11    1    3    3    0    0 -0.36565590682E+02 -0.68813531574E+01  0.10112403596E+02  0.38557180264E+02  0.51100000000E-03 0. -1.
        -11    1    3    3    0    0  0.35568913741E+01 -0.55849490595E+00  0.10426982510E+02  0.11031108618E+02  0.51100000000E-03 0.  1.
        -12    1    3    3    0    0  0.33272794187E+02  0.75027595606E+01 -0.21687936973E+02  0.40419510687E+02  0.00000000000E+00 0.  1.
</event>
<event>
 7    1  0.3863655E-015  0.9000781E+02  0.7816164E-02  0.1186339E+00
        -11   -1    0    0    0    0  0.00000000000E+00  0.00000000000E+00  0.45593999997E+02  0.45594000000E+02  0.51100000000E-03 0. -1.
         11   -1    0    0    0    0 -0.00000000000E+00 -0.00000000000E+00 -0.45593999997E+02  0.45594000000E+02  0.51100000000E-03 0.  1.
    9900012    2    1    2    0    0 -0.41778590457E-01  0.11791502028E+01  0.26788510075E-01  0.90007805831E+02  0.90000068068E+02 0.  0.
        -12    1    1    2    0    0  0.41778590457E-01 -0.11791502028E+01 -0.26788510075E-01  0.11801941686E+01  0.00000000000E+00 0.  1.
         11    1    3    3    0    0 -0.31609329255E+02 -0.11547284611E+02  0.90315438336E+01  0.34843338848E+02  0.51100000000E-03 0. -1.
        -11    1    3    3    0    0 -0.83801434394E+01 -0.57937071977E+01  0.15845528711E+00  0.10189158724E+02  0.51100000000E-03 0.  1.
        -12    1    3    3    0    0  0.39947694103E+02  0.18520142012E+02 -0.91632106106E+01  0.44975308259E+02  0.00000000000E+00 0.  1.
</event>
<event>
 7    1  0.3863655E-015  0.9000791E+02  0.7816164E-02  0.1186339E+00
        -11   -1    0    0    0    0  0.00000000000E+00  0.00000000000E+00  0.45593999997E+02  0.45594000000E+02  0.51100000000E-03 0. -1.
         11   -1    0    0    0    0 -0.00000000000E+00 -0.00000000000E+00 -0.45593999997E+02  0.45594000000E+02  0.51100000000E-03 0.  1.
    9900012    2    1    2    0    0  0.33973295393E-01  0.10020386437E+01  0.62239735966E+00  0.90007909282E+02  0.90000172885E+02 0.  0.
        -12    1    1    2    0    0 -0.33973295393E-01 -0.10020386437E+01 -0.62239735966E+00  0.11800907176E+01  0.00000000000E+00 0.  1.
         11    1    3    3    0    0  0.58788201917E+01  0.48395203846E+01  0.12346759244E+02  0.14505996984E+02  0.51100000000E-03 0. -1.
        -11    1    3    3    0    0  0.14419286494E+02  0.30507543452E+02 -0.11418780244E+02  0.35623230805E+02  0.51100000000E-03 0.  1.
         12    1    3    3    0    0 -0.20264133390E+02 -0.34345025192E+02 -0.30558164047E+00  0.39878681494E+02  0.00000000000E+00 0. -1.
</event>
<event>
 7    1  0.3863655E-015  0.9000787E+02  0.7816164E-02  0.1186339E+00
        -11   -1    0    0    0    0  0.00000000000E+00  0.00000000000E+00  0.45593999997E+02  0.45594000000E+02  0.51100000000E-03 0.  1.
         11   -1    0    0    0    0 -0.00000000000E+00 -0.00000000000E+00 -0.45593999997E+02  0.45594000000E+02  0.51100000000E-03 0. -1.
    9900012    2    1    2    0    0 -0.79197547079E+00  0.66541650724E+00  0.56806225379E+00  0.90007873312E+02  0.90000136440E+02 0.  0.
        -12    1    1    2    0    0  0.79197547079E+00 -0.66541650724E+00 -0.56806225379E+00  0.11801266875E+01  0.00000000000E+00 0.  1.
         11    1    3    3    0    0 -0.17981250030E+02  0.32086985135E+02  0.83322619322E+01  0.37713744933E+02  0.51100000000E-03 0. -1.
        -11    1    3    3    0    0 -0.10487938141E+02 -0.41102366070E+01  0.35277559489E+01  0.11804065135E+02  0.51100000000E-03 0.  1.
        -12    1    3    3    0    0  0.27677212701E+02 -0.27311332021E+02 -0.11291955627E+02  0.40490063244E+02  0.00000000000E+00 0.  1.
</event>
<event>
 7    1  0.3863655E-015  0.9000776E+02  0.7816164E-02  0.1186339E+00
        -11   -1    0    0    0    0  0.00000000000E+00  0.00000000000E+00  0.45593999997E+02  0.45594000000E+02  0.51100000000E-03 0. -1.
         11   -1    0    0    0    0 -0.00000000000E+00 -0.00000000000E+00 -0.45593999997E+02  0.45594000000E+02  0.51100000000E-03 0.  1.
    9900012    2    1    2    0    0  0.70003668611E+00  0.37101544172E+00  0.87479813514E+00  0.90007756128E+02  0.90000017709E+02 0.  0.
        -12    1    1    2    0    0 -0.70003668611E+00 -0.37101544172E+00 -0.87479813514E+00  0.11802438719E+01  0.00000000000E+00 0.  1.
         11    1    3    3    0    0  0.15008540351E+02  0.32411924716E+02  0.77218981508E+01  0.36543355875E+02  0.51100000000E-03 0. -1.
        -11    1    3    3    0    0  0.35324351477E+01  0.77150646325E+01 -0.50016204613E+01  0.98496968408E+01  0.51100000000E-03 0.  1.
        -12    1    3    3    0    0 -0.17840938813E+02 -0.39755973907E+02 -0.18454795543E+01  0.43614703413E+02  0.00000000000E+00 0.  1.
</event>
<event>
 7    1  0.3863655E-015  0.9000777E+02  0.7816164E-02  0.1186339E+00
        -11   -1    0    0    0    0  0.00000000000E+00  0.00000000000E+00  0.45593999997E+02  0.45594000000E+02  0.51100000000E-03 0.  1.
         11   -1    0    0    0    0 -0.00000000000E+00 -0.00000000000E+00 -0.45593999997E+02  0.45594000000E+02  0.51100000000E-03 0. -1.
    9900012    2    1    2    0    0  0.40550562198E+00  0.18026756350E+00 -0.10936261883E+01  0.90007767208E+02  0.90000028935E+02 0.  0.
        -12    1    1    2    0    0 -0.40550562198E+00 -0.18026756350E+00  0.10936261883E+01  0.11802327921E+01  0.00000000000E+00 0.  1.
         11    1    3    3    0    0 -0.21121445595E+01 -0.91667878210E+01 -0.55244361238E+01  0.10909195586E+02  0.51100000000E-03 0. -1.
        -11    1    3    3    0    0 -0.32061467058E+02  0.17044156069E+02 -0.14301607310E+02  0.39025336615E+02  0.51100000000E-03 0.  1.
         12    1    3    3    0    0  0.34579117239E+02 -0.76971006844E+01  0.18732417246E+02  0.40073235006E+02  0.00000000000E+00 0. -1.
</event>
<event>
 7    1  0.3863655E-015  0.9000761E+02  0.7816164E-02  0.1186339E+00
        -11   -1    0    0    0    0  0.00000000000E+00  0.00000000000E+00  0.45593999997E+02  0.45594000000E+02  0.51100000000E-03 0.  1.
         11   -1    0    0    0    0 -0.00000000000E+00 -0.00000000000E+00 -0.45593999997E+02  0.45594000000E+02  0.51100000000E-03 0. -1.
    9900012    2    1    2    0    0 -0.11459286740E+01 -0.17875144497E+00 -0.21958795604E+00  0.90007608762E+02  0.89999868397E+02 0.  0.
        -12    1    1    2    0    0  0.11459286740E+01  0.17875144497E+00  0.21958795604E+00  0.11803912383E+01  0.00000000000E+00 0.  1.
         11    1    3    3    0    0 -0.11964371372E+02  0.24274770632E+02 -0.21636264353E+02  0.34648789402E+02  0.51100000000E-03 0. -1.
        -11    1    3    3    0    0 -0.43773665171E+01  0.11340981222E+02  0.47612315164E+01  0.13055593380E+02  0.51100000000E-03 0.  1.
        -12    1    3    3    0    0  0.15195809215E+02 -0.35794503299E+02  0.16655444881E+02  0.42303225980E+02  0.00000000000E+00 0.  1.
</event>
<event>
 7    1  0.3863655E-015  0.9000775E+02  0.7816164E-02  0.1186339E+00
        -11   -1    0    0    0    0  0.00000000000E+00  0.00000000000E+00  0.45593999997E+02  0.45594000000E+02  0.51100000000E-03 0.  1.
         11   -1    0    0    0    0 -0.00000000000E+00 -0.00000000000E+00 -0.45593999997E+02  0.45594000000E+02  0.51100000000E-03 0. -1.
    9900012    2    1    2    0    0  0.10405870737E+01 -0.36983904602E+00  0.41638607085E+00  0.90007754374E+02  0.90000015932E+02 0.  0.
        -12    1    1    2    0    0 -0.10405870737E+01  0.36983904602E+00 -0.41638607085E+00  0.11802456261E+01  0.00000000000E+00 0.  1.
         11    1    3    3    0    0  0.24561265209E+02 -0.20789003920E+02  0.16639305390E+02  0.36225749361E+02  0.51100000000E-03 0. -1.
        -11    1    3    3    0    0  0.34175992297E+01 -0.91605247877E+01 -0.86695206945E+01  0.13067355823E+02  0.51100000000E-03 0.  1.
        -12    1    3    3    0    0 -0.26938277365E+02  0.29579689661E+02 -0.75533986243E+01  0.40714649190E+02  0.00000000000E+00 0.  1.
</event>
<event>
 7    1  0.3863655E-015  0.9000779E+02  0.7816164E-02  0.1186339E+00
        -11   -1    0    0    0    0  0.00000000000E+00  0.00000000000E+00  0.45593999997E+02  0.45594000000E+02  0.51100000000E-03 0.  1.
         11   -1    0    0    0    0 -0.00000000000E+00 -0.00000000000E+00 -0.45593999997E+02  0.45594000000E+02  0.51100000000E-03 0. -1.
    9900012    2    1    2    0    0 -0.14663305705E+00  0.11706606786E+01 -0.30646962446E-01  0.90007793698E+02  0.90000055775E+02 0.  0.
        -12    1    1    2    0    0  0.14663305705E+00 -0.11706606786E+01  0.30646962446E-01  0.11802063015E+01  0.00000000000E+00 0.  1.
         11    1    3    3    0    0  0.38863364188E+02  0.17170050383E+02  0.18010448802E+01  0.42525468476E+02  0.51100000000E-03 0. -1.
        -11    1    3    3    0    0 -0.70611615769E+01  0.49260557699E+01  0.26992114143E+01  0.90228471550E+01  0.51100000000E-03 0.  1.
        -12    1    3    3    0    0 -0.31948835668E+02 -0.20925445475E+02 -0.45309032569E+01  0.38459478067E+02  0.00000000000E+00 0.  1.
</event>
<event>
 7    1  0.3863655E-015  0.9000702E+02  0.7816164E-02  0.1186340E+00
        -11   -1    0    0    0    0  0.00000000000E+00  0.00000000000E+00  0.45593999997E+02  0.45594000000E+02  0.51100000000E-03 0.  1.
         11   -1    0    0    0    0 -0.00000000000E+00 -0.00000000000E+00 -0.45593999997E+02  0.45594000000E+02  0.51100000000E-03 0. -1.
    9900012    2    1    2    0    0  0.10946884402E+00 -0.81192786570E+00 -0.85058503138E+00  0.90007023632E+02  0.89999275541E+02 0.  0.
        -12    1    1    2    0    0 -0.10946884402E+00  0.81192786570E+00  0.85058503138E+00  0.11809763683E+01  0.00000000000E+00 0.  1.
         11    1    3    3    0    0  0.10887851301E+01  0.12055068108E+02 -0.28931606226E+02  0.31361568189E+02  0.51100000000E-03 0. -1.
        -11    1    3    3    0    0 -0.37466397110E+01  0.50276567090E+01 -0.12623583850E+02  0.14095017225E+02  0.51100000000E-03 0.  1.
        -12    1    3    3    0    0  0.27673234249E+01 -0.17894652683E+02  0.40704605044E+02  0.44550438218E+02  0.00000000000E+00 0.  1.
</event>
<event>
 7    1  0.3863655E-015  0.9000787E+02  0.7816164E-02  0.1186339E+00
        -11   -1    0    0    0    0  0.00000000000E+00  0.00000000000E+00  0.45593999997E+02  0.45594000000E+02  0.51100000000E-03 0. -1.
         11   -1    0    0    0    0 -0.00000000000E+00 -0.00000000000E+00 -0.45593999997E+02  0.45594000000E+02  0.51100000000E-03 0.  1.
    9900012    2    1    2    0    0 -0.11634331648E+01 -0.19391009191E+00  0.39126333322E-01  0.90007869193E+02  0.90000132266E+02 0.  0.
        -12    1    1    2    0    0  0.11634331648E+01  0.19391009191E+00 -0.39126333322E-01  0.11801308075E+01  0.00000000000E+00 0.  1.
         11    1    3    3    0    0 -0.38327828517E+01  0.33377322162E+02  0.88254010947E+01  0.34736487500E+02  0.51100000000E-03 0. -1.
        -11    1    3    3    0    0 -0.31182240979E+01  0.59002465944E+01  0.93186049738E+01  0.11461790014E+02  0.51100000000E-03 0.  1.
        -12    1    3    3    0    0  0.57875737848E+01 -0.39471478849E+02 -0.18104879735E+02  0.43809591679E+02  0.00000000000E+00 0.  1.
</event>
<event>
 7    1  0.3863655E-015  0.9000788E+02  0.7816164E-02  0.1186339E+00
        -11   -1    0    0    0    0  0.00000000000E+00  0.00000000000E+00  0.45593999997E+02  0.45594000000E+02  0.51100000000E-03 0.  1.
         11   -1    0    0    0    0 -0.00000000000E+00 -0.00000000000E+00 -0.45593999997E+02  0.45594000000E+02  0.51100000000E-03 0. -1.
    9900012    2    1    2    0    0 -0.79943082940E+00 -0.85978822910E+00 -0.11981685178E+00  0.90007880715E+02  0.90000143940E+02 0.  0.
        -12    1    1    2    0    0  0.79943082940E+00  0.85978822910E+00  0.11981685178E+00  0.11801192854E+01  0.00000000000E+00 0.  1.
         11    1    3    3    0    0  0.15799787764E+02 -0.20271372619E+02 -0.90704307697E+01  0.27254991393E+02  0.51100000000E-03 0. -1.
        -11    1    3    3    0    0 -0.26315745828E+01 -0.14534039473E+02 -0.13260137368E+02  0.19849300528E+02  0.51100000000E-03 0.  1.
        -12    1    3    3    0    0 -0.13967644010E+02  0.33945623863E+02  0.22210751286E+02  0.42903588793E+02  0.00000000000E+00 0.  1.
</event>
<event>
 7    1  0.3863655E-015  0.9000776E+02  0.7816164E-02  0.1186339E+00
        -11   -1    0    0    0    0  0.00000000000E+00  0.00000000000E+00  0.45593999997E+02  0.45594000000E+02  0.51100000000E-03 0. -1.
         11   -1    0    0    0    0 -0.00000000000E+00 -0.00000000000E+00 -0.45593999997E+02  0.45594000000E+02  0.51100000000E-03 0.  1.
    9900012    2    1    2    0    0  0.58564529762E+00 -0.97571164247E+00  0.31302050002E+00  0.90007756187E+02  0.90000017769E+02 0.  0.
        -12    1    1    2    0    0 -0.58564529762E+00  0.97571164247E+00 -0.31302050002E+00  0.11802438127E+01  0.00000000000E+00 0.  1.
         11    1    3    3    0    0  0.28052908510E+01 -0.91373559990E+01 -0.53789094866E+01  0.10967843860E+02  0.51100000000E-03 0. -1.
        -11    1    3    3    0    0  0.36692759685E+02  0.13585962269E+02  0.69085768590E+01  0.39732422762E+02  0.51100000000E-03 0.  1.
         12    1    3    3    0    0 -0.38912405239E+02 -0.54243179122E+01 -0.12166468724E+01  0.39307489565E+02  0.00000000000E+00 0. -1.
</event>
<event>
 7    1  0.3863655E-015  0.9000774E+02  0.7816164E-02  0.1186339E+00
        -11   -1    0    0    0    0  0.00000000000E+00  0.00000000000E+00  0.45593999997E+02  0.45594000000E+02  0.51100000000E-03 0. -1.
         11   -1    0    0    0    0 -0.00000000000E+00 -0.00000000000E+00 -0.45593999997E+02  0.45594000000E+02  0.51100000000E-03 0.  1.
    9900012    2    1    2    0    0 -0.33388518712E+00  0.10331717534E+01  0.46269422105E+00  0.90007741921E+02  0.90000003315E+02 0.  0.
        -12    1    1    2    0    0  0.33388518712E+00 -0.10331717534E+01 -0.46269422105E+00  0.11802580787E+01  0.00000000000E+00 0.  1.
         11    1    3    3    0    0 -0.63835845186E+01  0.32354162079E+02  0.12758247129E+02  0.35359791080E+02  0.51100000000E-03 0. -1.
        -11    1    3    3    0    0 -0.57348798416E+01  0.91392968314E+01 -0.14838059533E+00  0.10790626044E+02  0.51100000000E-03 0.  1.
        -12    1    3    3    0    0  0.11784579173E+02 -0.40460287157E+02 -0.12147172313E+02  0.43857324797E+02  0.00000000000E+00 0.  1.
</event>
<event>
 7    1  0.3863655E-015  0.9000666E+02  0.7816164E-02  0.1186341E+00
        -11   -1    0    0    0    0  0.00000000000E+00  0.00000000000E+00  0.45593999997E+02  0.45594000000E+02  0.51100000000E-03 0.  1.
         11   -1    0    0    0    0 -0.00000000000E+00 -0.00000000000E+00 -0.45593999997E+02  0.45594000000E+02  0.51100000000E-03 0. -1.
    9900012    2    1    2    0    0  0.27737598090E+00 -0.64863061188E+00 -0.94757589066E+00  0.90006662125E+02  0.89998909259E+02 0.  0.
        -12    1    1    2    0    0 -0.27737598090E+00  0.64863061188E+00  0.94757589066E+00  0.11813378746E+01  0.00000000000E+00 0.  1.
         11    1    3    3    0    0  0.51238136123E+01  0.77943699816E+01 -0.27305702623E+01  0.97191400629E+01  0.51100000000E-03 0. -1.
        -11    1    3    3    0    0 -0.16787533040E+02 -0.23366926412E+02  0.32939213294E+02  0.43735869583E+02  0.51100000000E-03 0.  1.
         12    1    3    3    0    0  0.11941095409E+02  0.14923925819E+02 -0.31156218922E+02  0.36551652479E+02  0.00000000000E+00 0. -1.
</event>
<event>
 7    1  0.3863655E-015  0.9000763E+02  0.7816164E-02  0.1186339E+00
        -11   -1    0    0    0    0  0.00000000000E+00  0.00000000000E+00  0.45593999997E+02  0.45594000000E+02  0.51100000000E-03 0. -1.
         11   -1    0    0    0    0 -0.00000000000E+00 -0.00000000000E+00 -0.45593999997E+02  0.45594000000E+02  0.51100000000E-03 0.  1.
    9900012    2    1    2    0    0  0.44369887191E+00  0.82595892183E+00 -0.71706999449E+00  0.90007633020E+02  0.89999892976E+02 0.  0.
        -12    1    1    2    0    0 -0.44369887191E+00 -0.82595892183E+00  0.71706999449E+00  0.11803669796E+01  0.00000000000E+00 0.  1.
         11    1    3    3    0    0 -0.61641564919E+01  0.13019925030E+01  0.64721817428E+01  0.90322282139E+01  0.51100000000E-03 0. -1.
        -11    1    3    3    0    0 -0.94860577129E+01  0.28898197876E+02 -0.28166799503E+02  0.41454308894E+02  0.51100000000E-03 0.  1.
         12    1    3    3    0    0  0.16093913077E+02 -0.29374231457E+02  0.20977547766E+02  0.39521095912E+02  0.00000000000E+00 0. -1.
</event>
<event>
 7    1  0.3863655E-015  0.9000769E+02  0.7816164E-02  0.1186339E+00
        -11   -1    0    0    0    0  0.00000000000E+00  0.00000000000E+00  0.45593999997E+02  0.45594000000E+02  0.51100000000E-03 0. -1.
         11   -1    0    0    0    0 -0.00000000000E+00 -0.00000000000E+00 -0.45593999997E+02  0.45594000000E+02  0.51100000000E-03 0.  1.
    9900012    2    1    2    0    0 -0.77306175533E-01 -0.10527181533E+01  0.52814112141E+00  0.90007692922E+02  0.89999953668E+02 0.  0.
        -12    1    1    2    0    0  0.77306175533E-01  0.10527181533E+01 -0.52814112141E+00  0.11803070783E+01  0.00000000000E+00 0.  1.
         11    1    3    3    0    0  0.87537811035E+01 -0.13154945576E+01  0.15259047558E+01  0.89826274065E+01  0.51100000000E-03 0. -1.
        -11    1    3    3    0    0 -0.96205908164E+01 -0.37046595326E+02  0.14070902765E+02  0.40779851616E+02  0.51100000000E-03 0.  1.
         12    1    3    3    0    0  0.78950353739E+00  0.37309371731E+02 -0.15068666399E+02  0.40245213899E+02  0.00000000000E+00 0. -1.
</event>
<event>
 7    1  0.3917492E-015  0.9000733E+02  0.7816164E-02  0.1186340E+00
        -11   -1    0    0    0    0  0.00000000000E+00  0.00000000000E+00  0.45593999997E+02  0.45594000000E+02  0.51100000000E-03 0. -1.
         11   -1    0    0    0    0 -0.00000000000E+00 -0.00000000000E+00 -0.45593999997E+02  0.45594000000E+02  0.51100000000E-03 0.  1.
    9900012    2    1    2    0    0 -0.12846205287E-01 -0.47701625541E+00  0.10799404275E+01  0.90007330334E+02  0.89999586294E+02 0.  0.
        -12    1    1    2    0    0  0.12846205287E-01  0.47701625541E+00 -0.10799404275E+01  0.11806696659E+01  0.00000000000E+00 0.  1.
         11    1    3    3    0    0  0.14992580703E+01 -0.29515536574E+02  0.23361741076E+02  0.37672080118E+02  0.51100000000E-03 0. -1.
        -11    1    3    3    0    0 -0.83175788361E+01 -0.56554906729E+01  0.83597975348E+00  0.10092846717E+02  0.51100000000E-03 0.  1.
        -12    1    3    3    0    0  0.68054745605E+01  0.34694010992E+02 -0.23117780402E+02  0.42242403499E+02  0.00000000000E+00 0.  1.
</event>
<event>
 7    1  0.3863655E-015  0.9000775E+02  0.7816164E-02  0.1186339E+00
        -11   -1    0    0    0    0  0.00000000000E+00  0.00000000000E+00  0.45593999997E+02  0.45594000000E+02  0.51100000000E-03 0. -1.
         11   -1    0    0    0    0 -0.00000000000E+00 -0.00000000000E+00 -0.45593999997E+02  0.45594000000E+02  0.51100000000E-03 0.  1.
    9900012    2    1    2    0    0  0.16708898746E+00  0.81668766890E+00  0.83551752035E+00  0.90007751295E+02  0.90000012812E+02 0.  0.
        -12    1    1    2    0    0 -0.16708898746E+00 -0.81668766890E+00 -0.83551752035E+00  0.11802487048E+01  0.00000000000E+00 0.  1.
         11    1    3    3    0    0  0.60748629969E+01 -0.34786291922E+02 -0.92167496034E+01  0.36495733170E+02  0.51100000000E-03 0. -1.
        -11    1    3    3    0    0 -0.48779982256E+01 -0.42146668849E+01 -0.75819071057E+01  0.99520650752E+01  0.51100000000E-03 0.  1.
        -12    1    3    3    0    0 -0.10297757839E+01  0.39817646475E+02  0.17634174229E+02  0.43559953050E+02  0.00000000000E+00 0.  1.
</event>
<event>
 7    1  0.3863655E-015  0.9000779E+02  0.7816164E-02  0.1186339E+00
        -11   -1    0    0    0    0  0.00000000000E+00  0.00000000000E+00  0.45593999997E+02  0.45594000000E+02  0.51100000000E-03 0.  1.
         11   -1    0    0    0    0 -0.00000000000E+00 -0.00000000000E+00 -0.45593999997E+02  0.45594000000E+02  0.51100000000E-03 0. -1.
    9900012    2    1    2    0    0 -0.50221767050E-01  0.32198937510E+00 -0.11343278508E+01  0.90007788554E+02  0.90000050563E+02 0.  0.
        -12    1    1    2    0    0  0.50221767050E-01 -0.32198937510E+00  0.11343278508E+01  0.11802114457E+01  0.00000000000E+00 0.  1.
         11    1    3    3    0    0  0.28660761401E+02 -0.22629525639E+02 -0.37289921338E+01  0.36707493204E+02  0.51100000000E-03 0. -1.
        -11    1    3    3    0    0  0.77758497401E+00 -0.94174393614E+01  0.38687346035E+00  0.94574031242E+01  0.51100000000E-03 0.  1.
        -12    1    3    3    0    0 -0.29488568142E+02  0.32368954375E+02  0.22077908226E+01  0.43842892226E+02  0.00000000000E+00 0.  1.
</event>
<event>
 8    1  0.3863655E-015  0.9000758E+02  0.7816164E-02  0.1186339E+00
        -11   -1    0    0    0    0  0.00000000000E+00  0.00000000000E+00  0.45593999997E+02  0.45594000000E+02  0.51100000000E-03 0. -1.
         11   -1    0    0    0    0 -0.00000000000E+00 -0.00000000000E+00 -0.45593999997E+02  0.45594000000E+02  0.51100000000E-03 0.  1.
    9900012    2    1    2    0    0  0.10940410161E+01  0.89988782540E-01  0.43401182217E+00  0.90007580588E+02  0.89999839852E+02 0.  0.
         23    2    3    3    0    0 -0.20444875183E+02  0.17504972690E+01  0.11576763696E+01  0.68392634605E+02  0.65231549819E+02 0.  0.
        -12    1    1    2    0    0 -0.10940410161E+01 -0.89988782540E-01 -0.43401182217E+00  0.11804194118E+01  0.00000000000E+00 0.  1.
         11    1    4    4    0    0 -0.40454218318E+02  0.85897871145E+01 -0.12518841506E+02  0.43209369532E+02  0.51100000000E-03 0.  1.
        -11    1    4    4    0    0  0.20009343135E+02 -0.68392898455E+01  0.13676517876E+02  0.25183265073E+02  0.51100000000E-03 0. -1.
        -12    1    3    3    0    0  0.21538916199E+02 -0.16605084865E+01 -0.72366454746E+00  0.21614945983E+02  0.00000000000E+00 0.  1.
</event>
<event>
 7    1  0.3863655E-015  0.9000776E+02  0.7816164E-02  0.1186339E+00
        -11   -1    0    0    0    0  0.00000000000E+00  0.00000000000E+00  0.45593999997E+02  0.45594000000E+02  0.51100000000E-03 0. -1.
         11   -1    0    0    0    0 -0.00000000000E+00 -0.00000000000E+00 -0.45593999997E+02  0.45594000000E+02  0.51100000000E-03 0.  1.
    9900012    2    1    2    0    0  0.66182733524E-01  0.53539948141E+00  0.10497317249E+01  0.90007758731E+02  0.90000020346E+02 0.  0.
        -12    1    1    2    0    0 -0.66182733524E-01 -0.53539948141E+00 -0.10497317249E+01  0.11802412690E+01  0.00000000000E+00 0.  1.
         11    1    3    3    0    0  0.38808509406E+02 -0.15117672603E+02  0.49212825291E+00  0.41651970154E+02  0.51100000000E-03 0. -1.
        -11    1    3    3    0    0 -0.46955643014E+01  0.39854113198E+01  0.94529586708E+01  0.11282298320E+02  0.51100000000E-03 0.  1.
        -12    1    3    3    0    0 -0.34046762371E+02  0.11667660765E+02 -0.88953551988E+01  0.37073490256E+02  0.00000000000E+00 0.  1.
</event>
<event>
 7    1  0.3863655E-015  0.9000778E+02  0.7816164E-02  0.1186339E+00
        -11   -1    0    0    0    0  0.00000000000E+00  0.00000000000E+00  0.45593999997E+02  0.45594000000E+02  0.51100000000E-03 0. -1.
         11   -1    0    0    0    0 -0.00000000000E+00 -0.00000000000E+00 -0.45593999997E+02  0.45594000000E+02  0.51100000000E-03 0.  1.
    9900012    2    1    2    0    0  0.27158850913E+00 -0.83385341718E+00  0.78983915490E+00  0.90007780643E+02  0.90000042548E+02 0.  0.
        -12    1    1    2    0    0 -0.27158850913E+00  0.83385341718E+00 -0.78983915490E+00  0.11802193568E+01  0.00000000000E+00 0.  1.
         11    1    3    3    0    0  0.23623565869E+02 -0.15223511602E+02  0.26936644036E+02  0.38928279721E+02  0.51100000000E-03 0. -1.
        -11    1    3    3    0    0  0.27706481042E+00  0.56985810631E+01  0.72690751117E+01  0.92406733674E+01  0.51100000000E-03 0.  1.
        -12    1    3    3    0    0 -0.23629042170E+02  0.86910771218E+01 -0.33415879993E+02  0.41838827554E+02  0.00000000000E+00 0.  1.
</event>
<event>
 7    1  0.3863655E-015  0.9000777E+02  0.7816164E-02  0.1186339E+00
        -11   -1    0    0    0    0  0.00000000000E+00  0.00000000000E+00  0.45593999997E+02  0.45594000000E+02  0.51100000000E-03 0.  1.
         11   -1    0    0    0    0 -0.00000000000E+00 -0.00000000000E+00 -0.45593999997E+02  0.45594000000E+02  0.51100000000E-03 0. -1.
    9900012    2    1    2    0    0  0.57422166910E+00  0.47680277944E+00 -0.91426405481E+00  0.90007766897E+02  0.90000028620E+02 0.  0.
        -12    1    1    2    0    0 -0.57422166910E+00 -0.47680277944E+00  0.91426405481E+00  0.11802331031E+01  0.00000000000E+00 0.  1.
         11    1    3    3    0    0 -0.33337082276E+01 -0.90040823192E+01 -0.15146392408E+01  0.97201461536E+01  0.51100000000E-03 0. -1.
        -11    1    3    3    0    0 -0.21895612420E+02  0.56825447702E+01 -0.31592051384E+02  0.38855718617E+02  0.51100000000E-03 0.  1.
         12    1    3    3    0    0  0.25803542317E+02  0.37983403284E+01  0.32192426570E+02  0.41431902126E+02  0.00000000000E+00 0. -1.
</event>
<event>
 7    1  0.3863655E-015  0.9000775E+02  0.7816164E-02  0.1186339E+00
        -11   -1    0    0    0    0  0.00000000000E+00  0.00000000000E+00  0.45593999997E+02  0.45594000000E+02  0.51100000000E-03 0.  1.
         11   -1    0    0    0    0 -0.00000000000E+00 -0.00000000000E+00 -0.45593999997E+02  0.45594000000E+02  0.51100000000E-03 0. -1.
    9900012    2    1    2    0    0 -0.10185549615E+00  0.10235241853E+01 -0.57880167342E+00  0.90007751011E+02  0.90000012524E+02 0.  0.
        -12    1    1    2    0    0  0.10185549615E+00 -0.10235241853E+01  0.57880167342E+00  0.11802489895E+01  0.00000000000E+00 0.  1.
         11    1    3    3    0    0 -0.19673457880E+02 -0.29428559323E+02 -0.12464385935E+02  0.37529268122E+02  0.51100000000E-03 0. -1.
        -11    1    3    3    0    0 -0.68136858893E+01 -0.10044831455E+01  0.89820468599E+01  0.11318677831E+02  0.51100000000E-03 0.  1.
        -12    1    3    3    0    0  0.26385288274E+02  0.31456566654E+02  0.29035374013E+01  0.41159805057E+02  0.00000000000E+00 0.  1.
</event>
<event>
 7    1  0.3863655E-015  0.9000759E+02  0.7816164E-02  0.1186339E+00
        -11   -1    0    0    0    0  0.00000000000E+00  0.00000000000E+00  0.45593999997E+02  0.45594000000E+02  0.51100000000E-03 0. -1.
         11   -1    0    0    0    0 -0.00000000000E+00 -0.00000000000E+00 -0.45593999997E+02  0.45594000000E+02  0.51100000000E-03 0.  1.
    9900012    2    1    2    0    0  0.10450660638E+01  0.20087200767E+00  0.51074865883E+00  0.90007586160E+02  0.89999845497E+02 0.  0.
        -12    1    1    2    0    0 -0.10450660638E+01 -0.20087200767E+00 -0.51074865883E+00  0.11804138400E+01  0.00000000000E+00 0.  1.
         11    1    3    3    0    0 -0.29765148622E+02  0.15591116605E+02  0.16799142549E+02  0.37566716387E+02  0.51100000000E-03 0. -1.
        -11    1    3    3    0    0 -0.52893054422E+01 -0.47894786140E+01  0.54587723954E+01  0.89841000540E+01  0.51100000000E-03 0.  1.
        -12    1    3    3    0    0  0.36099520128E+02 -0.10600765983E+02 -0.21747166286E+02  0.43456769719E+02  0.00000000000E+00 0.  1.
</event>
<event>
 7    1  0.3863655E-015  0.9000774E+02  0.7816164E-02  0.1186339E+00
        -11   -1    0    0    0    0  0.00000000000E+00  0.00000000000E+00  0.45593999997E+02  0.45594000000E+02  0.51100000000E-03 0. -1.
         11   -1    0    0    0    0 -0.00000000000E+00 -0.00000000000E+00 -0.45593999997E+02  0.45594000000E+02  0.51100000000E-03 0.  1.
    9900012    2    1    2    0    0  0.23695800590E+00 -0.96571864023E+00  0.63579985020E+00  0.90007744503E+02  0.90000005930E+02 0.  0.
        -12    1    1    2    0    0 -0.23695800590E+00  0.96571864023E+00 -0.63579985020E+00  0.11802554970E+01  0.00000000000E+00 0.  1.
         11    1    3    3    0    0 -0.34271571791E+02 -0.13534429047E+02  0.62351407523E+01  0.37371090205E+02  0.51100000000E-03 0. -1.
        -11    1    3    3    0    0  0.93671047858E+01  0.41677750323E+01  0.15618440241E+02  0.18682844446E+02  0.51100000000E-03 0.  1.
        -12    1    3    3    0    0  0.25141425011E+02  0.84009353745E+01 -0.21217781143E+02  0.33953809851E+02  0.00000000000E+00 0.  1.
</event>
<event>
 7    1  0.3863655E-015  0.9000779E+02  0.7816164E-02  0.1186339E+00
        -11   -1    0    0    0    0  0.00000000000E+00  0.00000000000E+00  0.45593999997E+02  0.45594000000E+02  0.51100000000E-03 0.  1.
         11   -1    0    0    0    0 -0.00000000000E+00 -0.00000000000E+00 -0.45593999997E+02  0.45594000000E+02  0.51100000000E-03 0. -1.
    9900012    2    1    2    0    0  0.10710472912E+01  0.49550930893E+00 -0.14644413216E-01  0.90007793987E+02  0.90000056067E+02 0.  0.
        -12    1    1    2    0    0 -0.10710472912E+01 -0.49550930893E+00  0.14644413216E-01  0.11802060134E+01  0.00000000000E+00 0.  1.
         11    1    3    3    0    0  0.28016452142E+01 -0.92720196860E+00 -0.90110802025E+01  0.94820085464E+01  0.51100000000E-03 0. -1.
        -11    1    3    3    0    0  0.32036602688E+02  0.17206989973E+02 -0.11304573139E+02  0.38081725143E+02  0.51100000000E-03 0.  1.
         12    1    3    3    0    0 -0.33767200611E+02 -0.15784278695E+02  0.20301008928E+02  0.42444060298E+02  0.00000000000E+00 0. -1.
</event>
<event>
 7    1  0.3863655E-015  0.9000772E+02  0.7816164E-02  0.1186339E+00
        -11   -1    0    0    0    0  0.00000000000E+00  0.00000000000E+00  0.45593999997E+02  0.45594000000E+02  0.51100000000E-03 0.  1.
         11   -1    0    0    0    0 -0.00000000000E+00 -0.00000000000E+00 -0.45593999997E+02  0.45594000000E+02  0.51100000000E-03 0. -1.
    9900012    2    1    2    0    0  0.48074218975E+00  0.50744803107E+00 -0.95102154484E+00  0.90007720992E+02  0.89999982109E+02 0.  0.
        -12    1    1    2    0    0 -0.48074218975E+00 -0.50744803107E+00  0.95102154484E+00  0.11802790077E+01  0.00000000000E+00 0.  1.
         11    1    3    3    0    0 -0.44733168889E+01 -0.33485508925E+02 -0.11325982816E+02  0.35630994358E+02  0.51100000000E-03 0. -1.
        -11    1    3    3    0    0 -0.59187149852E+01 -0.70124952705E+01 -0.33814664023E+01  0.97796008245E+01  0.51100000000E-03 0.  1.
        -12    1    3    3    0    0  0.10872774064E+02  0.41005452227E+02  0.13756427673E+02  0.44597125810E+02  0.00000000000E+00 0.  1.
</event>
<event>
 7    1  0.3863655E-015  0.9000756E+02  0.7816164E-02  0.1186339E+00
        -11   -1    0    0    0    0  0.00000000000E+00  0.00000000000E+00  0.45593999997E+02  0.45594000000E+02  0.51100000000E-03 0.  1.
         11   -1    0    0    0    0 -0.00000000000E+00 -0.00000000000E+00 -0.45593999997E+02  0.45594000000E+02  0.51100000000E-03 0. -1.
    9900012    2    1    2    0    0 -0.97423653894E+00 -0.37401191916E+00 -0.55173428474E+00  0.90007562594E+02  0.89999821620E+02 0.  0.
        -12    1    1    2    0    0  0.97423653894E+00  0.37401191916E+00  0.55173428474E+00  0.11804374064E+01  0.00000000000E+00 0.  1.
         11    1    3    3    0    0  0.20042993291E+01 -0.34091020934E+01  0.86192643699E+01  0.94831909937E+01  0.51100000000E-03 0. -1.
        -11    1    3    3    0    0 -0.72696320563E+01 -0.23618493710E+02  0.26208113459E+02  0.36021465916E+02  0.51100000000E-03 0.  1.
         12    1    3    3    0    0  0.42910961882E+01  0.26653583884E+02 -0.35379112114E+02  0.44502905684E+02  0.00000000000E+00 0. -1.
</event>
<event>
 7    1  0.3863655E-015  0.9000780E+02  0.7816164E-02  0.1186339E+00
        -11   -1    0    0    0    0  0.00000000000E+00  0.00000000000E+00  0.45593999997E+02  0.45594000000E+02  0.51100000000E-03 0.  1.
         11   -1    0    0    0    0 -0.00000000000E+00 -0.00000000000E+00 -0.45593999997E+02  0.45594000000E+02  0.51100000000E-03 0. -1.
    9900012    2    1    2    0    0 -0.70147187384E+00 -0.31807958510E+00 -0.89421810945E+00  0.90007803644E+02  0.90000065852E+02 0.  0.
        -12    1    1    2    0    0  0.70147187384E+00  0.31807958510E+00  0.89421810945E+00  0.11801963563E+01  0.00000000000E+00 0.  1.
         11    1    3    3    0    0 -0.25537361551E+01 -0.14091526539E+00  0.74061449237E+01  0.78353307750E+01  0.51100000000E-03 0. -1.
        -11    1    3    3    0    0  0.24932644221E+01 -0.40302957049E+02 -0.11295060782E+02  0.41929978687E+02  0.51100000000E-03 0.  1.
         12    1    3    3    0    0 -0.64100014091E+00  0.40125792729E+02  0.29946977492E+01  0.40242494181E+02  0.00000000000E+00 0. -1.
</event>
<event>
 7    1  0.3863655E-015  0.9000770E+02  0.7816164E-02  0.1186339E+00
        -11   -1    0    0    0    0  0.00000000000E+00  0.00000000000E+00  0.45593999997E+02  0.45594000000E+02  0.51100000000E-03 0.  1.
         11   -1    0    0    0    0 -0.00000000000E+00 -0.00000000000E+00 -0.45593999997E+02  0.45594000000E+02  0.51100000000E-03 0. -1.
    9900012    2    1    2    0    0 -0.54653813728E+00  0.29675671525E+00 -0.10031667576E+01  0.90007698332E+02  0.89999959150E+02 0.  0.
        -12    1    1    2    0    0  0.54653813728E+00 -0.29675671525E+00  0.10031667576E+01  0.11803016679E+01  0.00000000000E+00 0.  1.
         11    1    3    3    0    0  0.13001658765E+01 -0.79653241965E+01 -0.50326917663E+01  0.95112989407E+01  0.51100000000E-03 0. -1.
        -11    1    3    3    0    0 -0.13182053211E+02 -0.25876867695E+02  0.25463225645E+02  0.38623240013E+02  0.51100000000E-03 0.  1.
         12    1    3    3    0    0  0.11335349197E+02  0.34138948607E+02 -0.21433700637E+02  0.41873159379E+02  0.00000000000E+00 0. -1.
</event>
<event>
 7    1  0.3863655E-015  0.9000772E+02  0.7816164E-02  0.1186339E+00
        -11   -1    0    0    0    0  0.00000000000E+00  0.00000000000E+00  0.45593999997E+02  0.45594000000E+02  0.51100000000E-03 0.  1.
         11   -1    0    0    0    0 -0.00000000000E+00 -0.00000000000E+00 -0.45593999997E+02  0.45594000000E+02  0.51100000000E-03 0. -1.
    9900012    2    1    2    0    0  0.32516304716E+00 -0.10789184669E+01 -0.35110699017E+00  0.90007715211E+02  0.89999976251E+02 0.  0.
        -12    1    1    2    0    0 -0.32516304716E+00  0.10789184669E+01  0.35110699017E+00  0.11802847893E+01  0.00000000000E+00 0.  1.
         11    1    3    3    0    0 -0.86802454846E+01  0.30299603321E+02 -0.26138592431E+02  0.40946778110E+02  0.51100000000E-03 0. -1.
        -11    1    3    3    0    0 -0.39615716548E+01 -0.10470045761E+02 -0.26032062460E+01  0.11493154103E+02  0.51100000000E-03 0.  1.
        -12    1    3    3    0    0  0.12966980187E+02 -0.20908476026E+02  0.28390691686E+02  0.37567782997E+02  0.00000000000E+00 0.  1.
</event>
<event>
 7    1  0.3863655E-015  0.9000776E+02  0.7816164E-02  0.1186339E+00
        -11   -1    0    0    0    0  0.00000000000E+00  0.00000000000E+00  0.45593999997E+02  0.45594000000E+02  0.51100000000E-03 0.  1.
         11   -1    0    0    0    0 -0.00000000000E+00 -0.00000000000E+00 -0.45593999997E+02  0.45594000000E+02  0.51100000000E-03 0. -1.
    9900012    2    1    2    0    0 -0.33081466229E-01 -0.84274392862E+00 -0.82561924431E+00  0.90007763223E+02  0.90000024898E+02 0.  0.
        -12    1    1    2    0    0  0.33081466229E-01  0.84274392862E+00  0.82561924431E+00  0.11802367768E+01  0.00000000000E+00 0.  1.
         11    1    3    3    0    0  0.30238970194E+02 -0.27374065285E+01 -0.21528471213E+02  0.37220475359E+02  0.51100000000E-03 0. -1.
        -11    1    3    3    0    0  0.53663517100E+01 -0.26220083130E+00 -0.61103165856E+01  0.81364887383E+01  0.51100000000E-03 0.  1.
        -12    1    3    3    0    0 -0.35638403370E+02  0.21568634311E+01  0.26813168555E+02  0.44650799126E+02  0.00000000000E+00 0.  1.
</event>
<event>
 7    1  0.3863655E-015  0.9000770E+02  0.7816164E-02  0.1186339E+00
        -11   -1    0    0    0    0  0.00000000000E+00  0.00000000000E+00  0.45593999997E+02  0.45594000000E+02  0.51100000000E-03 0.  1.
         11   -1    0    0    0    0 -0.00000000000E+00 -0.00000000000E+00 -0.45593999997E+02  0.45594000000E+02  0.51100000000E-03 0. -1.
    9900012    2    1    2    0    0 -0.35286970931E+00  0.39744573781E+00  0.10538657299E+01  0.90007697868E+02  0.89999958680E+02 0.  0.
        -12    1    1    2    0    0  0.35286970931E+00 -0.39744573781E+00 -0.10538657299E+01  0.11803021320E+01  0.00000000000E+00 0.  1.
         11    1    3    3    0    0  0.14859848356E+01  0.63878256900E+01 -0.76109081973E+01  0.10046810032E+02  0.51100000000E-03 0. -1.
        -11    1    3    3    0    0 -0.35195160563E+02  0.16874378857E+02  0.34017897676E+01  0.39179282315E+02  0.51100000000E-03 0.  1.
         12    1    3    3    0    0  0.33356306018E+02 -0.22864758809E+02  0.52629841596E+01  0.40781605520E+02  0.00000000000E+00 0. -1.
</event>
<event>
 7    1  0.3863655E-015  0.9000777E+02  0.7816164E-02  0.1186339E+00
        -11   -1    0    0    0    0  0.00000000000E+00  0.00000000000E+00  0.45593999997E+02  0.45594000000E+02  0.51100000000E-03 0.  1.
         11   -1    0    0    0    0 -0.00000000000E+00 -0.00000000000E+00 -0.45593999997E+02  0.45594000000E+02  0.51100000000E-03 0. -1.
    9900012    2    1    2    0    0  0.46420564078E+00  0.13284642223E+00 -0.10769455709E+01  0.90007768323E+02  0.90000030065E+02 0.  0.
        -12    1    1    2    0    0 -0.46420564078E+00 -0.13284642223E+00  0.10769455709E+01  0.11802316771E+01  0.00000000000E+00 0.  1.
         11    1    3    3    0    0  0.34933649178E+01 -0.10064671288E+02  0.82978241104E+01  0.13503891729E+02  0.51100000000E-03 0. -1.
        -11    1    3    3    0    0  0.22626544429E+02 -0.23970391106E+02 -0.10924741760E+01  0.32980807489E+02  0.51100000000E-03 0.  1.
         12    1    3    3    0    0 -0.25655703706E+02  0.34167908816E+02 -0.82822955053E+01  0.43523069105E+02  0.00000000000E+00 0. -1.
</event>
<event>
 7    1  0.3863655E-015  0.9000773E+02  0.7816164E-02  0.1186339E+00
        -11   -1    0    0    0    0  0.00000000000E+00  0.00000000000E+00  0.45593999997E+02  0.45594000000E+02  0.51100000000E-03 0.  1.
         11   -1    0    0    0    0 -0.00000000000E+00 -0.00000000000E+00 -0.45593999997E+02  0.45594000000E+02  0.51100000000E-03 0. -1.
    9900012    2    1    2    0    0  0.84580185330E+00 -0.81722369572E+00  0.99035902035E-01  0.90007727382E+02  0.89999988583E+02 0.  0.
        -12    1    1    2    0    0 -0.84580185330E+00  0.81722369572E+00 -0.99035902035E-01  0.11802726184E+01  0.00000000000E+00 0.  1.
         11    1    3    3    0    0 -0.31207136558E+02 -0.12476898060E+02 -0.85429048058E+01  0.34677652460E+02  0.51100000000E-03 0. -1.
        -11    1    3    3    0    0 -0.81686815200E+01 -0.81401385961E+00 -0.66122836853E+01  0.10540980606E+02  0.51100000000E-03 0.  1.
        -12    1    3    3    0    0  0.40221619931E+02  0.12473688224E+02  0.15254224393E+02  0.44789094316E+02  0.00000000000E+00 0.  1.
</event>
<event>
 7    1  0.3863655E-015  0.9000779E+02  0.7816164E-02  0.1186339E+00
        -11   -1    0    0    0    0  0.00000000000E+00  0.00000000000E+00  0.45593999997E+02  0.45594000000E+02  0.51100000000E-03 0. -1.
         11   -1    0    0    0    0 -0.00000000000E+00 -0.00000000000E+00 -0.45593999997E+02  0.45594000000E+02  0.51100000000E-03 0.  1.
    9900012    2    1    2    0    0 -0.11317233291E+01  0.31775102293E+00 -0.10545659572E+00  0.90007794721E+02  0.90000056812E+02 0.  0.
        -12    1    1    2    0    0  0.11317233291E+01 -0.31775102293E+00  0.10545659572E+00  0.11802052786E+01  0.00000000000E+00 0.  1.
         11    1    3    3    0    0 -0.13289739128E+02  0.23616617898E+02 -0.13610209662E+02  0.30324900896E+02  0.51100000000E-03 0. -1.
        -11    1    3    3    0    0 -0.14681124572E+02 -0.26699186328E+02  0.28341727590E+01  0.30600890588E+02  0.51100000000E-03 0.  1.
         12    1    3    3    0    0  0.26839140371E+02  0.34003194530E+01  0.10670580307E+02  0.29082003238E+02  0.00000000000E+00 0. -1.
</event>
<event>
 7    1  0.3863655E-015  0.9000771E+02  0.7816164E-02  0.1186339E+00
        -11   -1    0    0    0    0  0.00000000000E+00  0.00000000000E+00  0.45593999997E+02  0.45594000000E+02  0.51100000000E-03 0.  1.
         11   -1    0    0    0    0 -0.00000000000E+00 -0.00000000000E+00 -0.45593999997E+02  0.45594000000E+02  0.51100000000E-03 0. -1.
    9900012    2    1    2    0    0 -0.19767191081E+00  0.11168883645E+01 -0.32646698003E+00  0.90007705760E+02  0.89999966676E+02 0.  0.
        -12    1    1    2    0    0  0.19767191081E+00 -0.11168883645E+01  0.32646698003E+00  0.11802942397E+01  0.00000000000E+00 0.  1.
         11    1    3    3    0    0 -0.93852103287E+01  0.34315845205E+02 -0.24038203625E+02  0.42935936450E+02  0.51100000000E-03 0. -1.
        -11    1    3    3    0    0 -0.65238356754E+01 -0.44773323453E+01  0.41518764733E+01  0.89356038050E+01  0.51100000000E-03 0.  1.
        -12    1    3    3    0    0  0.15711374093E+02 -0.28721624495E+02  0.19559860172E+02  0.38136165506E+02  0.00000000000E+00 0.  1.
</event>
<event>
 7    1  0.3863655E-015  0.9000776E+02  0.7816164E-02  0.1186339E+00
        -11   -1    0    0    0    0  0.00000000000E+00  0.00000000000E+00  0.45593999997E+02  0.45594000000E+02  0.51100000000E-03 0. -1.
         11   -1    0    0    0    0 -0.00000000000E+00 -0.00000000000E+00 -0.45593999997E+02  0.45594000000E+02  0.51100000000E-03 0.  1.
    9900012    2    1    2    0    0 -0.69286840980E+00  0.52510504249E+00  0.79822764242E+00  0.90007758792E+02  0.90000020408E+02 0.  0.
        -12    1    1    2    0    0  0.69286840980E+00 -0.52510504249E+00 -0.79822764242E+00  0.11802412076E+01  0.00000000000E+00 0.  1.
         11    1    3    3    0    0  0.48246141415E+01  0.45742068730E+01 -0.95936139735E+01  0.11672090621E+02  0.51100000000E-03 0. -1.
        -11    1    3    3    0    0 -0.28128250872E+02  0.19734815075E+02 -0.14350388853E+02  0.37237012281E+02  0.51100000000E-03 0.  1.
         12    1    3    3    0    0  0.22610768320E+02 -0.23783916906E+02  0.24742230469E+02  0.41098655890E+02  0.00000000000E+00 0. -1.
</event>
<event>
 7    1  0.3863655E-015  0.9000767E+02  0.7816164E-02  0.1186339E+00
        -11   -1    0    0    0    0  0.00000000000E+00  0.00000000000E+00  0.45593999997E+02  0.45594000000E+02  0.51100000000E-03 0.  1.
         11   -1    0    0    0    0 -0.00000000000E+00 -0.00000000000E+00 -0.45593999997E+02  0.45594000000E+02  0.51100000000E-03 0. -1.
    9900012    2    1    2    0    0  0.10068680935E+01 -0.60872769027E+00 -0.94033475843E-01  0.90007671633E+02  0.89999932099E+02 0.  0.
        -12    1    1    2    0    0 -0.10068680935E+01  0.60872769027E+00  0.94033475843E-01  0.11803283667E+01  0.00000000000E+00 0.  1.
         11    1    3    3    0    0  0.72884644707E+01 -0.16067609690E+01  0.75473249734E+01  0.10614401051E+02  0.51100000000E-03 0. -1.
        -11    1    3    3    0    0  0.12332302170E+02 -0.29506482868E+02  0.16775633564E+02  0.36112879833E+02  0.51100000000E-03 0.  1.
         12    1    3    3    0    0 -0.18613898548E+02  0.30504516147E+02 -0.24416992013E+02  0.43280390750E+02  0.00000000000E+00 0. -1.
</event>
<event>
 7    1  0.3863655E-015  0.9000768E+02  0.7816164E-02  0.1186339E+00
        -11   -1    0    0    0    0  0.00000000000E+00  0.00000000000E+00  0.45593999997E+02  0.45594000000E+02  0.51100000000E-03 0.  1.
         11   -1    0    0    0    0 -0.00000000000E+00 -0.00000000000E+00 -0.45593999997E+02  0.45594000000E+02  0.51100000000E-03 0. -1.
    9900012    2    1    2    0    0 -0.99289300721E+00  0.49182355148E+00 -0.40671633077E+00  0.90007684321E+02  0.89999944954E+02 0.  0.
        -12    1    1    2    0    0  0.99289300721E+00 -0.49182355148E+00  0.40671633077E+00  0.11803156795E+01  0.00000000000E+00 0.  1.
         11    1    3    3    0    0  0.71443249056E+01  0.83871174182E+01  0.34429579559E+00  0.11022869717E+02  0.51100000000E-03 0. -1.
        -11    1    3    3    0    0  0.34492583492E+02 -0.23191757018E+01 -0.77431200119E+01  0.35427006643E+02  0.51100000000E-03 0.  1.
         12    1    3    3    0    0 -0.42629801405E+02 -0.55761181650E+01  0.69921078856E+01  0.43557807960E+02  0.00000000000E+00 0. -1.
</event>
<event>
 7    1  0.3863655E-015  0.9000772E+02  0.7816164E-02  0.1186339E+00
        -11   -1    0    0    0    0  0.00000000000E+00  0.00000000000E+00  0.45593999997E+02  0.45594000000E+02  0.51100000000E-03 0. -1.
         11   -1    0    0    0    0 -0.00000000000E+00 -0.00000000000E+00 -0.45593999997E+02  0.45594000000E+02  0.51100000000E-03 0.  1.
    9900012    2    1    2    0    0 -0.11380024717E+01  0.31305696333E+00 -0.19007652817E-02  0.90007721261E+02  0.89999982382E+02 0.  0.
        -12    1    1    2    0    0  0.11380024717E+01 -0.31305696333E+00  0.19007652817E-02  0.11802787386E+01  0.00000000000E+00 0.  1.
         11    1    3    3    0    0  0.61334437051E+01  0.66584513128E+01 -0.34930306506E+01  0.97033689488E+01  0.51100000000E-03 0. -1.
        -11    1    3    3    0    0  0.30321194028E+02  0.92986965075E+01 -0.15587347493E+02  0.35338448837E+02  0.51100000000E-03 0.  1.
         12    1    3    3    0    0 -0.37592640205E+02 -0.15644090857E+02  0.19078477378E+02  0.44965903476E+02  0.00000000000E+00 0. -1.
</event>
<event>
 7    1  0.3863655E-015  0.9000781E+02  0.7816164E-02  0.1186339E+00
        -11   -1    0    0    0    0  0.00000000000E+00  0.00000000000E+00  0.45593999997E+02  0.45594000000E+02  0.51100000000E-03 0.  1.
         11   -1    0    0    0    0 -0.00000000000E+00 -0.00000000000E+00 -0.45593999997E+02  0.45594000000E+02  0.51100000000E-03 0. -1.
    9900012    2    1    2    0    0 -0.49792227839E+00  0.46153877796E-02 -0.10699958055E+01  0.90007814031E+02  0.90000076376E+02 0.  0.
        -12    1    1    2    0    0  0.49792227839E+00 -0.46153877796E-02  0.10699958055E+01  0.11801859688E+01  0.00000000000E+00 0.  1.
         11    1    3    3    0    0  0.98916402697E+01 -0.20519275070E+02 -0.33811921936E+02  0.40769244068E+02  0.51100000000E-03 0. -1.
        -11    1    3    3    0    0  0.14549691593E+01 -0.66551340624E+01  0.37724242146E+01  0.77871001894E+01  0.51100000000E-03 0.  1.
        -12    1    3    3    0    0 -0.11844531707E+02  0.27179024520E+02  0.28969501915E+02  0.41451469774E+02  0.00000000000E+00 0.  1.
</event>
<event>
 7    1  0.3863655E-015  0.9000763E+02  0.7816164E-02  0.1186339E+00
        -11   -1    0    0    0    0  0.00000000000E+00  0.00000000000E+00  0.45593999997E+02  0.45594000000E+02  0.51100000000E-03 0. -1.
         11   -1    0    0    0    0 -0.00000000000E+00 -0.00000000000E+00 -0.45593999997E+02  0.45594000000E+02  0.51100000000E-03 0.  1.
    9900012    2    1    2    0    0 -0.42343861683E+00 -0.21329067755E-01  0.11015958115E+01  0.90007632039E+02  0.89999891982E+02 0.  0.
        -12    1    1    2    0    0  0.42343861683E+00  0.21329067755E-01 -0.11015958115E+01  0.11803679610E+01  0.00000000000E+00 0.  1.
         11    1    3    3    0    0  0.17131994583E+02  0.25268472047E+02  0.29334548692E+02  0.42338123071E+02  0.51100000000E-03 0. -1.
        -11    1    3    3    0    0  0.30072680037E+01  0.24495011387E+01 -0.27392517381E+01  0.47483909928E+01  0.51100000000E-03 0.  1.
        -12    1    3    3    0    0 -0.20562701203E+02 -0.27739302254E+02 -0.25493701142E+02  0.42921117975E+02  0.00000000000E+00 0.  1.
</event>
<event>
 7    1  0.3863655E-015  0.9000775E+02  0.7816164E-02  0.1186339E+00
        -11   -1    0    0    0    0  0.00000000000E+00  0.00000000000E+00  0.45593999997E+02  0.45594000000E+02  0.51100000000E-03 0. -1.
         11   -1    0    0    0    0 -0.00000000000E+00 -0.00000000000E+00 -0.45593999997E+02  0.45594000000E+02  0.51100000000E-03 0.  1.
    9900012    2    1    2    0    0 -0.55603039332E+00 -0.92346103037E+00  0.48066673972E+00  0.90007749778E+02  0.90000011275E+02 0.  0.
        -12    1    1    2    0    0  0.55603039332E+00  0.92346103037E+00 -0.48066673972E+00  0.11802502224E+01  0.00000000000E+00 0.  1.
         11    1    3    3    0    0  0.76426058644E+01 -0.43642904813E+01  0.29912023393E+01  0.92953616121E+01  0.51100000000E-03 0. -1.
        -11    1    3    3    0    0  0.31896384775E+02  0.19241489553E+02 -0.47826290885E+01  0.37556461804E+02  0.51100000000E-03 0.  1.
         12    1    3    3    0    0 -0.40095021033E+02 -0.15800660102E+02  0.22720934889E+01  0.43155926362E+02  0.00000000000E+00 0. -1.
</event>
<event>
 7    1  0.3863655E-015  0.9000832E+02  0.7816164E-02  0.1186338E+00
        -11   -1    0    0    0    0  0.00000000000E+00  0.00000000000E+00  0.45593999997E+02  0.45594000000E+02  0.51100000000E-03 0. -1.
         11   -1    0    0    0    0 -0.00000000000E+00 -0.00000000000E+00 -0.45593999997E+02  0.45594000000E+02  0.51100000000E-03 0.  1.
    9900012    2    1    2    0    0 -0.90984186147E+00 -0.79533059497E-01  0.74665933311E+00  0.90008322976E+02  0.90000592038E+02 0.  0.
        -12    1    1    2    0    0  0.90984186147E+00  0.79533059497E-01 -0.74665933311E+00  0.11796770237E+01  0.00000000000E+00 0.  1.
         11    1    3    3    0    0  0.41949462266E+01 -0.40800680505E-01 -0.83131619845E+01  0.93117077371E+01  0.51100000000E-03 0. -1.
        -11    1    3    3    0    0 -0.90776774757E+01 -0.31974064345E+02 -0.18751973913E+02  0.38162567327E+02  0.51100000000E-03 0.  1.
         12    1    3    3    0    0  0.39728893876E+01  0.31935331966E+02  0.27811795231E+02  0.42534047912E+02  0.00000000000E+00 0. -1.
</event>
<event>
 7    1  0.3863655E-015  0.9000776E+02  0.7816164E-02  0.1186339E+00
        -11   -1    0    0    0    0  0.00000000000E+00  0.00000000000E+00  0.45593999997E+02  0.45594000000E+02  0.51100000000E-03 0.  1.
         11   -1    0    0    0    0 -0.00000000000E+00 -0.00000000000E+00 -0.45593999997E+02  0.45594000000E+02  0.51100000000E-03 0. -1.
    9900012    2    1    2    0    0  0.85372349907E-01  0.11036620523E+01 -0.40939879169E+00  0.90007760306E+02  0.90000021942E+02 0.  0.
        -12    1    1    2    0    0 -0.85372349907E-01 -0.11036620523E+01  0.40939879169E+00  0.11802396936E+01  0.00000000000E+00 0.  1.
         11    1    3    3    0    0 -0.19879427827E+02  0.28513876996E+02  0.12990129522E+02  0.37107631254E+02  0.51100000000E-03 0. -1.
        -11    1    3    3    0    0 -0.75590903606E+00  0.90027820995E+01 -0.43988482576E+01  0.10048450142E+02  0.51100000000E-03 0.  1.
        -12    1    3    3    0    0  0.20720709213E+02 -0.36412997043E+02 -0.90006800557E+01  0.42851678910E+02  0.00000000000E+00 0.  1.
</event>
<event>
 7    1  0.3863655E-015  0.9000767E+02  0.7816164E-02  0.1186339E+00
        -11   -1    0    0    0    0  0.00000000000E+00  0.00000000000E+00  0.45593999997E+02  0.45594000000E+02  0.51100000000E-03 0.  1.
         11   -1    0    0    0    0 -0.00000000000E+00 -0.00000000000E+00 -0.45593999997E+02  0.45594000000E+02  0.51100000000E-03 0. -1.
    9900012    2    1    2    0    0  0.44951973973E+00  0.10159337805E+01 -0.39872152677E+00  0.90007674495E+02  0.89999934998E+02 0.  0.
        -12    1    1    2    0    0 -0.44951973973E+00 -0.10159337805E+01  0.39872152677E+00  0.11803255054E+01  0.00000000000E+00 0.  1.
         11    1    3    3    0    0 -0.69053944743E+01 -0.28971272708E+02 -0.23612359814E+02  0.38007402587E+02  0.51100000000E-03 0. -1.
        -11    1    3    3    0    0 -0.70067930389E+01 -0.44894717040E+01  0.60886095708E+00  0.83439329334E+01  0.51100000000E-03 0.  1.
        -12    1    3    3    0    0  0.14361707253E+02  0.34476678193E+02  0.22604777330E+02  0.43656338974E+02  0.00000000000E+00 0.  1.
</event>
<event>
 7    1  0.3863655E-015  0.9000761E+02  0.7816164E-02  0.1186339E+00
        -11   -1    0    0    0    0  0.00000000000E+00  0.00000000000E+00  0.45593999997E+02  0.45594000000E+02  0.51100000000E-03 0. -1.
         11   -1    0    0    0    0 -0.00000000000E+00 -0.00000000000E+00 -0.45593999997E+02  0.45594000000E+02  0.51100000000E-03 0.  1.
    9900012    2    1    2    0    0  0.12058772400E+00  0.10909609528E+01  0.43424881744E+00  0.90007614794E+02  0.89999874509E+02 0.  0.
        -12    1    1    2    0    0 -0.12058772400E+00 -0.10909609528E+01 -0.43424881744E+00  0.11803852062E+01  0.00000000000E+00 0.  1.
         11    1    3    3    0    0  0.59434234187E+01  0.26340958374E+01  0.99304337210E+01  0.11869130422E+02  0.51100000000E-03 0. -1.
        -11    1    3    3    0    0  0.25633955798E+02  0.12624243412E+02 -0.27122424457E+02  0.39396663821E+02  0.51100000000E-03 0.  1.
         12    1    3    3    0    0 -0.31456791492E+02 -0.14167378296E+02  0.17626239554E+02  0.38741820551E+02  0.00000000000E+00 0. -1.
</event>
<event>
 7    1  0.3863655E-015  0.9000774E+02  0.7816164E-02  0.1186339E+00
        -11   -1    0    0    0    0  0.00000000000E+00  0.00000000000E+00  0.45593999997E+02  0.45594000000E+02  0.51100000000E-03 0.  1.
         11   -1    0    0    0    0 -0.00000000000E+00 -0.00000000000E+00 -0.45593999997E+02  0.45594000000E+02  0.51100000000E-03 0. -1.
    9900012    2    1    2    0    0  0.89800356565E+00 -0.38654772976E+00  0.66120465469E+00  0.90007736832E+02  0.89999998158E+02 0.  0.
        -12    1    1    2    0    0 -0.89800356565E+00  0.38654772976E+00 -0.66120465469E+00  0.11802631684E+01  0.00000000000E+00 0.  1.
         11    1    3    3    0    0 -0.15099756087E+01 -0.40123993694E+02 -0.12948227440E+02  0.42188523207E+02  0.51100000000E-03 0. -1.
        -11    1    3    3    0    0  0.58006328846E+00  0.85230211151E+01 -0.64200157120E+01  0.10686204394E+02  0.51100000000E-03 0.  1.
        -12    1    3    3    0    0  0.18279158859E+01  0.31214424849E+02  0.20029447806E+02  0.37133009231E+02  0.00000000000E+00 0.  1.
</event>
<event>
 7    1  0.3863655E-015  0.9000775E+02  0.7816164E-02  0.1186339E+00
        -11   -1    0    0    0    0  0.00000000000E+00  0.00000000000E+00  0.45593999997E+02  0.45594000000E+02  0.51100000000E-03 0.  1.
         11   -1    0    0    0    0 -0.00000000000E+00 -0.00000000000E+00 -0.45593999997E+02  0.45594000000E+02  0.51100000000E-03 0. -1.
    9900012    2    1    2    0    0 -0.85799637443E+00  0.11963673224E+00 -0.80157956807E+00  0.90007745565E+02  0.90000007007E+02 0.  0.
        -12    1    1    2    0    0  0.85799637443E+00 -0.11963673224E+00  0.80157956807E+00  0.11802544345E+01  0.00000000000E+00 0.  1.
         11    1    3    3    0    0 -0.70848886107E+01 -0.11312972474E+02  0.42351435964E+01  0.14004122049E+02  0.51100000000E-03 0. -1.
        -11    1    3    3    0    0  0.22010944392E+02 -0.25446703333E+02 -0.11108055551E+02  0.35431698830E+02  0.51100000000E-03 0.  1.
         12    1    3    3    0    0 -0.15784052156E+02  0.36879312539E+02  0.60713323869E+01  0.40571924687E+02  0.00000000000E+00 0. -1.
</event>
<event>
 7    1  0.3863655E-015  0.9000782E+02  0.7816164E-02  0.1186339E+00
        -11   -1    0    0    0    0  0.00000000000E+00  0.00000000000E+00  0.45593999997E+02  0.45594000000E+02  0.51100000000E-03 0.  1.
         11   -1    0    0    0    0 -0.00000000000E+00 -0.00000000000E+00 -0.45593999997E+02  0.45594000000E+02  0.51100000000E-03 0. -1.
    9900012    2    1    2    0    0 -0.97308338050E-02  0.90996215550E+00 -0.75146748331E+00  0.90007818153E+02  0.90000080553E+02 0.  0.
        -12    1    1    2    0    0  0.97308338050E-02 -0.90996215550E+00  0.75146748331E+00  0.11801818470E+01  0.00000000000E+00 0.  1.
         11    1    3    3    0    0 -0.26621480338E+01 -0.56580057946E+01 -0.54385686990E+01  0.82872245945E+01  0.51100000000E-03 0. -1.
        -11    1    3    3    0    0 -0.42709464993E+01 -0.37089009453E+02  0.72945426320E+00  0.37341233375E+02  0.51100000000E-03 0.  1.
         12    1    3    3    0    0  0.69233636992E+01  0.43656977403E+02  0.39576469525E+01  0.44379360183E+02  0.00000000000E+00 0. -1.
</event>
<event>
 7    1  0.3863655E-015  0.9000875E+02  0.7816164E-02  0.1186337E+00
        -11   -1    0    0    0    0  0.00000000000E+00  0.00000000000E+00  0.45593999997E+02  0.45594000000E+02  0.51100000000E-03 0.  1.
         11   -1    0    0    0    0 -0.00000000000E+00 -0.00000000000E+00 -0.45593999997E+02  0.45594000000E+02  0.51100000000E-03 0. -1.
    9900012    2    1    2    0    0 -0.58061609292E-01 -0.10482721400E+01 -0.53700923733E+00  0.90008752549E+02  0.90001027277E+02 0.  0.
        -12    1    1    2    0    0  0.58061609292E-01  0.10482721400E+01  0.53700923733E+00  0.11792474511E+01  0.00000000000E+00 0.  1.
         11    1    3    3    0    0  0.68637299501E+01 -0.95365803195E+00  0.47751810816E+01  0.84156168575E+01  0.51100000000E-03 0. -1.
        -11    1    3    3    0    0  0.54319540115E+01  0.38228028457E+02  0.75112425227E+01  0.39335823985E+02  0.51100000000E-03 0.  1.
         12    1    3    3    0    0 -0.12353745571E+02 -0.38322642565E+02 -0.12823432842E+02  0.42257311706E+02  0.00000000000E+00 0. -1.
</event>
<event>
 7    1  0.3863655E-015  0.9000779E+02  0.7816164E-02  0.1186339E+00
        -11   -1    0    0    0    0  0.00000000000E+00  0.00000000000E+00  0.45593999997E+02  0.45594000000E+02  0.51100000000E-03 0. -1.
         11   -1    0    0    0    0 -0.00000000000E+00 -0.00000000000E+00 -0.45593999997E+02  0.45594000000E+02  0.51100000000E-03 0.  1.
    9900012    2    1    2    0    0  0.50619481745E+00 -0.58369664295E+00 -0.89216014025E+00  0.90007794645E+02  0.90000056734E+02 0.  0.
        -12    1    1    2    0    0 -0.50619481745E+00  0.58369664295E+00  0.89216014025E+00  0.11802053550E+01  0.00000000000E+00 0.  1.
         11    1    3    3    0    0 -0.12056932839E+02 -0.10021012604E+01  0.45975123288E+00  0.12107237831E+02  0.51100000000E-03 0. -1.
        -11    1    3    3    0    0 -0.29863285937E+02 -0.13946252465E+02 -0.28584748645E+01  0.33082996896E+02  0.51100000000E-03 0.  1.
         12    1    3    3    0    0  0.42426413594E+02  0.14364657082E+02  0.15065634914E+01  0.44817559919E+02  0.00000000000E+00 0. -1.
</event>
<event>
 7    1  0.3863655E-015  0.9000772E+02  0.7816164E-02  0.1186339E+00
        -11   -1    0    0    0    0  0.00000000000E+00  0.00000000000E+00  0.45593999997E+02  0.45594000000E+02  0.51100000000E-03 0.  1.
         11   -1    0    0    0    0 -0.00000000000E+00 -0.00000000000E+00 -0.45593999997E+02  0.45594000000E+02  0.51100000000E-03 0. -1.
    9900012    2    1    2    0    0  0.43092356523E+00  0.10131577701E+01 -0.42529789243E+00  0.90007719490E+02  0.89999980587E+02 0.  0.
        -12    1    1    2    0    0 -0.43092356523E+00 -0.10131577701E+01  0.42529789243E+00  0.11802805105E+01  0.00000000000E+00 0.  1.
         11    1    3    3    0    0 -0.28385666028E+02 -0.22786941302E+02  0.11275806438E+02  0.38106883116E+02  0.51100000000E-03 0. -1.
        -11    1    3    3    0    0 -0.19007751098E+01 -0.50605298848E+01 -0.79120577983E+01  0.95824092794E+01  0.51100000000E-03 0.  1.
        -12    1    3    3    0    0  0.30717364703E+02  0.28860628957E+02 -0.37890465318E+01  0.42318427094E+02  0.00000000000E+00 0.  1.
</event>
<event>
 7    1  0.4289339E-015  0.9000744E+02  0.7816164E-02  0.1186340E+00
        -11   -1    0    0    0    0  0.00000000000E+00  0.00000000000E+00  0.45593999997E+02  0.45594000000E+02  0.51100000000E-03 0. -1.
         11   -1    0    0    0    0 -0.00000000000E+00 -0.00000000000E+00 -0.45593999997E+02  0.45594000000E+02  0.51100000000E-03 0.  1.
    9900012    2    1    2    0    0  0.24843855842E+00 -0.98784405229E+00  0.59680085519E+00  0.90007437062E+02  0.89999694431E+02 0.  0.
        -12    1    1    2    0    0 -0.24843855842E+00  0.98784405229E+00 -0.59680085519E+00  0.11805629376E+01  0.00000000000E+00 0.  1.
         11    1    3    3    0    0  0.76215384177E+00 -0.69594318384E+01 -0.78054143312E+01  0.10485183028E+02  0.51100000000E-03 0. -1.
        -11    1    3    3    0    0 -0.27140589964E+02  0.82308027435E+01 -0.24259803827E+02  0.37321519521E+02  0.51100000000E-03 0.  1.
         12    1    3    3    0    0  0.26626874680E+02 -0.22592149574E+01  0.32662019013E+02  0.42200734513E+02  0.00000000000E+00 0. -1.
</event>
<event>
 7    1  0.3863655E-015  0.9000776E+02  0.7816164E-02  0.1186339E+00
        -11   -1    0    0    0    0  0.00000000000E+00  0.00000000000E+00  0.45593999997E+02  0.45594000000E+02  0.51100000000E-03 0. -1.
         11   -1    0    0    0    0 -0.00000000000E+00 -0.00000000000E+00 -0.45593999997E+02  0.45594000000E+02  0.51100000000E-03 0.  1.
    9900012    2    1    2    0    0 -0.19508067643E+00 -0.10463073945E+01  0.51004369838E+00  0.90007762647E+02  0.90000024314E+02 0.  0.
        -12    1    1    2    0    0  0.19508067643E+00  0.10463073945E+01 -0.51004369838E+00  0.11802373525E+01  0.00000000000E+00 0.  1.
         11    1    3    3    0    0 -0.33216494717E+02 -0.16148931360E+02 -0.11324054025E+01  0.36951398452E+02  0.51100000000E-03 0. -1.
        -11    1    3    3    0    0 -0.70443717257E+01 -0.42233805450E+01 -0.19063947006E+01  0.84317529170E+01  0.51100000000E-03 0.  1.
        -12    1    3    3    0    0  0.40065785766E+02  0.19326004511E+02  0.35488438014E+01  0.44624611278E+02  0.00000000000E+00 0.  1.
</event>
<event>
 7    1  0.3863655E-015  0.9000779E+02  0.7816164E-02  0.1186339E+00
        -11   -1    0    0    0    0  0.00000000000E+00  0.00000000000E+00  0.45593999997E+02  0.45594000000E+02  0.51100000000E-03 0.  1.
         11   -1    0    0    0    0 -0.00000000000E+00 -0.00000000000E+00 -0.45593999997E+02  0.45594000000E+02  0.51100000000E-03 0. -1.
    9900012    2    1    2    0    0  0.15610452954E+00  0.93642487438E+00 -0.70116083264E+00  0.90007793797E+02  0.90000055875E+02 0.  0.
        -12    1    1    2    0    0 -0.15610452954E+00 -0.93642487438E+00  0.70116083264E+00  0.11802062035E+01  0.00000000000E+00 0.  1.
         11    1    3    3    0    0 -0.17471901686E+01 -0.11385426563E+01 -0.55131752669E+01  0.58944087617E+01  0.51100000000E-03 0. -1.
        -11    1    3    3    0    0 -0.19243970649E+02 -0.19972467830E+02 -0.27909919354E+02  0.39347089806E+02  0.51100000000E-03 0.  1.
         12    1    3    3    0    0  0.21147265347E+02  0.22047435361E+02  0.32721933789E+02  0.44766295229E+02  0.00000000000E+00 0. -1.
</event>
<event>
 7    1  0.4244289E-015  0.9000773E+02  0.7816164E-02  0.1186339E+00
        -11   -1    0    0    0    0  0.00000000000E+00  0.00000000000E+00  0.45593999997E+02  0.45594000000E+02  0.51100000000E-03 0. -1.
         11   -1    0    0    0    0 -0.00000000000E+00 -0.00000000000E+00 -0.45593999997E+02  0.45594000000E+02  0.51100000000E-03 0.  1.
    9900012    2    1    2    0    0  0.10473252730E+01  0.17734947750E+00  0.51447703133E+00  0.90007733216E+02  0.89999994495E+02 0.  0.
        -12    1    1    2    0    0 -0.10473252730E+01 -0.17734947750E+00 -0.51447703133E+00  0.11802667836E+01  0.00000000000E+00 0.  1.
         11    1    3    3    0    0  0.82757638979E+01  0.37763330366E+01 -0.53004996408E+00  0.91120750942E+01  0.51100000000E-03 0. -1.
        -11    1    3    3    0    0  0.27719096342E+02 -0.88948825629E+01 -0.23873785916E+02  0.37648703723E+02  0.51100000000E-03 0.  1.
         12    1    3    3    0    0 -0.34947534967E+02  0.52958990038E+01  0.24918312911E+02  0.43246954399E+02  0.00000000000E+00 0. -1.
</event>
<event>
 7    1  0.3863655E-015  0.9000773E+02  0.7816164E-02  0.1186339E+00
        -11   -1    0    0    0    0  0.00000000000E+00  0.00000000000E+00  0.45593999997E+02  0.45594000000E+02  0.51100000000E-03 0. -1.
         11   -1    0    0    0    0 -0.00000000000E+00 -0.00000000000E+00 -0.45593999997E+02  0.45594000000E+02  0.51100000000E-03 0.  1.
    9900012    2    1    2    0    0 -0.79133939601E+00  0.57953388731E+00 -0.65647785827E+00  0.90007728529E+02  0.89999989746E+02 0.  0.
        -12    1    1    2    0    0  0.79133939601E+00 -0.57953388731E+00  0.65647785827E+00  0.11802714707E+01  0.00000000000E+00 0.  1.
         11    1    3    3    0    0 -0.50973130561E+01  0.30436582408E+01 -0.12948221447E+02  0.14244398716E+02  0.51100000000E-03 0. -1.
        -11    1    3    3    0    0  0.36441583507E+00  0.31416894540E+02 -0.12270873807E+02  0.33730229849E+02  0.51100000000E-03 0.  1.
         12    1    3    3    0    0  0.39415578251E+01 -0.33881018893E+02  0.24562617395E+02  0.42033099965E+02  0.00000000000E+00 0. -1.
</event>
<event>
 7    1  0.3863655E-015  0.9000717E+02  0.7816164E-02  0.1186340E+00
        -11   -1    0    0    0    0  0.00000000000E+00  0.00000000000E+00  0.45593999997E+02  0.45594000000E+02  0.51100000000E-03 0.  1.
         11   -1    0    0    0    0 -0.00000000000E+00 -0.00000000000E+00 -0.45593999997E+02  0.45594000000E+02  0.51100000000E-03 0. -1.
    9900012    2    1    2    0    0 -0.49073670092E+00 -0.37596695031E+00 -0.10060687711E+01  0.90007174852E+02  0.89999428759E+02 0.  0.
        -12    1    1    2    0    0  0.49073670092E+00  0.37596695031E+00  0.10060687711E+01  0.11808251477E+01  0.00000000000E+00 0.  1.
         11    1    3    3    0    0  0.27597203877E+02  0.11401932617E+02 -0.22156326394E+02  0.37182153364E+02  0.51100000000E-03 0. -1.
        -11    1    3    3    0    0  0.84012079911E+01  0.30602872505E+01  0.27972682087E+01  0.93685838556E+01  0.51100000000E-03 0.  1.
        -12    1    3    3    0    0 -0.36489148569E+02 -0.14838186817E+02  0.18352989414E+02  0.43456437633E+02  0.00000000000E+00 0.  1.
</event>
<event>
 7    1  0.3863655E-015  0.9000775E+02  0.7816164E-02  0.1186339E+00
        -11   -1    0    0    0    0  0.00000000000E+00  0.00000000000E+00  0.45593999997E+02  0.45594000000E+02  0.51100000000E-03 0. -1.
         11   -1    0    0    0    0 -0.00000000000E+00 -0.00000000000E+00 -0.45593999997E+02  0.45594000000E+02  0.51100000000E-03 0.  1.
    9900012    2    1    2    0    0 -0.14699641508E+00 -0.26872175254E-01  0.11707519086E+01  0.90007749988E+02  0.90000011488E+02 0.  0.
        -12    1    1    2    0    0  0.14699641508E+00  0.26872175254E-01 -0.11707519086E+01  0.11802500122E+01  0.00000000000E+00 0.  1.
         11    1    3    3    0    0 -0.39830292112E+02 -0.73134562351E+01 -0.74422066495E+01  0.41174327583E+02  0.51100000000E-03 0. -1.
        -11    1    3    3    0    0  0.55255673958E+01 -0.42869412120E+01 -0.66694632761E+01  0.96639278067E+01  0.51100000000E-03 0.  1.
        -12    1    3    3    0    0  0.34157728301E+02  0.11573525272E+02  0.15282421834E+02  0.39169494598E+02  0.00000000000E+00 0.  1.
</event>
<event>
 8    1  0.3863655E-015  0.9000775E+02  0.7816164E-02  0.1186339E+00
        -11   -1    0    0    0    0  0.00000000000E+00  0.00000000000E+00  0.45593999997E+02  0.45594000000E+02  0.51100000000E-03 0.  1.
         11   -1    0    0    0    0 -0.00000000000E+00 -0.00000000000E+00 -0.45593999997E+02  0.45594000000E+02  0.51100000000E-03 0. -1.
    9900012    2    1    2    0    0 -0.10757353580E+01 -0.43514147655E+00 -0.21549896511E+00  0.90007748133E+02  0.90000009609E+02 0.  0.
         23    2    3    3    0    0 -0.68709736126E+01 -0.27838808433E+02 -0.41631191093E+01  0.61721188535E+02  0.54497376268E+02 0.  0.
        -12    1    1    2    0    0  0.10757353580E+01  0.43514147655E+00  0.21549896511E+00  0.11802518668E+01  0.00000000000E+00 0.  1.
         11    1    4    4    0    0  0.22304078967E+02 -0.21422322685E+02 -0.70209615449E+01  0.31712485697E+02  0.51100000000E-03 0. -1.
        -11    1    4    4    0    0 -0.29175052580E+02 -0.64164857481E+01  0.28578424356E+01  0.30008702838E+02  0.51100000000E-03 0.  1.
        -12    1    3    3    0    0  0.57952382545E+01  0.27403666957E+02  0.39476201442E+01  0.28286559598E+02  0.00000000000E+00 0.  1.
</event>
<event>
 7    1  0.3863655E-015  0.9000781E+02  0.7816164E-02  0.1186339E+00
        -11   -1    0    0    0    0  0.00000000000E+00  0.00000000000E+00  0.45593999997E+02  0.45594000000E+02  0.51100000000E-03 0.  1.
         11   -1    0    0    0    0 -0.00000000000E+00 -0.00000000000E+00 -0.45593999997E+02  0.45594000000E+02  0.51100000000E-03 0. -1.
    9900012    2    1    2    0    0 -0.39188906698E+00 -0.15908121389E+00 -0.11018044034E+01  0.90007806449E+02  0.90000068695E+02 0.  0.
        -12    1    1    2    0    0  0.39188906698E+00  0.15908121389E+00  0.11018044034E+01  0.11801935506E+01  0.00000000000E+00 0.  1.
         11    1    3    3    0    0  0.13755404081E+02  0.80753137120E+01  0.11181019933E+01  0.15989746255E+02  0.51100000000E-03 0. -1.
        -11    1    3    3    0    0 -0.12148849001E+02  0.31583240594E+02  0.21733187115E+01  0.33908980122E+02  0.51100000000E-03 0.  1.
         12    1    3    3    0    0 -0.19984441474E+01 -0.39817635519E+02 -0.43932251082E+01  0.40109080072E+02  0.00000000000E+00 0. -1.
</event>
<event>
 7    1  0.3863655E-015  0.9000780E+02  0.7816164E-02  0.1186339E+00
        -11   -1    0    0    0    0  0.00000000000E+00  0.00000000000E+00  0.45593999997E+02  0.45594000000E+02  0.51100000000E-03 0. -1.
         11   -1    0    0    0    0 -0.00000000000E+00 -0.00000000000E+00 -0.45593999997E+02  0.45594000000E+02  0.51100000000E-03 0.  1.
    9900012    2    1    2    0    0  0.10443344996E+00  0.63379670463E-02  0.11755516166E+01  0.90007801661E+02  0.90000063843E+02 0.  0.
        -12    1    1    2    0    0 -0.10443344996E+00 -0.63379670463E-02 -0.11755516166E+01  0.11801983386E+01  0.00000000000E+00 0.  1.
         11    1    3    3    0    0 -0.55162698234E+01  0.53781983638E+01  0.11034545529E+02  0.13457913868E+02  0.51100000000E-03 0. -1.
        -11    1    3    3    0    0 -0.10415144936E+02  0.29138513403E+02  0.11379751314E+02  0.32970091713E+02  0.51100000000E-03 0.  1.
         12    1    3    3    0    0  0.16035848209E+02 -0.34510373800E+02 -0.21238745226E+02  0.43579796080E+02  0.00000000000E+00 0. -1.
</event>
<event>
 7    1  0.3863655E-015  0.9000822E+02  0.7816164E-02  0.1186338E+00
        -11   -1    0    0    0    0  0.00000000000E+00  0.00000000000E+00  0.45593999997E+02  0.45594000000E+02  0.51100000000E-03 0.  1.
         11   -1    0    0    0    0 -0.00000000000E+00 -0.00000000000E+00 -0.45593999997E+02  0.45594000000E+02  0.51100000000E-03 0. -1.
    9900012    2    1    2    0    0 -0.11064124524E+01 -0.40408788512E+00  0.66589815879E-01  0.90008224709E+02  0.90000492474E+02 0.  0.
        -12    1    1    2    0    0  0.11064124524E+01  0.40408788512E+00 -0.66589815879E-01  0.11797752911E+01  0.00000000000E+00 0.  1.
         11    1    3    3    0    0  0.33310328556E+01 -0.25401561652E+02 -0.31727501787E+02  0.40779522853E+02  0.51100000000E-03 0. -1.
        -11    1    3    3    0    0 -0.17271906181E+01  0.10244783459E+02 -0.34324395316E+01  0.10941682547E+02  0.51100000000E-03 0.  1.
        -12    1    3    3    0    0 -0.27102546899E+01  0.14752690308E+02  0.35226531134E+02  0.38287019309E+02  0.00000000000E+00 0.  1.
</event>
<event>
 7    1  0.3863655E-015  0.9000779E+02  0.7816164E-02  0.1186339E+00
        -11   -1    0    0    0    0  0.00000000000E+00  0.00000000000E+00  0.45593999997E+02  0.45594000000E+02  0.51100000000E-03 0. -1.
         11   -1    0    0    0    0 -0.00000000000E+00 -0.00000000000E+00 -0.45593999997E+02  0.45594000000E+02  0.51100000000E-03 0.  1.
    9900012    2    1    2    0    0  0.89092827101E+00 -0.77267977038E+00 -0.46030530071E-01  0.90007785604E+02  0.90000047574E+02 0.  0.
        -12    1    1    2    0    0 -0.89092827101E+00  0.77267977038E+00  0.46030530071E-01  0.11802143963E+01  0.00000000000E+00 0.  1.
         11    1    3    3    0    0 -0.27013818215E+02  0.19794905998E+02  0.24463641671E+01  0.33579299813E+02  0.51100000000E-03 0. -1.
        -11    1    3    3    0    0 -0.12092732982E+02 -0.23454927474E+01 -0.19563340672E+01  0.12472480525E+02  0.51100000000E-03 0.  1.
        -12    1    3    3    0    0  0.39997479468E+02 -0.18222093021E+02 -0.53606062997E+00  0.43956005265E+02  0.00000000000E+00 0.  1.
</event>
<event>
 7    1  0.3863655E-015  0.9000771E+02  0.7816164E-02  0.1186339E+00
        -11   -1    0    0    0    0  0.00000000000E+00  0.00000000000E+00  0.45593999997E+02  0.45594000000E+02  0.51100000000E-03 0.  1.
         11   -1    0    0    0    0 -0.00000000000E+00 -0.00000000000E+00 -0.45593999997E+02  0.45594000000E+02  0.51100000000E-03 0. -1.
    9900012    2    1    2    0    0 -0.78133215534E-01  0.11403410034E+01 -0.29426931134E+00  0.90007713242E+02  0.89999974257E+02 0.  0.
        -12    1    1    2    0    0  0.78133215534E-01 -0.11403410034E+01  0.29426931134E+00  0.11802867579E+01  0.00000000000E+00 0.  1.
         11    1    3    3    0    0  0.40730548472E+01  0.95022834981E+01 -0.61231347348E+01  0.12015654236E+02  0.51100000000E-03 0. -1.
        -11    1    3    3    0    0 -0.38635341238E+02 -0.16999140004E+02  0.24048548880E+01  0.42278170263E+02  0.51100000000E-03 0.  1.
         12    1    3    3    0    0  0.34484153176E+02  0.86371975090E+01  0.34240105354E+01  0.35713888744E+02  0.00000000000E+00 0. -1.
</event>
<event>
 7    1  0.3863655E-015  0.9000725E+02  0.7816164E-02  0.1186340E+00
        -11   -1    0    0    0    0  0.00000000000E+00  0.00000000000E+00  0.45593999997E+02  0.45594000000E+02  0.51100000000E-03 0. -1.
         11   -1    0    0    0    0 -0.00000000000E+00 -0.00000000000E+00 -0.45593999997E+02  0.45594000000E+02  0.51100000000E-03 0.  1.
    9900012    2    1    2    0    0 -0.80145004839E+00  0.32617065639E+00  0.80340786749E+00  0.90007248680E+02  0.89999503562E+02 0.  0.
        -12    1    1    2    0    0  0.80145004839E+00 -0.32617065639E+00 -0.80340786749E+00  0.11807513196E+01  0.00000000000E+00 0.  1.
         11    1    3    3    0    0  0.16657813579E+02  0.27431041086E+02  0.22258881910E+02  0.39056402707E+02  0.51100000000E-03 0. -1.
        -11    1    3    3    0    0 -0.21886229789E+00 -0.64319136533E+01  0.85104615733E+01  0.10669834600E+02  0.51100000000E-03 0.  1.
        -12    1    3    3    0    0 -0.17240401329E+02 -0.20672956777E+02 -0.29965935616E+02  0.40281011373E+02  0.00000000000E+00 0.  1.
</event>
<event>
 7    1  0.3863655E-015  0.9000766E+02  0.7816164E-02  0.1186339E+00
        -11   -1    0    0    0    0  0.00000000000E+00  0.00000000000E+00  0.45593999997E+02  0.45594000000E+02  0.51100000000E-03 0.  1.
         11   -1    0    0    0    0 -0.00000000000E+00 -0.00000000000E+00 -0.45593999997E+02  0.45594000000E+02  0.51100000000E-03 0. -1.
    9900012    2    1    2    0    0  0.71521647008E+00 -0.13228385526E+00 -0.92960232427E+00  0.90007663565E+02  0.89999923924E+02 0.  0.
        -12    1    1    2    0    0 -0.71521647008E+00  0.13228385526E+00  0.92960232427E+00  0.11803364345E+01  0.00000000000E+00 0.  1.
         11    1    3    3    0    0  0.25254414658E+01 -0.56516447605E+01  0.76058986639E+01  0.98065609590E+01  0.51100000000E-03 0. -1.
        -11    1    3    3    0    0 -0.16382850148E+02  0.65539910543E+01  0.32314007274E+02  0.36817762617E+02  0.51100000000E-03 0.  1.
         12    1    3    3    0    0  0.14572625152E+02 -0.10346301491E+01 -0.40849508263E+02  0.43383339990E+02  0.00000000000E+00 0. -1.
</event>
<event>
 7    1  0.3863655E-015  0.9000778E+02  0.7816164E-02  0.1186339E+00
        -11   -1    0    0    0    0  0.00000000000E+00  0.00000000000E+00  0.45593999997E+02  0.45594000000E+02  0.51100000000E-03 0.  1.
         11   -1    0    0    0    0 -0.00000000000E+00 -0.00000000000E+00 -0.45593999997E+02  0.45594000000E+02  0.51100000000E-03 0. -1.
    9900012    2    1    2    0    0  0.28699872070E+00 -0.11442462616E+01 -0.35391236016E-01  0.90007779549E+02  0.90000041439E+02 0.  0.
        -12    1    1    2    0    0 -0.28699872070E+00  0.11442462616E+01  0.35391236016E-01  0.11802204508E+01  0.00000000000E+00 0.  1.
         11    1    3    3    0    0  0.27398781899E+02  0.27866548850E+02 -0.13728775366E+02  0.41421215188E+02  0.51100000000E-03 0. -1.
        -11    1    3    3    0    0 -0.76375450974E+01 -0.20936636539E+01 -0.60266064810E+01  0.99516585828E+01  0.51100000000E-03 0.  1.
        -12    1    3    3    0    0 -0.19474238081E+02 -0.26917131458E+02  0.19719990611E+02  0.38634905778E+02  0.00000000000E+00 0.  1.
</event>
<event>
 7    1  0.3863655E-015  0.9000768E+02  0.7816164E-02  0.1186339E+00
        -11   -1    0    0    0    0  0.00000000000E+00  0.00000000000E+00  0.45593999997E+02  0.45594000000E+02  0.51100000000E-03 0.  1.
         11   -1    0    0    0    0 -0.00000000000E+00 -0.00000000000E+00 -0.45593999997E+02  0.45594000000E+02  0.51100000000E-03 0. -1.
    9900012    2    1    2    0    0  0.34301401723E+00 -0.10598028229E+01 -0.39027591870E+00  0.90007679733E+02  0.89999940306E+02 0.  0.
        -12    1    1    2    0    0 -0.34301401723E+00  0.10598028229E+01  0.39027591870E+00  0.11803202668E+01  0.00000000000E+00 0.  1.
         11    1    3    3    0    0  0.43402685811E+01 -0.41024191233E+00 -0.11202475797E+02  0.12020885743E+02  0.51100000000E-03 0. -1.
        -11    1    3    3    0    0  0.22541956189E+02  0.25382654747E+02 -0.99904555372E+01  0.35386835871E+02  0.51100000000E-03 0.  1.
         12    1    3    3    0    0 -0.26539210753E+02 -0.26032215658E+02  0.20802655416E+02  0.42599958120E+02  0.00000000000E+00 0. -1.
</event>
<event>
 7    1  0.3863655E-015  0.9000769E+02  0.7816164E-02  0.1186339E+00
        -11   -1    0    0    0    0  0.00000000000E+00  0.00000000000E+00  0.45593999997E+02  0.45594000000E+02  0.51100000000E-03 0.  1.
         11   -1    0    0    0    0 -0.00000000000E+00 -0.00000000000E+00 -0.45593999997E+02  0.45594000000E+02  0.51100000000E-03 0. -1.
    9900012    2    1    2    0    0 -0.10130310686E+01 -0.39888582744E-01 -0.60440581229E+00  0.90007690960E+02  0.89999951680E+02 0.  0.
        -12    1    1    2    0    0  0.10130310686E+01  0.39888582744E-01  0.60440581229E+00  0.11803090404E+01  0.00000000000E+00 0.  1.
         11    1    3    3    0    0  0.13415958491E+02 -0.13273288614E+02 -0.38710972910E+02  0.43066315802E+02  0.51100000000E-03 0. -1.
        -11    1    3    3    0    0 -0.91850688664E+01  0.24021955583E+00  0.39098467309E+01  0.99854943411E+01  0.51100000000E-03 0.  1.
        -12    1    3    3    0    0 -0.52439206932E+01  0.12993180475E+02  0.34196720367E+02  0.36955880817E+02  0.00000000000E+00 0.  1.
</event>
<event>
 7    1  0.3863655E-015  0.9000878E+02  0.7816164E-02  0.1186337E+00
        -11   -1    0    0    0    0  0.00000000000E+00  0.00000000000E+00  0.45593999997E+02  0.45594000000E+02  0.51100000000E-03 0.  1.
         11   -1    0    0    0    0 -0.00000000000E+00 -0.00000000000E+00 -0.45593999997E+02  0.45594000000E+02  0.51100000000E-03 0. -1.
    9900012    2    1    2    0    0  0.20481200684E+00  0.65281705097E+00 -0.96044109626E+00  0.90008777731E+02  0.90001052791E+02 0.  0.
        -12    1    1    2    0    0 -0.20481200684E+00 -0.65281705097E+00  0.96044109626E+00  0.11792222689E+01  0.00000000000E+00 0.  1.
         11    1    3    3    0    0  0.89349723471E+01  0.37488262822E+00  0.99262331062E+00  0.89977535600E+01  0.51100000000E-03 0. -1.
        -11    1    3    3    0    0  0.18879462080E+02 -0.28849723050E+02  0.14800845216E+02  0.37520735972E+02  0.51100000000E-03 0.  1.
         12    1    3    3    0    0 -0.27609622420E+02  0.29127657473E+02 -0.16753909623E+02  0.43490288200E+02  0.00000000000E+00 0. -1.
</event>
<event>
 7    1  0.3863655E-015  0.9000785E+02  0.7816164E-02  0.1186339E+00
        -11   -1    0    0    0    0  0.00000000000E+00  0.00000000000E+00  0.45593999997E+02  0.45594000000E+02  0.51100000000E-03 0. -1.
         11   -1    0    0    0    0 -0.00000000000E+00 -0.00000000000E+00 -0.45593999997E+02  0.45594000000E+02  0.51100000000E-03 0.  1.
    9900012    2    1    2    0    0 -0.51627590801E+00  0.20697861979E+00  0.10408554709E+01  0.90007847013E+02  0.90000109793E+02 0.  0.
        -12    1    1    2    0    0  0.51627590801E+00 -0.20697861979E+00 -0.10408554709E+01  0.11801529873E+01  0.00000000000E+00 0.  1.
         11    1    3    3    0    0  0.48562937748E+01  0.29811250044E+01  0.63817438434E+01  0.85555450009E+01  0.51100000000E-03 0. -1.
        -11    1    3    3    0    0  0.31228626129E+02 -0.23615513758E+02 -0.20997826542E+01  0.39208783040E+02  0.51100000000E-03 0.  1.
         12    1    3    3    0    0 -0.36601195812E+02  0.20841367373E+02 -0.32411057183E+01  0.42243518972E+02  0.00000000000E+00 0. -1.
</event>
<event>
 7    1  0.3863655E-015  0.9000779E+02  0.7816164E-02  0.1186339E+00
        -11   -1    0    0    0    0  0.00000000000E+00  0.00000000000E+00  0.45593999997E+02  0.45594000000E+02  0.51100000000E-03 0. -1.
         11   -1    0    0    0    0 -0.00000000000E+00 -0.00000000000E+00 -0.45593999997E+02  0.45594000000E+02  0.51100000000E-03 0.  1.
    9900012    2    1    2    0    0 -0.83870841488E+00 -0.81591226522E+00  0.15411577448E+00  0.90007789721E+02  0.90000051746E+02 0.  0.
        -12    1    1    2    0    0  0.83870841488E+00  0.81591226522E+00 -0.15411577448E+00  0.11802102786E+01  0.00000000000E+00 0.  1.
         11    1    3    3    0    0  0.44540290857E+01 -0.28108846691E+01 -0.86957861447E+01  0.10166422412E+02  0.51100000000E-03 0. -1.
        -11    1    3    3    0    0  0.18472689221E+02 -0.27832239530E+02 -0.13050087058E+02  0.35863331926E+02  0.51100000000E-03 0.  1.
         12    1    3    3    0    0 -0.23765426722E+02  0.29827211934E+02  0.21899988977E+02  0.43978035384E+02  0.00000000000E+00 0. -1.
</event>
<event>
 7    1  0.3863655E-015  0.9000772E+02  0.7816164E-02  0.1186339E+00
        -11   -1    0    0    0    0  0.00000000000E+00  0.00000000000E+00  0.45593999997E+02  0.45594000000E+02  0.51100000000E-03 0.  1.
         11   -1    0    0    0    0 -0.00000000000E+00 -0.00000000000E+00 -0.45593999997E+02  0.45594000000E+02  0.51100000000E-03 0. -1.
    9900012    2    1    2    0    0  0.25139371094E+00 -0.80682125531E+00 -0.82395126886E+00  0.90007722478E+02  0.89999983615E+02 0.  0.
        -12    1    1    2    0    0 -0.25139371094E+00  0.80682125531E+00  0.82395126886E+00  0.11802775222E+01  0.00000000000E+00 0.  1.
         11    1    3    3    0    0 -0.33196196872E+02 -0.18724525351E+02 -0.29704518861E+01  0.38228509270E+02  0.51100000000E-03 0. -1.
        -11    1    3    3    0    0  0.89822009538E+01  0.88386634018E+01 -0.15724364881E+02  0.20150869854E+02  0.51100000000E-03 0.  1.
        -12    1    3    3    0    0  0.24465389629E+02  0.90790406941E+01  0.17870865498E+02  0.31628343353E+02  0.00000000000E+00 0.  1.
</event>
<event>
 7    1  0.3863655E-015  0.9000774E+02  0.7816164E-02  0.1186339E+00
        -11   -1    0    0    0    0  0.00000000000E+00  0.00000000000E+00  0.45593999997E+02  0.45594000000E+02  0.51100000000E-03 0. -1.
         11   -1    0    0    0    0 -0.00000000000E+00 -0.00000000000E+00 -0.45593999997E+02  0.45594000000E+02  0.51100000000E-03 0.  1.
    9900012    2    1    2    0    0  0.15578219930E+00  0.89737528395E+00  0.75064715162E+00  0.90007736623E+02  0.89999997946E+02 0.  0.
        -12    1    1    2    0    0 -0.15578219930E+00 -0.89737528395E+00 -0.75064715162E+00  0.11802633774E+01  0.00000000000E+00 0.  1.
         11    1    3    3    0    0  0.26656455746E+02 -0.27212710053E+02  0.44666316160E+01  0.38354256864E+02  0.51100000000E-03 0. -1.
        -11    1    3    3    0    0  0.18712697814E+01 -0.56462860413E+01 -0.46459400904E+01  0.75476457415E+01  0.51100000000E-03 0.  1.
        -12    1    3    3    0    0 -0.28371943328E+02  0.33756371378E+02  0.92995562597E+00  0.44105834017E+02  0.00000000000E+00 0.  1.
</event>
<event>
 7    1  0.3863655E-015  0.9000757E+02  0.7816164E-02  0.1186339E+00
        -11   -1    0    0    0    0  0.00000000000E+00  0.00000000000E+00  0.45593999997E+02  0.45594000000E+02  0.51100000000E-03 0. -1.
         11   -1    0    0    0    0 -0.00000000000E+00 -0.00000000000E+00 -0.45593999997E+02  0.45594000000E+02  0.51100000000E-03 0.  1.
    9900012    2    1    2    0    0  0.88583722393E+00  0.77744675232E+00  0.65450991529E-01  0.90007570048E+02  0.89999829172E+02 0.  0.
        -12    1    1    2    0    0 -0.88583722393E+00 -0.77744675232E+00 -0.65450991529E-01  0.11804299523E+01  0.00000000000E+00 0.  1.
         11    1    3    3    0    0 -0.58221901684E+01  0.35461839281E+02 -0.56289004505E+00  0.35941018196E+02  0.51100000000E-03 0. -1.
        -11    1    3    3    0    0 -0.86092038816E+01  0.15385318583E+01 -0.10041983674E+02  0.13316414988E+02  0.51100000000E-03 0.  1.
        -12    1    3    3    0    0  0.15317231274E+02 -0.36222924387E+02  0.10670324710E+02  0.40750136864E+02  0.00000000000E+00 0.  1.
</event>
<event>
 7    1  0.3863655E-015  0.9000780E+02  0.7816164E-02  0.1186339E+00
        -11   -1    0    0    0    0  0.00000000000E+00  0.00000000000E+00  0.45593999997E+02  0.45594000000E+02  0.51100000000E-03 0.  1.
         11   -1    0    0    0    0 -0.00000000000E+00 -0.00000000000E+00 -0.45593999997E+02  0.45594000000E+02  0.51100000000E-03 0. -1.
    9900012    2    1    2    0    0  0.53286574569E+00  0.10460378809E+01 -0.12134966024E+00  0.90007802181E+02  0.90000064370E+02 0.  0.
        -12    1    1    2    0    0 -0.53286574569E+00 -0.10460378809E+01  0.12134966024E+00  0.11801978187E+01  0.00000000000E+00 0.  1.
         11    1    3    3    0    0 -0.63259239257E+01 -0.25475262686E+01 -0.54756044662E+01  0.87458246114E+01  0.51100000000E-03 0. -1.
        -11    1    3    3    0    0 -0.22758724777E+02 -0.28400611683E+02  0.90635390076E+01  0.37506026676E+02  0.51100000000E-03 0.  1.
         12    1    3    3    0    0  0.29617514448E+02  0.31994175833E+02 -0.37092842017E+01  0.43755950893E+02  0.00000000000E+00 0. -1.
</event>
<event>
 7    1  0.3863655E-015  0.9000770E+02  0.7816164E-02  0.1186339E+00
        -11   -1    0    0    0    0  0.00000000000E+00  0.00000000000E+00  0.45593999997E+02  0.45594000000E+02  0.51100000000E-03 0. -1.
         11   -1    0    0    0    0 -0.00000000000E+00 -0.00000000000E+00 -0.45593999997E+02  0.45594000000E+02  0.51100000000E-03 0.  1.
    9900012    2    1    2    0    0 -0.34782053945E+00 -0.13825013048E+00  0.11193812450E+01  0.90007700632E+02  0.89999961480E+02 0.  0.
        -12    1    1    2    0    0  0.34782053945E+00  0.13825013048E+00 -0.11193812450E+01  0.11802993679E+01  0.00000000000E+00 0.  1.
         11    1    3    3    0    0  0.41602919577E+01 -0.23915039448E+01  0.49732399177E+01  0.69108925495E+01  0.51100000000E-03 0. -1.
        -11    1    3    3    0    0 -0.35430355303E+02 -0.22371135315E+02  0.60744302976E+01  0.42340010343E+02  0.51100000000E-03 0.  1.
         12    1    3    3    0    0  0.30922242806E+02  0.24624389129E+02 -0.99282889703E+01  0.40756797740E+02  0.00000000000E+00 0. -1.
</event>
<event>
 7    1  0.3863655E-015  0.9000775E+02  0.7816164E-02  0.1186339E+00
        -11   -1    0    0    0    0  0.00000000000E+00  0.00000000000E+00  0.45593999997E+02  0.45594000000E+02  0.51100000000E-03 0. -1.
         11   -1    0    0    0    0 -0.00000000000E+00 -0.00000000000E+00 -0.45593999997E+02  0.45594000000E+02  0.51100000000E-03 0.  1.
    9900012    2    1    2    0    0  0.21525411702E+00  0.10060743094E+01  0.57833601463E+00  0.90007749011E+02  0.90000010498E+02 0.  0.
        -12    1    1    2    0    0 -0.21525411702E+00 -0.10060743094E+01 -0.57833601463E+00  0.11802509889E+01  0.00000000000E+00 0.  1.
         11    1    3    3    0    0  0.32237393538E+01 -0.30524956375E+02  0.19158415662E+02  0.36183011871E+02  0.51100000000E-03 0. -1.
        -11    1    3    3    0    0  0.86484571449E+00 -0.86755180044E+01  0.12829612296E+01  0.88124094624E+01  0.51100000000E-03 0.  1.
        -12    1    3    3    0    0 -0.38733309513E+01  0.40206548688E+02 -0.19863040877E+02  0.45012327678E+02  0.00000000000E+00 0.  1.
</event>
<event>
 7    1  0.3863655E-015  0.9000767E+02  0.7816164E-02  0.1186339E+00
        -11   -1    0    0    0    0  0.00000000000E+00  0.00000000000E+00  0.45593999997E+02  0.45594000000E+02  0.51100000000E-03 0.  1.
         11   -1    0    0    0    0 -0.00000000000E+00 -0.00000000000E+00 -0.45593999997E+02  0.45594000000E+02  0.51100000000E-03 0. -1.
    9900012    2    1    2    0    0 -0.10468827673E+01 -0.31172355956E+00 -0.44725141826E+00  0.90007674224E+02  0.89999934724E+02 0.  0.
        -12    1    1    2    0    0  0.10468827673E+01  0.31172355956E+00  0.44725141826E+00  0.11803257758E+01  0.00000000000E+00 0.  1.
         11    1    3    3    0    0 -0.91046394109E+01  0.69375725490E+00 -0.26930341150E+01  0.95198839771E+01  0.51100000000E-03 0. -1.
        -11    1    3    3    0    0 -0.25352046801E+02 -0.24591839346E+02  0.13910275227E+02  0.37960250217E+02  0.51100000000E-03 0.  1.
         12    1    3    3    0    0  0.33409803444E+02  0.23586358532E+02 -0.11664492530E+02  0.42527540030E+02  0.00000000000E+00 0. -1.
</event>
<event>
 7    1  0.3863655E-015  0.9000774E+02  0.7816164E-02  0.1186339E+00
        -11   -1    0    0    0    0  0.00000000000E+00  0.00000000000E+00  0.45593999997E+02  0.45594000000E+02  0.51100000000E-03 0.  1.
         11   -1    0    0    0    0 -0.00000000000E+00 -0.00000000000E+00 -0.45593999997E+02  0.45594000000E+02  0.51100000000E-03 0. -1.
    9900012    2    1    2    0    0  0.85399550734E+00 -0.29213934938E+00 -0.76050148592E+00  0.90007738912E+02  0.90000000266E+02 0.  0.
        -12    1    1    2    0    0 -0.85399550734E+00  0.29213934938E+00  0.76050148592E+00  0.11802610881E+01  0.00000000000E+00 0.  1.
         11    1    3    3    0    0 -0.49565249027E+01  0.24219430601E+02  0.33542741065E+02  0.41668494527E+02  0.51100000000E-03 0. -1.
        -11    1    3    3    0    0  0.64906263702E+01  0.25480460163E+01 -0.64147306176E+01  0.94746787986E+01  0.51100000000E-03 0.  1.
        -12    1    3    3    0    0 -0.68010596018E+00 -0.27059615966E+02 -0.27888511933E+02  0.38864565586E+02  0.00000000000E+00 0.  1.
</event>
<event>
 7    1  0.3863655E-015  0.9000774E+02  0.7816164E-02  0.1186339E+00
        -11   -1    0    0    0    0  0.00000000000E+00  0.00000000000E+00  0.45593999997E+02  0.45594000000E+02  0.51100000000E-03 0. -1.
         11   -1    0    0    0    0 -0.00000000000E+00 -0.00000000000E+00 -0.45593999997E+02  0.45594000000E+02  0.51100000000E-03 0.  1.
    9900012    2    1    2    0    0 -0.85159007209E+00 -0.81705160958E+00 -0.15488204440E-01  0.90007737797E+02  0.89999999136E+02 0.  0.
        -12    1    1    2    0    0  0.85159007209E+00  0.81705160958E+00  0.15488204440E-01  0.11802622031E+01  0.00000000000E+00 0.  1.
         11    1    3    3    0    0 -0.25160775265E+02  0.49276989405E+01  0.22651159127E+02  0.34211428483E+02  0.51100000000E-03 0. -1.
        -11    1    3    3    0    0 -0.10442576448E+02 -0.26325864703E+00  0.44730084458E+01  0.11363296740E+02  0.51100000000E-03 0.  1.
        -12    1    3    3    0    0  0.34751761641E+02 -0.54814919031E+01 -0.27139655777E+02  0.44433012574E+02  0.00000000000E+00 0.  1.
</event>
<event>
 7    1  0.3863655E-015  0.9000773E+02  0.7816164E-02  0.1186339E+00
        -11   -1    0    0    0    0  0.00000000000E+00  0.00000000000E+00  0.45593999997E+02  0.45594000000E+02  0.51100000000E-03 0. -1.
         11   -1    0    0    0    0 -0.00000000000E+00 -0.00000000000E+00 -0.45593999997E+02  0.45594000000E+02  0.51100000000E-03 0.  1.
    9900012    2    1    2    0    0 -0.66244007354E+00  0.69030697431E+00  0.69114811246E+00  0.90007730419E+02  0.89999991661E+02 0.  0.
        -12    1    1    2    0    0  0.66244007354E+00 -0.69030697431E+00 -0.69114811246E+00  0.11802695807E+01  0.00000000000E+00 0.  1.
         11    1    3    3    0    0  0.31622569322E+01 -0.25467840226E+01  0.80642428761E+01  0.90287314275E+01  0.51100000000E-03 0. -1.
        -11    1    3    3    0    0  0.22918344585E+02 -0.12375711405E+02 -0.32109458201E+02  0.41345205980E+02  0.51100000000E-03 0.  1.
         12    1    3    3    0    0 -0.26743041591E+02  0.15612802402E+02  0.24736363438E+02  0.39633793012E+02  0.00000000000E+00 0. -1.
</event>
<event>
 7    1  0.3863655E-015  0.9000766E+02  0.7816164E-02  0.1186339E+00
        -11   -1    0    0    0    0  0.00000000000E+00  0.00000000000E+00  0.45593999997E+02  0.45594000000E+02  0.51100000000E-03 0. -1.
         11   -1    0    0    0    0 -0.00000000000E+00 -0.00000000000E+00 -0.45593999997E+02  0.45594000000E+02  0.51100000000E-03 0.  1.
    9900012    2    1    2    0    0 -0.11876122625E+00 -0.27565804072E+00  0.11415339127E+01  0.90007664769E+02  0.89999925144E+02 0.  0.
        -12    1    1    2    0    0  0.11876122625E+00  0.27565804072E+00 -0.11415339127E+01  0.11803352313E+01  0.00000000000E+00 0.  1.
         11    1    3    3    0    0 -0.74950577513E+01 -0.50389742954E+01 -0.99567446472E+00  0.90861719413E+01  0.51100000000E-03 0. -1.
        -11    1    3    3    0    0 -0.63130164743E+01  0.31949692549E+02  0.26457805588E+02  0.41960129978E+02  0.51100000000E-03 0.  1.
         12    1    3    3    0    0  0.13689312999E+02 -0.27186376294E+02 -0.24320597211E+02  0.38961362849E+02  0.00000000000E+00 0. -1.
</event>
<event>
 7    1  0.3863655E-015  0.9000769E+02  0.7816164E-02  0.1186339E+00
        -11   -1    0    0    0    0  0.00000000000E+00  0.00000000000E+00  0.45593999997E+02  0.45594000000E+02  0.51100000000E-03 0.  1.
         11   -1    0    0    0    0 -0.00000000000E+00 -0.00000000000E+00 -0.45593999997E+02  0.45594000000E+02  0.51100000000E-03 0. -1.
    9900012    2    1    2    0    0 -0.27708495158E+00  0.40173982966E+00  0.10746936367E+01  0.90007687595E+02  0.89999948271E+02 0.  0.
        -12    1    1    2    0    0  0.27708495158E+00 -0.40173982966E+00 -0.10746936367E+01  0.11803124052E+01  0.00000000000E+00 0.  1.
         11    1    3    3    0    0 -0.25445321555E+02 -0.18817230608E+02 -0.91672180242E+01  0.32948299552E+02  0.51100000000E-03 0. -1.
        -11    1    3    3    0    0 -0.78442517350E+01 -0.95380907886E+01  0.20496748879E+01  0.12518331701E+02  0.51100000000E-03 0.  1.
        -12    1    3    3    0    0  0.33012488338E+02  0.28757061227E+02  0.81922367730E+01  0.44541056342E+02  0.00000000000E+00 0.  1.
</event>
<event>
 7    1  0.3863655E-015  0.9000770E+02  0.7816164E-02  0.1186339E+00
        -11   -1    0    0    0    0  0.00000000000E+00  0.00000000000E+00  0.45593999997E+02  0.45594000000E+02  0.51100000000E-03 0.  1.
         11   -1    0    0    0    0 -0.00000000000E+00 -0.00000000000E+00 -0.45593999997E+02  0.45594000000E+02  0.51100000000E-03 0. -1.
    9900012    2    1    2    0    0  0.20493141895E+00 -0.11486427778E+01 -0.17814096226E+00  0.90007698632E+02  0.89999959454E+02 0.  0.
        -12    1    1    2    0    0 -0.20493141895E+00  0.11486427778E+01  0.17814096226E+00  0.11803013682E+01  0.00000000000E+00 0.  1.
         11    1    3    3    0    0  0.41397309848E+02 -0.88602154726E+01 -0.91712093552E+01  0.43316876182E+02  0.51100000000E-03 0. -1.
        -11    1    3    3    0    0 -0.67748983763E+01 -0.48101030834E+01  0.53574817355E+01  0.98863011531E+01  0.51100000000E-03 0.  1.
        -12    1    3    3    0    0 -0.34417480053E+02  0.12521675778E+02  0.36355866574E+01  0.36804521296E+02  0.00000000000E+00 0.  1.
</event>
<event>
 7    1  0.3863655E-015  0.9000776E+02  0.7816164E-02  0.1186339E+00
        -11   -1    0    0    0    0  0.00000000000E+00  0.00000000000E+00  0.45593999997E+02  0.45594000000E+02  0.51100000000E-03 0.  1.
         11   -1    0    0    0    0 -0.00000000000E+00 -0.00000000000E+00 -0.45593999997E+02  0.45594000000E+02  0.51100000000E-03 0. -1.
    9900012    2    1    2    0    0  0.22992157498E+00  0.40246156940E+00 -0.10854141373E+01  0.90007761425E+02  0.90000023075E+02 0.  0.
        -12    1    1    2    0    0 -0.22992157498E+00 -0.40246156940E+00  0.10854141373E+01  0.11802385754E+01  0.00000000000E+00 0.  1.
         11    1    3    3    0    0  0.32308765091E+02 -0.96598925258E+01 -0.17538746486E+02  0.38010228280E+02  0.51100000000E-03 0. -1.
        -11    1    3    3    0    0  0.72724972891E+01  0.64807201123E+00 -0.19349311337E+01  0.75533550760E+01  0.51100000000E-03 0.  1.
        -12    1    3    3    0    0 -0.39351340805E+02  0.94142820840E+01  0.18388263483E+02  0.44444178069E+02  0.00000000000E+00 0.  1.
</event>
<event>
 7    1  0.3863655E-015  0.9000770E+02  0.7816164E-02  0.1186339E+00
        -11   -1    0    0    0    0  0.00000000000E+00  0.00000000000E+00  0.45593999997E+02  0.45594000000E+02  0.51100000000E-03 0.  1.
         11   -1    0    0    0    0 -0.00000000000E+00 -0.00000000000E+00 -0.45593999997E+02  0.45594000000E+02  0.51100000000E-03 0. -1.
    9900012    2    1    2    0    0 -0.86045173170E+00  0.13437487033E+00 -0.79666542800E+00  0.90007699363E+02  0.89999960195E+02 0.  0.
        -12    1    1    2    0    0  0.86045173170E+00 -0.13437487033E+00  0.79666542800E+00  0.11803006365E+01  0.00000000000E+00 0.  1.
         11    1    3    3    0    0  0.33565147678E+02  0.86334820088E+01 -0.19188063166E+02  0.39614869917E+02  0.51100000000E-03 0. -1.
        -11    1    3    3    0    0  0.22693429406E+01 -0.82121649222E+01 -0.15020749011E+01  0.86513466791E+01  0.51100000000E-03 0.  1.
        -12    1    3    3    0    0 -0.36694942351E+02 -0.28694221629E+00  0.19893472639E+02  0.41741482767E+02  0.00000000000E+00 0.  1.
</event>
<event>
 7    1  0.3863655E-015  0.9000780E+02  0.7816164E-02  0.1186339E+00
        -11   -1    0    0    0    0  0.00000000000E+00  0.00000000000E+00  0.45593999997E+02  0.45594000000E+02  0.51100000000E-03 0.  1.
         11   -1    0    0    0    0 -0.00000000000E+00 -0.00000000000E+00 -0.45593999997E+02  0.45594000000E+02  0.51100000000E-03 0. -1.
    9900012    2    1    2    0    0 -0.59024348158E+00  0.56983021466E+00 -0.84840081408E+00  0.90007797567E+02  0.90000059695E+02 0.  0.
        -12    1    1    2    0    0  0.59024348158E+00 -0.56983021466E+00  0.84840081408E+00  0.11802024328E+01  0.00000000000E+00 0.  1.
         11    1    3    3    0    0  0.70456201997E+01 -0.35657663087E+02  0.86466886138E+00  0.36357356248E+02  0.51100000000E-03 0. -1.
        -11    1    3    3    0    0 -0.86687370205E+00 -0.66668608210E+01 -0.72340440543E+01  0.98757225995E+01  0.51100000000E-03 0.  1.
        -12    1    3    3    0    0 -0.67689899792E+01  0.42894354123E+02  0.55209743788E+01  0.43774718720E+02  0.00000000000E+00 0.  1.
</event>
<event>
 7    1  0.3863655E-015  0.9000763E+02  0.7816164E-02  0.1186339E+00
        -11   -1    0    0    0    0  0.00000000000E+00  0.00000000000E+00  0.45593999997E+02  0.45594000000E+02  0.51100000000E-03 0. -1.
         11   -1    0    0    0    0 -0.00000000000E+00 -0.00000000000E+00 -0.45593999997E+02  0.45594000000E+02  0.51100000000E-03 0.  1.
    9900012    2    1    2    0    0 -0.43569628745E+00 -0.87335073699E+00  0.66385325585E+00  0.90007629757E+02  0.89999889670E+02 0.  0.
        -12    1    1    2    0    0  0.43569628745E+00  0.87335073699E+00 -0.66385325585E+00  0.11803702428E+01  0.00000000000E+00 0.  1.
         11    1    3    3    0    0 -0.20133159180E+02  0.32635658395E+02  0.14257466137E+02  0.40910947659E+02  0.51100000000E-03 0. -1.
        -11    1    3    3    0    0 -0.23437675200E+01 -0.18306954927E+00 -0.84985702827E+01  0.88177354099E+01  0.51100000000E-03 0.  1.
        -12    1    3    3    0    0  0.22041230413E+02 -0.33325939583E+02 -0.50950425988E+01  0.40278946688E+02  0.00000000000E+00 0.  1.
</event>
<event>
 7    1  0.3863655E-015  0.9000778E+02  0.7816164E-02  0.1186339E+00
        -11   -1    0    0    0    0  0.00000000000E+00  0.00000000000E+00  0.45593999997E+02  0.45594000000E+02  0.51100000000E-03 0.  1.
         11   -1    0    0    0    0 -0.00000000000E+00 -0.00000000000E+00 -0.45593999997E+02  0.45594000000E+02  0.51100000000E-03 0. -1.
    9900012    2    1    2    0    0 -0.95917917765E+00  0.65775077672E+00 -0.20067257587E+00  0.90007775334E+02  0.90000037169E+02 0.  0.
        -12    1    1    2    0    0  0.95917917765E+00 -0.65775077672E+00  0.20067257587E+00  0.11802246658E+01  0.00000000000E+00 0.  1.
         11    1    3    3    0    0  0.26816825147E+01  0.19033036180E+01  0.10352881508E+02  0.10862602890E+02  0.51100000000E-03 0. -1.
        -11    1    3    3    0    0 -0.16641859463E+02  0.35348678052E+02 -0.68662795038E+00  0.39076232989E+02  0.51100000000E-03 0.  1.
         12    1    3    3    0    0  0.13000997770E+02 -0.36594230894E+02 -0.98669261334E+01  0.40068939455E+02  0.00000000000E+00 0. -1.
</event>
<event>
 7    1  0.3863655E-015  0.9000775E+02  0.7816164E-02  0.1186339E+00
        -11   -1    0    0    0    0  0.00000000000E+00  0.00000000000E+00  0.45593999997E+02  0.45594000000E+02  0.51100000000E-03 0.  1.
         11   -1    0    0    0    0 -0.00000000000E+00 -0.00000000000E+00 -0.45593999997E+02  0.45594000000E+02  0.51100000000E-03 0. -1.
    9900012    2    1    2    0    0  0.30813505888E+00  0.30742060610E+00 -0.10970557767E+01  0.90007751712E+02  0.90000013235E+02 0.  0.
        -12    1    1    2    0    0 -0.30813505888E+00 -0.30742060610E+00  0.10970557767E+01  0.11802482878E+01  0.00000000000E+00 0.  1.
         11    1    3    3    0    0  0.19746537466E+01 -0.51635212470E+01  0.78320115851E+01  0.95865329925E+01  0.51100000000E-03 0. -1.
        -11    1    3    3    0    0  0.19316729644E+02  0.35458031873E+02  0.61370969510E+01  0.40842037507E+02  0.51100000000E-03 0.  1.
         12    1    3    3    0    0 -0.20983248332E+02 -0.29987090020E+02 -0.15066164313E+02  0.39579181213E+02  0.00000000000E+00 0. -1.
</event>
<event>
 7    1  0.3863655E-015  0.9000779E+02  0.7816164E-02  0.1186339E+00
        -11   -1    0    0    0    0  0.00000000000E+00  0.00000000000E+00  0.45593999997E+02  0.45594000000E+02  0.51100000000E-03 0. -1.
         11   -1    0    0    0    0 -0.00000000000E+00 -0.00000000000E+00 -0.45593999997E+02  0.45594000000E+02  0.51100000000E-03 0.  1.
    9900012    2    1    2    0    0  0.23392860731E+00  0.11551119839E+01  0.62374443349E-01  0.90007789485E+02  0.90000051506E+02 0.  0.
        -12    1    1    2    0    0 -0.23392860731E+00 -0.11551119839E+01 -0.62374443349E-01  0.11802105151E+01  0.00000000000E+00 0.  1.
         11    1    3    3    0    0 -0.98627893970E+01  0.23744385265E+01 -0.20449279692E+02  0.22827299735E+02  0.51100000000E-03 0. -1.
        -11    1    3    3    0    0 -0.96942266307E+01  0.18679534307E+02 -0.12003972367E+02  0.24228049545E+02  0.51100000000E-03 0.  1.
         12    1    3    3    0    0  0.19790944635E+02 -0.19898860850E+02  0.32515626503E+02  0.42952440205E+02  0.00000000000E+00 0. -1.
</event>
<event>
 7    1  0.3863655E-015  0.9000778E+02  0.7816164E-02  0.1186339E+00
        -11   -1    0    0    0    0  0.00000000000E+00  0.00000000000E+00  0.45593999997E+02  0.45594000000E+02  0.51100000000E-03 0.  1.
         11   -1    0    0    0    0 -0.00000000000E+00 -0.00000000000E+00 -0.45593999997E+02  0.45594000000E+02  0.51100000000E-03 0. -1.
    9900012    2    1    2    0    0 -0.64831987885E+00  0.63856881379E+00  0.75155900156E+00  0.90007775560E+02  0.90000037398E+02 0.  0.
        -12    1    1    2    0    0  0.64831987885E+00 -0.63856881379E+00 -0.75155900156E+00  0.11802244397E+01  0.00000000000E+00 0.  1.
         11    1    3    3    0    0  0.26520802413E+02 -0.36722576540E+01 -0.30007496811E+02  0.40215523147E+02  0.51100000000E-03 0. -1.
        -11    1    3    3    0    0 -0.74721494851E+01 -0.41795713951E+01 -0.36001441584E+01  0.92877808542E+01  0.51100000000E-03 0.  1.
        -12    1    3    3    0    0 -0.19696972807E+02  0.84903978628E+01  0.34359199971E+02  0.40504471559E+02  0.00000000000E+00 0.  1.
</event>
<event>
 7    1  0.3863655E-015  0.9000780E+02  0.7816164E-02  0.1186339E+00
        -11   -1    0    0    0    0  0.00000000000E+00  0.00000000000E+00  0.45593999997E+02  0.45594000000E+02  0.51100000000E-03 0. -1.
         11   -1    0    0    0    0 -0.00000000000E+00 -0.00000000000E+00 -0.45593999997E+02  0.45594000000E+02  0.51100000000E-03 0.  1.
    9900012    2    1    2    0    0 -0.11420638739E+01 -0.15437655238E+00  0.25442395028E+00  0.90007799357E+02  0.90000061508E+02 0.  0.
        -12    1    1    2    0    0  0.11420638739E+01  0.15437655238E+00 -0.25442395028E+00  0.11802006433E+01  0.00000000000E+00 0.  1.
         11    1    3    3    0    0  0.36319069010E+01  0.50194642614E+01  0.20360939372E+01  0.65216139100E+01  0.51100000000E-03 0. -1.
        -11    1    3    3    0    0 -0.51875614722E+00  0.22098883261E+02 -0.34316509437E+02  0.40819757098E+02  0.51100000000E-03 0.  1.
         12    1    3    3    0    0 -0.42552146277E+01 -0.27272724074E+02  0.32534839450E+02  0.42666428349E+02  0.00000000000E+00 0. -1.
</event>
<event>
 7    1  0.3863655E-015  0.9000776E+02  0.7816164E-02  0.1186339E+00
        -11   -1    0    0    0    0  0.00000000000E+00  0.00000000000E+00  0.45593999997E+02  0.45594000000E+02  0.51100000000E-03 0. -1.
         11   -1    0    0    0    0 -0.00000000000E+00 -0.00000000000E+00 -0.45593999997E+02  0.45594000000E+02  0.51100000000E-03 0.  1.
    9900012    2    1    2    0    0  0.10392488184E+01 -0.43216668495E-01 -0.55773587992E+00  0.90007756339E+02  0.90000017923E+02 0.  0.
        -12    1    1    2    0    0 -0.10392488184E+01  0.43216668495E-01  0.55773587992E+00  0.11802436608E+01  0.00000000000E+00 0.  1.
         11    1    3    3    0    0  0.27974087707E+02 -0.17919494712E+02  0.12356353071E+02  0.35444849206E+02  0.51100000000E-03 0. -1.
        -11    1    3    3    0    0  0.19750216884E+01  0.86829794839E+00 -0.20136996095E+02  0.20252240962E+02  0.51100000000E-03 0.  1.
        -12    1    3    3    0    0 -0.28909860577E+02  0.17007980095E+02  0.72229071440E+01  0.34310666171E+02  0.00000000000E+00 0.  1.
</event>
<event>
 7    1  0.3863655E-015  0.9000758E+02  0.7816164E-02  0.1186339E+00
        -11   -1    0    0    0    0  0.00000000000E+00  0.00000000000E+00  0.45593999997E+02  0.45594000000E+02  0.51100000000E-03 0. -1.
         11   -1    0    0    0    0 -0.00000000000E+00 -0.00000000000E+00 -0.45593999997E+02  0.45594000000E+02  0.51100000000E-03 0.  1.
    9900012    2    1    2    0    0 -0.53712753941E+00 -0.10256015457E+01  0.23026359118E+00  0.90007582343E+02  0.89999841630E+02 0.  0.
        -12    1    1    2    0    0  0.53712753941E+00  0.10256015457E+01 -0.23026359118E+00  0.11804176573E+01  0.00000000000E+00 0.  1.
         11    1    3    3    0    0 -0.14551117386E+02 -0.29045789070E+02  0.23641651911E+02  0.40178608553E+02  0.51100000000E-03 0. -1.
        -11    1    3    3    0    0 -0.17743765516E+01 -0.57311639894E+01 -0.66938647010E+01  0.89890198418E+01  0.51100000000E-03 0.  1.
        -12    1    3    3    0    0  0.15788366398E+02  0.33751351514E+02 -0.16717523619E+02  0.40839953948E+02  0.00000000000E+00 0.  1.
</event>
<event>
 7    1  0.3863655E-015  0.9000751E+02  0.7816164E-02  0.1186339E+00
        -11   -1    0    0    0    0  0.00000000000E+00  0.00000000000E+00  0.45593999997E+02  0.45594000000E+02  0.51100000000E-03 0. -1.
         11   -1    0    0    0    0 -0.00000000000E+00 -0.00000000000E+00 -0.45593999997E+02  0.45594000000E+02  0.51100000000E-03 0.  1.
    9900012    2    1    2    0    0  0.92181331338E+00 -0.62805659100E+00 -0.38645906385E+00  0.90007514729E+02  0.89999773123E+02 0.  0.
        -12    1    1    2    0    0 -0.92181331338E+00  0.62805659100E+00  0.38645906385E+00  0.11804852707E+01  0.00000000000E+00 0.  1.
         11    1    3    3    0    0 -0.15775244884E+02 -0.63162923229E+01 -0.15589940102E+01  0.17064125012E+02  0.51100000000E-03 0. -1.
        -11    1    3    3    0    0 -0.17090242971E+02  0.14259596685E+02 -0.21833096587E+02  0.31178463870E+02  0.51100000000E-03 0.  1.
        -12    1    3    3    0    0  0.33787301168E+02 -0.85713609526E+01  0.23005631533E+02  0.41764925848E+02  0.00000000000E+00 0.  1.
</event>
<event>
 7    1  0.3863655E-015  0.9000774E+02  0.7816164E-02  0.1186339E+00
        -11   -1    0    0    0    0  0.00000000000E+00  0.00000000000E+00  0.45593999997E+02  0.45594000000E+02  0.51100000000E-03 0.  1.
         11   -1    0    0    0    0 -0.00000000000E+00 -0.00000000000E+00 -0.45593999997E+02  0.45594000000E+02  0.51100000000E-03 0. -1.
    9900012    2    1    2    0    0  0.20691336288E+00 -0.18432109180E+00 -0.11472650341E+01  0.90007743899E+02  0.90000005319E+02 0.  0.
        -12    1    1    2    0    0 -0.20691336288E+00  0.18432109180E+00  0.11472650341E+01  0.11802561007E+01  0.00000000000E+00 0.  1.
         11    1    3    3    0    0 -0.35675100948E+01 -0.59974909912E+01 -0.79445145239E+01  0.10574135319E+02  0.51100000000E-03 0. -1.
        -11    1    3    3    0    0  0.13468051265E+02 -0.34063686172E+02 -0.44063529494E+01  0.36893618243E+02  0.51100000000E-03 0.  1.
         12    1    3    3    0    0 -0.96936278071E+01  0.39876856072E+02  0.11203602439E+02  0.42539990337E+02  0.00000000000E+00 0. -1.
</event>
<event>
 7    1  0.3863655E-015  0.9000772E+02  0.7816164E-02  0.1186339E+00
        -11   -1    0    0    0    0  0.00000000000E+00  0.00000000000E+00  0.45593999997E+02  0.45594000000E+02  0.51100000000E-03 0. -1.
         11   -1    0    0    0    0 -0.00000000000E+00 -0.00000000000E+00 -0.45593999997E+02  0.45594000000E+02  0.51100000000E-03 0.  1.
    9900012    2    1    2    0    0  0.29175435097E+00 -0.99490439568E+00  0.56401147018E+00  0.90007718552E+02  0.89999979637E+02 0.  0.
        -12    1    1    2    0    0 -0.29175435097E+00  0.99490439568E+00 -0.56401147018E+00  0.11802814479E+01  0.00000000000E+00 0.  1.
         11    1    3    3    0    0 -0.13472369871E+02  0.84609646383E+01 -0.28373562532E+02  0.32529244128E+02  0.51100000000E-03 0. -1.
        -11    1    3    3    0    0  0.74849115858E+01  0.54671907068E+01 -0.10999683675E+02  0.14384266296E+02  0.51100000000E-03 0.  1.
         12    1    3    3    0    0  0.62792126366E+01 -0.14923059741E+02  0.39937257677E+02  0.43094208127E+02  0.00000000000E+00 0. -1.
</event>
<event>
 7    1  0.3863655E-015  0.9000773E+02  0.7816164E-02  0.1186339E+00
        -11   -1    0    0    0    0  0.00000000000E+00  0.00000000000E+00  0.45593999997E+02  0.45594000000E+02  0.51100000000E-03 0.  1.
         11   -1    0    0    0    0 -0.00000000000E+00 -0.00000000000E+00 -0.45593999997E+02  0.45594000000E+02  0.51100000000E-03 0. -1.
    9900012    2    1    2    0    0  0.11008649852E+01 -0.32564276498E-01 -0.42434698663E+00  0.90007731169E+02  0.89999992421E+02 0.  0.
        -12    1    1    2    0    0 -0.11008649852E+01  0.32564276498E-01  0.42434698663E+00  0.11802688307E+01  0.00000000000E+00 0.  1.
         11    1    3    3    0    0 -0.72965924326E+00 -0.60831404965E+01  0.55724204874E+01  0.82818398476E+01  0.51100000000E-03 0. -1.
        -11    1    3    3    0    0 -0.38854353193E+02 -0.24342579146E+01  0.35220469425E+01  0.39089527863E+02  0.51100000000E-03 0.  1.
         12    1    3    3    0    0  0.40684877421E+02  0.84848341346E+01 -0.95188144165E+01  0.42636363459E+02  0.00000000000E+00 0. -1.
</event>
<event>
 7    1  0.3863655E-015  0.9000768E+02  0.7816164E-02  0.1186339E+00
        -11   -1    0    0    0    0  0.00000000000E+00  0.00000000000E+00  0.45593999997E+02  0.45594000000E+02  0.51100000000E-03 0.  1.
         11   -1    0    0    0    0 -0.00000000000E+00 -0.00000000000E+00 -0.45593999997E+02  0.45594000000E+02  0.51100000000E-03 0. -1.
    9900012    2    1    2    0    0 -0.61916832438E+00  0.89191751071E+00 -0.46288551637E+00  0.90007682559E+02  0.89999943169E+02 0.  0.
        -12    1    1    2    0    0  0.61916832438E+00 -0.89191751071E+00  0.46288551637E+00  0.11803174408E+01  0.00000000000E+00 0.  1.
         11    1    3    3    0    0 -0.31390167002E+02 -0.19504440077E+02  0.21703585793E+01  0.37019943594E+02  0.51100000000E-03 0. -1.
        -11    1    3    3    0    0 -0.88656668611E+01  0.31093261624E+01 -0.25889924603E+01  0.97452983688E+01  0.51100000000E-03 0.  1.
        -12    1    3    3    0    0  0.39636665539E+02  0.17287031425E+02 -0.44251635439E-01  0.43242440596E+02  0.00000000000E+00 0.  1.
</event>
<event>
 7    1  0.3953174E-015  0.9000785E+02  0.7816164E-02  0.1186339E+00
        -11   -1    0    0    0    0  0.00000000000E+00  0.00000000000E+00  0.45593999997E+02  0.45594000000E+02  0.51100000000E-03 0. -1.
         11   -1    0    0    0    0 -0.00000000000E+00 -0.00000000000E+00 -0.45593999997E+02  0.45594000000E+02  0.51100000000E-03 0.  1.
    9900012    2    1    2    0    0  0.79041438441E+00  0.52301942248E+00  0.70316669521E+00  0.90007852714E+02  0.90000115570E+02 0.  0.
        -12    1    1    2    0    0 -0.79041438441E+00 -0.52301942248E+00 -0.70316669521E+00  0.11801472860E+01  0.00000000000E+00 0.  1.
         11    1    3    3    0    0 -0.27359214453E+01 -0.50036692798E+01 -0.77636362926E+01  0.96330691455E+01  0.51100000000E-03 0. -1.
        -11    1    3    3    0    0 -0.15363768636E+02  0.33039986166E+02 -0.15179571473E+02  0.39472844627E+02  0.51100000000E-03 0.  1.
         12    1    3    3    0    0  0.18890104466E+02 -0.27513297464E+02  0.23646374460E+02  0.40901938942E+02  0.00000000000E+00 0. -1.
</event>
<event>
 7    1  0.3863655E-015  0.9000769E+02  0.7816164E-02  0.1186339E+00
        -11   -1    0    0    0    0  0.00000000000E+00  0.00000000000E+00  0.45593999997E+02  0.45594000000E+02  0.51100000000E-03 0. -1.
         11   -1    0    0    0    0 -0.00000000000E+00 -0.00000000000E+00 -0.45593999997E+02  0.45594000000E+02  0.51100000000E-03 0.  1.
    9900012    2    1    2    0    0 -0.87574698817E+00  0.72740826970E+00 -0.31157264821E+00  0.90007689408E+02  0.89999950108E+02 0.  0.
        -12    1    1    2    0    0  0.87574698817E+00 -0.72740826970E+00  0.31157264821E+00  0.11803105918E+01  0.00000000000E+00 0.  1.
         11    1    3    3    0    0 -0.31140810964E+01  0.10092275319E+02 -0.13407338019E+01  0.10646552944E+02  0.51100000000E-03 0. -1.
        -11    1    3    3    0    0 -0.84988653747E+01  0.32255497001E+02 -0.10299461361E+02  0.34910266456E+02  0.51100000000E-03 0.  1.
         12    1    3    3    0    0  0.10737199483E+02 -0.41620364050E+02  0.11328622515E+02  0.44450870009E+02  0.00000000000E+00 0. -1.
</event>
<event>
 7    1  0.3863655E-015  0.9000774E+02  0.7816164E-02  0.1186339E+00
        -11   -1    0    0    0    0  0.00000000000E+00  0.00000000000E+00  0.45593999997E+02  0.45594000000E+02  0.51100000000E-03 0. -1.
         11   -1    0    0    0    0 -0.00000000000E+00 -0.00000000000E+00 -0.45593999997E+02  0.45594000000E+02  0.51100000000E-03 0.  1.
    9900012    2    1    2    0    0 -0.10004694131E+01  0.62608744368E+00  0.95566739757E-02  0.90007739070E+02  0.90000000425E+02 0.  0.
        -12    1    1    2    0    0  0.10004694131E+01 -0.62608744368E+00 -0.95566739757E-02  0.11802609304E+01  0.00000000000E+00 0.  1.
         11    1    3    3    0    0 -0.24937704185E+02  0.63696135456E+01  0.29639666710E+02  0.39255202327E+02  0.51100000000E-03 0. -1.
        -11    1    3    3    0    0 -0.80075861758E+01  0.20087841391E+01 -0.72292100695E+01  0.10973519425E+02  0.51100000000E-03 0.  1.
        -12    1    3    3    0    0  0.31944820948E+02 -0.77523102411E+01 -0.22400899967E+02  0.39779017318E+02  0.00000000000E+00 0.  1.
</event>
<event>
 7    1  0.3863655E-015  0.9000778E+02  0.7816164E-02  0.1186339E+00
        -11   -1    0    0    0    0  0.00000000000E+00  0.00000000000E+00  0.45593999997E+02  0.45594000000E+02  0.51100000000E-03 0. -1.
         11   -1    0    0    0    0 -0.00000000000E+00 -0.00000000000E+00 -0.45593999997E+02  0.45594000000E+02  0.51100000000E-03 0.  1.
    9900012    2    1    2    0    0 -0.34556903965E+00 -0.11190236367E+01  0.14593621228E+00  0.90007775768E+02  0.90000037608E+02 0.  0.
        -12    1    1    2    0    0  0.34556903965E+00  0.11190236367E+01 -0.14593621228E+00  0.11802242324E+01  0.00000000000E+00 0.  1.
         11    1    3    3    0    0 -0.94937276533E+01  0.18531636431E+01 -0.38333693118E+00  0.96804972861E+01  0.51100000000E-03 0. -1.
        -11    1    3    3    0    0 -0.34797516174E+02 -0.89690663407E+01  0.14614457632E+01  0.35964525673E+02  0.51100000000E-03 0.  1.
         12    1    3    3    0    0  0.43945674787E+02  0.59968790609E+01 -0.93217261978E+00  0.44362752809E+02  0.00000000000E+00 0. -1.
</event>
<event>
 7    1  0.3863655E-015  0.9000780E+02  0.7816164E-02  0.1186339E+00
        -11   -1    0    0    0    0  0.00000000000E+00  0.00000000000E+00  0.45593999997E+02  0.45594000000E+02  0.51100000000E-03 0. -1.
         11   -1    0    0    0    0 -0.00000000000E+00 -0.00000000000E+00 -0.45593999997E+02  0.45594000000E+02  0.51100000000E-03 0.  1.
    9900012    2    1    2    0    0 -0.19911296947E-01  0.11743596669E+01 -0.11555701150E+00  0.90007800648E+02  0.90000062817E+02 0.  0.
        -12    1    1    2    0    0  0.19911296947E-01 -0.11743596669E+01  0.11555701150E+00  0.11801993517E+01  0.00000000000E+00 0.  1.
         11    1    3    3    0    0  0.31653535587E+02 -0.87140480391E+01  0.87320402432E+00  0.32842707469E+02  0.51100000000E-03 0. -1.
        -11    1    3    3    0    0  0.78216357303E+01 -0.93284582233E+00  0.11867429740E+02  0.14243738123E+02  0.51100000000E-03 0.  1.
        -12    1    3    3    0    0 -0.39495082614E+02  0.10821253528E+02 -0.12856190776E+02  0.42921355056E+02  0.00000000000E+00 0.  1.
</event>
<event>
 7    1  0.3863655E-015  0.9000780E+02  0.7816164E-02  0.1186339E+00
        -11   -1    0    0    0    0  0.00000000000E+00  0.00000000000E+00  0.45593999997E+02  0.45594000000E+02  0.51100000000E-03 0. -1.
         11   -1    0    0    0    0 -0.00000000000E+00 -0.00000000000E+00 -0.45593999997E+02  0.45594000000E+02  0.51100000000E-03 0.  1.
    9900012    2    1    2    0    0 -0.56460504420E+00 -0.32932926921E+00  0.98266182915E+00  0.90007804722E+02  0.90000066944E+02 0.  0.
        -12    1    1    2    0    0  0.56460504420E+00  0.32932926921E+00 -0.98266182915E+00  0.11801952779E+01  0.00000000000E+00 0.  1.
         11    1    3    3    0    0 -0.21260891315E+01 -0.83898943234E+01  0.10805680545E+01  0.87222823467E+01  0.51100000000E-03 0. -1.
        -11    1    3    3    0    0 -0.60817012767E+01 -0.25652380986E+02 -0.26808723766E+02  0.37599726207E+02  0.51100000000E-03 0.  1.
         12    1    3    3    0    0  0.76431853641E+01  0.33712946040E+02  0.26710817540E+02  0.43685796168E+02  0.00000000000E+00 0. -1.
</event>
<event>
 7    1  0.3863655E-015  0.9000772E+02  0.7816164E-02  0.1186339E+00
        -11   -1    0    0    0    0  0.00000000000E+00  0.00000000000E+00  0.45593999997E+02  0.45594000000E+02  0.51100000000E-03 0. -1.
         11   -1    0    0    0    0 -0.00000000000E+00 -0.00000000000E+00 -0.45593999997E+02  0.45594000000E+02  0.51100000000E-03 0.  1.
    9900012    2    1    2    0    0 -0.79782157105E+00 -0.59709659911E+00  0.63246642841E+00  0.90007721477E+02  0.89999982601E+02 0.  0.
        -12    1    1    2    0    0  0.79782157105E+00  0.59709659911E+00 -0.63246642841E+00  0.11802785226E+01  0.00000000000E+00 0.  1.
         11    1    3    3    0    0  0.12328266838E+02 -0.28215619996E+02  0.18790291609E+02  0.36071906437E+02  0.51100000000E-03 0. -1.
        -11    1    3    3    0    0  0.49867053951E+01 -0.70871970332E+01  0.33238233445E+01  0.92813465818E+01  0.51100000000E-03 0.  1.
        -12    1    3    3    0    0 -0.18112793804E+02  0.34705720430E+02 -0.21481648525E+02  0.44654468459E+02  0.00000000000E+00 0.  1.
</event>
<event>
 7    1  0.3863655E-015  0.9000779E+02  0.7816164E-02  0.1186339E+00
        -11   -1    0    0    0    0  0.00000000000E+00  0.00000000000E+00  0.45593999997E+02  0.45594000000E+02  0.51100000000E-03 0.  1.
         11   -1    0    0    0    0 -0.00000000000E+00 -0.00000000000E+00 -0.45593999997E+02  0.45594000000E+02  0.51100000000E-03 0. -1.
    9900012    2    1    2    0    0 -0.10473569037E+01  0.30735004330E+00 -0.44886118413E+00  0.90007789470E+02  0.90000051491E+02 0.  0.
        -12    1    1    2    0    0  0.10473569037E+01 -0.30735004330E+00  0.44886118413E+00  0.11802105301E+01  0.00000000000E+00 0.  1.
         11    1    3    3    0    0 -0.15777695757E+02 -0.34694317675E+02 -0.60212235796E+01  0.38586092002E+02  0.51100000000E-03 0. -1.
        -11    1    3    3    0    0  0.46104049663E+01 -0.49237061514E+01 -0.55760357692E+01  0.87516222141E+01  0.51100000000E-03 0.  1.
        -12    1    3    3    0    0  0.10119933887E+02  0.39925373870E+02  0.11148398165E+02  0.42670075254E+02  0.00000000000E+00 0.  1.
</event>
<event>
 7    1  0.4348694E-015  0.9000768E+02  0.7816164E-02  0.1186339E+00
        -11   -1    0    0    0    0  0.00000000000E+00  0.00000000000E+00  0.45593999997E+02  0.45594000000E+02  0.51100000000E-03 0. -1.
         11   -1    0    0    0    0 -0.00000000000E+00 -0.00000000000E+00 -0.45593999997E+02  0.45594000000E+02  0.51100000000E-03 0.  1.
    9900012    2    1    2    0    0 -0.81861725914E+00  0.72750332703E+00  0.44018482537E+00  0.90007678862E+02  0.89999939423E+02 0.  0.
        -12    1    1    2    0    0  0.81861725914E+00 -0.72750332703E+00 -0.44018482537E+00  0.11803211378E+01  0.00000000000E+00 0.  1.
         11    1    3    3    0    0  0.18408877335E+01  0.63154375904E+01 -0.70066876691E+01  0.96107903920E+01  0.51100000000E-03 0. -1.
        -11    1    3    3    0    0 -0.20629418401E+01  0.29373740346E+01 -0.35969114574E+02  0.36147767549E+02  0.51100000000E-03 0.  1.
         12    1    3    3    0    0 -0.59656315261E+00 -0.85253082980E+01  0.43415987069E+02  0.44249120921E+02  0.00000000000E+00 0. -1.
</event>
<event>
 7    1  0.3863655E-015  0.9000757E+02  0.7816164E-02  0.1186339E+00
        -11   -1    0    0    0    0  0.00000000000E+00  0.00000000000E+00  0.45593999997E+02  0.45594000000E+02  0.51100000000E-03 0.  1.
         11   -1    0    0    0    0 -0.00000000000E+00 -0.00000000000E+00 -0.45593999997E+02  0.45594000000E+02  0.51100000000E-03 0. -1.
    9900012    2    1    2    0    0  0.62164971503E+00 -0.32610614016E+00 -0.94900958445E+00  0.90007570936E+02  0.89999830073E+02 0.  0.
        -12    1    1    2    0    0 -0.62164971503E+00  0.32610614016E+00  0.94900958445E+00  0.11804290636E+01  0.00000000000E+00 0.  1.
         11    1    3    3    0    0 -0.59381823449E+01  0.35557453094E+01  0.51759944991E+01  0.86426994384E+01  0.51100000000E-03 0. -1.
        -11    1    3    3    0    0 -0.80902334961E+01  0.24124304486E+02  0.25943503334E+02  0.36338675133E+02  0.51100000000E-03 0.  1.
         12    1    3    3    0    0  0.14650065556E+02 -0.28006155935E+02 -0.32068507418E+02  0.45026196365E+02  0.00000000000E+00 0. -1.
</event>
<event>
 7    1  0.3863655E-015  0.9000752E+02  0.7816164E-02  0.1186339E+00
        -11   -1    0    0    0    0  0.00000000000E+00  0.00000000000E+00  0.45593999997E+02  0.45594000000E+02  0.51100000000E-03 0. -1.
         11   -1    0    0    0    0 -0.00000000000E+00 -0.00000000000E+00 -0.45593999997E+02  0.45594000000E+02  0.51100000000E-03 0.  1.
    9900012    2    1    2    0    0 -0.26237632247E+00  0.88409252977E+00  0.73692693030E+00  0.90007524572E+02  0.89999783096E+02 0.  0.
        -12    1    1    2    0    0  0.26237632247E+00 -0.88409252977E+00 -0.73692693030E+00  0.11804754281E+01  0.00000000000E+00 0.  1.
         11    1    3    3    0    0 -0.69122679431E+01 -0.10318675565E+02  0.27465417296E+02  0.30143053280E+02  0.51100000000E-03 0. -1.
        -11    1    3    3    0    0  0.20109663501E+01 -0.17809373657E+02  0.28800598049E+01  0.18152479733E+02  0.51100000000E-03 0.  1.
        -12    1    3    3    0    0  0.46389252705E+01  0.29012141751E+02 -0.29608550170E+02  0.41711991559E+02  0.00000000000E+00 0.  1.
</event>
<event>
 7    1  0.3863655E-015  0.9000772E+02  0.7816164E-02  0.1186339E+00
        -11   -1    0    0    0    0  0.00000000000E+00  0.00000000000E+00  0.45593999997E+02  0.45594000000E+02  0.51100000000E-03 0. -1.
         11   -1    0    0    0    0 -0.00000000000E+00 -0.00000000000E+00 -0.45593999997E+02  0.45594000000E+02  0.51100000000E-03 0.  1.
    9900012    2    1    2    0    0  0.78835151810E+00 -0.56373435178E+00  0.67362966758E+00  0.90007715515E+02  0.89999976560E+02 0.  0.
        -12    1    1    2    0    0 -0.78835151810E+00  0.56373435178E+00 -0.67362966758E+00  0.11802844846E+01  0.00000000000E+00 0.  1.
         11    1    3    3    0    0  0.35269300141E+02  0.48618694417E+01 -0.47854739285E+01  0.35923001933E+02  0.51100000000E-03 0. -1.
        -11    1    3    3    0    0  0.94100180011E+01 -0.13364222093E+01 -0.90164991387E+00  0.95471166291E+01  0.51100000000E-03 0.  1.
        -12    1    3    3    0    0 -0.43890966624E+02 -0.40891815842E+01  0.63607535099E+01  0.44537596954E+02  0.00000000000E+00 0.  1.
</event>
<event>
 7    1  0.3863655E-015  0.9000771E+02  0.7816164E-02  0.1186339E+00
        -11   -1    0    0    0    0  0.00000000000E+00  0.00000000000E+00  0.45593999997E+02  0.45594000000E+02  0.51100000000E-03 0.  1.
         11   -1    0    0    0    0 -0.00000000000E+00 -0.00000000000E+00 -0.45593999997E+02  0.45594000000E+02  0.51100000000E-03 0. -1.
    9900012    2    1    2    0    0  0.80395851842E+00 -0.59527882163E+00 -0.62639634010E+00  0.90007712514E+02  0.89999973519E+02 0.  0.
        -12    1    1    2    0    0 -0.80395851842E+00  0.59527882163E+00  0.62639634010E+00  0.11802874860E+01  0.00000000000E+00 0.  1.
         11    1    3    3    0    0 -0.58313601309E+01 -0.40980914371E+01 -0.57004499145E+01  0.91265680237E+01  0.51100000000E-03 0. -1.
        -11    1    3    3    0    0  0.14766670502E+00  0.37811002368E+02 -0.14916582624E+02  0.40647240287E+02  0.51100000000E-03 0.  1.
         12    1    3    3    0    0  0.64876519443E+01 -0.34308189752E+02  0.19990636199E+02  0.40233904203E+02  0.00000000000E+00 0. -1.
</event>
<event>
 7    1  0.3863655E-015  0.9000753E+02  0.7816164E-02  0.1186339E+00
        -11   -1    0    0    0    0  0.00000000000E+00  0.00000000000E+00  0.45593999997E+02  0.45594000000E+02  0.51100000000E-03 0.  1.
         11   -1    0    0    0    0 -0.00000000000E+00 -0.00000000000E+00 -0.45593999997E+02  0.45594000000E+02  0.51100000000E-03 0. -1.
    9900012    2    1    2    0    0  0.86201853005E+00 -0.52793548566E+00  0.60968912060E+00  0.90007528634E+02  0.89999787211E+02 0.  0.
        -12    1    1    2    0    0 -0.86201853005E+00  0.52793548566E+00 -0.60968912060E+00  0.11804713664E+01  0.00000000000E+00 0.  1.
         11    1    3    3    0    0 -0.15058447014E+01 -0.45865067979E+01 -0.18512714713E+00  0.48309300548E+01  0.51100000000E-03 0. -1.
        -11    1    3    3    0    0  0.87341596578E+01 -0.33047175789E+02 -0.22483305300E+02  0.40913327780E+02  0.51100000000E-03 0.  1.
         12    1    3    3    0    0 -0.63662964263E+01  0.37105747101E+02  0.23278121568E+02  0.44263270799E+02  0.00000000000E+00 0. -1.
</event>
<event>
 7    1  0.3863655E-015  0.9000799E+02  0.7816164E-02  0.1186339E+00
        -11   -1    0    0    0    0  0.00000000000E+00  0.00000000000E+00  0.45593999997E+02  0.45594000000E+02  0.51100000000E-03 0.  1.
         11   -1    0    0    0    0 -0.00000000000E+00 -0.00000000000E+00 -0.45593999997E+02  0.45594000000E+02  0.51100000000E-03 0. -1.
    9900012    2    1    2    0    0 -0.98178739985E+00 -0.37354976818E+00 -0.53757323332E+00  0.90007986903E+02  0.90000251530E+02 0.  0.
        -12    1    1    2    0    0  0.98178739985E+00  0.37354976818E+00  0.53757323332E+00  0.11800130970E+01  0.00000000000E+00 0.  1.
         11    1    3    3    0    0  0.31369096786E+02  0.17135953169E+02 -0.16856987297E+02  0.39519857606E+02  0.51100000000E-03 0. -1.
        -11    1    3    3    0    0 -0.22510891617E+01  0.80067978431E+01  0.27279930514E+01  0.87531800201E+01  0.51100000000E-03 0.  1.
        -12    1    3    3    0    0 -0.30099795024E+02 -0.25516300780E+02  0.13591421012E+02  0.41734949277E+02  0.00000000000E+00 0.  1.
</event>
<event>
 7    1  0.3863655E-015  0.9000772E+02  0.7816164E-02  0.1186339E+00
        -11   -1    0    0    0    0  0.00000000000E+00  0.00000000000E+00  0.45593999997E+02  0.45594000000E+02  0.51100000000E-03 0. -1.
         11   -1    0    0    0    0 -0.00000000000E+00 -0.00000000000E+00 -0.45593999997E+02  0.45594000000E+02  0.51100000000E-03 0.  1.
    9900012    2    1    2    0    0 -0.10964978743E+01 -0.43523796337E+00 -0.36445760551E-01  0.90007716997E+02  0.89999978062E+02 0.  0.
        -12    1    1    2    0    0  0.10964978743E+01  0.43523796337E+00  0.36445760551E-01  0.11802830028E+01  0.00000000000E+00 0.  1.
         11    1    3    3    0    0  0.10410843717E+02  0.19038995216E+01  0.29242153932E+01  0.10980051740E+02  0.51100000000E-03 0. -1.
        -11    1    3    3    0    0  0.16787859491E+02 -0.21476153565E+02 -0.26123618826E+02  0.37755805633E+02  0.51100000000E-03 0.  1.
         12    1    3    3    0    0 -0.28295201082E+02  0.19137016080E+02  0.23162957672E+02  0.41271859624E+02  0.00000000000E+00 0. -1.
</event>
<event>
 7    1  0.3863655E-015  0.9000779E+02  0.7816164E-02  0.1186339E+00
        -11   -1    0    0    0    0  0.00000000000E+00  0.00000000000E+00  0.45593999997E+02  0.45594000000E+02  0.51100000000E-03 0.  1.
         11   -1    0    0    0    0 -0.00000000000E+00 -0.00000000000E+00 -0.45593999997E+02  0.45594000000E+02  0.51100000000E-03 0. -1.
    9900012    2    1    2    0    0  0.42993508011E+00  0.89464802345E+00  0.63847963520E+00  0.90007790060E+02  0.90000052088E+02 0.  0.
        -12    1    1    2    0    0 -0.42993508011E+00 -0.89464802345E+00 -0.63847963520E+00  0.11802099405E+01  0.00000000000E+00 0.  1.
         11    1    3    3    0    0  0.23501422524E+01  0.18881197470E+01 -0.64669706946E+01  0.71351156271E+01  0.51100000000E-03 0. -1.
        -11    1    3    3    0    0  0.36670141648E+02 -0.11895882717E+02  0.16095429459E+02  0.41776478595E+02  0.51100000000E-03 0.  1.
         12    1    3    3    0    0 -0.38590348820E+02  0.10902410994E+02 -0.89899791296E+01  0.41096195837E+02  0.00000000000E+00 0. -1.
</event>
<event>
 7    1  0.3863655E-015  0.9000768E+02  0.7816164E-02  0.1186339E+00
        -11   -1    0    0    0    0  0.00000000000E+00  0.00000000000E+00  0.45593999997E+02  0.45594000000E+02  0.51100000000E-03 0.  1.
         11   -1    0    0    0    0 -0.00000000000E+00 -0.00000000000E+00 -0.45593999997E+02  0.45594000000E+02  0.51100000000E-03 0. -1.
    9900012    2    1    2    0    0  0.14222404803E+00  0.64196895286E+00  0.98020695395E+00  0.90007679074E+02  0.89999939638E+02 0.  0.
        -12    1    1    2    0    0 -0.14222404803E+00 -0.64196895286E+00 -0.98020695395E+00  0.11803209262E+01  0.00000000000E+00 0.  1.
         11    1    3    3    0    0 -0.12680231055E+02 -0.10196534452E+02 -0.33458033257E+02  0.37204805659E+02  0.51100000000E-03 0. -1.
        -11    1    3    3    0    0  0.17967553786E+01 -0.71349506646E+01 -0.44264952986E+01  0.85866007108E+01  0.51100000000E-03 0.  1.
        -12    1    3    3    0    0  0.11025699724E+02  0.17973454070E+02  0.38864735509E+02  0.44216272704E+02  0.00000000000E+00 0.  1.
</event>
<event>
 7    1  0.3863655E-015  0.9000772E+02  0.7816164E-02  0.1186339E+00
        -11   -1    0    0    0    0  0.00000000000E+00  0.00000000000E+00  0.45593999997E+02  0.45594000000E+02  0.51100000000E-03 0.  1.
         11   -1    0    0    0    0 -0.00000000000E+00 -0.00000000000E+00 -0.45593999997E+02  0.45594000000E+02  0.51100000000E-03 0. -1.
    9900012    2    1    2    0    0 -0.10227505539E+01  0.13074134668E-01 -0.58895258837E+00  0.90007722584E+02  0.89999983722E+02 0.  0.
        -12    1    1    2    0    0  0.10227505539E+01 -0.13074134668E-01  0.58895258837E+00  0.11802774165E+01  0.00000000000E+00 0.  1.
         11    1    3    3    0    0  0.78567849142E+01 -0.22848745112E+00 -0.78859253700E+00  0.78995667067E+01  0.51100000000E-03 0. -1.
        -11    1    3    3    0    0 -0.40769500826E+02 -0.39643889033E+00  0.19109642385E+02  0.45027633668E+02  0.51100000000E-03 0.  1.
         12    1    3    3    0    0  0.31889965358E+02  0.63800047611E+00 -0.18910002436E+02  0.37080522209E+02  0.00000000000E+00 0. -1.
</event>
<event>
 7    1  0.4384533E-015  0.9000772E+02  0.7816164E-02  0.1186339E+00
        -11   -1    0    0    0    0  0.00000000000E+00  0.00000000000E+00  0.45593999997E+02  0.45594000000E+02  0.51100000000E-03 0. -1.
         11   -1    0    0    0    0 -0.00000000000E+00 -0.00000000000E+00 -0.45593999997E+02  0.45594000000E+02  0.51100000000E-03 0.  1.
    9900012    2    1    2    0    0 -0.60337587617E+00 -0.87979253986E+00  0.50494410046E+00  0.90007717870E+02  0.89999978946E+02 0.  0.
        -12    1    1    2    0    0  0.60337587617E+00  0.87979253986E+00 -0.50494410046E+00  0.11802821297E+01  0.00000000000E+00 0.  1.
         11    1    3    3    0    0 -0.30547312804E+01 -0.53994105712E+01 -0.67447427954E+01  0.91638732722E+01  0.51100000000E-03 0. -1.
        -11    1    3    3    0    0  0.97046312109E+01  0.79523721029E+01 -0.35341885210E+02  0.37502919079E+02  0.51100000000E-03 0.  1.
         12    1    3    3    0    0 -0.72532758067E+01 -0.34327540716E+01  0.42591572106E+02  0.43340925519E+02  0.00000000000E+00 0. -1.
</event>
<event>
 7    1  0.3863655E-015  0.9000770E+02  0.7816164E-02  0.1186339E+00
        -11   -1    0    0    0    0  0.00000000000E+00  0.00000000000E+00  0.45593999997E+02  0.45594000000E+02  0.51100000000E-03 0.  1.
         11   -1    0    0    0    0 -0.00000000000E+00 -0.00000000000E+00 -0.45593999997E+02  0.45594000000E+02  0.51100000000E-03 0. -1.
    9900012    2    1    2    0    0  0.63628440100E+00 -0.42719137800E+00 -0.89764419175E+00  0.90007696900E+02  0.89999957699E+02 0.  0.
        -12    1    1    2    0    0 -0.63628440100E+00  0.42719137800E+00  0.89764419175E+00  0.11803030998E+01  0.00000000000E+00 0.  1.
         11    1    3    3    0    0 -0.54404901812E+01  0.72287550989E+01 -0.83208143542E+00  0.90854935732E+01  0.51100000000E-03 0. -1.
        -11    1    3    3    0    0 -0.36737130411E+02 -0.54948140293E+00  0.55596063653E+01  0.37159492782E+02  0.51100000000E-03 0.  1.
         12    1    3    3    0    0  0.42813904993E+02 -0.71064650740E+01 -0.56251691217E+01  0.43762710545E+02  0.00000000000E+00 0. -1.
</event>
<event>
 7    1  0.3863655E-015  0.9000773E+02  0.7816164E-02  0.1186339E+00
        -11   -1    0    0    0    0  0.00000000000E+00  0.00000000000E+00  0.45593999997E+02  0.45594000000E+02  0.51100000000E-03 0. -1.
         11   -1    0    0    0    0 -0.00000000000E+00 -0.00000000000E+00 -0.45593999997E+02  0.45594000000E+02  0.51100000000E-03 0.  1.
    9900012    2    1    2    0    0 -0.74840165439E+00  0.79689771590E+00  0.44483116593E+00  0.90007734872E+02  0.89999996172E+02 0.  0.
        -12    1    1    2    0    0  0.74840165439E+00 -0.79689771590E+00 -0.44483116593E+00  0.11802651279E+01  0.00000000000E+00 0.  1.
         11    1    3    3    0    0  0.13580066533E+02 -0.37908783228E+02  0.37931887777E+00  0.40269565877E+02  0.51100000000E-03 0. -1.
        -11    1    3    3    0    0 -0.21834524880E+01  0.11855679886E+01  0.89707289267E+01  0.93084377831E+01  0.51100000000E-03 0.  1.
        -12    1    3    3    0    0 -0.12145015699E+02  0.37520112955E+02 -0.89052166386E+01  0.40429731212E+02  0.00000000000E+00 0.  1.
</event>
<event>
 7    1  0.3863655E-015  0.9000770E+02  0.7816164E-02  0.1186339E+00
        -11   -1    0    0    0    0  0.00000000000E+00  0.00000000000E+00  0.45593999997E+02  0.45594000000E+02  0.51100000000E-03 0. -1.
         11   -1    0    0    0    0 -0.00000000000E+00 -0.00000000000E+00 -0.45593999997E+02  0.45594000000E+02  0.51100000000E-03 0.  1.
    9900012    2    1    2    0    0  0.85709235540E+00  0.33625927531E+00 -0.73852505255E+00  0.90007704758E+02  0.89999965660E+02 0.  0.
        -12    1    1    2    0    0 -0.85709235540E+00 -0.33625927531E+00  0.73852505255E+00  0.11802952424E+01  0.00000000000E+00 0.  1.
         11    1    3    3    0    0 -0.61038098378E+01 -0.65098999329E+01  0.54268898057E+01  0.10444444691E+02  0.51100000000E-03 0. -1.
        -11    1    3    3    0    0 -0.21288334954E+02 -0.11710830525E+02 -0.29704009210E+02  0.38375316547E+02  0.51100000000E-03 0.  1.
         12    1    3    3    0    0  0.28249237147E+02  0.18556989733E+02  0.23538594351E+02  0.41187943520E+02  0.00000000000E+00 0. -1.
</event>
<event>
 7    1  0.3863655E-015  0.9000770E+02  0.7816164E-02  0.1186339E+00
        -11   -1    0    0    0    0  0.00000000000E+00  0.00000000000E+00  0.45593999997E+02  0.45594000000E+02  0.51100000000E-03 0.  1.
         11   -1    0    0    0    0 -0.00000000000E+00 -0.00000000000E+00 -0.45593999997E+02  0.45594000000E+02  0.51100000000E-03 0. -1.
    9900012    2    1    2    0    0  0.10426981597E+01  0.34413730376E+00 -0.43295751813E+00  0.90007702517E+02  0.89999963390E+02 0.  0.
        -12    1    1    2    0    0 -0.10426981597E+01 -0.34413730376E+00  0.43295751813E+00  0.11802974831E+01  0.00000000000E+00 0.  1.
         11    1    3    3    0    0  0.17103849557E+02 -0.60214324636E+01 -0.35010432265E+02  0.39427524475E+02  0.51100000000E-03 0. -1.
        -11    1    3    3    0    0 -0.18006659052E+02  0.57210312327E+01  0.32323865148E+01  0.19168158269E+02  0.51100000000E-03 0.  1.
        -12    1    3    3    0    0  0.19455076541E+01  0.64453853464E+00  0.31345088232E+02  0.31412019773E+02  0.00000000000E+00 0.  1.
</event>
<event>
 7    1  0.3863655E-015  0.9000775E+02  0.7816164E-02  0.1186339E+00
        -11   -1    0    0    0    0  0.00000000000E+00  0.00000000000E+00  0.45593999997E+02  0.45594000000E+02  0.51100000000E-03 0.  1.
         11   -1    0    0    0    0 -0.00000000000E+00 -0.00000000000E+00 -0.45593999997E+02  0.45594000000E+02  0.51100000000E-03 0. -1.
    9900012    2    1    2    0    0  0.69425404624E+00  0.38773883358E+00 -0.87216042337E+00  0.90007748379E+02  0.90000009858E+02 0.  0.
        -12    1    1    2    0    0 -0.69425404624E+00 -0.38773883358E+00  0.87216042337E+00  0.11802516206E+01  0.00000000000E+00 0.  1.
         11    1    3    3    0    0 -0.11486975841E+02  0.19680421976E+02 -0.32663075245E+02  0.39826449852E+02  0.51100000000E-03 0. -1.
        -11    1    3    3    0    0  0.34307287257E+01 -0.45406261200E+01 -0.62497288251E+01  0.84525910702E+01  0.51100000000E-03 0.  1.
        -12    1    3    3    0    0  0.87505011614E+01 -0.14752057023E+02  0.38040643646E+02  0.41728707457E+02  0.00000000000E+00 0.  1.
</event>
<event>
 7    1  0.3863655E-015  0.9000775E+02  0.7816164E-02  0.1186339E+00
        -11   -1    0    0    0    0  0.00000000000E+00  0.00000000000E+00  0.45593999997E+02  0.45594000000E+02  0.51100000000E-03 0. -1.
         11   -1    0    0    0    0 -0.00000000000E+00 -0.00000000000E+00 -0.45593999997E+02  0.45594000000E+02  0.51100000000E-03 0.  1.
    9900012    2    1    2    0    0 -0.96621396157E+00  0.29585011518E+00  0.60983476402E+00  0.90007747845E+02  0.90000009316E+02 0.  0.
        -12    1    1    2    0    0  0.96621396157E+00 -0.29585011518E+00 -0.60983476402E+00  0.11802521551E+01  0.00000000000E+00 0.  1.
         11    1    3    3    0    0 -0.61674477152E+01  0.21812264105E+01  0.61340131647E+01  0.89677911293E+01  0.51100000000E-03 0. -1.
        -11    1    3    3    0    0 -0.23594528215E+02 -0.29239744706E+02  0.91985822096E+01  0.38681757291E+02  0.51100000000E-03 0.  1.
         12    1    3    3    0    0  0.28795761969E+02  0.27354368411E+02 -0.14722760610E+02  0.42358199425E+02  0.00000000000E+00 0. -1.
</event>
<event>
 7    1  0.3863655E-015  0.9000767E+02  0.7816164E-02  0.1186339E+00
        -11   -1    0    0    0    0  0.00000000000E+00  0.00000000000E+00  0.45593999997E+02  0.45594000000E+02  0.51100000000E-03 0. -1.
         11   -1    0    0    0    0 -0.00000000000E+00 -0.00000000000E+00 -0.45593999997E+02  0.45594000000E+02  0.51100000000E-03 0.  1.
    9900012    2    1    2    0    0  0.10079104028E+01 -0.48805686222E+00 -0.37296247725E+00  0.90007667890E+02  0.89999928306E+02 0.  0.
        -12    1    1    2    0    0 -0.10079104028E+01  0.48805686222E+00  0.37296247725E+00  0.11803321102E+01  0.00000000000E+00 0.  1.
         11    1    3    3    0    0  0.32551584544E+01  0.75398388017E+01 -0.44395424278E+01  0.93356715318E+01  0.51100000000E-03 0. -1.
        -11    1    3    3    0    0 -0.16204201295E+02 -0.33850880846E+02 -0.20169655961E+02  0.42606024169E+02  0.51100000000E-03 0.  1.
         12    1    3    3    0    0  0.13956953243E+02  0.25822985182E+02  0.24236235911E+02  0.38065972189E+02  0.00000000000E+00 0. -1.
</event>
<event>
 7    1  0.3863655E-015  0.9000779E+02  0.7816164E-02  0.1186339E+00
        -11   -1    0    0    0    0  0.00000000000E+00  0.00000000000E+00  0.45593999997E+02  0.45594000000E+02  0.51100000000E-03 0. -1.
         11   -1    0    0    0    0 -0.00000000000E+00 -0.00000000000E+00 -0.45593999997E+02  0.45594000000E+02  0.51100000000E-03 0.  1.
    9900012    2    1    2    0    0  0.49943005629E+00  0.72299632315E-01  0.10668818037E+01  0.90007790527E+02  0.90000052562E+02 0.  0.
        -12    1    1    2    0    0 -0.49943005629E+00 -0.72299632315E-01 -0.10668818037E+01  0.11802094734E+01  0.00000000000E+00 0.  1.
         11    1    3    3    0    0 -0.26783658959E+02  0.13173339836E+02  0.25890553633E+02  0.39512302355E+02  0.51100000000E-03 0. -1.
        -11    1    3    3    0    0 -0.26081395823E+01  0.52695160197E+01  0.21286237155E+01  0.62530976600E+01  0.51100000000E-03 0.  1.
        -12    1    3    3    0    0  0.29891228598E+02 -0.18370556223E+02 -0.26952295545E+02  0.44242390512E+02  0.00000000000E+00 0.  1.
</event>
<event>
 7    1  0.4836000E-015  0.9000786E+02  0.7816164E-02  0.1186339E+00
        -11   -1    0    0    0    0  0.00000000000E+00  0.00000000000E+00  0.45593999997E+02  0.45594000000E+02  0.51100000000E-03 0. -1.
         11   -1    0    0    0    0 -0.00000000000E+00 -0.00000000000E+00 -0.45593999997E+02  0.45594000000E+02  0.51100000000E-03 0.  1.
    9900012    2    1    2    0    0  0.56153946494E+00 -0.11254927371E+00  0.10318620384E+01  0.90007858832E+02  0.90000121769E+02 0.  0.
        -12    1    1    2    0    0 -0.56153946494E+00  0.11254927371E+00 -0.10318620384E+01  0.11801411678E+01  0.00000000000E+00 0.  1.
         11    1    3    3    0    0 -0.12461919576E+01 -0.15453079201E+01 -0.96423333959E+01  0.98445703076E+01  0.51100000000E-03 0. -1.
        -11    1    3    3    0    0 -0.18139805369E+02 -0.54699499612E+01 -0.29338377424E+02  0.34924393789E+02  0.51100000000E-03 0.  1.
         12    1    3    3    0    0  0.19947536791E+02  0.69027086076E+01  0.40012572858E+02  0.45238894736E+02  0.00000000000E+00 0. -1.
</event>
<event>
 7    1  0.3863655E-015  0.9000769E+02  0.7816164E-02  0.1186339E+00
        -11   -1    0    0    0    0  0.00000000000E+00  0.00000000000E+00  0.45593999997E+02  0.45594000000E+02  0.51100000000E-03 0.  1.
         11   -1    0    0    0    0 -0.00000000000E+00 -0.00000000000E+00 -0.45593999997E+02  0.45594000000E+02  0.51100000000E-03 0. -1.
    9900012    2    1    2    0    0 -0.10144345605E+01  0.53548852804E+00  0.27804853589E+00  0.90007687995E+02  0.89999948676E+02 0.  0.
        -12    1    1    2    0    0  0.10144345605E+01 -0.53548852804E+00 -0.27804853589E+00  0.11803120051E+01  0.00000000000E+00 0.  1.
         11    1    3    3    0    0 -0.32369309287E+02  0.93451608373E+01 -0.17060792298E+02  0.37764730224E+02  0.51100000000E-03 0. -1.
        -11    1    3    3    0    0 -0.74382857115E+01 -0.72109411880E+01  0.23422623063E+01  0.10621297478E+02  0.51100000000E-03 0.  1.
        -12    1    3    3    0    0  0.38793160438E+02 -0.15987311213E+01  0.14996578527E+02  0.41621660293E+02  0.00000000000E+00 0.  1.
</event>
<event>
 7    1  0.3863655E-015  0.9000773E+02  0.7816164E-02  0.1186339E+00
        -11   -1    0    0    0    0  0.00000000000E+00  0.00000000000E+00  0.45593999997E+02  0.45594000000E+02  0.51100000000E-03 0. -1.
         11   -1    0    0    0    0 -0.00000000000E+00 -0.00000000000E+00 -0.45593999997E+02  0.45594000000E+02  0.51100000000E-03 0.  1.
    9900012    2    1    2    0    0  0.50062431194E+00  0.28890415171E+00  0.10290566286E+01  0.90007725517E+02  0.89999986694E+02 0.  0.
        -12    1    1    2    0    0 -0.50062431194E+00 -0.28890415171E+00 -0.10290566286E+01  0.11802744831E+01  0.00000000000E+00 0.  1.
         11    1    3    3    0    0  0.18129635967E+02  0.37437461157E+02  0.63101245752E+01  0.42072138887E+02  0.51100000000E-03 0. -1.
        -11    1    3    3    0    0 -0.52133667509E+01 -0.38804688060E+01  0.77467216505E+01  0.10111821182E+02  0.51100000000E-03 0.  1.
        -12    1    3    3    0    0 -0.12415644904E+02 -0.33268088199E+02 -0.13027789597E+02  0.37823765447E+02  0.00000000000E+00 0.  1.
</event>
<event>
 7    1  0.3863655E-015  0.9000770E+02  0.7816164E-02  0.1186339E+00
        -11   -1    0    0    0    0  0.00000000000E+00  0.00000000000E+00  0.45593999997E+02  0.45594000000E+02  0.51100000000E-03 0. -1.
         11   -1    0    0    0    0 -0.00000000000E+00 -0.00000000000E+00 -0.45593999997E+02  0.45594000000E+02  0.51100000000E-03 0.  1.
    9900012    2    1    2    0    0  0.70086201488E+00 -0.94804380955E+00 -0.55806631947E-01  0.90007699611E+02  0.89999960446E+02 0.  0.
        -12    1    1    2    0    0 -0.70086201488E+00  0.94804380955E+00  0.55806631947E-01  0.11803003893E+01  0.00000000000E+00 0.  1.
         11    1    3    3    0    0 -0.18242124669E+01  0.86190899579E+01 -0.38928661796E+01  0.96317636070E+01  0.51100000000E-03 0. -1.
        -11    1    3    3    0    0 -0.10843380769E+02 -0.85975372692E+01 -0.35881096376E+02  0.38457114179E+02  0.51100000000E-03 0.  1.
         12    1    3    3    0    0  0.13368455251E+02 -0.96959649821E+00  0.39718155924E+02  0.41918821824E+02  0.00000000000E+00 0. -1.
</event>
<event>
 7    1  0.3863655E-015  0.9000774E+02  0.7816164E-02  0.1186339E+00
        -11   -1    0    0    0    0  0.00000000000E+00  0.00000000000E+00  0.45593999997E+02  0.45594000000E+02  0.51100000000E-03 0.  1.
         11   -1    0    0    0    0 -0.00000000000E+00 -0.00000000000E+00 -0.45593999997E+02  0.45594000000E+02  0.51100000000E-03 0. -1.
    9900012    2    1    2    0    0  0.98134545747E+00 -0.65555606074E+00 -0.14716302355E-01  0.90007741882E+02  0.90000003275E+02 0.  0.
        -12    1    1    2    0    0 -0.98134545747E+00  0.65555606074E+00  0.14716302355E-01  0.11802581181E+01  0.00000000000E+00 0.  1.
         11    1    3    3    0    0  0.34361882547E+01 -0.56853590944E+01  0.17027949457E+02  0.18277903620E+02  0.51100000000E-03 0. -1.
        -11    1    3    3    0    0  0.45924029933E+01 -0.31600735994E+02 -0.38527423149E+01  0.32164270616E+02  0.51100000000E-03 0.  1.
         12    1    3    3    0    0 -0.70472457906E+01  0.36630539028E+02 -0.13189923445E+02  0.39565567646E+02  0.00000000000E+00 0. -1.
</event>
<event>
 7    1  0.3863655E-015  0.9000774E+02  0.7816164E-02  0.1186339E+00
        -11   -1    0    0    0    0  0.00000000000E+00  0.00000000000E+00  0.45593999997E+02  0.45594000000E+02  0.51100000000E-03 0.  1.
         11   -1    0    0    0    0 -0.00000000000E+00 -0.00000000000E+00 -0.45593999997E+02  0.45594000000E+02  0.51100000000E-03 0. -1.
    9900012    2    1    2    0    0  0.71078384883E+00 -0.93733210241E+00 -0.95924017273E-01  0.90007743008E+02  0.90000004416E+02 0.  0.
        -12    1    1    2    0    0 -0.71078384883E+00  0.93733210241E+00  0.95924017273E-01  0.11802569920E+01  0.00000000000E+00 0.  1.
         11    1    3    3    0    0  0.91124141677E+01 -0.21923007818E+01  0.13373028209E+01  0.94673467127E+01  0.51100000000E-03 0. -1.
        -11    1    3    3    0    0 -0.65363541640E+01  0.22492233713E+02  0.32744003060E+02  0.40259088909E+02  0.51100000000E-03 0.  1.
         12    1    3    3    0    0 -0.18652761549E+01 -0.21237265033E+02 -0.34177229898E+02  0.40281307386E+02  0.00000000000E+00 0. -1.
</event>
<event>
 7    1  0.3863655E-015  0.9000781E+02  0.7816164E-02  0.1186339E+00
        -11   -1    0    0    0    0  0.00000000000E+00  0.00000000000E+00  0.45593999997E+02  0.45594000000E+02  0.51100000000E-03 0. -1.
         11   -1    0    0    0    0 -0.00000000000E+00 -0.00000000000E+00 -0.45593999997E+02  0.45594000000E+02  0.51100000000E-03 0.  1.
    9900012    2    1    2    0    0 -0.67065227658E+00 -0.70006654795E+00  0.67303217035E+00  0.90007813595E+02  0.90000075935E+02 0.  0.
        -12    1    1    2    0    0  0.67065227658E+00  0.70006654795E+00 -0.67303217035E+00  0.11801864048E+01  0.00000000000E+00 0.  1.
         11    1    3    3    0    0  0.99584702256E+01 -0.93594760825E+01 -0.43982712462E+00  0.13673491505E+02  0.51100000000E-03 0. -1.
        -11    1    3    3    0    0  0.25528568763E+01  0.41157716918E+02  0.14590758482E+01  0.41262617982E+02  0.51100000000E-03 0.  1.
         12    1    3    3    0    0 -0.13181979379E+02 -0.32498307384E+02 -0.34621655326E+00  0.35071704108E+02  0.00000000000E+00 0. -1.
</event>
<event>
 7    1  0.3863655E-015  0.9000821E+02  0.7816164E-02  0.1186338E+00
        -11   -1    0    0    0    0  0.00000000000E+00  0.00000000000E+00  0.45593999997E+02  0.45594000000E+02  0.51100000000E-03 0.  1.
         11   -1    0    0    0    0 -0.00000000000E+00 -0.00000000000E+00 -0.45593999997E+02  0.45594000000E+02  0.51100000000E-03 0. -1.
    9900012    2    1    2    0    0 -0.29000238522E-01  0.10512344880E+01 -0.53476346154E+00  0.90008208950E+02  0.90000476507E+02 0.  0.
        -12    1    1    2    0    0  0.29000238522E-01 -0.10512344880E+01  0.53476346154E+00  0.11797910503E+01  0.00000000000E+00 0.  1.
         11    1    3    3    0    0  0.44526496551E+01  0.74100784512E+01 -0.12802537478E+02  0.15447987498E+02  0.51100000000E-03 0. -1.
        -11    1    3    3    0    0  0.77136519782E+01 -0.24116447261E+02  0.35028563105E+02  0.43221565090E+02  0.51100000000E-03 0.  1.
         12    1    3    3    0    0 -0.12195301872E+02  0.17757603298E+02 -0.22760789089E+02  0.31338656362E+02  0.00000000000E+00 0. -1.
</event>
<event>
 7    1  0.3863655E-015  0.9000783E+02  0.7816164E-02  0.1186339E+00
        -11   -1    0    0    0    0  0.00000000000E+00  0.00000000000E+00  0.45593999997E+02  0.45594000000E+02  0.51100000000E-03 0.  1.
         11   -1    0    0    0    0 -0.00000000000E+00 -0.00000000000E+00 -0.45593999997E+02  0.45594000000E+02  0.51100000000E-03 0. -1.
    9900012    2    1    2    0    0 -0.29605380763E+00 -0.85444242645E+00 -0.75833878603E+00  0.90007831609E+02  0.90000094186E+02 0.  0.
        -12    1    1    2    0    0  0.29605380763E+00  0.85444242645E+00  0.75833878603E+00  0.11801683912E+01  0.00000000000E+00 0.  1.
         11    1    3    3    0    0 -0.82292767138E+01 -0.34633208901E+02 -0.10964610852E+02  0.37247856923E+02  0.51100000000E-03 0. -1.
        -11    1    3    3    0    0 -0.75793795455E+01 -0.49605604040E+01 -0.20101792210E+01  0.92787377686E+01  0.51100000000E-03 0.  1.
        -12    1    3    3    0    0  0.15512602452E+02  0.38739326878E+02  0.12216451287E+02  0.43481236917E+02  0.00000000000E+00 0.  1.
</event>
<event>
 7    1  0.3863655E-015  0.9000773E+02  0.7816164E-02  0.1186339E+00
        -11   -1    0    0    0    0  0.00000000000E+00  0.00000000000E+00  0.45593999997E+02  0.45594000000E+02  0.51100000000E-03 0. -1.
         11   -1    0    0    0    0 -0.00000000000E+00 -0.00000000000E+00 -0.45593999997E+02  0.45594000000E+02  0.51100000000E-03 0.  1.
    9900012    2    1    2    0    0 -0.58764770460E+00  0.64610411145E+00  0.79389222067E+00  0.90007726639E+02  0.89999987831E+02 0.  0.
        -12    1    1    2    0    0  0.58764770460E+00 -0.64610411145E+00 -0.79389222067E+00  0.11802733605E+01  0.00000000000E+00 0.  1.
         11    1    3    3    0    0  0.50394942854E+01 -0.90174339025E+01  0.29667884372E+01  0.10747671875E+02  0.51100000000E-03 0. -1.
        -11    1    3    3    0    0  0.32545425203E+02  0.19459081229E+02 -0.96957841236E+01  0.39139095211E+02  0.51100000000E-03 0.  1.
         12    1    3    3    0    0 -0.38172567193E+02 -0.97955432146E+01  0.75228879071E+01  0.40120959553E+02  0.00000000000E+00 0. -1.
</event>
<event>
 7    1  0.3863655E-015  0.9000768E+02  0.7816164E-02  0.1186339E+00
        -11   -1    0    0    0    0  0.00000000000E+00  0.00000000000E+00  0.45593999997E+02  0.45594000000E+02  0.51100000000E-03 0.  1.
         11   -1    0    0    0    0 -0.00000000000E+00 -0.00000000000E+00 -0.45593999997E+02  0.45594000000E+02  0.51100000000E-03 0. -1.
    9900012    2    1    2    0    0  0.26516878232E+00 -0.58763888874E+00 -0.98869365303E+00  0.90007682633E+02  0.89999943244E+02 0.  0.
        -12    1    1    2    0    0 -0.26516878232E+00  0.58763888874E+00  0.98869365303E+00  0.11803173667E+01  0.00000000000E+00 0.  1.
         11    1    3    3    0    0 -0.80640247540E+01  0.88743810867E+01 -0.79741545334E+01  0.14400356790E+02  0.51100000000E-03 0. -1.
        -11    1    3    3    0    0  0.20190335566E+01  0.32083056528E+02 -0.33872327503E+01  0.32324485435E+02  0.51100000000E-03 0.  1.
         12    1    3    3    0    0  0.63101599797E+01 -0.41545076503E+02  0.10372693631E+02  0.43282840408E+02  0.00000000000E+00 0. -1.
</event>
<event>
 7    1  0.3863655E-015  0.9000784E+02  0.7816164E-02  0.1186339E+00
        -11   -1    0    0    0    0  0.00000000000E+00  0.00000000000E+00  0.45593999997E+02  0.45594000000E+02  0.51100000000E-03 0.  1.
         11   -1    0    0    0    0 -0.00000000000E+00 -0.00000000000E+00 -0.45593999997E+02  0.45594000000E+02  0.51100000000E-03 0. -1.
    9900012    2    1    2    0    0 -0.74779403929E+00 -0.91014907969E+00  0.72239969680E-01  0.90007836500E+02  0.90000099142E+02 0.  0.
        -12    1    1    2    0    0  0.74779403929E+00  0.91014907969E+00 -0.72239969680E-01  0.11801634996E+01  0.00000000000E+00 0.  1.
         11    1    3    3    0    0  0.14921645987E+02  0.78652871331E+01  0.57429445770E+01  0.17818520514E+02  0.51100000000E-03 0. -1.
        -11    1    3    3    0    0 -0.60764640569E+01 -0.99619773103E+01  0.31599946955E+02  0.33685620896E+02  0.51100000000E-03 0.  1.
         12    1    3    3    0    0 -0.95929759694E+01  0.11865410976E+01 -0.37270651562E+02  0.38503695090E+02  0.00000000000E+00 0. -1.
</event>
<event>
 7    1  0.3863655E-015  0.9000772E+02  0.7816164E-02  0.1186339E+00
        -11   -1    0    0    0    0  0.00000000000E+00  0.00000000000E+00  0.45593999997E+02  0.45594000000E+02  0.51100000000E-03 0.  1.
         11   -1    0    0    0    0 -0.00000000000E+00 -0.00000000000E+00 -0.45593999997E+02  0.45594000000E+02  0.51100000000E-03 0. -1.
    9900012    2    1    2    0    0  0.33426128282E+00 -0.11283492211E+01 -0.90321794280E-01  0.90007720119E+02  0.89999981225E+02 0.  0.
        -12    1    1    2    0    0 -0.33426128282E+00  0.11283492211E+01  0.90321794280E-01  0.11802798806E+01  0.00000000000E+00 0.  1.
         11    1    3    3    0    0 -0.85834179024E+01  0.50381294964E+01 -0.37748843273E+02  0.39038864999E+02  0.51100000000E-03 0. -1.
        -11    1    3    3    0    0  0.10447864107E+02 -0.10195345552E+02  0.16359811271E+01  0.14689430549E+02  0.51100000000E-03 0.  1.
        -12    1    3    3    0    0 -0.15301849223E+01  0.40288668344E+01  0.36022540352E+02  0.36279424572E+02  0.00000000000E+00 0.  1.
</event>
<event>
 7    1  0.3863655E-015  0.9000779E+02  0.7816164E-02  0.1186339E+00
        -11   -1    0    0    0    0  0.00000000000E+00  0.00000000000E+00  0.45593999997E+02  0.45594000000E+02  0.51100000000E-03 0. -1.
         11   -1    0    0    0    0 -0.00000000000E+00 -0.00000000000E+00 -0.45593999997E+02  0.45594000000E+02  0.51100000000E-03 0.  1.
    9900012    2    1    2    0    0 -0.23713226331E+00  0.85627684125E+00  0.77681634699E+00  0.90007794350E+02  0.90000056435E+02 0.  0.
        -12    1    1    2    0    0  0.23713226331E+00 -0.85627684125E+00 -0.77681634699E+00  0.11802056499E+01  0.00000000000E+00 0.  1.
         11    1    3    3    0    0 -0.34823176669E+02 -0.35612597426E+00  0.15827021666E+02  0.38252778645E+02  0.51100000000E-03 0. -1.
        -11    1    3    3    0    0 -0.51524567820E+01  0.76025031562E+01 -0.39955250522E+01  0.10015492291E+02  0.51100000000E-03 0.  1.
        -12    1    3    3    0    0  0.39738501187E+02 -0.63901003407E+01 -0.11054680267E+02  0.41739523414E+02  0.00000000000E+00 0.  1.
</event>
<event>
 7    1  0.3863655E-015  0.9000771E+02  0.7816164E-02  0.1186339E+00
        -11   -1    0    0    0    0  0.00000000000E+00  0.00000000000E+00  0.45593999997E+02  0.45594000000E+02  0.51100000000E-03 0.  1.
         11   -1    0    0    0    0 -0.00000000000E+00 -0.00000000000E+00 -0.45593999997E+02  0.45594000000E+02  0.51100000000E-03 0. -1.
    9900012    2    1    2    0    0  0.85173186431E+00 -0.62249945309E+00 -0.52928461895E+00  0.90007705568E+02  0.89999966482E+02 0.  0.
        -12    1    1    2    0    0 -0.85173186431E+00  0.62249945309E+00  0.52928461895E+00  0.11802944318E+01  0.00000000000E+00 0.  1.
         11    1    3    3    0    0 -0.91924846593E+01  0.11831389336E+02 -0.33076087696E+02  0.36311308505E+02  0.51100000000E-03 0. -1.
        -11    1    3    3    0    0 -0.18082246521E+01 -0.48079971374E+01 -0.87007616067E+01  0.10103948024E+02  0.51100000000E-03 0.  1.
        -12    1    3    3    0    0  0.11852441176E+02 -0.76458916519E+01  0.41247564683E+02  0.43592449040E+02  0.00000000000E+00 0.  1.
</event>
<event>
 7    1  0.3863655E-015  0.9000768E+02  0.7816164E-02  0.1186339E+00
        -11   -1    0    0    0    0  0.00000000000E+00  0.00000000000E+00  0.45593999997E+02  0.45594000000E+02  0.51100000000E-03 0.  1.
         11   -1    0    0    0    0 -0.00000000000E+00 -0.00000000000E+00 -0.45593999997E+02  0.45594000000E+02  0.51100000000E-03 0. -1.
    9900012    2    1    2    0    0 -0.69486014425E+00  0.89582751518E+00  0.32835942191E+00  0.90007679083E+02  0.89999939647E+02 0.  0.
        -12    1    1    2    0    0  0.69486014425E+00 -0.89582751518E+00 -0.32835942191E+00  0.11803209169E+01  0.00000000000E+00 0.  1.
         11    1    3    3    0    0  0.26144353747E+02 -0.26280150081E+02  0.97816037888E+01  0.38338665784E+02  0.51100000000E-03 0. -1.
        -11    1    3    3    0    0 -0.16206993788E+01  0.15246648585E+01  0.10363689600E+02  0.10599874140E+02  0.51100000000E-03 0.  1.
        -12    1    3    3    0    0 -0.25218514513E+02  0.25651312738E+02 -0.19816933967E+02  0.41069139159E+02  0.00000000000E+00 0.  1.
</event>
<event>
 7    1  0.3863655E-015  0.9000760E+02  0.7816164E-02  0.1186339E+00
        -11   -1    0    0    0    0  0.00000000000E+00  0.00000000000E+00  0.45593999997E+02  0.45594000000E+02  0.51100000000E-03 0.  1.
         11   -1    0    0    0    0 -0.00000000000E+00 -0.00000000000E+00 -0.45593999997E+02  0.45594000000E+02  0.51100000000E-03 0. -1.
    9900012    2    1    2    0    0 -0.21892190578E+00 -0.73722832316E+00 -0.89549701431E+00  0.90007598668E+02  0.89999858171E+02 0.  0.
        -12    1    1    2    0    0  0.21892190578E+00  0.73722832316E+00  0.89549701431E+00  0.11804013317E+01  0.00000000000E+00 0.  1.
         11    1    3    3    0    0  0.77728098040E+01 -0.68018496360E+01  0.11598559054E+02  0.15530882238E+02  0.51100000000E-03 0. -1.
        -11    1    3    3    0    0  0.82622810733E+01  0.29103002780E+02  0.16141754526E+02  0.34290032061E+02  0.51100000000E-03 0.  1.
         12    1    3    3    0    0 -0.16254012783E+02 -0.23038381467E+02 -0.28635810594E+02  0.40186684368E+02  0.00000000000E+00 0. -1.
</event>
<event>
 7    1  0.3863655E-015  0.9000769E+02  0.7816164E-02  0.1186339E+00
        -11   -1    0    0    0    0  0.00000000000E+00  0.00000000000E+00  0.45593999997E+02  0.45594000000E+02  0.51100000000E-03 0.  1.
         11   -1    0    0    0    0 -0.00000000000E+00 -0.00000000000E+00 -0.45593999997E+02  0.45594000000E+02  0.51100000000E-03 0. -1.
    9900012    2    1    2    0    0 -0.65819651541E-01 -0.33888329605E-01 -0.11779906385E+01  0.90007685385E+02  0.89999946032E+02 0.  0.
        -12    1    1    2    0    0  0.65819651541E-01  0.33888329605E-01  0.11779906385E+01  0.11803146148E+01  0.00000000000E+00 0.  1.
         11    1    3    3    0    0 -0.18963291578E+01  0.49574282474E+01 -0.78402008478E+01  0.94678882913E+01  0.51100000000E-03 0. -1.
        -11    1    3    3    0    0 -0.35101106728E+02  0.15099494971E+02  0.25341666090E+01  0.38294966282E+02  0.51100000000E-03 0.  1.
         12    1    3    3    0    0  0.36931616234E+02 -0.20090811548E+02  0.41280436003E+01  0.42244830811E+02  0.00000000000E+00 0. -1.
</event>
<event>
 7    1  0.3863655E-015  0.9000801E+02  0.7816164E-02  0.1186338E+00
        -11   -1    0    0    0    0  0.00000000000E+00  0.00000000000E+00  0.45593999997E+02  0.45594000000E+02  0.51100000000E-03 0. -1.
         11   -1    0    0    0    0 -0.00000000000E+00 -0.00000000000E+00 -0.45593999997E+02  0.45594000000E+02  0.51100000000E-03 0.  1.
    9900012    2    1    2    0    0  0.53580590197E+00  0.73149398145E+00  0.75511174759E+00  0.90008014762E+02  0.90000279757E+02 0.  0.
        -12    1    1    2    0    0 -0.53580590197E+00 -0.73149398145E+00 -0.75511174759E+00  0.11799852376E+01  0.00000000000E+00 0.  1.
         11    1    3    3    0    0 -0.29135710180E+02 -0.28143070952E+01  0.20733353705E+01  0.29344652868E+02  0.51100000000E-03 0. -1.
        -11    1    3    3    0    0  0.29498164344E+01 -0.11404530935E+02  0.20099102503E+02  0.23296752232E+02  0.51100000000E-03 0.  1.
        -12    1    3    3    0    0  0.26721699647E+02  0.14950332012E+02 -0.21417326126E+02  0.37366609663E+02  0.00000000000E+00 0.  1.
</event>
<event>
 7    1  0.3863655E-015  0.9000718E+02  0.7816164E-02  0.1186340E+00
        -11   -1    0    0    0    0  0.00000000000E+00  0.00000000000E+00  0.45593999997E+02  0.45594000000E+02  0.51100000000E-03 0.  1.
         11   -1    0    0    0    0 -0.00000000000E+00 -0.00000000000E+00 -0.45593999997E+02  0.45594000000E+02  0.51100000000E-03 0. -1.
    9900012    2    1    2    0    0  0.36016059562E+00 -0.11085925618E+01 -0.18881009728E+00  0.90007177246E+02  0.89999431184E+02 0.  0.
        -12    1    1    2    0    0 -0.36016059562E+00  0.11085925618E+01  0.18881009728E+00  0.11808227537E+01  0.00000000000E+00 0.  1.
         11    1    3    3    0    0  0.12174373791E+01 -0.58655342795E+01  0.70742128713E+01  0.92699047550E+01  0.51100000000E-03 0. -1.
        -11    1    3    3    0    0 -0.16583562026E+02  0.36963826890E+02  0.88046809068E+01  0.41459153801E+02  0.51100000000E-03 0.  1.
         12    1    3    3    0    0  0.15726285242E+02 -0.32206885172E+02 -0.16067703875E+02  0.39278118690E+02  0.00000000000E+00 0. -1.
</event>
<event>
 7    1  0.3863655E-015  0.9000787E+02  0.7816164E-02  0.1186339E+00
        -11   -1    0    0    0    0  0.00000000000E+00  0.00000000000E+00  0.45593999997E+02  0.45594000000E+02  0.51100000000E-03 0. -1.
         11   -1    0    0    0    0 -0.00000000000E+00 -0.00000000000E+00 -0.45593999997E+02  0.45594000000E+02  0.51100000000E-03 0.  1.
    9900012    2    1    2    0    0  0.72967055924E+00 -0.20912489204E+00  0.90363237142E+00  0.90007871275E+02  0.90000134375E+02 0.  0.
        -12    1    1    2    0    0 -0.72967055924E+00  0.20912489204E+00 -0.90363237142E+00  0.11801287253E+01  0.00000000000E+00 0.  1.
         11    1    3    3    0    0  0.30042701092E+01 -0.85061997226E+01 -0.17137510228E+01  0.91824841650E+01  0.51100000000E-03 0. -1.
        -11    1    3    3    0    0  0.22050963764E+02  0.25944556177E+02  0.25923345542E+02  0.42794682409E+02  0.51100000000E-03 0.  1.
         12    1    3    3    0    0 -0.24325563314E+02 -0.17647481347E+02 -0.23305962147E+02  0.38030704701E+02  0.00000000000E+00 0. -1.
</event>
<event>
 7    1  0.3863655E-015  0.9000771E+02  0.7816164E-02  0.1186339E+00
        -11   -1    0    0    0    0  0.00000000000E+00  0.00000000000E+00  0.45593999997E+02  0.45594000000E+02  0.51100000000E-03 0.  1.
         11   -1    0    0    0    0 -0.00000000000E+00 -0.00000000000E+00 -0.45593999997E+02  0.45594000000E+02  0.51100000000E-03 0. -1.
    9900012    2    1    2    0    0 -0.71319124186E+00 -0.93992750581E+00  0.31366496917E-01  0.90007707951E+02  0.89999968896E+02 0.  0.
        -12    1    1    2    0    0  0.71319124186E+00  0.93992750581E+00 -0.31366496917E-01  0.11802920489E+01  0.00000000000E+00 0.  1.
         11    1    3    3    0    0  0.45215863845E+01  0.38063590093E+02  0.36113970125E+01  0.38500958726E+02  0.51100000000E-03 0. -1.
        -11    1    3    3    0    0  0.17075378740E+01  0.54595911805E+01 -0.30914044206E+01  0.65022767553E+01  0.51100000000E-03 0.  1.
        -12    1    3    3    0    0 -0.69423155003E+01 -0.44463108779E+02 -0.48862609490E+00  0.45004472470E+02  0.00000000000E+00 0.  1.
</event>
<event>
 7    1  0.3863655E-015  0.9000780E+02  0.7816164E-02  0.1186339E+00
        -11   -1    0    0    0    0  0.00000000000E+00  0.00000000000E+00  0.45593999997E+02  0.45594000000E+02  0.51100000000E-03 0.  1.
         11   -1    0    0    0    0 -0.00000000000E+00 -0.00000000000E+00 -0.45593999997E+02  0.45594000000E+02  0.51100000000E-03 0. -1.
    9900012    2    1    2    0    0 -0.40277930032E+00 -0.90265179431E-01 -0.11056667507E+01  0.90007797504E+02  0.90000059631E+02 0.  0.
        -12    1    1    2    0    0  0.40277930032E+00  0.90265179431E-01  0.11056667507E+01  0.11802024958E+01  0.00000000000E+00 0.  1.
         11    1    3    3    0    0  0.62452952843E+00  0.12078856391E+02  0.40473198284E+01  0.12754199579E+02  0.51100000000E-03 0. -1.
        -11    1    3    3    0    0  0.91648481933E+01  0.24404247130E+02  0.18997721834E+02  0.32256397126E+02  0.51100000000E-03 0.  1.
         12    1    3    3    0    0 -0.10192157022E+02 -0.36573368701E+02 -0.24150708414E+02  0.44997200799E+02  0.00000000000E+00 0. -1.
</event>
<event>
 7    1  0.3863655E-015  0.9000774E+02  0.7816164E-02  0.1186339E+00
        -11   -1    0    0    0    0  0.00000000000E+00  0.00000000000E+00  0.45593999997E+02  0.45594000000E+02  0.51100000000E-03 0.  1.
         11   -1    0    0    0    0 -0.00000000000E+00 -0.00000000000E+00 -0.45593999997E+02  0.45594000000E+02  0.51100000000E-03 0. -1.
    9900012    2    1    2    0    0 -0.24565817047E+00  0.67328940314E+00 -0.93773191783E+00  0.90007742525E+02  0.90000003927E+02 0.  0.
        -12    1    1    2    0    0  0.24565817047E+00 -0.67328940314E+00  0.93773191783E+00  0.11802574748E+01  0.00000000000E+00 0.  1.
         11    1    3    3    0    0  0.29546210845E+02  0.31991974375E+01 -0.24535409159E+02  0.38538289303E+02  0.51100000000E-03 0. -1.
        -11    1    3    3    0    0  0.59423655328E+01  0.54507594770E+01  0.89167915646E+01  0.12022132052E+02  0.51100000000E-03 0.  1.
        -12    1    3    3    0    0 -0.35734234548E+02 -0.79766675114E+01  0.14680885677E+02  0.39447321171E+02  0.00000000000E+00 0.  1.
</event>
<event>
 7    1  0.3863655E-015  0.9000837E+02  0.7816164E-02  0.1186338E+00
        -11   -1    0    0    0    0  0.00000000000E+00  0.00000000000E+00  0.45593999997E+02  0.45594000000E+02  0.51100000000E-03 0.  1.
         11   -1    0    0    0    0 -0.00000000000E+00 -0.00000000000E+00 -0.45593999997E+02  0.45594000000E+02  0.51100000000E-03 0. -1.
    9900012    2    1    2    0    0  0.45139568339E+00 -0.10773335571E+01 -0.16467743009E+00  0.90008371112E+02  0.90000640809E+02 0.  0.
        -12    1    1    2    0    0 -0.45139568339E+00  0.10773335571E+01  0.16467743009E+00  0.11796288875E+01  0.00000000000E+00 0.  1.
         11    1    3    3    0    0  0.40112863958E+01 -0.61971957318E+00  0.56128028310E+01  0.69266172682E+01  0.51100000000E-03 0. -1.
        -11    1    3    3    0    0  0.28905165072E+01 -0.34735908599E+01  0.38232908690E+02  0.38499041888E+02  0.51100000000E-03 0.  1.
         12    1    3    3    0    0 -0.64504072197E+01  0.30159768760E+01 -0.44010388951E+02  0.44582711957E+02  0.00000000000E+00 0. -1.
</event>
<event>
 7    1  0.3863655E-015  0.9000778E+02  0.7816164E-02  0.1186339E+00
        -11   -1    0    0    0    0  0.00000000000E+00  0.00000000000E+00  0.45593999997E+02  0.45594000000E+02  0.51100000000E-03 0. -1.
         11   -1    0    0    0    0 -0.00000000000E+00 -0.00000000000E+00 -0.45593999997E+02  0.45594000000E+02  0.51100000000E-03 0.  1.
    9900012    2    1    2    0    0 -0.85513202891E-01 -0.11417332621E+01 -0.28646300080E+00  0.90007776123E+02  0.90000037968E+02 0.  0.
        -12    1    1    2    0    0  0.85513202891E-01  0.11417332621E+01  0.28646300080E+00  0.11802238773E+01  0.00000000000E+00 0.  1.
         11    1    3    3    0    0 -0.50965810506E+01 -0.66416020864E+01 -0.33861557754E+01  0.90306183551E+01  0.51100000000E-03 0. -1.
        -11    1    3    3    0    0 -0.31899046615E+02 -0.18513088823E+02  0.11327949761E+01  0.36899415408E+02  0.51100000000E-03 0.  1.
         12    1    3    3    0    0  0.36910114463E+02  0.24012957647E+02  0.19668977985E+01  0.44077742360E+02  0.00000000000E+00 0. -1.
</event>
<event>
 7    1  0.3863655E-015  0.9000721E+02  0.7816164E-02  0.1186340E+00
        -11   -1    0    0    0    0  0.00000000000E+00  0.00000000000E+00  0.45593999997E+02  0.45594000000E+02  0.51100000000E-03 0.  1.
         11   -1    0    0    0    0 -0.00000000000E+00 -0.00000000000E+00 -0.45593999997E+02  0.45594000000E+02  0.51100000000E-03 0. -1.
    9900012    2    1    2    0    0 -0.99278435093E+00 -0.31894463545E+00 -0.55399321561E+00  0.90007214274E+02  0.89999468701E+02 0.  0.
        -12    1    1    2    0    0  0.99278435093E+00  0.31894463545E+00  0.55399321561E+00  0.11807857261E+01  0.00000000000E+00 0.  1.
         11    1    3    3    0    0  0.12350735370E+02 -0.30720104336E+02 -0.13177046789E+02  0.35635656819E+02  0.51100000000E-03 0. -1.
        -11    1    3    3    0    0  0.72029685108E+01 -0.61500241388E+01 -0.25029038750E+01  0.97964320211E+01  0.51100000000E-03 0.  1.
        -12    1    3    3    0    0 -0.20546488232E+02  0.36551183839E+02  0.15125957448E+02  0.44575125434E+02  0.00000000000E+00 0.  1.
</event>
<event>
 7    1  0.3863655E-015  0.9000782E+02  0.7816164E-02  0.1186339E+00
        -11   -1    0    0    0    0  0.00000000000E+00  0.00000000000E+00  0.45593999997E+02  0.45594000000E+02  0.51100000000E-03 0.  1.
         11   -1    0    0    0    0 -0.00000000000E+00 -0.00000000000E+00 -0.45593999997E+02  0.45594000000E+02  0.51100000000E-03 0. -1.
    9900012    2    1    2    0    0 -0.91172219236E+00  0.25332713500E+00  0.70528166091E+00  0.90007816025E+02  0.90000078397E+02 0.  0.
        -12    1    1    2    0    0  0.91172219236E+00 -0.25332713500E+00 -0.70528166091E+00  0.11801839749E+01  0.00000000000E+00 0.  1.
         11    1    3    3    0    0  0.18711161695E+02  0.15234400504E+02 -0.23792033640E+02  0.33885917365E+02  0.51100000000E-03 0. -1.
        -11    1    3    3    0    0 -0.28650581575E+00  0.77258754558E+01 -0.86034210341E+01  0.11566766657E+02  0.51100000000E-03 0.  1.
        -12    1    3    3    0    0 -0.19336378072E+02 -0.22706948825E+02  0.33100736335E+02  0.44555132003E+02  0.00000000000E+00 0.  1.
</event>
<event>
 7    1  0.3863655E-015  0.9000771E+02  0.7816164E-02  0.1186339E+00
        -11   -1    0    0    0    0  0.00000000000E+00  0.00000000000E+00  0.45593999997E+02  0.45594000000E+02  0.51100000000E-03 0.  1.
         11   -1    0    0    0    0 -0.00000000000E+00 -0.00000000000E+00 -0.45593999997E+02  0.45594000000E+02  0.51100000000E-03 0. -1.
    9900012    2    1    2    0    0 -0.13854412740E+00 -0.10928713358E+01  0.42371158634E+00  0.90007706079E+02  0.89999966999E+02 0.  0.
        -12    1    1    2    0    0  0.13854412740E+00  0.10928713358E+01 -0.42371158634E+00  0.11802939211E+01  0.00000000000E+00 0.  1.
         11    1    3    3    0    0  0.51981743047E+01 -0.40037723092E+01 -0.75251398623E+01  0.99839340450E+01  0.51100000000E-03 0. -1.
        -11    1    3    3    0    0  0.29836812691E+02 -0.19559759929E+02 -0.56597172109E+01  0.36122735212E+02  0.51100000000E-03 0.  1.
         12    1    3    3    0    0 -0.35173531123E+02  0.22470660902E+02  0.13608568660E+02  0.43901036822E+02  0.00000000000E+00 0. -1.
</event>
<event>
 7    1  0.3863655E-015  0.9000770E+02  0.7816164E-02  0.1186339E+00
        -11   -1    0    0    0    0  0.00000000000E+00  0.00000000000E+00  0.45593999997E+02  0.45594000000E+02  0.51100000000E-03 0.  1.
         11   -1    0    0    0    0 -0.00000000000E+00 -0.00000000000E+00 -0.45593999997E+02  0.45594000000E+02  0.51100000000E-03 0. -1.
    9900012    2    1    2    0    0 -0.57913710326E+00  0.99244791201E+00 -0.26973032936E+00  0.90007700422E+02  0.89999961268E+02 0.  0.
        -12    1    1    2    0    0  0.57913710326E+00 -0.99244791201E+00  0.26973032936E+00  0.11802995777E+01  0.00000000000E+00 0.  1.
         11    1    3    3    0    0  0.19596204796E+02  0.23375129580E+02 -0.27887018224E+02  0.41329090372E+02  0.51100000000E-03 0. -1.
        -11    1    3    3    0    0 -0.39409403035E+01 -0.70669594756E+01 -0.47346695120E+01  0.93749678588E+01  0.51100000000E-03 0.  1.
        -12    1    3    3    0    0 -0.16234401596E+02 -0.15315722193E+02  0.32351957407E+02  0.39303642191E+02  0.00000000000E+00 0.  1.
</event>
<event>
 7    1  0.3863655E-015  0.9000771E+02  0.7816164E-02  0.1186339E+00
        -11   -1    0    0    0    0  0.00000000000E+00  0.00000000000E+00  0.45593999997E+02  0.45594000000E+02  0.51100000000E-03 0.  1.
         11   -1    0    0    0    0 -0.00000000000E+00 -0.00000000000E+00 -0.45593999997E+02  0.45594000000E+02  0.51100000000E-03 0. -1.
    9900012    2    1    2    0    0 -0.55744403524E+00 -0.62139480864E+00 -0.83439077200E+00  0.90007710493E+02  0.89999971471E+02 0.  0.
        -12    1    1    2    0    0  0.55744403524E+00  0.62139480864E+00  0.83439077200E+00  0.11802895073E+01  0.00000000000E+00 0.  1.
         11    1    3    3    0    0  0.10541510894E+02  0.15741054375E+02 -0.34914435750E+02  0.39723067212E+02  0.51100000000E-03 0. -1.
        -11    1    3    3    0    0  0.82847468334E+01 -0.47106744273E+01  0.17895181587E+00  0.95320253706E+01  0.51100000000E-03 0.  1.
        -12    1    3    3    0    0 -0.19383701762E+02 -0.11651774756E+02  0.33901093162E+02  0.40752617910E+02  0.00000000000E+00 0.  1.
</event>
<event>
 7    1  0.3863655E-015  0.9000773E+02  0.7816164E-02  0.1186339E+00
        -11   -1    0    0    0    0  0.00000000000E+00  0.00000000000E+00  0.45593999997E+02  0.45594000000E+02  0.51100000000E-03 0. -1.
         11   -1    0    0    0    0 -0.00000000000E+00 -0.00000000000E+00 -0.45593999997E+02  0.45594000000E+02  0.51100000000E-03 0.  1.
    9900012    2    1    2    0    0  0.88879343992E+00  0.49978183420E+00  0.59438340320E+00  0.90007734229E+02  0.89999995521E+02 0.  0.
        -12    1    1    2    0    0 -0.88879343992E+00 -0.49978183420E+00 -0.59438340320E+00  0.11802657712E+01  0.00000000000E+00 0.  1.
         11    1    3    3    0    0 -0.17173822307E+02 -0.35906993467E+02  0.23753946695E+01  0.39873485583E+02  0.51100000000E-03 0. -1.
        -11    1    3    3    0    0  0.62635513615E+01 -0.32462961608E+01 -0.49861370934E+01  0.86389859241E+01  0.51100000000E-03 0.  1.
        -12    1    3    3    0    0  0.11799064385E+02  0.39653071462E+02  0.32051258271E+01  0.41495262721E+02  0.00000000000E+00 0.  1.
</event>
<event>
 7    1  0.3863655E-015  0.9000768E+02  0.7816164E-02  0.1186339E+00
        -11   -1    0    0    0    0  0.00000000000E+00  0.00000000000E+00  0.45593999997E+02  0.45594000000E+02  0.51100000000E-03 0. -1.
         11   -1    0    0    0    0 -0.00000000000E+00 -0.00000000000E+00 -0.45593999997E+02  0.45594000000E+02  0.51100000000E-03 0.  1.
    9900012    2    1    2    0    0 -0.50392633661E+00  0.11409261600E+00  0.10612198765E+01  0.90007683727E+02  0.89999944352E+02 0.  0.
        -12    1    1    2    0    0  0.50392633661E+00 -0.11409261600E+00 -0.10612198765E+01  0.11803162729E+01  0.00000000000E+00 0.  1.
         11    1    3    3    0    0 -0.47171496283E+01 -0.93470980638E+01 -0.57017668091E+01  0.11921824015E+02  0.51100000000E-03 0. -1.
        -11    1    3    3    0    0 -0.42088417288E+01 -0.22897212446E+02 -0.23433563303E+02  0.33032235405E+02  0.51100000000E-03 0.  1.
         12    1    3    3    0    0  0.84220650205E+01  0.32358403125E+02  0.30196549989E+02  0.45053624308E+02  0.00000000000E+00 0. -1.
</event>
<event>
 7    1  0.3863655E-015  0.9000772E+02  0.7816164E-02  0.1186339E+00
        -11   -1    0    0    0    0  0.00000000000E+00  0.00000000000E+00  0.45593999997E+02  0.45594000000E+02  0.51100000000E-03 0.  1.
         11   -1    0    0    0    0 -0.00000000000E+00 -0.00000000000E+00 -0.45593999997E+02  0.45594000000E+02  0.51100000000E-03 0. -1.
    9900012    2    1    2    0    0  0.98726252242E+00 -0.40160627554E+00 -0.50704761540E+00  0.90007715215E+02  0.89999976256E+02 0.  0.
        -12    1    1    2    0    0 -0.98726252242E+00  0.40160627554E+00  0.50704761540E+00  0.11802847847E+01  0.00000000000E+00 0.  1.
         11    1    3    3    0    0 -0.11949220833E+01  0.10194166813E+02 -0.25588280082E+01  0.10578113104E+02  0.51100000000E-03 0. -1.
        -11    1    3    3    0    0 -0.53316342222E-01  0.33515454252E+02 -0.72553300868E+01  0.34291811432E+02  0.51100000000E-03 0.  1.
         12    1    3    3    0    0  0.22355009480E+01 -0.44111227341E+02  0.93071104796E+01  0.45137790680E+02  0.00000000000E+00 0. -1.
</event>
<event>
 7    1  0.3863655E-015  0.9000774E+02  0.7816164E-02  0.1186339E+00
        -11   -1    0    0    0    0  0.00000000000E+00  0.00000000000E+00  0.45593999997E+02  0.45594000000E+02  0.51100000000E-03 0.  1.
         11   -1    0    0    0    0 -0.00000000000E+00 -0.00000000000E+00 -0.45593999997E+02  0.45594000000E+02  0.51100000000E-03 0. -1.
    9900012    2    1    2    0    0 -0.11801137750E+01 -0.18259493493E-01 -0.10270172106E-02  0.90007744525E+02  0.90000005953E+02 0.  0.
        -12    1    1    2    0    0  0.11801137750E+01  0.18259493493E-01  0.10270172106E-02  0.11802554748E+01  0.00000000000E+00 0.  1.
         11    1    3    3    0    0 -0.44688725501E+01  0.25293389581E+01  0.87318941590E+01  0.10129874298E+02  0.51100000000E-03 0. -1.
        -11    1    3    3    0    0  0.14534460981E+02 -0.38804139223E+02 -0.42983413068E+01  0.41659182842E+02  0.51100000000E-03 0.  1.
         12    1    3    3    0    0 -0.11245702205E+02  0.36256540771E+02 -0.44345798695E+01  0.38218687385E+02  0.00000000000E+00 0. -1.
</event>
<event>
 7    1  0.3863655E-015  0.9000771E+02  0.7816164E-02  0.1186339E+00
        -11   -1    0    0    0    0  0.00000000000E+00  0.00000000000E+00  0.45593999997E+02  0.45594000000E+02  0.51100000000E-03 0. -1.
         11   -1    0    0    0    0 -0.00000000000E+00 -0.00000000000E+00 -0.45593999997E+02  0.45594000000E+02  0.51100000000E-03 0.  1.
    9900012    2    1    2    0    0  0.13990062322E+00  0.11254698222E+01  0.32683574868E+00  0.90007713547E+02  0.89999974566E+02 0.  0.
        -12    1    1    2    0    0 -0.13990062322E+00 -0.11254698222E+01 -0.32683574868E+00  0.11802864532E+01  0.00000000000E+00 0.  1.
         11    1    3    3    0    0 -0.29452500732E+01  0.28676109160E+02  0.29080131234E+02  0.40946889594E+02  0.51100000000E-03 0. -1.
        -11    1    3    3    0    0  0.24735294611E+01  0.57809988928E+01 -0.60591686657E+01  0.87322288893E+01  0.51100000000E-03 0.  1.
        -12    1    3    3    0    0  0.61162123536E+00 -0.33331638231E+02 -0.22694126820E+02  0.40328595064E+02  0.00000000000E+00 0.  1.
</event>
<event>
 7    1  0.3863655E-015  0.9000773E+02  0.7816164E-02  0.1186339E+00
        -11   -1    0    0    0    0  0.00000000000E+00  0.00000000000E+00  0.45593999997E+02  0.45594000000E+02  0.51100000000E-03 0. -1.
         11   -1    0    0    0    0 -0.00000000000E+00 -0.00000000000E+00 -0.45593999997E+02  0.45594000000E+02  0.51100000000E-03 0.  1.
    9900012    2    1    2    0    0  0.16066619162E+00  0.41302291755E+00  0.10939080511E+01  0.90007730378E+02  0.89999991619E+02 0.  0.
        -12    1    1    2    0    0 -0.16066619162E+00 -0.41302291755E+00 -0.10939080511E+01  0.11802696217E+01  0.00000000000E+00 0.  1.
         11    1    3    3    0    0  0.23770776361E+01 -0.98147686255E+01 -0.21445263331E+01  0.10323719035E+02  0.51100000000E-03 0. -1.
        -11    1    3    3    0    0  0.20882839300E+02 -0.14622878640E+02 -0.24877215856E+02  0.35620182845E+02  0.51100000000E-03 0.  1.
         12    1    3    3    0    0 -0.23099250744E+02  0.24850670183E+02  0.28115650240E+02  0.44063828498E+02  0.00000000000E+00 0. -1.
</event>
<event>
 7    1  0.3863655E-015  0.9000796E+02  0.7816164E-02  0.1186339E+00
        -11   -1    0    0    0    0  0.00000000000E+00  0.00000000000E+00  0.45593999997E+02  0.45594000000E+02  0.51100000000E-03 0. -1.
         11   -1    0    0    0    0 -0.00000000000E+00 -0.00000000000E+00 -0.45593999997E+02  0.45594000000E+02  0.51100000000E-03 0.  1.
    9900012    2    1    2    0    0 -0.25609433736E+00  0.11325624610E+01 -0.21028265598E+00  0.90007957275E+02  0.90000221511E+02 0.  0.
        -12    1    1    2    0    0  0.25609433736E+00 -0.11325624610E+01  0.21028265598E+00  0.11800427251E+01  0.00000000000E+00 0.  1.
         11    1    3    3    0    0  0.66255945406E+01 -0.19822894460E+01  0.35101450941E+02  0.35776246769E+02  0.51100000000E-03 0. -1.
        -11    1    3    3    0    0 -0.13100138466E+01  0.25527857857E+01  0.90623150285E+01  0.95057038394E+01  0.51100000000E-03 0.  1.
        -12    1    3    3    0    0 -0.55716750313E+01  0.56206612120E+00 -0.44374048625E+02  0.44726006667E+02  0.00000000000E+00 0.  1.
</event>
<event>
 7    1  0.3863655E-015  0.9000777E+02  0.7816164E-02  0.1186339E+00
        -11   -1    0    0    0    0  0.00000000000E+00  0.00000000000E+00  0.45593999997E+02  0.45594000000E+02  0.51100000000E-03 0.  1.
         11   -1    0    0    0    0 -0.00000000000E+00 -0.00000000000E+00 -0.45593999997E+02  0.45594000000E+02  0.51100000000E-03 0. -1.
    9900012    2    1    2    0    0  0.79678318265E+00  0.70810553476E+00 -0.50662910171E+00  0.90007767000E+02  0.90000028724E+02 0.  0.
        -12    1    1    2    0    0 -0.79678318265E+00 -0.70810553476E+00  0.50662910171E+00  0.11802330004E+01  0.00000000000E+00 0.  1.
         11    1    3    3    0    0  0.74944669606E+00  0.77307413026E+01  0.70620591392E+01  0.10497557382E+02  0.51100000000E-03 0. -1.
        -11    1    3    3    0    0 -0.16691704608E+02 -0.17245901200E+01  0.32049003838E+02  0.36176316300E+02  0.51100000000E-03 0.  1.
         12    1    3    3    0    0  0.16739041094E+02 -0.52980456478E+01 -0.39617692079E+02  0.43333893318E+02  0.00000000000E+00 0. -1.
</event>
<event>
 7    1  0.3863655E-015  0.9000771E+02  0.7816164E-02  0.1186339E+00
        -11   -1    0    0    0    0  0.00000000000E+00  0.00000000000E+00  0.45593999997E+02  0.45594000000E+02  0.51100000000E-03 0.  1.
         11   -1    0    0    0    0 -0.00000000000E+00 -0.00000000000E+00 -0.45593999997E+02  0.45594000000E+02  0.51100000000E-03 0. -1.
    9900012    2    1    2    0    0  0.33080541073E+00  0.66290336992E+00 -0.91881111987E+00  0.90007708946E+02  0.89999969904E+02 0.  0.
        -12    1    1    2    0    0 -0.33080541073E+00 -0.66290336992E+00  0.91881111987E+00  0.11802910538E+01  0.00000000000E+00 0.  1.
         11    1    3    3    0    0  0.26995150418E+02  0.20783380345E+02  0.28468704521E+02  0.44397682169E+02  0.51100000000E-03 0. -1.
        -11    1    3    3    0    0 -0.42458941668E+01 -0.77149162819E+01 -0.44942412272E+01  0.98866452845E+01  0.51100000000E-03 0.  1.
        -12    1    3    3    0    0 -0.22418450841E+02 -0.12405560693E+02 -0.24893274414E+02  0.35723381492E+02  0.00000000000E+00 0.  1.
</event>
<event>
 7    1  0.3863655E-015  0.9000774E+02  0.7816164E-02  0.1186339E+00
        -11   -1    0    0    0    0  0.00000000000E+00  0.00000000000E+00  0.45593999997E+02  0.45594000000E+02  0.51100000000E-03 0.  1.
         11   -1    0    0    0    0 -0.00000000000E+00 -0.00000000000E+00 -0.45593999997E+02  0.45594000000E+02  0.51100000000E-03 0. -1.
    9900012    2    1    2    0    0 -0.88741177419E+00 -0.35717358236E+00 -0.69133302761E+00  0.90007739868E+02  0.90000001234E+02 0.  0.
        -12    1    1    2    0    0  0.88741177419E+00  0.35717358236E+00  0.69133302761E+00  0.11802601323E+01  0.00000000000E+00 0.  1.
         11    1    3    3    0    0 -0.87542790800E+01 -0.38656364085E+01 -0.19748885266E+02  0.21945364352E+02  0.51100000000E-03 0. -1.
        -11    1    3    3    0    0 -0.16540582909E+02 -0.20159461304E+02 -0.48178934107E+01  0.26518047821E+02  0.51100000000E-03 0.  1.
        -12    1    3    3    0    0  0.24407450215E+02  0.23667924131E+02  0.23875445649E+02  0.41544327694E+02  0.00000000000E+00 0.  1.
</event>
<event>
 7    1  0.3863655E-015  0.9000768E+02  0.7816164E-02  0.1186339E+00
        -11   -1    0    0    0    0  0.00000000000E+00  0.00000000000E+00  0.45593999997E+02  0.45594000000E+02  0.51100000000E-03 0.  1.
         11   -1    0    0    0    0 -0.00000000000E+00 -0.00000000000E+00 -0.45593999997E+02  0.45594000000E+02  0.51100000000E-03 0. -1.
    9900012    2    1    2    0    0 -0.77893038059E+00  0.87247923648E+00 -0.15875889662E+00  0.90007679305E+02  0.89999939872E+02 0.  0.
        -12    1    1    2    0    0  0.77893038059E+00 -0.87247923648E+00  0.15875889662E+00  0.11803206950E+01  0.00000000000E+00 0.  1.
         11    1    3    3    0    0 -0.35768961776E+01  0.86783759405E+01  0.48858063786E+01  0.10582036640E+02  0.51100000000E-03 0. -1.
        -11    1    3    3    0    0  0.27483906030E+02  0.14244684621E+02  0.20915593928E+02  0.37359579765E+02  0.51100000000E-03 0.  1.
         12    1    3    3    0    0 -0.24685940233E+02 -0.22050581325E+02 -0.25960159204E+02  0.42066062899E+02  0.00000000000E+00 0. -1.
</event>
<event>
 7    1  0.3863655E-015  0.9000762E+02  0.7816164E-02  0.1186339E+00
        -11   -1    0    0    0    0  0.00000000000E+00  0.00000000000E+00  0.45593999997E+02  0.45594000000E+02  0.51100000000E-03 0.  1.
         11   -1    0    0    0    0 -0.00000000000E+00 -0.00000000000E+00 -0.45593999997E+02  0.45594000000E+02  0.51100000000E-03 0. -1.
    9900012    2    1    2    0    0  0.77704875636E+00  0.15468658478E+00 -0.87496671988E+00  0.90007618930E+02  0.89999878700E+02 0.  0.
        -12    1    1    2    0    0 -0.77704875636E+00 -0.15468658478E+00  0.87496671988E+00  0.11803810699E+01  0.00000000000E+00 0.  1.
         11    1    3    3    0    0  0.25224698919E+02  0.22136097717E+02 -0.17711657719E+02  0.37947267057E+02  0.51100000000E-03 0. -1.
        -11    1    3    3    0    0  0.67976758936E+01  0.12825888577E+00 -0.45816898413E+01  0.81985809723E+01  0.51100000000E-03 0.  1.
        -12    1    3    3    0    0 -0.31245326056E+02 -0.22109670018E+02  0.21418380841E+02  0.43861770900E+02  0.00000000000E+00 0.  1.
</event>
<event>
 7    1  0.3863655E-015  0.9000823E+02  0.7816164E-02  0.1186338E+00
        -11   -1    0    0    0    0  0.00000000000E+00  0.00000000000E+00  0.45593999997E+02  0.45594000000E+02  0.51100000000E-03 0. -1.
         11   -1    0    0    0    0 -0.00000000000E+00 -0.00000000000E+00 -0.45593999997E+02  0.45594000000E+02  0.51100000000E-03 0.  1.
    9900012    2    1    2    0    0  0.10633000866E+01 -0.24861813980E+00  0.44659791228E+00  0.90008225552E+02  0.90000493328E+02 0.  0.
        -12    1    1    2    0    0 -0.10633000866E+01  0.24861813980E+00 -0.44659791228E+00  0.11797744483E+01  0.00000000000E+00 0.  1.
         11    1    3    3    0    0  0.67706074344E+01 -0.19073690865E+01 -0.67495291346E+01  0.97486063446E+01  0.51100000000E-03 0. -1.
        -11    1    3    3    0    0  0.11478202827E+02 -0.10887025988E+02 -0.31979476271E+02  0.35678612330E+02  0.51100000000E-03 0.  1.
         12    1    3    3    0    0 -0.17185510175E+02  0.12545776935E+02  0.39175603318E+02  0.44581006877E+02  0.00000000000E+00 0. -1.
</event>
<event>
 7    1  0.3863655E-015  0.9000771E+02  0.7816164E-02  0.1186339E+00
        -11   -1    0    0    0    0  0.00000000000E+00  0.00000000000E+00  0.45593999997E+02  0.45594000000E+02  0.51100000000E-03 0. -1.
         11   -1    0    0    0    0 -0.00000000000E+00 -0.00000000000E+00 -0.45593999997E+02  0.45594000000E+02  0.51100000000E-03 0.  1.
    9900012    2    1    2    0    0 -0.23497548233E+00  0.10862501883E+01  0.39740552961E+00  0.90007710161E+02  0.89999971135E+02 0.  0.
        -12    1    1    2    0    0  0.23497548233E+00 -0.10862501883E+01 -0.39740552961E+00  0.11802898389E+01  0.00000000000E+00 0.  1.
         11    1    3    3    0    0 -0.60761001547E+01 -0.71047869453E+01 -0.56873582012E+01  0.10942716034E+02  0.51100000000E-03 0. -1.
        -11    1    3    3    0    0 -0.25434089302E+02  0.16412669774E+02 -0.21034548900E+02  0.36860831181E+02  0.51100000000E-03 0.  1.
         12    1    3    3    0    0  0.31275213974E+02 -0.82216326399E+01  0.27119312631E+02  0.42204162946E+02  0.00000000000E+00 0. -1.
</event>
<event>
 7    1  0.3863655E-015  0.9000774E+02  0.7816164E-02  0.1186339E+00
        -11   -1    0    0    0    0  0.00000000000E+00  0.00000000000E+00  0.45593999997E+02  0.45594000000E+02  0.51100000000E-03 0.  1.
         11   -1    0    0    0    0 -0.00000000000E+00 -0.00000000000E+00 -0.45593999997E+02  0.45594000000E+02  0.51100000000E-03 0. -1.
    9900012    2    1    2    0    0 -0.10037176068E+01 -0.15825906280E+00 -0.60043997124E+00  0.90007735994E+02  0.89999997309E+02 0.  0.
        -12    1    1    2    0    0  0.10037176068E+01  0.15825906280E+00  0.60043997124E+00  0.11802640061E+01  0.00000000000E+00 0.  1.
         11    1    3    3    0    0 -0.18893470036E+02  0.26779621712E+02 -0.21717747077E+02  0.39316305618E+02  0.51100000000E-03 0. -1.
        -11    1    3    3    0    0 -0.48448415738E+01  0.36198028644E+01  0.87694852040E+01  0.10652667913E+02  0.51100000000E-03 0.  1.
        -12    1    3    3    0    0  0.22734594003E+02 -0.30557683640E+02  0.12347821902E+02  0.40038762464E+02  0.00000000000E+00 0.  1.
</event>
<event>
 7    1  0.3863655E-015  0.9000772E+02  0.7816164E-02  0.1186339E+00
        -11   -1    0    0    0    0  0.00000000000E+00  0.00000000000E+00  0.45593999997E+02  0.45594000000E+02  0.51100000000E-03 0.  1.
         11   -1    0    0    0    0 -0.00000000000E+00 -0.00000000000E+00 -0.45593999997E+02  0.45594000000E+02  0.51100000000E-03 0. -1.
    9900012    2    1    2    0    0 -0.73756617408E+00  0.37683236904E+00 -0.84086481806E+00  0.90007720314E+02  0.89999981422E+02 0.  0.
        -12    1    1    2    0    0  0.73756617408E+00 -0.37683236904E+00  0.84086481806E+00  0.11802796862E+01  0.00000000000E+00 0.  1.
         11    1    3    3    0    0 -0.67087287829E+01 -0.29531461944E+01 -0.48366792281E+01  0.87818893494E+01  0.51100000000E-03 0. -1.
        -11    1    3    3    0    0  0.10736747318E+01 -0.16579249976E+02  0.38025742563E+02  0.41496763789E+02  0.51100000000E-03 0.  1.
         12    1    3    3    0    0  0.48974878770E+01  0.19909228540E+02 -0.34029928153E+02  0.39729067176E+02  0.00000000000E+00 0. -1.
</event>
<event>
 7    1  0.3863655E-015  0.9000771E+02  0.7816164E-02  0.1186339E+00
        -11   -1    0    0    0    0  0.00000000000E+00  0.00000000000E+00  0.45593999997E+02  0.45594000000E+02  0.51100000000E-03 0.  1.
         11   -1    0    0    0    0 -0.00000000000E+00 -0.00000000000E+00 -0.45593999997E+02  0.45594000000E+02  0.51100000000E-03 0. -1.
    9900012    2    1    2    0    0 -0.10832717670E+01  0.81430729442E-01 -0.46149844810E+00  0.90007707874E+02  0.89999968818E+02 0.  0.
        -12    1    1    2    0    0  0.10832717670E+01 -0.81430729442E-01  0.46149844810E+00  0.11802921259E+01  0.00000000000E+00 0.  1.
         11    1    3    3    0    0  0.16142129335E+02  0.64522525535E+01 -0.81114087679E+01  0.19183191990E+02  0.51100000000E-03 0. -1.
        -11    1    3    3    0    0  0.11974296036E+02 -0.30942057117E+00 -0.24316749825E+02  0.27106896336E+02  0.51100000000E-03 0.  1.
        -12    1    3    3    0    0 -0.29199697138E+02 -0.60614012529E+01  0.31966660145E+02  0.43717619548E+02  0.00000000000E+00 0.  1.
</event>
<event>
 7    1  0.3863655E-015  0.9000761E+02  0.7816164E-02  0.1186339E+00
        -11   -1    0    0    0    0  0.00000000000E+00  0.00000000000E+00  0.45593999997E+02  0.45594000000E+02  0.51100000000E-03 0.  1.
         11   -1    0    0    0    0 -0.00000000000E+00 -0.00000000000E+00 -0.45593999997E+02  0.45594000000E+02  0.51100000000E-03 0. -1.
    9900012    2    1    2    0    0  0.37516374769E+00  0.31128056414E+00 -0.10750294944E+01  0.90007605218E+02  0.89999864807E+02 0.  0.
        -12    1    1    2    0    0 -0.37516374769E+00 -0.31128056414E+00  0.10750294944E+01  0.11803947818E+01  0.00000000000E+00 0.  1.
         11    1    3    3    0    0  0.14208142013E+01 -0.18557813339E+01  0.97026955025E+01  0.99802273336E+01  0.51100000000E-03 0. -1.
        -11    1    3    3    0    0  0.14032103052E+02 -0.29197302340E+02  0.15987713578E+02  0.36124636547E+02  0.51100000000E-03 0.  1.
         12    1    3    3    0    0 -0.15077753506E+02  0.31364364238E+02 -0.26765438575E+02  0.43902741337E+02  0.00000000000E+00 0. -1.
</event>
<event>
 7    1  0.3863655E-015  0.9000767E+02  0.7816164E-02  0.1186339E+00
        -11   -1    0    0    0    0  0.00000000000E+00  0.00000000000E+00  0.45593999997E+02  0.45594000000E+02  0.51100000000E-03 0.  1.
         11   -1    0    0    0    0 -0.00000000000E+00 -0.00000000000E+00 -0.45593999997E+02  0.45594000000E+02  0.51100000000E-03 0. -1.
    9900012    2    1    2    0    0 -0.96653625353E+00  0.64903386523E+00 -0.19428254026E+00  0.90007668270E+02  0.89999928691E+02 0.  0.
        -12    1    1    2    0    0  0.96653625353E+00 -0.64903386523E+00  0.19428254026E+00  0.11803317301E+01  0.00000000000E+00 0.  1.
         11    1    3    3    0    0  0.27543099185E+02 -0.47516989362E+01 -0.18960313668E+02  0.33774168386E+02  0.51100000000E-03 0. -1.
        -11    1    3    3    0    0  0.10735018823E+02 -0.50216290848E+01  0.77506444915E+01  0.14160857251E+02  0.51100000000E-03 0.  1.
        -12    1    3    3    0    0 -0.39244654261E+02  0.10422361886E+02  0.11015386637E+02  0.42072642633E+02  0.00000000000E+00 0.  1.
</event>
<event>
 7    1  0.3863655E-015  0.9000771E+02  0.7816164E-02  0.1186339E+00
        -11   -1    0    0    0    0  0.00000000000E+00  0.00000000000E+00  0.45593999997E+02  0.45594000000E+02  0.51100000000E-03 0.  1.
         11   -1    0    0    0    0 -0.00000000000E+00 -0.00000000000E+00 -0.45593999997E+02  0.45594000000E+02  0.51100000000E-03 0. -1.
    9900012    2    1    2    0    0  0.37897375098E+00 -0.98534098713E+00  0.52779696359E+00  0.90007708680E+02  0.89999969635E+02 0.  0.
        -12    1    1    2    0    0 -0.37897375098E+00  0.98534098713E+00 -0.52779696359E+00  0.11802913198E+01  0.00000000000E+00 0.  1.
         11    1    3    3    0    0 -0.31610084294E+02  0.27836859175E+01 -0.18361530888E+02  0.36661862380E+02  0.51100000000E-03 0. -1.
        -11    1    3    3    0    0 -0.79954973152E+01 -0.22346406941E+01 -0.15003755657E+01  0.84363927984E+01  0.51100000000E-03 0.  1.
        -12    1    3    3    0    0  0.39984555360E+02 -0.15343862105E+01  0.20389703417E+02  0.44909453502E+02  0.00000000000E+00 0.  1.
</event>
<event>
 7    1  0.3863655E-015  0.9000772E+02  0.7816164E-02  0.1186339E+00
        -11   -1    0    0    0    0  0.00000000000E+00  0.00000000000E+00  0.45593999997E+02  0.45594000000E+02  0.51100000000E-03 0. -1.
         11   -1    0    0    0    0 -0.00000000000E+00 -0.00000000000E+00 -0.45593999997E+02  0.45594000000E+02  0.51100000000E-03 0.  1.
    9900012    2    1    2    0    0 -0.10336352979E+00 -0.11749267952E+01  0.43809548346E-01  0.90007721952E+02  0.89999983082E+02 0.  0.
        -12    1    1    2    0    0  0.10336352979E+00  0.11749267952E+01 -0.43809548346E-01  0.11802780477E+01  0.00000000000E+00 0.  1.
         11    1    3    3    0    0 -0.24710476988E+02 -0.31539938752E+02  0.83121720746E+01  0.40920259216E+02  0.51100000000E-03 0. -1.
        -11    1    3    3    0    0  0.69385723161E+01 -0.46517986557E+01 -0.49860501200E+01  0.97285000169E+01  0.51100000000E-03 0.  1.
        -12    1    3    3    0    0  0.17668541142E+02  0.35016810613E+02 -0.32823124063E+01  0.39358962719E+02  0.00000000000E+00 0.  1.
</event>
<event>
 7    1  0.3863655E-015  0.9000769E+02  0.7816164E-02  0.1186339E+00
        -11   -1    0    0    0    0  0.00000000000E+00  0.00000000000E+00  0.45593999997E+02  0.45594000000E+02  0.51100000000E-03 0.  1.
         11   -1    0    0    0    0 -0.00000000000E+00 -0.00000000000E+00 -0.45593999997E+02  0.45594000000E+02  0.51100000000E-03 0. -1.
    9900012    2    1    2    0    0 -0.11206013192E+01  0.12425756723E+00  0.34919664247E+00  0.90007692602E+02  0.89999953344E+02 0.  0.
        -12    1    1    2    0    0  0.11206013192E+01 -0.12425756723E+00 -0.34919664247E+00  0.11803073984E+01  0.00000000000E+00 0.  1.
         11    1    3    3    0    0 -0.15141069591E+02  0.18348975728E+02 -0.28011094830E+02  0.36749943298E+02  0.51100000000E-03 0. -1.
        -11    1    3    3    0    0 -0.41354232348E+01  0.89253928068E+01 -0.24632508121E+00  0.98399714630E+01  0.51100000000E-03 0.  1.
        -12    1    3    3    0    0  0.18155891506E+02 -0.27150110968E+02  0.28606616553E+02  0.43417777840E+02  0.00000000000E+00 0.  1.
</event>
<event>
 7    1  0.3863655E-015  0.9000783E+02  0.7816164E-02  0.1186339E+00
        -11   -1    0    0    0    0  0.00000000000E+00  0.00000000000E+00  0.45593999997E+02  0.45594000000E+02  0.51100000000E-03 0. -1.
         11   -1    0    0    0    0 -0.00000000000E+00 -0.00000000000E+00 -0.45593999997E+02  0.45594000000E+02  0.51100000000E-03 0.  1.
    9900012    2    1    2    0    0 -0.38955474333E+00 -0.97485097402E+00  0.53918236718E+00  0.90007828426E+02  0.90000090961E+02 0.  0.
        -12    1    1    2    0    0  0.38955474333E+00  0.97485097402E+00 -0.53918236718E+00  0.11801715743E+01  0.00000000000E+00 0.  1.
         11    1    3    3    0    0  0.90732423343E+00 -0.71922929489E+01 -0.31188538946E+01  0.78917403026E+01  0.51100000000E-03 0. -1.
        -11    1    3    3    0    0  0.13229127919E+02 -0.24481646115E+02 -0.25205318910E+02  0.37545557975E+02  0.51100000000E-03 0.  1.
         12    1    3    3    0    0 -0.14526006896E+02  0.30699088090E+02  0.28863355172E+02  0.44570530148E+02  0.00000000000E+00 0. -1.
</event>
<event>
 7    1  0.3863655E-015  0.9000773E+02  0.7816164E-02  0.1186339E+00
        -11   -1    0    0    0    0  0.00000000000E+00  0.00000000000E+00  0.45593999997E+02  0.45594000000E+02  0.51100000000E-03 0.  1.
         11   -1    0    0    0    0 -0.00000000000E+00 -0.00000000000E+00 -0.45593999997E+02  0.45594000000E+02  0.51100000000E-03 0. -1.
    9900012    2    1    2    0    0 -0.10233950000E+01  0.27798822005E-01  0.58730053643E+00  0.90007732225E+02  0.89999993490E+02 0.  0.
        -12    1    1    2    0    0  0.10233950000E+01 -0.27798822005E-01 -0.58730053643E+00  0.11802677749E+01  0.00000000000E+00 0.  1.
         11    1    3    3    0    0  0.27764768290E+02 -0.23750779685E+02  0.28046177958E+01  0.36644887435E+02  0.51100000000E-03 0. -1.
        -11    1    3    3    0    0  0.72529618441E+01 -0.33502007510E+01 -0.20669101146E+01  0.82523583457E+01  0.51100000000E-03 0.  1.
        -12    1    3    3    0    0 -0.36041125134E+02  0.27128779258E+02 -0.15040714476E+00  0.45110486445E+02  0.00000000000E+00 0.  1.
</event>
<event>
 7    1  0.5105681E-015  0.9000771E+02  0.7816164E-02  0.1186339E+00
        -11   -1    0    0    0    0  0.00000000000E+00  0.00000000000E+00  0.45593999997E+02  0.45594000000E+02  0.51100000000E-03 0.  1.
         11   -1    0    0    0    0 -0.00000000000E+00 -0.00000000000E+00 -0.45593999997E+02  0.45594000000E+02  0.51100000000E-03 0. -1.
    9900012    2    1    2    0    0  0.45182418908E+00  0.10007742431E+01 -0.43287347885E+00  0.90007714597E+02  0.89999975630E+02 0.  0.
        -12    1    1    2    0    0 -0.45182418908E+00 -0.10007742431E+01  0.43287347885E+00  0.11802854029E+01  0.00000000000E+00 0.  1.
         11    1    3    3    0    0 -0.45365047261E-01 -0.27489930858E+00  0.91739154846E+01  0.91781454116E+01  0.51100000000E-03 0. -1.
        -11    1    3    3    0    0  0.73397639662E+01  0.29732689973E+02  0.22033849896E+02  0.37727914461E+02  0.51100000000E-03 0.  1.
         12    1    3    3    0    0 -0.68425747299E+01 -0.28457016421E+02 -0.31640638859E+02  0.43101654724E+02  0.00000000000E+00 0. -1.
</event>
<event>
 7    1  0.3863655E-015  0.9000795E+02  0.7816164E-02  0.1186339E+00
        -11   -1    0    0    0    0  0.00000000000E+00  0.00000000000E+00  0.45593999997E+02  0.45594000000E+02  0.51100000000E-03 0. -1.
         11   -1    0    0    0    0 -0.00000000000E+00 -0.00000000000E+00 -0.45593999997E+02  0.45594000000E+02  0.51100000000E-03 0.  1.
    9900012    2    1    2    0    0  0.45462736110E+00  0.63201815418E+00  0.88678086581E+00  0.90007951997E+02  0.90000216163E+02 0.  0.
        -12    1    1    2    0    0 -0.45462736110E+00 -0.63201815418E+00 -0.88678086581E+00  0.11800480027E+01  0.00000000000E+00 0.  1.
         11    1    3    3    0    0 -0.26488898645E+02  0.22954772587E+02 -0.31834120635E+01  0.35195418005E+02  0.51100000000E-03 0. -1.
        -11    1    3    3    0    0 -0.52782502650E+01  0.73800025652E+01 -0.45485748651E+01  0.10149576212E+02  0.51100000000E-03 0.  1.
        -12    1    3    3    0    0  0.32221776271E+02 -0.29702756998E+02  0.86187677944E+01  0.44662957780E+02  0.00000000000E+00 0.  1.
</event>
<event>
 7    1  0.3863655E-015  0.9000769E+02  0.7816164E-02  0.1186339E+00
        -11   -1    0    0    0    0  0.00000000000E+00  0.00000000000E+00  0.45593999997E+02  0.45594000000E+02  0.51100000000E-03 0.  1.
         11   -1    0    0    0    0 -0.00000000000E+00 -0.00000000000E+00 -0.45593999997E+02  0.45594000000E+02  0.51100000000E-03 0. -1.
    9900012    2    1    2    0    0 -0.63590020987E+00 -0.35270673180E+00 -0.92970931105E+00  0.90007690499E+02  0.89999951213E+02 0.  0.
        -12    1    1    2    0    0  0.63590020987E+00  0.35270673180E+00  0.92970931105E+00  0.11803095012E+01  0.00000000000E+00 0.  1.
         11    1    3    3    0    0  0.61907162499E+00 -0.18081610981E+02  0.30370314224E+02  0.35350868329E+02  0.51100000000E-03 0. -1.
        -11    1    3    3    0    0 -0.39920310718E+01 -0.63015724814E+01  0.64246586694E+01  0.98449157993E+01  0.51100000000E-03 0.  1.
        -12    1    3    3    0    0  0.27370592369E+01  0.24030476730E+02 -0.37724682204E+02  0.44811906370E+02  0.00000000000E+00 0.  1.
</event>
<event>
 7    1  0.3863655E-015  0.9000772E+02  0.7816164E-02  0.1186339E+00
        -11   -1    0    0    0    0  0.00000000000E+00  0.00000000000E+00  0.45593999997E+02  0.45594000000E+02  0.51100000000E-03 0. -1.
         11   -1    0    0    0    0 -0.00000000000E+00 -0.00000000000E+00 -0.45593999997E+02  0.45594000000E+02  0.51100000000E-03 0.  1.
    9900012    2    1    2    0    0  0.33794235968E+00 -0.17079221112E+00  0.11178911252E+01  0.90007722242E+02  0.89999983376E+02 0.  0.
        -12    1    1    2    0    0 -0.33794235968E+00  0.17079221112E+00 -0.11178911252E+01  0.11802777578E+01  0.00000000000E+00 0.  1.
         11    1    3    3    0    0 -0.28569758790E+01  0.27811611444E+02  0.27311305662E+02  0.39083953991E+02  0.51100000000E-03 0. -1.
        -11    1    3    3    0    0 -0.86972113159E+01 -0.65169020307E+01  0.43824358989E+01  0.11718243956E+02  0.51100000000E-03 0.  1.
        -12    1    3    3    0    0  0.11892129555E+02 -0.21465501625E+02 -0.30575850436E+02  0.39205524295E+02  0.00000000000E+00 0.  1.
</event>
<event>
 7    1  0.3863655E-015  0.9000775E+02  0.7816164E-02  0.1186339E+00
        -11   -1    0    0    0    0  0.00000000000E+00  0.00000000000E+00  0.45593999997E+02  0.45594000000E+02  0.51100000000E-03 0. -1.
         11   -1    0    0    0    0 -0.00000000000E+00 -0.00000000000E+00 -0.45593999997E+02  0.45594000000E+02  0.51100000000E-03 0.  1.
    9900012    2    1    2    0    0  0.11113891283E+01 -0.39402422575E+00 -0.50572507127E-01  0.90007746441E+02  0.90000007894E+02 0.  0.
        -12    1    1    2    0    0 -0.11113891283E+01  0.39402422575E+00  0.50572507127E-01  0.11802535589E+01  0.00000000000E+00 0.  1.
         11    1    3    3    0    0 -0.10674775994E+02  0.19680004721E+02  0.16136516639E+02  0.27597836833E+02  0.51100000000E-03 0. -1.
        -11    1    3    3    0    0 -0.17016844256E+02 -0.48019164284E+01  0.10249027243E+02  0.20437072919E+02  0.51100000000E-03 0.  1.
        -12    1    3    3    0    0  0.28803009378E+02 -0.15272112519E+02 -0.26436116389E+02  0.41972836689E+02  0.00000000000E+00 0.  1.
</event>
<event>
 7    1  0.3863655E-015  0.9000764E+02  0.7816164E-02  0.1186339E+00
        -11   -1    0    0    0    0  0.00000000000E+00  0.00000000000E+00  0.45593999997E+02  0.45594000000E+02  0.51100000000E-03 0.  1.
         11   -1    0    0    0    0 -0.00000000000E+00 -0.00000000000E+00 -0.45593999997E+02  0.45594000000E+02  0.51100000000E-03 0. -1.
    9900012    2    1    2    0    0 -0.11172019195E+01 -0.28894195715E+00 -0.24824267994E+00  0.90007639033E+02  0.89999899068E+02 0.  0.
        -12    1    1    2    0    0  0.11172019195E+01  0.28894195715E+00  0.24824267994E+00  0.11803609667E+01  0.00000000000E+00 0.  1.
         11    1    3    3    0    0  0.39338010630E+01  0.57257766649E+01 -0.61452981135E+01  0.92749123114E+01  0.51100000000E-03 0. -1.
        -11    1    3    3    0    0 -0.19409817137E+02 -0.49550461419E+01  0.39436952199E+02  0.44233094879E+02  0.51100000000E-03 0.  1.
         12    1    3    3    0    0  0.14358814154E+02 -0.10596724801E+01 -0.33539896765E+02  0.36499631843E+02  0.00000000000E+00 0. -1.
</event>
<event>
 7    1  0.3863655E-015  0.9000801E+02  0.7816164E-02  0.1186339E+00
        -11   -1    0    0    0    0  0.00000000000E+00  0.00000000000E+00  0.45593999997E+02  0.45594000000E+02  0.51100000000E-03 0.  1.
         11   -1    0    0    0    0 -0.00000000000E+00 -0.00000000000E+00 -0.45593999997E+02  0.45594000000E+02  0.51100000000E-03 0. -1.
    9900012    2    1    2    0    0 -0.30498359335E+00  0.29884435298E+00 -0.11000265858E+01  0.90008007869E+02  0.90000272773E+02 0.  0.
        -12    1    1    2    0    0  0.30498359335E+00 -0.29884435298E+00  0.11000265858E+01  0.11799921309E+01  0.00000000000E+00 0.  1.
         11    1    3    3    0    0  0.22677328838E+02  0.20553184821E+02 -0.25085516231E+02  0.39572437053E+02  0.51100000000E-03 0. -1.
        -11    1    3    3    0    0 -0.50371919425E+00  0.77590304289E+01  0.11144706372E+01  0.78548285332E+01  0.51100000000E-03 0.  1.
        -12    1    3    3    0    0 -0.22478593237E+02 -0.28013370897E+02  0.22871019008E+02  0.42580742283E+02  0.00000000000E+00 0.  1.
</event>
<event>
 7    1  0.3863655E-015  0.9000772E+02  0.7816164E-02  0.1186339E+00
        -11   -1    0    0    0    0  0.00000000000E+00  0.00000000000E+00  0.45593999997E+02  0.45594000000E+02  0.51100000000E-03 0.  1.
         11   -1    0    0    0    0 -0.00000000000E+00 -0.00000000000E+00 -0.45593999997E+02  0.45594000000E+02  0.51100000000E-03 0. -1.
    9900012    2    1    2    0    0 -0.11081886341E+01 -0.38002205685E+00  0.14341543594E+00  0.90007717492E+02  0.89999978562E+02 0.  0.
        -12    1    1    2    0    0  0.11081886341E+01  0.38002205685E+00 -0.14341543594E+00  0.11802825084E+01  0.00000000000E+00 0.  1.
         11    1    3    3    0    0  0.26062956642E+02  0.27521834260E+01  0.34851278636E+01  0.26438576720E+02  0.51100000000E-03 0. -1.
        -11    1    3    3    0    0 -0.50845294915E+00  0.19425382770E+01 -0.27295461416E+02  0.27369219819E+02  0.51100000000E-03 0.  1.
        -12    1    3    3    0    0 -0.26662692327E+02 -0.50747437598E+01  0.23953748988E+02  0.36199920952E+02  0.00000000000E+00 0.  1.
</event>
<event>
 7    1  0.3863655E-015  0.9000775E+02  0.7816164E-02  0.1186339E+00
        -11   -1    0    0    0    0  0.00000000000E+00  0.00000000000E+00  0.45593999997E+02  0.45594000000E+02  0.51100000000E-03 0. -1.
         11   -1    0    0    0    0 -0.00000000000E+00 -0.00000000000E+00 -0.45593999997E+02  0.45594000000E+02  0.51100000000E-03 0.  1.
    9900012    2    1    2    0    0 -0.85298171071E+00 -0.53081097516E+00  0.61938981981E+00  0.90007753484E+02  0.90000015030E+02 0.  0.
        -12    1    1    2    0    0  0.85298171071E+00  0.53081097516E+00 -0.61938981981E+00  0.11802465162E+01  0.00000000000E+00 0.  1.
         11    1    3    3    0    0  0.61188331764E+00 -0.10942085810E+02 -0.21936497473E+01  0.11176571144E+02  0.51100000000E-03 0. -1.
        -11    1    3    3    0    0 -0.16884645581E+02 -0.24615334412E+02 -0.18409483154E+02  0.35070144209E+02  0.51100000000E-03 0.  1.
         12    1    3    3    0    0  0.15419780553E+02  0.35026609247E+02  0.21222522721E+02  0.43761038130E+02  0.00000000000E+00 0. -1.
</event>
<event>
 7    1  0.3863655E-015  0.9000782E+02  0.7816164E-02  0.1186339E+00
        -11   -1    0    0    0    0  0.00000000000E+00  0.00000000000E+00  0.45593999997E+02  0.45594000000E+02  0.51100000000E-03 0. -1.
         11   -1    0    0    0    0 -0.00000000000E+00 -0.00000000000E+00 -0.45593999997E+02  0.45594000000E+02  0.51100000000E-03 0.  1.
    9900012    2    1    2    0    0 -0.71663495963E+00  0.91248867123E+00 -0.21590623594E+00  0.90007823427E+02  0.90000085896E+02 0.  0.
        -12    1    1    2    0    0  0.71663495963E+00 -0.91248867123E+00  0.21590623594E+00  0.11801765729E+01  0.00000000000E+00 0.  1.
         11    1    3    3    0    0 -0.62790585753E+01 -0.63700468734E+01 -0.41503794501E+01  0.98605133539E+01  0.51100000000E-03 0. -1.
        -11    1    3    3    0    0  0.15878299625E+02 -0.31781675581E+02 -0.10813290073E+02  0.37136539205E+02  0.51100000000E-03 0.  1.
         12    1    3    3    0    0 -0.10315876010E+02  0.39064211125E+02  0.14747763287E+02  0.43010770868E+02  0.00000000000E+00 0. -1.
</event>
<event>
 7    1  0.3863655E-015  0.9000834E+02  0.7816164E-02  0.1186338E+00
        -11   -1    0    0    0    0  0.00000000000E+00  0.00000000000E+00  0.45593999997E+02  0.45594000000E+02  0.51100000000E-03 0. -1.
         11   -1    0    0    0    0 -0.00000000000E+00 -0.00000000000E+00 -0.45593999997E+02  0.45594000000E+02  0.51100000000E-03 0.  1.
    9900012    2    1    2    0    0 -0.11260117577E+01 -0.24880818852E+00  0.24855502780E+00  0.90008344290E+02  0.90000613632E+02 0.  0.
        -12    1    1    2    0    0  0.11260117577E+01  0.24880818852E+00 -0.24855502780E+00  0.11796557104E+01  0.00000000000E+00 0.  1.
         11    1    3    3    0    0  0.16341351593E+02 -0.32253878939E+02  0.33484486086E+01  0.36312044653E+02  0.51100000000E-03 0. -1.
        -11    1    3    3    0    0  0.70570640407E+01 -0.28072012286E+01  0.65546174096E+01  0.10032225140E+02  0.51100000000E-03 0.  1.
        -12    1    3    3    0    0 -0.24524427391E+02  0.34812271979E+02 -0.96545109905E+01  0.43664074497E+02  0.00000000000E+00 0.  1.
</event>
<event>
 7    1  0.3863655E-015  0.9000770E+02  0.7816164E-02  0.1186339E+00
        -11   -1    0    0    0    0  0.00000000000E+00  0.00000000000E+00  0.45593999997E+02  0.45594000000E+02  0.51100000000E-03 0. -1.
         11   -1    0    0    0    0 -0.00000000000E+00 -0.00000000000E+00 -0.45593999997E+02  0.45594000000E+02  0.51100000000E-03 0.  1.
    9900012    2    1    2    0    0 -0.30363704934E+00 -0.76403427860E+00  0.84686084055E+00  0.90007696175E+02  0.89999956964E+02 0.  0.
        -12    1    1    2    0    0  0.30363704934E+00  0.76403427860E+00 -0.84686084055E+00  0.11803038252E+01  0.00000000000E+00 0.  1.
         11    1    3    3    0    0 -0.39801303907E+02 -0.18957668049E+01  0.12060449695E+02  0.41631624657E+02  0.51100000000E-03 0. -1.
        -11    1    3    3    0    0 -0.38435013995E-01  0.22327959896E+01 -0.84367398823E+01  0.87272810934E+01  0.51100000000E-03 0.  1.
        -12    1    3    3    0    0  0.39536101871E+02 -0.11010634633E+01 -0.27768489726E+01  0.39648790425E+02  0.00000000000E+00 0.  1.
</event>
<event>
 7    1  0.3863655E-015  0.9000758E+02  0.7816164E-02  0.1186339E+00
        -11   -1    0    0    0    0  0.00000000000E+00  0.00000000000E+00  0.45593999997E+02  0.45594000000E+02  0.51100000000E-03 0.  1.
         11   -1    0    0    0    0 -0.00000000000E+00 -0.00000000000E+00 -0.45593999997E+02  0.45594000000E+02  0.51100000000E-03 0. -1.
    9900012    2    1    2    0    0  0.72899490787E+00  0.81583954117E+00  0.44311965616E+00  0.90007583649E+02  0.89999842953E+02 0.  0.
        -12    1    1    2    0    0 -0.72899490787E+00 -0.81583954117E+00 -0.44311965616E+00  0.11804163513E+01  0.00000000000E+00 0.  1.
         11    1    3    3    0    0 -0.43049869107E+01 -0.32249433102E+02 -0.12784834159E+02  0.34957271525E+02  0.51100000000E-03 0. -1.
        -11    1    3    3    0    0  0.31636898657E+01 -0.98955996959E+01  0.16683475157E+01  0.10522129566E+02  0.51100000000E-03 0.  1.
        -12    1    3    3    0    0  0.18702919529E+01  0.42960872339E+02  0.11559606300E+02  0.44528182558E+02  0.00000000000E+00 0.  1.
</event>
<event>
 7    1  0.3863655E-015  0.9000780E+02  0.7816164E-02  0.1186339E+00
        -11   -1    0    0    0    0  0.00000000000E+00  0.00000000000E+00  0.45593999997E+02  0.45594000000E+02  0.51100000000E-03 0. -1.
         11   -1    0    0    0    0 -0.00000000000E+00 -0.00000000000E+00 -0.45593999997E+02  0.45594000000E+02  0.51100000000E-03 0.  1.
    9900012    2    1    2    0    0 -0.90024489367E+00  0.63204419440E+00  0.42774146049E+00  0.90007795149E+02  0.90000057245E+02 0.  0.
        -12    1    1    2    0    0  0.90024489367E+00 -0.63204419440E+00 -0.42774146049E+00  0.11802048506E+01  0.00000000000E+00 0.  1.
         11    1    3    3    0    0  0.25648513579E+02  0.24335077309E+02 -0.59432964804E+00  0.35360931329E+02  0.51100000000E-03 0. -1.
        -11    1    3    3    0    0  0.44974495970E+01  0.83311839286E+01 -0.28010469977E+01  0.98732741821E+01  0.51100000000E-03 0.  1.
        -12    1    3    3    0    0 -0.31046208070E+02 -0.32034217043E+02  0.38231181062E+01  0.44773589639E+02  0.00000000000E+00 0.  1.
</event>
<event>
 7    1  0.3863655E-015  0.9000773E+02  0.7816164E-02  0.1186339E+00
        -11   -1    0    0    0    0  0.00000000000E+00  0.00000000000E+00  0.45593999997E+02  0.45594000000E+02  0.51100000000E-03 0.  1.
         11   -1    0    0    0    0 -0.00000000000E+00 -0.00000000000E+00 -0.45593999997E+02  0.45594000000E+02  0.51100000000E-03 0. -1.
    9900012    2    1    2    0    0 -0.45510445111E+00  0.69652640241E+00 -0.83711354525E+00  0.90007733853E+02  0.89999995140E+02 0.  0.
        -12    1    1    2    0    0  0.45510445111E+00 -0.69652640241E+00  0.83711354525E+00  0.11802661472E+01  0.00000000000E+00 0.  1.
         11    1    3    3    0    0  0.24097691814E+00 -0.98443196220E+00 -0.97240550141E+01  0.97767286114E+01  0.51100000000E-03 0. -1.
        -11    1    3    3    0    0  0.32095862701E+02 -0.58285641696E+01 -0.17917144723E+02  0.37217477589E+02  0.51100000000E-03 0.  1.
         12    1    3    3    0    0 -0.32791944070E+02  0.75095225342E+01  0.26804086192E+02  0.43013527653E+02  0.00000000000E+00 0. -1.
</event>
<event>
 7    1  0.3863655E-015  0.9000769E+02  0.7816164E-02  0.1186339E+00
        -11   -1    0    0    0    0  0.00000000000E+00  0.00000000000E+00  0.45593999997E+02  0.45594000000E+02  0.51100000000E-03 0. -1.
         11   -1    0    0    0    0 -0.00000000000E+00 -0.00000000000E+00 -0.45593999997E+02  0.45594000000E+02  0.51100000000E-03 0.  1.
    9900012    2    1    2    0    0 -0.63123356600E-01 -0.59963315293E+00  0.10146805152E+01  0.90007694521E+02  0.89999955289E+02 0.  0.
        -12    1    1    2    0    0  0.63123356600E-01  0.59963315293E+00 -0.10146805152E+01  0.11803054791E+01  0.00000000000E+00 0.  1.
         11    1    3    3    0    0 -0.69730278305E+01  0.49764898251E+01 -0.38096410946E+01  0.93756031078E+01  0.51100000000E-03 0. -1.
        -11    1    3    3    0    0 -0.35445891279E+02  0.56483806094E+01  0.77371070982E+01  0.36717546739E+02  0.51100000000E-03 0.  1.
         12    1    3    3    0    0  0.42355795752E+02 -0.11224503587E+02 -0.29127854884E+01  0.43914544674E+02  0.00000000000E+00 0. -1.
</event>
<event>
 7    1  0.3863655E-015  0.9000782E+02  0.7816164E-02  0.1186339E+00
        -11   -1    0    0    0    0  0.00000000000E+00  0.00000000000E+00  0.45593999997E+02  0.45594000000E+02  0.51100000000E-03 0. -1.
         11   -1    0    0    0    0 -0.00000000000E+00 -0.00000000000E+00 -0.45593999997E+02  0.45594000000E+02  0.51100000000E-03 0.  1.
    9900012    2    1    2    0    0 -0.53664278477E+00 -0.10479423257E+01  0.81553232814E-01  0.90007822248E+02  0.90000084702E+02 0.  0.
        -12    1    1    2    0    0  0.53664278477E+00  0.10479423257E+01 -0.81553232814E-01  0.11801777520E+01  0.00000000000E+00 0.  1.
         11    1    3    3    0    0  0.15024526200E+02 -0.84882204304E+01  0.30736571439E+02  0.35249441097E+02  0.51100000000E-03 0. -1.
        -11    1    3    3    0    0  0.59273741518E+01  0.27325462377E+01  0.79741051986E+01  0.10304704132E+02  0.51100000000E-03 0.  1.
        -12    1    3    3    0    0 -0.21488543137E+02  0.47077318670E+01 -0.38629123404E+02  0.44453677018E+02  0.00000000000E+00 0.  1.
</event>
<event>
 7    1  0.3863655E-015  0.9000774E+02  0.7816164E-02  0.1186339E+00
        -11   -1    0    0    0    0  0.00000000000E+00  0.00000000000E+00  0.45593999997E+02  0.45594000000E+02  0.51100000000E-03 0.  1.
         11   -1    0    0    0    0 -0.00000000000E+00 -0.00000000000E+00 -0.45593999997E+02  0.45594000000E+02  0.51100000000E-03 0. -1.
    9900012    2    1    2    0    0 -0.10717704545E+01  0.15578676887E+00 -0.46908845152E+00  0.90007743503E+02  0.90000004917E+02 0.  0.
        -12    1    1    2    0    0  0.10717704545E+01 -0.15578676887E+00  0.46908845152E+00  0.11802564975E+01  0.00000000000E+00 0.  1.
         11    1    3    3    0    0  0.37607868421E+01 -0.88405857065E+01 -0.22065907387E+01  0.98574092060E+01  0.51100000000E-03 0. -1.
        -11    1    3    3    0    0  0.25800846211E+02  0.11645337178E+02  0.27924286911E+02  0.39762587227E+02  0.51100000000E-03 0.  1.
         12    1    3    3    0    0 -0.30633403507E+02 -0.26489647027E+01 -0.26186784624E+02  0.40387747070E+02  0.00000000000E+00 0. -1.
</event>
<event>
 7    1  0.3863655E-015  0.9000772E+02  0.7816164E-02  0.1186339E+00
        -11   -1    0    0    0    0  0.00000000000E+00  0.00000000000E+00  0.45593999997E+02  0.45594000000E+02  0.51100000000E-03 0. -1.
         11   -1    0    0    0    0 -0.00000000000E+00 -0.00000000000E+00 -0.45593999997E+02  0.45594000000E+02  0.51100000000E-03 0.  1.
    9900012    2    1    2    0    0  0.95731787488E+00 -0.13713480514E+00  0.67659861920E+00  0.90007724964E+02  0.89999986134E+02 0.  0.
        -12    1    1    2    0    0 -0.95731787488E+00  0.13713480514E+00 -0.67659861920E+00  0.11802750357E+01  0.00000000000E+00 0.  1.
         11    1    3    3    0    0 -0.14900217759E+01  0.40049042738E+01 -0.81137611376E+01  0.91701986453E+01  0.51100000000E-03 0. -1.
        -11    1    3    3    0    0 -0.76100070355E+01  0.30287771453E+02 -0.18020955360E+02  0.36055736561E+02  0.51100000000E-03 0.  1.
         12    1    3    3    0    0  0.10057346686E+02 -0.34429810531E+02  0.26811315117E+02  0.44781789758E+02  0.00000000000E+00 0. -1.
</event>
<event>
 7    1  0.3863655E-015  0.9000747E+02  0.7816164E-02  0.1186340E+00
        -11   -1    0    0    0    0  0.00000000000E+00  0.00000000000E+00  0.45593999997E+02  0.45594000000E+02  0.51100000000E-03 0. -1.
         11   -1    0    0    0    0 -0.00000000000E+00 -0.00000000000E+00 -0.45593999997E+02  0.45594000000E+02  0.51100000000E-03 0.  1.
    9900012    2    1    2    0    0 -0.89217752685E+00  0.66500981808E+00 -0.39426026649E+00  0.90007466241E+02  0.89999723995E+02 0.  0.
        -12    1    1    2    0    0  0.89217752685E+00 -0.66500981808E+00  0.39426026649E+00  0.11805337586E+01  0.00000000000E+00 0.  1.
         11    1    3    3    0    0 -0.73965768793E+01  0.20384277481E+01 -0.42821305244E+01  0.87864201644E+01  0.51100000000E-03 0. -1.
        -11    1    3    3    0    0  0.33266533097E+02 -0.24377980935E+02 -0.11358274040E+02  0.42778015010E+02  0.51100000000E-03 0.  1.
         12    1    3    3    0    0 -0.26762133745E+02  0.23004563005E+02  0.15246144298E+02  0.38443031067E+02  0.00000000000E+00 0. -1.
</event>
<event>
 7    1  0.3863655E-015  0.9000775E+02  0.7816164E-02  0.1186339E+00
        -11   -1    0    0    0    0  0.00000000000E+00  0.00000000000E+00  0.45593999997E+02  0.45594000000E+02  0.51100000000E-03 0. -1.
         11   -1    0    0    0    0 -0.00000000000E+00 -0.00000000000E+00 -0.45593999997E+02  0.45594000000E+02  0.51100000000E-03 0.  1.
    9900012    2    1    2    0    0 -0.95134909948E+00 -0.69110168021E+00 -0.10154729303E+00  0.90007746428E+02  0.90000007881E+02 0.  0.
        -12    1    1    2    0    0  0.95134909948E+00  0.69110168021E+00  0.10154729303E+00  0.11802535720E+01  0.00000000000E+00 0.  1.
         11    1    3    3    0    0 -0.74984897078E+01  0.28187817523E+02  0.16646635411E+02  0.33584086639E+02  0.51100000000E-03 0. -1.
        -11    1    3    3    0    0 -0.95532191381E+01 -0.22482241729E+02  0.84469475890E+01  0.25846974927E+02  0.51100000000E-03 0.  1.
        -12    1    3    3    0    0  0.16100359746E+02 -0.63966774747E+01 -0.25195130293E+02  0.30576684862E+02  0.00000000000E+00 0.  1.
</event>
<event>
 7    1  0.3863655E-015  0.9000771E+02  0.7816164E-02  0.1186339E+00
        -11   -1    0    0    0    0  0.00000000000E+00  0.00000000000E+00  0.45593999997E+02  0.45594000000E+02  0.51100000000E-03 0.  1.
         11   -1    0    0    0    0 -0.00000000000E+00 -0.00000000000E+00 -0.45593999997E+02  0.45594000000E+02  0.51100000000E-03 0. -1.
    9900012    2    1    2    0    0  0.86098210543E+00 -0.66520529619E+00 -0.45749519482E+00  0.90007707610E+02  0.89999968551E+02 0.  0.
        -12    1    1    2    0    0 -0.86098210543E+00  0.66520529619E+00  0.45749519482E+00  0.11802923897E+01  0.00000000000E+00 0.  1.
         11    1    3    3    0    0  0.12348427391E+02 -0.14116008177E+02 -0.14974285454E+02  0.23999470224E+02  0.51100000000E-03 0. -1.
        -11    1    3    3    0    0  0.20099673503E+02 -0.12101387663E+02  0.22533582412E+01  0.23569431090E+02  0.51100000000E-03 0.  1.
         12    1    3    3    0    0 -0.31587118789E+02  0.25552190544E+02  0.12263432018E+02  0.42438806296E+02  0.00000000000E+00 0. -1.
</event>
<event>
 7    1  0.5552436E-015  0.9000773E+02  0.7816164E-02  0.1186339E+00
        -11   -1    0    0    0    0  0.00000000000E+00  0.00000000000E+00  0.45593999997E+02  0.45594000000E+02  0.51100000000E-03 0.  1.
         11   -1    0    0    0    0 -0.00000000000E+00 -0.00000000000E+00 -0.45593999997E+02  0.45594000000E+02  0.51100000000E-03 0. -1.
    9900012    2    1    2    0    0  0.36750330806E+00  0.10654145036E+01  0.35053996851E+00  0.90007726720E+02  0.89999987913E+02 0.  0.
        -12    1    1    2    0    0 -0.36750330806E+00 -0.10654145036E+01 -0.35053996851E+00  0.11802732800E+01  0.00000000000E+00 0.  1.
         11    1    3    3    0    0  0.13665777993E+01  0.80416413023E+00  0.94235549499E+01  0.95560244341E+01  0.51100000000E-03 0. -1.
        -11    1    3    3    0    0  0.39144950765E+02  0.44088344875E+01 -0.17227352209E+01  0.39430100290E+02  0.51100000000E-03 0.  1.
         12    1    3    3    0    0 -0.40144025257E+02 -0.41475841142E+01 -0.73502797605E+01  0.41021601996E+02  0.00000000000E+00 0. -1.
</event>
<event>
 7    1  0.3863655E-015  0.9000764E+02  0.7816164E-02  0.1186339E+00
        -11   -1    0    0    0    0  0.00000000000E+00  0.00000000000E+00  0.45593999997E+02  0.45594000000E+02  0.51100000000E-03 0.  1.
         11   -1    0    0    0    0 -0.00000000000E+00 -0.00000000000E+00 -0.45593999997E+02  0.45594000000E+02  0.51100000000E-03 0. -1.
    9900012    2    1    2    0    0 -0.10087518275E+01 -0.35153626357E+00 -0.50209856644E+00  0.90007635241E+02  0.89999895226E+02 0.  0.
        -12    1    1    2    0    0  0.10087518275E+01  0.35153626357E+00  0.50209856644E+00  0.11803647591E+01  0.00000000000E+00 0.  1.
         11    1    3    3    0    0 -0.28221157244E+02 -0.18617752045E+02 -0.23458626596E+02  0.41150474717E+02  0.51100000000E-03 0. -1.
        -11    1    3    3    0    0  0.28540594777E+01 -0.72384622297E+01  0.30349021750E+01  0.83517436758E+01  0.51100000000E-03 0.  1.
        -12    1    3    3    0    0  0.24358345939E+02  0.25504678012E+02  0.19921625855E+02  0.40505416848E+02  0.00000000000E+00 0.  1.
</event>
<event>
 7    1  0.3863655E-015  0.9000776E+02  0.7816164E-02  0.1186339E+00
        -11   -1    0    0    0    0  0.00000000000E+00  0.00000000000E+00  0.45593999997E+02  0.45594000000E+02  0.51100000000E-03 0.  1.
         11   -1    0    0    0    0 -0.00000000000E+00 -0.00000000000E+00 -0.45593999997E+02  0.45594000000E+02  0.51100000000E-03 0. -1.
    9900012    2    1    2    0    0 -0.93932238086E+00 -0.58293170086E+00 -0.41332633871E+00  0.90007756565E+02  0.90000018152E+02 0.  0.
        -12    1    1    2    0    0  0.93932238086E+00  0.58293170086E+00  0.41332633871E+00  0.11802434348E+01  0.00000000000E+00 0.  1.
         11    1    3    3    0    0  0.24972495888E+02 -0.25833251687E+02  0.15247186549E+02  0.39031514723E+02  0.51100000000E-03 0. -1.
        -11    1    3    3    0    0  0.55701352687E+01  0.26068779453E+01 -0.10065114951E+02  0.11795285447E+02  0.51100000000E-03 0.  1.
        -12    1    3    3    0    0 -0.31481953538E+02  0.22643442041E+02 -0.55953979369E+01  0.39180956396E+02  0.00000000000E+00 0.  1.
</event>
<event>
 7    1  0.3863655E-015  0.9000754E+02  0.7816164E-02  0.1186339E+00
        -11   -1    0    0    0    0  0.00000000000E+00  0.00000000000E+00  0.45593999997E+02  0.45594000000E+02  0.51100000000E-03 0.  1.
         11   -1    0    0    0    0 -0.00000000000E+00 -0.00000000000E+00 -0.45593999997E+02  0.45594000000E+02  0.51100000000E-03 0. -1.
    9900012    2    1    2    0    0  0.37740939873E+00 -0.30574555374E+00 -0.10759046000E+01  0.90007538689E+02  0.89999797400E+02 0.  0.
        -12    1    1    2    0    0 -0.37740939873E+00  0.30574555374E+00  0.10759046000E+01  0.11804613108E+01  0.00000000000E+00 0.  1.
         11    1    3    3    0    0  0.18322506317E+02 -0.24546552940E+02  0.24446639832E+02  0.39190377624E+02  0.51100000000E-03 0. -1.
        -11    1    3    3    0    0 -0.73928355603E+01 -0.62437799588E+01  0.93117241336E-02  0.96767191115E+01  0.51100000000E-03 0.  1.
        -12    1    3    3    0    0 -0.10552261358E+02  0.30484587345E+02 -0.25531856156E+02  0.41140441954E+02  0.00000000000E+00 0.  1.
</event>
<event>
 7    1  0.3863655E-015  0.9000762E+02  0.7816164E-02  0.1186339E+00
        -11   -1    0    0    0    0  0.00000000000E+00  0.00000000000E+00  0.45593999997E+02  0.45594000000E+02  0.51100000000E-03 0.  1.
         11   -1    0    0    0    0 -0.00000000000E+00 -0.00000000000E+00 -0.45593999997E+02  0.45594000000E+02  0.51100000000E-03 0. -1.
    9900012    2    1    2    0    0 -0.61319412757E+00 -0.27426423787E+00 -0.97060031619E+00  0.90007621720E+02  0.89999881527E+02 0.  0.
        -12    1    1    2    0    0  0.61319412757E+00  0.27426423787E+00  0.97060031619E+00  0.11803782801E+01  0.00000000000E+00 0.  1.
         11    1    3    3    0    0 -0.93283407908E+01 -0.17853965321E+01 -0.17136654533E-01  0.94976774325E+01  0.51100000000E-03 0. -1.
        -11    1    3    3    0    0 -0.31502262622E+01  0.32099912400E+02  0.23231838044E+02  0.39749800009E+02  0.51100000000E-03 0.  1.
         12    1    3    3    0    0  0.11865372925E+02 -0.30588780105E+02 -0.24185301706E+02  0.40760144279E+02  0.00000000000E+00 0. -1.
</event>
<event>
 8    1  0.3863655E-015  0.9000727E+02  0.7816164E-02  0.1186340E+00
        -11   -1    0    0    0    0  0.00000000000E+00  0.00000000000E+00  0.45593999997E+02  0.45594000000E+02  0.51100000000E-03 0. -1.
         11   -1    0    0    0    0 -0.00000000000E+00 -0.00000000000E+00 -0.45593999997E+02  0.45594000000E+02  0.51100000000E-03 0.  1.
    9900012    2    1    2    0    0 -0.10511764890E+00  0.88208301513E+00  0.77782140765E+00  0.90007268740E+02  0.89999523886E+02 0.  0.
         23    2    3    3    0    0 -0.66782772983E+01  0.25106704066E+02  0.12927012628E+02  0.62121043823E+02  0.54926955618E+02 0.  0.
        -12    1    1    2    0    0  0.10511764890E+00 -0.88208301513E+00 -0.77782140765E+00  0.11807312598E+01  0.00000000000E+00 0.  1.
         11    1    4    4    0    0 -0.19803705299E+02  0.36517617149E+02  0.15892296000E+02  0.44477951596E+02  0.51100000000E-03 0. -1.
        -11    1    4    4    0    0  0.13125428001E+02 -0.11410913083E+02 -0.29652833721E+01  0.17643092227E+02  0.51100000000E-03 0.  1.
        -12    1    3    3    0    0  0.65731596494E+01 -0.24224621050E+02 -0.12149191221E+02  0.27886224917E+02  0.00000000000E+00 0.  1.
</event>
<event>
 7    1  0.3863655E-015  0.9000773E+02  0.7816164E-02  0.1186339E+00
        -11   -1    0    0    0    0  0.00000000000E+00  0.00000000000E+00  0.45593999997E+02  0.45594000000E+02  0.51100000000E-03 0.  1.
         11   -1    0    0    0    0 -0.00000000000E+00 -0.00000000000E+00 -0.45593999997E+02  0.45594000000E+02  0.51100000000E-03 0. -1.
    9900012    2    1    2    0    0 -0.59723422191E+00 -0.98551578252E+00 -0.25516309911E+00  0.90007729573E+02  0.89999990803E+02 0.  0.
        -12    1    1    2    0    0  0.59723422191E+00  0.98551578252E+00  0.25516309911E+00  0.11802704269E+01  0.00000000000E+00 0.  1.
         11    1    3    3    0    0  0.90035107655E+01 -0.33354743054E+00 -0.43288221453E+01  0.99956571279E+01  0.51100000000E-03 0. -1.
        -11    1    3    3    0    0  0.53014417798E+01 -0.36701336521E+02  0.14204789696E+02  0.39709815386E+02  0.51100000000E-03 0.  1.
         12    1    3    3    0    0 -0.14902186767E+02  0.36049368169E+02 -0.10131130650E+02  0.40302257060E+02  0.00000000000E+00 0. -1.
</event>
<event>
 7    1  0.3863655E-015  0.9000760E+02  0.7816164E-02  0.1186339E+00
        -11   -1    0    0    0    0  0.00000000000E+00  0.00000000000E+00  0.45593999997E+02  0.45594000000E+02  0.51100000000E-03 0.  1.
         11   -1    0    0    0    0 -0.00000000000E+00 -0.00000000000E+00 -0.45593999997E+02  0.45594000000E+02  0.51100000000E-03 0. -1.
    9900012    2    1    2    0    0 -0.60203910261E+00 -0.10141821299E+01  0.48125357324E-01  0.90007604929E+02  0.89999864514E+02 0.  0.
        -12    1    1    2    0    0  0.60203910261E+00  0.10141821299E+01 -0.48125357324E-01  0.11803950710E+01  0.00000000000E+00 0.  1.
         11    1    3    3    0    0  0.51711195451E+01  0.15357993247E+01  0.77231207782E+01  0.94204963634E+01  0.51100000000E-03 0. -1.
        -11    1    3    3    0    0  0.90282082669E+01  0.36848881929E+02 -0.83817239126E+00  0.37948006234E+02  0.51100000000E-03 0.  1.
         12    1    3    3    0    0 -0.14801366915E+02 -0.39398863384E+02 -0.68368230297E+01  0.42639102331E+02  0.00000000000E+00 0. -1.
</event>
<event>
 7    1  0.3863655E-015  0.9000761E+02  0.7816164E-02  0.1186339E+00
        -11   -1    0    0    0    0  0.00000000000E+00  0.00000000000E+00  0.45593999997E+02  0.45594000000E+02  0.51100000000E-03 0.  1.
         11   -1    0    0    0    0 -0.00000000000E+00 -0.00000000000E+00 -0.45593999997E+02  0.45594000000E+02  0.51100000000E-03 0. -1.
    9900012    2    1    2    0    0 -0.61130985840E+00  0.67269838893E+00 -0.75305162962E+00  0.90007614630E+02  0.89999874343E+02 0.  0.
        -12    1    1    2    0    0  0.61130985840E+00 -0.67269838893E+00  0.75305162962E+00  0.11803853703E+01  0.00000000000E+00 0.  1.
         11    1    3    3    0    0  0.63244209020E+01 -0.63292632824E+01  0.27691456808E+01  0.93662181005E+01  0.51100000000E-03 0. -1.
        -11    1    3    3    0    0 -0.27033265753E+02 -0.98111334565E+01  0.27666873387E+02  0.39906286225E+02  0.51100000000E-03 0.  1.
         12    1    3    3    0    0  0.20097534993E+02  0.16813095128E+02 -0.31189070697E+02  0.40735110305E+02  0.00000000000E+00 0. -1.
</event>
<event>
 7    1  0.3863655E-015  0.9000775E+02  0.7816164E-02  0.1186339E+00
        -11   -1    0    0    0    0  0.00000000000E+00  0.00000000000E+00  0.45593999997E+02  0.45594000000E+02  0.51100000000E-03 0.  1.
         11   -1    0    0    0    0 -0.00000000000E+00 -0.00000000000E+00 -0.45593999997E+02  0.45594000000E+02  0.51100000000E-03 0. -1.
    9900012    2    1    2    0    0  0.11056379306E+01  0.31263825706E+00 -0.26984505136E+00  0.90007748220E+02  0.90000009696E+02 0.  0.
        -12    1    1    2    0    0 -0.11056379306E+01 -0.31263825706E+00  0.26984505136E+00  0.11802517803E+01  0.00000000000E+00 0.  1.
         11    1    3    3    0    0 -0.38022375980E+01 -0.16508751117E+02 -0.34411509770E+02  0.38355545611E+02  0.51100000000E-03 0. -1.
        -11    1    3    3    0    0 -0.19322596124E+01  0.20246781499E+00 -0.67295205952E+01  0.70043606509E+01  0.51100000000E-03 0.  1.
        -12    1    3    3    0    0  0.68401351409E+01  0.16618921559E+02  0.40871185314E+02  0.44647841958E+02  0.00000000000E+00 0.  1.
</event>
<event>
 7    1  0.3863655E-015  0.9000768E+02  0.7816164E-02  0.1186339E+00
        -11   -1    0    0    0    0  0.00000000000E+00  0.00000000000E+00  0.45593999997E+02  0.45594000000E+02  0.51100000000E-03 0.  1.
         11   -1    0    0    0    0 -0.00000000000E+00 -0.00000000000E+00 -0.45593999997E+02  0.45594000000E+02  0.51100000000E-03 0. -1.
    9900012    2    1    2    0    0  0.12492240551E-01 -0.11495993506E+01 -0.26724985799E+00  0.90007679192E+02  0.89999939757E+02 0.  0.
        -12    1    1    2    0    0 -0.12492240551E-01  0.11495993506E+01  0.26724985799E+00  0.11803208079E+01  0.00000000000E+00 0.  1.
         11    1    3    3    0    0  0.68805722626E+01  0.34895679976E+02 -0.45894204012E+01  0.35862425121E+02  0.51100000000E-03 0. -1.
        -11    1    3    3    0    0  0.52521946284E+01  0.54909732184E+01 -0.59774622099E+01  0.96678017166E+01  0.51100000000E-03 0.  1.
        -12    1    3    3    0    0 -0.12120274650E+02 -0.41536252545E+02  0.10299632753E+02  0.44477452355E+02  0.00000000000E+00 0.  1.
</event>
<event>
 7    1  0.3863655E-015  0.9000785E+02  0.7816164E-02  0.1186339E+00
        -11   -1    0    0    0    0  0.00000000000E+00  0.00000000000E+00  0.45593999997E+02  0.45594000000E+02  0.51100000000E-03 0. -1.
         11   -1    0    0    0    0 -0.00000000000E+00 -0.00000000000E+00 -0.45593999997E+02  0.45594000000E+02  0.51100000000E-03 0.  1.
    9900012    2    1    2    0    0 -0.72404561091E+00 -0.87875070478E+00 -0.31034155476E+00  0.90007848854E+02  0.90000111658E+02 0.  0.
        -12    1    1    2    0    0  0.72404561091E+00  0.87875070478E+00  0.31034155476E+00  0.11801511464E+01  0.00000000000E+00 0.  1.
         11    1    3    3    0    0 -0.64859220945E+01 -0.21786704936E+01 -0.62406019256E+01  0.92606103034E+01  0.51100000000E-03 0. -1.
        -11    1    3    3    0    0 -0.33635005672E+02 -0.16492750685E+01 -0.14033543784E+02  0.36482517268E+02  0.51100000000E-03 0.  1.
         12    1    3    3    0    0  0.39396882155E+02  0.29491948573E+01  0.19963804155E+02  0.44264721282E+02  0.00000000000E+00 0. -1.
</event>
<event>
 7    1  0.3863655E-015  0.9000775E+02  0.7816164E-02  0.1186339E+00
        -11   -1    0    0    0    0  0.00000000000E+00  0.00000000000E+00  0.45593999997E+02  0.45594000000E+02  0.51100000000E-03 0. -1.
         11   -1    0    0    0    0 -0.00000000000E+00 -0.00000000000E+00 -0.45593999997E+02  0.45594000000E+02  0.51100000000E-03 0.  1.
    9900012    2    1    2    0    0  0.40525207562E+00  0.62076412382E+00  0.91836940374E+00  0.90007754388E+02  0.90000015946E+02 0.  0.
        -12    1    1    2    0    0 -0.40525207562E+00 -0.62076412382E+00 -0.91836940374E+00  0.11802456117E+01  0.00000000000E+00 0.  1.
         11    1    3    3    0    0  0.21171384672E+02  0.19569696371E+02 -0.30460142442E+02  0.41940682193E+02  0.51100000000E-03 0. -1.
        -11    1    3    3    0    0 -0.42121898670E+01 -0.71299495936E+01 -0.24134531772E+01  0.86257452538E+01  0.51100000000E-03 0.  1.
        -12    1    3    3    0    0 -0.16553942729E+02 -0.11818982653E+02  0.33791965022E+02  0.39441326942E+02  0.00000000000E+00 0.  1.
</event>
<event>
 7    1  0.3863655E-015  0.9000771E+02  0.7816164E-02  0.1186339E+00
        -11   -1    0    0    0    0  0.00000000000E+00  0.00000000000E+00  0.45593999997E+02  0.45594000000E+02  0.51100000000E-03 0.  1.
         11   -1    0    0    0    0 -0.00000000000E+00 -0.00000000000E+00 -0.45593999997E+02  0.45594000000E+02  0.51100000000E-03 0. -1.
    9900012    2    1    2    0    0  0.68724049845E+00 -0.73339583309E+00  0.61880559631E+00  0.90007707953E+02  0.89999968898E+02 0.  0.
        -12    1    1    2    0    0 -0.68724049845E+00  0.73339583309E+00 -0.61880559631E+00  0.11802920472E+01  0.00000000000E+00 0.  1.
         11    1    3    3    0    0  0.23592126475E+01  0.10242476143E+02  0.20158311568E+01  0.10702232355E+02  0.51100000000E-03 0. -1.
        -11    1    3    3    0    0  0.25992511064E+02  0.23411680316E+02 -0.32505706370E+01  0.35132372769E+02  0.51100000000E-03 0.  1.
         12    1    3    3    0    0 -0.27664483214E+02 -0.34387552293E+02  0.18535450765E+01  0.44173102829E+02  0.00000000000E+00 0. -1.
</event>
<event>
 7    1  0.3863655E-015  0.9000792E+02  0.7816164E-02  0.1186339E+00
        -11   -1    0    0    0    0  0.00000000000E+00  0.00000000000E+00  0.45593999997E+02  0.45594000000E+02  0.51100000000E-03 0. -1.
         11   -1    0    0    0    0 -0.00000000000E+00 -0.00000000000E+00 -0.45593999997E+02  0.45594000000E+02  0.51100000000E-03 0.  1.
    9900012    2    1    2    0    0  0.73533356689E+00 -0.80926390401E+00  0.44381008153E+00  0.90007919109E+02  0.90000182841E+02 0.  0.
        -12    1    1    2    0    0 -0.73533356689E+00  0.80926390401E+00 -0.44381008153E+00  0.11800808910E+01  0.00000000000E+00 0.  1.
         11    1    3    3    0    0 -0.73637368563E+01  0.74864967149E+01 -0.50285682127E+01  0.11642970071E+02  0.51100000000E-03 0. -1.
        -11    1    3    3    0    0 -0.31876655464E+02  0.11082263435E+02  0.22042247330E+01  0.33820058151E+02  0.51100000000E-03 0.  1.
         12    1    3    3    0    0  0.39975725887E+02 -0.19378024054E+02  0.32681535613E+01  0.44544890887E+02  0.00000000000E+00 0. -1.
</event>
<event>
 7    1  0.3863655E-015  0.9000774E+02  0.7816164E-02  0.1186339E+00
        -11   -1    0    0    0    0  0.00000000000E+00  0.00000000000E+00  0.45593999997E+02  0.45594000000E+02  0.51100000000E-03 0.  1.
         11   -1    0    0    0    0 -0.00000000000E+00 -0.00000000000E+00 -0.45593999997E+02  0.45594000000E+02  0.51100000000E-03 0. -1.
    9900012    2    1    2    0    0 -0.85254937355E+00 -0.26135841856E+00  0.77322099277E+00  0.90007737588E+02  0.89999998924E+02 0.  0.
        -12    1    1    2    0    0  0.85254937355E+00  0.26135841856E+00 -0.77322099277E+00  0.11802624119E+01  0.00000000000E+00 0.  1.
         11    1    3    3    0    0  0.13294167503E+01  0.47479242153E+01 -0.43015808417E+01  0.65432202507E+01  0.51100000000E-03 0. -1.
        -11    1    3    3    0    0 -0.24217856432E+02  0.16365999542E+02  0.31489861774E+02  0.42964658802E+02  0.51100000000E-03 0.  1.
         12    1    3    3    0    0  0.22035890308E+02 -0.21375282176E+02 -0.26415059940E+02  0.40499858535E+02  0.00000000000E+00 0. -1.
</event>
<event>
 7    1  0.3863655E-015  0.9000770E+02  0.7816164E-02  0.1186339E+00
        -11   -1    0    0    0    0  0.00000000000E+00  0.00000000000E+00  0.45593999997E+02  0.45594000000E+02  0.51100000000E-03 0. -1.
         11   -1    0    0    0    0 -0.00000000000E+00 -0.00000000000E+00 -0.45593999997E+02  0.45594000000E+02  0.51100000000E-03 0.  1.
    9900012    2    1    2    0    0 -0.51174783665E+00  0.28621836939E+00  0.10243518686E+01  0.90007701922E+02  0.89999962787E+02 0.  0.
        -12    1    1    2    0    0  0.51174783665E+00 -0.28621836939E+00 -0.10243518686E+01  0.11802980784E+01  0.00000000000E+00 0.  1.
         11    1    3    3    0    0 -0.14456447514E+02 -0.15444452746E+02  0.27360768836E+02  0.34585136502E+02  0.51100000000E-03 0. -1.
        -11    1    3    3    0    0 -0.12705196218E+02 -0.56008636623E+01 -0.33949604173E+01  0.14293965202E+02  0.51100000000E-03 0.  1.
        -12    1    3    3    0    0  0.26649895895E+02  0.21331534777E+02 -0.22941456550E+02  0.41128600217E+02  0.00000000000E+00 0.  1.
</event>
<event>
 7    1  0.3863655E-015  0.9000775E+02  0.7816164E-02  0.1186339E+00
        -11   -1    0    0    0    0  0.00000000000E+00  0.00000000000E+00  0.45593999997E+02  0.45594000000E+02  0.51100000000E-03 0. -1.
         11   -1    0    0    0    0 -0.00000000000E+00 -0.00000000000E+00 -0.45593999997E+02  0.45594000000E+02  0.51100000000E-03 0.  1.
    9900012    2    1    2    0    0  0.39011381766E+00 -0.19333547310E+00  0.10970066844E+01  0.90007749577E+02  0.90000011071E+02 0.  0.
        -12    1    1    2    0    0 -0.39011381766E+00  0.19333547310E+00 -0.10970066844E+01  0.11802504232E+01  0.00000000000E+00 0.  1.
         11    1    3    3    0    0 -0.34545794150E+02  0.73214439542E+01 -0.37103317501E+01  0.35507492125E+02  0.51100000000E-03 0. -1.
        -11    1    3    3    0    0 -0.89138603337E+01 -0.50831033200E+01  0.22729509588E+01  0.10510050035E+02  0.51100000000E-03 0.  1.
        -12    1    3    3    0    0  0.43849768301E+02 -0.24316761073E+01  0.25343874757E+01  0.43990207418E+02  0.00000000000E+00 0.  1.
</event>
<event>
 7    1  0.3863655E-015  0.9000776E+02  0.7816164E-02  0.1186339E+00
        -11   -1    0    0    0    0  0.00000000000E+00  0.00000000000E+00  0.45593999997E+02  0.45594000000E+02  0.51100000000E-03 0. -1.
         11   -1    0    0    0    0 -0.00000000000E+00 -0.00000000000E+00 -0.45593999997E+02  0.45594000000E+02  0.51100000000E-03 0.  1.
    9900012    2    1    2    0    0 -0.63792904415E+00 -0.91721912500E+00  0.38042718052E+00  0.90007758826E+02  0.90000020443E+02 0.  0.
        -12    1    1    2    0    0  0.63792904415E+00  0.91721912500E+00 -0.38042718052E+00  0.11802411738E+01  0.00000000000E+00 0.  1.
         11    1    3    3    0    0  0.15648577442E+02  0.10874050859E+02 -0.18486178718E+01  0.19145243439E+02  0.51100000000E-03 0. -1.
        -11    1    3    3    0    0  0.15578939602E+02  0.20056948807E+02 -0.27076800581E+01  0.25540479364E+02  0.51100000000E-03 0.  1.
         12    1    3    3    0    0 -0.31865446088E+02 -0.31848218791E+02  0.49367251104E+01  0.45322036024E+02  0.00000000000E+00 0. -1.
</event>
<event>
 7    1  0.3863655E-015  0.9000788E+02  0.7816164E-02  0.1186339E+00
        -11   -1    0    0    0    0  0.00000000000E+00  0.00000000000E+00  0.45593999997E+02  0.45594000000E+02  0.51100000000E-03 0. -1.
         11   -1    0    0    0    0 -0.00000000000E+00 -0.00000000000E+00 -0.45593999997E+02  0.45594000000E+02  0.51100000000E-03 0.  1.
    9900012    2    1    2    0    0  0.23020106070E+00 -0.15144702529E+00  0.11475005607E+01  0.90007878707E+02  0.90000141906E+02 0.  0.
        -12    1    1    2    0    0 -0.23020106070E+00  0.15144702529E+00 -0.11475005607E+01  0.11801212932E+01  0.00000000000E+00 0.  1.
         11    1    3    3    0    0 -0.20025189782E+01 -0.57161955615E+01 -0.36114128228E+01  0.70517570004E+01  0.51100000000E-03 0. -1.
        -11    1    3    3    0    0 -0.32695954048E+02  0.13762077684E+02 -0.18688614793E+02  0.40095941396E+02  0.51100000000E-03 0.  1.
         12    1    3    3    0    0  0.34928674087E+02 -0.81973291478E+01  0.23447528177E+02  0.42860180310E+02  0.00000000000E+00 0. -1.
</event>
<event>
 7    1  0.3863655E-015  0.9000775E+02  0.7816164E-02  0.1186339E+00
        -11   -1    0    0    0    0  0.00000000000E+00  0.00000000000E+00  0.45593999997E+02  0.45594000000E+02  0.51100000000E-03 0. -1.
         11   -1    0    0    0    0 -0.00000000000E+00 -0.00000000000E+00 -0.45593999997E+02  0.45594000000E+02  0.51100000000E-03 0.  1.
    9900012    2    1    2    0    0  0.65130590289E+00 -0.31068438400E+00  0.93394588482E+00  0.90007754652E+02  0.90000016213E+02 0.  0.
        -12    1    1    2    0    0 -0.65130590289E+00  0.31068438400E+00 -0.93394588482E+00  0.11802453480E+01  0.00000000000E+00 0.  1.
         11    1    3    3    0    0  0.11572571396E+02 -0.25903208418E+02  0.25750256501E+02  0.38314179166E+02  0.51100000000E-03 0. -1.
        -11    1    3    3    0    0 -0.26508512854E+01  0.54097935246E+01  0.93713326885E+01  0.11140680192E+02  0.51100000000E-03 0.  1.
        -12    1    3    3    0    0 -0.82704142074E+01  0.20182730509E+02 -0.34187643305E+02  0.40552895294E+02  0.00000000000E+00 0.  1.
</event>
<event>
 7    1  0.3863655E-015  0.9000772E+02  0.7816164E-02  0.1186339E+00
        -11   -1    0    0    0    0  0.00000000000E+00  0.00000000000E+00  0.45593999997E+02  0.45594000000E+02  0.51100000000E-03 0. -1.
         11   -1    0    0    0    0 -0.00000000000E+00 -0.00000000000E+00 -0.45593999997E+02  0.45594000000E+02  0.51100000000E-03 0.  1.
    9900012    2    1    2    0    0 -0.76663311831E+00  0.46950209971E+00  0.76478221081E+00  0.90007724443E+02  0.89999985606E+02 0.  0.
        -12    1    1    2    0    0  0.76663311831E+00 -0.46950209971E+00 -0.76478221081E+00  0.11802755567E+01  0.00000000000E+00 0.  1.
         11    1    3    3    0    0  0.61396992393E+01  0.20470443605E+01  0.46648689803E+01  0.79779258099E+01  0.51100000000E-03 0. -1.
        -11    1    3    3    0    0  0.33491388752E+02  0.57252369953E+01 -0.18216681455E+02  0.38552547811E+02  0.51100000000E-03 0.  1.
         12    1    3    3    0    0 -0.40397721110E+02 -0.73027792561E+01  0.14316594686E+02  0.43477250823E+02  0.00000000000E+00 0. -1.
</event>
<event>
 7    1  0.3863655E-015  0.9000772E+02  0.7816164E-02  0.1186339E+00
        -11   -1    0    0    0    0  0.00000000000E+00  0.00000000000E+00  0.45593999997E+02  0.45594000000E+02  0.51100000000E-03 0.  1.
         11   -1    0    0    0    0 -0.00000000000E+00 -0.00000000000E+00 -0.45593999997E+02  0.45594000000E+02  0.51100000000E-03 0. -1.
    9900012    2    1    2    0    0 -0.59133167139E+00 -0.10188498338E+01 -0.73023281898E-01  0.90007720148E+02  0.89999981254E+02 0.  0.
        -12    1    1    2    0    0  0.59133167139E+00  0.10188498338E+01  0.73023281898E-01  0.11802798520E+01  0.00000000000E+00 0.  1.
         11    1    3    3    0    0 -0.23246733400E+01  0.71169709689E+01 -0.66701736808E+01  0.10027292711E+02  0.51100000000E-03 0. -1.
        -11    1    3    3    0    0 -0.26870313646E+02 -0.24724922735E+02 -0.16066200773E+02  0.39893086710E+02  0.51100000000E-03 0.  1.
         12    1    3    3    0    0  0.28603655314E+02  0.16589101932E+02  0.22663351172E+02  0.40087340728E+02  0.00000000000E+00 0. -1.
</event>
<event>
 7    1  0.3863655E-015  0.9000819E+02  0.7816164E-02  0.1186338E+00
        -11   -1    0    0    0    0  0.00000000000E+00  0.00000000000E+00  0.45593999997E+02  0.45594000000E+02  0.51100000000E-03 0. -1.
         11   -1    0    0    0    0 -0.00000000000E+00 -0.00000000000E+00 -0.45593999997E+02  0.45594000000E+02  0.51100000000E-03 0.  1.
    9900012    2    1    2    0    0  0.11789236437E+01  0.46023945339E-03  0.45668027867E-01  0.90008192076E+02  0.90000459410E+02 0.  0.
        -12    1    1    2    0    0 -0.11789236437E+01 -0.46023945339E-03 -0.45668027867E-01  0.11798079243E+01  0.00000000000E+00 0.  1.
         11    1    3    3    0    0 -0.46450665237E+01  0.26771327433E+02  0.47282741691E+01  0.27579651782E+02  0.51100000000E-03 0. -1.
        -11    1    3    3    0    0 -0.10487486999E+01 -0.20222304628E+01  0.23895650245E+02  0.24003986977E+02  0.51100000000E-03 0.  1.
        -12    1    3    3    0    0  0.68727388673E+01 -0.24748636730E+02 -0.28578256386E+02  0.38424553317E+02  0.00000000000E+00 0.  1.
</event>
<event>
 7    1  0.3863655E-015  0.9000771E+02  0.7816164E-02  0.1186339E+00
        -11   -1    0    0    0    0  0.00000000000E+00  0.00000000000E+00  0.45593999997E+02  0.45594000000E+02  0.51100000000E-03 0.  1.
         11   -1    0    0    0    0 -0.00000000000E+00 -0.00000000000E+00 -0.45593999997E+02  0.45594000000E+02  0.51100000000E-03 0. -1.
    9900012    2    1    2    0    0  0.38180597695E+00 -0.78608010023E+00 -0.79334552080E+00  0.90007705612E+02  0.89999966526E+02 0.  0.
        -12    1    1    2    0    0 -0.38180597695E+00  0.78608010023E+00  0.79334552080E+00  0.11802943884E+01  0.00000000000E+00 0.  1.
         11    1    3    3    0    0  0.14043158749E+01 -0.91014180365E+01 -0.37999948602E+01  0.99623227487E+01  0.51100000000E-03 0. -1.
        -11    1    3    3    0    0 -0.43026487659E+01 -0.21136540289E+02  0.31997460269E+02  0.38588904957E+02  0.51100000000E-03 0.  1.
         12    1    3    3    0    0  0.32801388680E+01  0.29451878226E+02 -0.28990810930E+02  0.41456477906E+02  0.00000000000E+00 0. -1.
</event>
<event>
 7    1  0.3863655E-015  0.9000775E+02  0.7816164E-02  0.1186339E+00
        -11   -1    0    0    0    0  0.00000000000E+00  0.00000000000E+00  0.45593999997E+02  0.45594000000E+02  0.51100000000E-03 0.  1.
         11   -1    0    0    0    0 -0.00000000000E+00 -0.00000000000E+00 -0.45593999997E+02  0.45594000000E+02  0.51100000000E-03 0. -1.
    9900012    2    1    2    0    0  0.73440285388E+00  0.90697978663E+00  0.17615834463E+00  0.90007749329E+02  0.90000010820E+02 0.  0.
        -12    1    1    2    0    0 -0.73440285388E+00 -0.90697978663E+00 -0.17615834463E+00  0.11802506715E+01  0.00000000000E+00 0.  1.
         11    1    3    3    0    0 -0.14152588550E+01 -0.31188136559E+02 -0.29755490485E+02  0.43128784285E+02  0.51100000000E-03 0. -1.
        -11    1    3    3    0    0  0.51716236065E+01  0.86636907910E+01  0.19834097959E+01  0.10282954027E+02  0.51100000000E-03 0.  1.
        -12    1    3    3    0    0 -0.30219618976E+01  0.23431425555E+02  0.27948239033E+02  0.36596011016E+02  0.00000000000E+00 0.  1.
</event>
<event>
 7    1  0.3863655E-015  0.9000784E+02  0.7816164E-02  0.1186339E+00
        -11   -1    0    0    0    0  0.00000000000E+00  0.00000000000E+00  0.45593999997E+02  0.45594000000E+02  0.51100000000E-03 0. -1.
         11   -1    0    0    0    0 -0.00000000000E+00 -0.00000000000E+00 -0.45593999997E+02  0.45594000000E+02  0.51100000000E-03 0.  1.
    9900012    2    1    2    0    0  0.43365052537E+00 -0.75046698433E+00  0.80095725640E+00  0.90007836452E+02  0.90000099093E+02 0.  0.
        -12    1    1    2    0    0 -0.43365052537E+00  0.75046698433E+00 -0.80095725640E+00  0.11801635477E+01  0.00000000000E+00 0.  1.
         11    1    3    3    0    0 -0.17784573842E+01 -0.21321141427E+01  0.31591139337E+02  0.31712913872E+02  0.51100000000E-03 0. -1.
        -11    1    3    3    0    0 -0.62317713406E+01 -0.11371950344E+00  0.12604355730E+02  0.14061212245E+02  0.51100000000E-03 0.  1.
        -12    1    3    3    0    0  0.84438792502E+01  0.14953666618E+01 -0.43394537811E+02  0.44233710335E+02  0.00000000000E+00 0.  1.
</event>
<event>
 7    1  0.3863655E-015  0.9000777E+02  0.7816164E-02  0.1186339E+00
        -11   -1    0    0    0    0  0.00000000000E+00  0.00000000000E+00  0.45593999997E+02  0.45594000000E+02  0.51100000000E-03 0.  1.
         11   -1    0    0    0    0 -0.00000000000E+00 -0.00000000000E+00 -0.45593999997E+02  0.45594000000E+02  0.51100000000E-03 0. -1.
    9900012    2    1    2    0    0  0.63879152259E+00 -0.42894123050E+00  0.89492536497E+00  0.90007772650E+02  0.90000034449E+02 0.  0.
        -12    1    1    2    0    0 -0.63879152259E+00  0.42894123050E+00 -0.89492536497E+00  0.11802273499E+01  0.00000000000E+00 0.  1.
         11    1    3    3    0    0 -0.11171209290E+02  0.18719820547E+01 -0.11980465127E+01  0.11390151427E+02  0.51100000000E-03 0. -1.
        -11    1    3    3    0    0 -0.33012607459E+02 -0.62697132386E+00  0.61288644250E+01  0.33582559814E+02  0.51100000000E-03 0.  1.
         12    1    3    3    0    0  0.44822608272E+02 -0.16739519614E+01 -0.40358925474E+01  0.45035061409E+02  0.00000000000E+00 0. -1.
</event>
<event>
 7    1  0.3863655E-015  0.9000773E+02  0.7816164E-02  0.1186339E+00
        -11   -1    0    0    0    0  0.00000000000E+00  0.00000000000E+00  0.45593999997E+02  0.45594000000E+02  0.51100000000E-03 0.  1.
         11   -1    0    0    0    0 -0.00000000000E+00 -0.00000000000E+00 -0.45593999997E+02  0.45594000000E+02  0.51100000000E-03 0. -1.
    9900012    2    1    2    0    0  0.20965532626E+00  0.18057153819E+00 -0.11473825722E+01  0.90007725370E+02  0.89999986544E+02 0.  0.
        -12    1    1    2    0    0 -0.20965532626E+00 -0.18057153819E+00  0.11473825722E+01  0.11802746304E+01  0.00000000000E+00 0.  1.
         11    1    3    3    0    0  0.25092480666E+01  0.25041060426E+02  0.19147762435E+02  0.31622584329E+02  0.51100000000E-03 0. -1.
        -11    1    3    3    0    0  0.10111910524E+02  0.12067181554E+02 -0.48029425658E+01  0.16460129485E+02  0.51100000000E-03 0.  1.
        -12    1    3    3    0    0 -0.12411503265E+02 -0.36927670441E+02 -0.15492202441E+02  0.41925011556E+02  0.00000000000E+00 0.  1.
</event>
<event>
 7    1  0.3863655E-015  0.9000769E+02  0.7816164E-02  0.1186339E+00
        -11   -1    0    0    0    0  0.00000000000E+00  0.00000000000E+00  0.45593999997E+02  0.45594000000E+02  0.51100000000E-03 0. -1.
         11   -1    0    0    0    0 -0.00000000000E+00 -0.00000000000E+00 -0.45593999997E+02  0.45594000000E+02  0.51100000000E-03 0.  1.
    9900012    2    1    2    0    0  0.11043980725E+01 -0.38049437777E+00  0.16931918495E+00  0.90007686457E+02  0.89999947118E+02 0.  0.
        -12    1    1    2    0    0 -0.11043980725E+01  0.38049437777E+00 -0.16931918495E+00  0.11803135433E+01  0.00000000000E+00 0.  1.
         11    1    3    3    0    0  0.10978381822E+01 -0.22823363025E+01 -0.88513900891E+01  0.92065962463E+01  0.51100000000E-03 0. -1.
        -11    1    3    3    0    0  0.71100905255E+01  0.19089420084E+01 -0.35226373269E+02  0.35987425871E+02  0.51100000000E-03 0.  1.
         12    1    3    3    0    0 -0.71035306353E+01 -0.71000837484E-02  0.44247082543E+02  0.44813664339E+02  0.00000000000E+00 0. -1.
</event>
<event>
 7    1  0.3863655E-015  0.9000778E+02  0.7816164E-02  0.1186339E+00
        -11   -1    0    0    0    0  0.00000000000E+00  0.00000000000E+00  0.45593999997E+02  0.45594000000E+02  0.51100000000E-03 0.  1.
         11   -1    0    0    0    0 -0.00000000000E+00 -0.00000000000E+00 -0.45593999997E+02  0.45594000000E+02  0.51100000000E-03 0. -1.
    9900012    2    1    2    0    0  0.11091551854E+01 -0.91742295131E-01 -0.39278657025E+00  0.90007778341E+02  0.90000040215E+02 0.  0.
        -12    1    1    2    0    0 -0.11091551854E+01  0.91742295131E-01  0.39278657025E+00  0.11802216588E+01  0.00000000000E+00 0.  1.
         11    1    3    3    0    0  0.16848030991E+02 -0.64851678984E+00  0.60093924410E+01  0.17899427926E+02  0.51100000000E-03 0. -1.
        -11    1    3    3    0    0  0.22013980835E+02 -0.54886848200E+01  0.16030171806E+02  0.27779622417E+02  0.51100000000E-03 0.  1.
         12    1    3    3    0    0 -0.37752856640E+02  0.60454593148E+01 -0.22432350817E+02  0.44328727999E+02  0.00000000000E+00 0. -1.
</event>
<event>
 7    1  0.3863655E-015  0.9000770E+02  0.7816164E-02  0.1186339E+00
        -11   -1    0    0    0    0  0.00000000000E+00  0.00000000000E+00  0.45593999997E+02  0.45594000000E+02  0.51100000000E-03 0. -1.
         11   -1    0    0    0    0 -0.00000000000E+00 -0.00000000000E+00 -0.45593999997E+02  0.45594000000E+02  0.51100000000E-03 0.  1.
    9900012    2    1    2    0    0  0.21715760388E+00  0.10049528727E+01 -0.57966661391E+00  0.90007702968E+02  0.89999963847E+02 0.  0.
        -12    1    1    2    0    0 -0.21715760388E+00 -0.10049528727E+01  0.57966661391E+00  0.11802970324E+01  0.00000000000E+00 0.  1.
         11    1    3    3    0    0  0.25874921904E+01 -0.55011021699E+01  0.26284761078E+01  0.66231508989E+01  0.51100000000E-03 0. -1.
        -11    1    3    3    0    0  0.38411521623E+02 -0.18532611064E+01 -0.13044735205E+02  0.40608431230E+02  0.51100000000E-03 0.  1.
         12    1    3    3    0    0 -0.40781856209E+02  0.83593161490E+01  0.98365924831E+01  0.42776120839E+02  0.00000000000E+00 0. -1.
</event>
<event>
 7    1  0.3863655E-015  0.9000798E+02  0.7816164E-02  0.1186339E+00
        -11   -1    0    0    0    0  0.00000000000E+00  0.00000000000E+00  0.45593999997E+02  0.45594000000E+02  0.51100000000E-03 0.  1.
         11   -1    0    0    0    0 -0.00000000000E+00 -0.00000000000E+00 -0.45593999997E+02  0.45594000000E+02  0.51100000000E-03 0. -1.
    9900012    2    1    2    0    0  0.11025503132E+01  0.17948061054E+00 -0.38028099458E+00  0.90007981306E+02  0.90000245859E+02 0.  0.
        -12    1    1    2    0    0 -0.11025503132E+01 -0.17948061054E+00  0.38028099458E+00  0.11800186938E+01  0.00000000000E+00 0.  1.
         11    1    3    3    0    0  0.26445044139E+01 -0.59483072378E+01  0.54124450184E+01  0.84658327368E+01  0.51100000000E-03 0. -1.
        -11    1    3    3    0    0 -0.25904607253E+02 -0.12748966480E+02  0.24841066104E+02  0.38087575253E+02  0.51100000000E-03 0.  1.
         12    1    3    3    0    0  0.24362653152E+02  0.18876754329E+02 -0.30633792117E+02  0.43454573316E+02  0.00000000000E+00 0. -1.
</event>
<event>
 7    1  0.3863655E-015  0.9000763E+02  0.7816164E-02  0.1186339E+00
        -11   -1    0    0    0    0  0.00000000000E+00  0.00000000000E+00  0.45593999997E+02  0.45594000000E+02  0.51100000000E-03 0.  1.
         11   -1    0    0    0    0 -0.00000000000E+00 -0.00000000000E+00 -0.45593999997E+02  0.45594000000E+02  0.51100000000E-03 0. -1.
    9900012    2    1    2    0    0  0.68772351755E-01 -0.11338279719E+01  0.32091602399E+00  0.90007626076E+02  0.89999885940E+02 0.  0.
        -12    1    1    2    0    0 -0.68772351755E-01  0.11338279719E+01 -0.32091602399E+00  0.11803739241E+01  0.00000000000E+00 0.  1.
         11    1    3    3    0    0  0.35925543820E+01 -0.42762821910E+02 -0.36906612771E+01  0.43071874414E+02  0.51100000000E-03 0. -1.
        -11    1    3    3    0    0  0.16780768430E+00  0.69561828037E+01 -0.74858719435E+01  0.10220318862E+02  0.51100000000E-03 0.  1.
        -12    1    3    3    0    0 -0.36915897145E+01  0.34672811134E+02  0.11497449245E+02  0.36715432800E+02  0.00000000000E+00 0.  1.
</event>
<event>
 7    1  0.3863655E-015  0.9000772E+02  0.7816164E-02  0.1186339E+00
        -11   -1    0    0    0    0  0.00000000000E+00  0.00000000000E+00  0.45593999997E+02  0.45594000000E+02  0.51100000000E-03 0.  1.
         11   -1    0    0    0    0 -0.00000000000E+00 -0.00000000000E+00 -0.45593999997E+02  0.45594000000E+02  0.51100000000E-03 0. -1.
    9900012    2    1    2    0    0  0.84200981945E-01  0.95038525845E+00 -0.69478896111E+00  0.90007723064E+02  0.89999984209E+02 0.  0.
        -12    1    1    2    0    0 -0.84200981945E-01 -0.95038525845E+00  0.69478896111E+00  0.11802769359E+01  0.00000000000E+00 0.  1.
         11    1    3    3    0    0  0.19548779440E+02 -0.31822040442E+01 -0.31745700094E+02  0.37417518289E+02  0.51100000000E-03 0. -1.
        -11    1    3    3    0    0  0.73748488782E+01 -0.20299893557E+01 -0.34964964937E+01  0.84103948035E+01  0.51100000000E-03 0.  1.
        -12    1    3    3    0    0 -0.26839427337E+02  0.61625786584E+01  0.34547407626E+02  0.44179809972E+02  0.00000000000E+00 0.  1.
</event>
<event>
 7    1  0.3863655E-015  0.9000778E+02  0.7816164E-02  0.1186339E+00
        -11   -1    0    0    0    0  0.00000000000E+00  0.00000000000E+00  0.45593999997E+02  0.45594000000E+02  0.51100000000E-03 0.  1.
         11   -1    0    0    0    0 -0.00000000000E+00 -0.00000000000E+00 -0.45593999997E+02  0.45594000000E+02  0.51100000000E-03 0. -1.
    9900012    2    1    2    0    0  0.88151763181E+00 -0.52376913692E+00 -0.58439635285E+00  0.90007776910E+02  0.90000038766E+02 0.  0.
        -12    1    1    2    0    0 -0.88151763181E+00  0.52376913692E+00  0.58439635285E+00  0.11802230896E+01  0.00000000000E+00 0.  1.
         11    1    3    3    0    0 -0.27953847617E+02  0.24827550419E+02 -0.14255512505E+02  0.40013054037E+02  0.51100000000E-03 0. -1.
        -11    1    3    3    0    0  0.50637305255E+01 -0.66046555264E+00 -0.79658678473E+01  0.94621684831E+01  0.51100000000E-03 0.  1.
        -12    1    3    3    0    0  0.23771634723E+02 -0.24690854003E+02  0.21636983999E+02  0.40532554390E+02  0.00000000000E+00 0.  1.
</event>
<event>
 7    1  0.3863655E-015  0.9000751E+02  0.7816164E-02  0.1186340E+00
        -11   -1    0    0    0    0  0.00000000000E+00  0.00000000000E+00  0.45593999997E+02  0.45594000000E+02  0.51100000000E-03 0.  1.
         11   -1    0    0    0    0 -0.00000000000E+00 -0.00000000000E+00 -0.45593999997E+02  0.45594000000E+02  0.51100000000E-03 0. -1.
    9900012    2    1    2    0    0 -0.14547855756E+00 -0.30044997340E+00 -0.11323070432E+01  0.90007511357E+02  0.89999769706E+02 0.  0.
        -12    1    1    2    0    0  0.14547855756E+00  0.30044997340E+00  0.11323070432E+01  0.11804886434E+01  0.00000000000E+00 0.  1.
         11    1    3    3    0    0 -0.60544346502E+01  0.14987057876E+02 -0.89561294197E+01  0.18479186593E+02  0.51100000000E-03 0. -1.
        -11    1    3    3    0    0  0.32999858818E+02  0.52316223711E+01 -0.75083888049E+01  0.34245239923E+02  0.51100000000E-03 0.  1.
         12    1    3    3    0    0 -0.27090902726E+02 -0.20519130220E+02  0.15332211181E+02  0.37283084840E+02  0.00000000000E+00 0. -1.
</event>
<event>
 7    1  0.3863655E-015  0.9000764E+02  0.7816164E-02  0.1186339E+00
        -11   -1    0    0    0    0  0.00000000000E+00  0.00000000000E+00  0.45593999997E+02  0.45594000000E+02  0.51100000000E-03 0. -1.
         11   -1    0    0    0    0 -0.00000000000E+00 -0.00000000000E+00 -0.45593999997E+02  0.45594000000E+02  0.51100000000E-03 0.  1.
    9900012    2    1    2    0    0  0.11491298209E+01  0.16849917835E+00 -0.21061212210E+00  0.90007640400E+02  0.89999900454E+02 0.  0.
        -12    1    1    2    0    0 -0.11491298209E+01 -0.16849917835E+00  0.21061212210E+00  0.11803595996E+01  0.00000000000E+00 0.  1.
         11    1    3    3    0    0 -0.16432082331E+02  0.40665653836E+00 -0.36172851313E+02  0.39732277454E+02  0.51100000000E-03 0. -1.
        -11    1    3    3    0    0 -0.82007702610E+01  0.56640082077E+00  0.38250580883E+01  0.90666704144E+01  0.51100000000E-03 0.  1.
        -12    1    3    3    0    0  0.25781982413E+02 -0.80455818078E+00  0.32137181103E+02  0.41208692532E+02  0.00000000000E+00 0.  1.
</event>
<event>
 7    1  0.3863655E-015  0.9000769E+02  0.7816164E-02  0.1186339E+00
        -11   -1    0    0    0    0  0.00000000000E+00  0.00000000000E+00  0.45593999997E+02  0.45594000000E+02  0.51100000000E-03 0.  1.
         11   -1    0    0    0    0 -0.00000000000E+00 -0.00000000000E+00 -0.45593999997E+02  0.45594000000E+02  0.51100000000E-03 0. -1.
    9900012    2    1    2    0    0  0.31869123105E+00  0.10354081336E+01 -0.46851498137E+00  0.90007686316E+02  0.89999946976E+02 0.  0.
        -12    1    1    2    0    0 -0.31869123105E+00 -0.10354081336E+01  0.46851498137E+00  0.11803136836E+01  0.00000000000E+00 0.  1.
         11    1    3    3    0    0  0.53711668365E+01 -0.21686156739E+02 -0.71675229575E+01  0.23462996674E+02  0.51100000000E-03 0. -1.
        -11    1    3    3    0    0  0.18492865340E+02 -0.42919539176E+01  0.20686170868E+02  0.28077118840E+02  0.51100000000E-03 0.  1.
        -12    1    3    3    0    0 -0.23545340946E+02  0.27013518790E+02 -0.13987162892E+02  0.38467570803E+02  0.00000000000E+00 0.  1.
</event>
<event>
 7    1  0.3863655E-015  0.9000733E+02  0.7816164E-02  0.1186340E+00
        -11   -1    0    0    0    0  0.00000000000E+00  0.00000000000E+00  0.45593999997E+02  0.45594000000E+02  0.51100000000E-03 0.  1.
         11   -1    0    0    0    0 -0.00000000000E+00 -0.00000000000E+00 -0.45593999997E+02  0.45594000000E+02  0.51100000000E-03 0. -1.
    9900012    2    1    2    0    0  0.46714344433E+00 -0.10787181913E+01  0.11013048678E+00  0.90007328726E+02  0.89999584664E+02 0.  0.
        -12    1    1    2    0    0 -0.46714344433E+00  0.10787181913E+01 -0.11013048678E+00  0.11806712743E+01  0.00000000000E+00 0.  1.
         11    1    3    3    0    0  0.43908717376E+01  0.67871173336E+01  0.66111051245E+01  0.10442769151E+02  0.51100000000E-03 0. -1.
        -11    1    3    3    0    0 -0.15716744099E+02  0.53490532449E+01  0.32630581725E+02  0.36611245263E+02  0.51100000000E-03 0.  1.
         12    1    3    3    0    0  0.11793015806E+02 -0.13214888770E+02 -0.39131556363E+02  0.42953314312E+02  0.00000000000E+00 0. -1.
</event>
<event>
 7    1  0.3863655E-015  0.9000775E+02  0.7816164E-02  0.1186339E+00
        -11   -1    0    0    0    0  0.00000000000E+00  0.00000000000E+00  0.45593999997E+02  0.45594000000E+02  0.51100000000E-03 0.  1.
         11   -1    0    0    0    0 -0.00000000000E+00 -0.00000000000E+00 -0.45593999997E+02  0.45594000000E+02  0.51100000000E-03 0. -1.
    9900012    2    1    2    0    0  0.89603199356E+00 -0.26748926112E+00  0.72011302748E+00  0.90007751462E+02  0.90000012982E+02 0.  0.
        -12    1    1    2    0    0 -0.89603199356E+00  0.26748926112E+00 -0.72011302748E+00  0.11802485377E+01  0.00000000000E+00 0.  1.
         11    1    3    3    0    0 -0.37044825774E+01  0.63625583149E-01  0.91397121748E+01  0.98621284863E+01  0.51100000000E-03 0. -1.
        -11    1    3    3    0    0 -0.34115041882E+02  0.10416674624E+02  0.83052168903E+01  0.36624033375E+02  0.51100000000E-03 0.  1.
         12    1    3    3    0    0  0.38715556453E+02 -0.10747789469E+02 -0.16724816038E+02  0.43521589601E+02  0.00000000000E+00 0. -1.
</event>
<event>
 7    1  0.3863655E-015  0.9000784E+02  0.7816164E-02  0.1186339E+00
        -11   -1    0    0    0    0  0.00000000000E+00  0.00000000000E+00  0.45593999997E+02  0.45594000000E+02  0.51100000000E-03 0.  1.
         11   -1    0    0    0    0 -0.00000000000E+00 -0.00000000000E+00 -0.45593999997E+02  0.45594000000E+02  0.51100000000E-03 0. -1.
    9900012    2    1    2    0    0  0.79443706144E+00 -0.86808630145E+00 -0.89910480685E-01  0.90007835619E+02  0.90000098249E+02 0.  0.
        -12    1    1    2    0    0 -0.79443706144E+00  0.86808630145E+00  0.89910480685E-01  0.11801643809E+01  0.00000000000E+00 0.  1.
         11    1    3    3    0    0  0.76630405976E+01 -0.32242552132E+01 -0.14903697660E+01  0.84462545060E+01  0.51100000000E-03 0. -1.
        -11    1    3    3    0    0  0.20428847903E+02  0.15502301708E+02  0.30296682803E+02  0.39693175409E+02  0.51100000000E-03 0.  1.
         12    1    3    3    0    0 -0.27297451440E+02 -0.13146132796E+02 -0.28896223518E+02  0.41868405704E+02  0.00000000000E+00 0. -1.
</event>
<event>
 7    1  0.3863655E-015  0.9000785E+02  0.7816164E-02  0.1186339E+00
        -11   -1    0    0    0    0  0.00000000000E+00  0.00000000000E+00  0.45593999997E+02  0.45594000000E+02  0.51100000000E-03 0.  1.
         11   -1    0    0    0    0 -0.00000000000E+00 -0.00000000000E+00 -0.45593999997E+02  0.45594000000E+02  0.51100000000E-03 0. -1.
    9900012    2    1    2    0    0 -0.12103799995E+00  0.34488395449E+00 -0.11221269087E+01  0.90007845799E+02  0.90000108563E+02 0.  0.
        -12    1    1    2    0    0  0.12103799995E+00 -0.34488395449E+00  0.11221269087E+01  0.11801542012E+01  0.00000000000E+00 0.  1.
         11    1    3    3    0    0  0.92519007518E+01 -0.41728324257E+01 -0.71427963980E+00  0.10174497218E+02  0.51100000000E-03 0. -1.
        -11    1    3    3    0    0 -0.84532940796E+01  0.62499814439E+01  0.38992182386E+02  0.40384535856E+02  0.51100000000E-03 0.  1.
         12    1    3    3    0    0 -0.91964467220E+00 -0.17322650637E+01 -0.39400029655E+02  0.39448812725E+02  0.00000000000E+00 0. -1.
</event>
<event>
 7    1  0.3863655E-015  0.9000793E+02  0.7816164E-02  0.1186339E+00
        -11   -1    0    0    0    0  0.00000000000E+00  0.00000000000E+00  0.45593999997E+02  0.45594000000E+02  0.51100000000E-03 0.  1.
         11   -1    0    0    0    0 -0.00000000000E+00 -0.00000000000E+00 -0.45593999997E+02  0.45594000000E+02  0.51100000000E-03 0. -1.
    9900012    2    1    2    0    0  0.11692682658E+01  0.15694500351E+00  0.27420449120E-01  0.90007927166E+02  0.90000191005E+02 0.  0.
        -12    1    1    2    0    0 -0.11692682658E+01 -0.15694500351E+00 -0.27420449120E-01  0.11800728335E+01  0.00000000000E+00 0.  1.
         11    1    3    3    0    0  0.38713342718E+01 -0.70856061017E+00 -0.84928436210E+01  0.93604316254E+01  0.51100000000E-03 0. -1.
        -11    1    3    3    0    0  0.25602757276E+02 -0.29109756943E+02  0.69886871533E+01  0.39391888477E+02  0.51100000000E-03 0.  1.
         12    1    3    3    0    0 -0.28304823282E+02  0.29975262557E+02  0.15315769168E+01  0.41255607064E+02  0.00000000000E+00 0. -1.
</event>
<event>
 7    1  0.3863655E-015  0.9000761E+02  0.7816164E-02  0.1186339E+00
        -11   -1    0    0    0    0  0.00000000000E+00  0.00000000000E+00  0.45593999997E+02  0.45594000000E+02  0.51100000000E-03 0. -1.
         11   -1    0    0    0    0 -0.00000000000E+00 -0.00000000000E+00 -0.45593999997E+02  0.45594000000E+02  0.51100000000E-03 0.  1.
    9900012    2    1    2    0    0  0.84039465150E+00  0.49789066535E+00  0.66269854061E+00  0.90007606997E+02  0.89999866610E+02 0.  0.
        -12    1    1    2    0    0 -0.84039465150E+00 -0.49789066535E+00 -0.66269854061E+00  0.11803930026E+01  0.00000000000E+00 0.  1.
         11    1    3    3    0    0  0.69956374544E+00  0.13024124912E+02 -0.38077768814E+01  0.13587361193E+02  0.51100000000E-03 0. -1.
        -11    1    3    3    0    0  0.22533843277E+01 -0.25214110194E+02 -0.30220091983E+02  0.39421860097E+02  0.51100000000E-03 0.  1.
         12    1    3    3    0    0 -0.21125534217E+01  0.12687875947E+02  0.34690567405E+02  0.36998385707E+02  0.00000000000E+00 0. -1.
</event>
<event>
 7    1  0.3863655E-015  0.9000772E+02  0.7816164E-02  0.1186339E+00
        -11   -1    0    0    0    0  0.00000000000E+00  0.00000000000E+00  0.45593999997E+02  0.45594000000E+02  0.51100000000E-03 0.  1.
         11   -1    0    0    0    0 -0.00000000000E+00 -0.00000000000E+00 -0.45593999997E+02  0.45594000000E+02  0.51100000000E-03 0. -1.
    9900012    2    1    2    0    0 -0.12845288434E+00  0.72529918325E-01 -0.11710204469E+01  0.90007724770E+02  0.89999985936E+02 0.  0.
        -12    1    1    2    0    0  0.12845288434E+00 -0.72529918325E-01  0.11710204469E+01  0.11802752305E+01  0.00000000000E+00 0.  1.
         11    1    3    3    0    0  0.10541588155E+02  0.86166324465E+01 -0.35973426727E+02  0.38463734430E+02  0.51100000000E-03 0. -1.
        -11    1    3    3    0    0  0.79630040402E+01  0.36137369067E+01 -0.15913905618E+01  0.88882535943E+01  0.51100000000E-03 0.  1.
        -12    1    3    3    0    0 -0.18633045080E+02 -0.12157839435E+02  0.36393796842E+02  0.42655736745E+02  0.00000000000E+00 0.  1.
</event>
<event>
 7    1  0.3863655E-015  0.9000775E+02  0.7816164E-02  0.1186339E+00
        -11   -1    0    0    0    0  0.00000000000E+00  0.00000000000E+00  0.45593999997E+02  0.45594000000E+02  0.51100000000E-03 0. -1.
         11   -1    0    0    0    0 -0.00000000000E+00 -0.00000000000E+00 -0.45593999997E+02  0.45594000000E+02  0.51100000000E-03 0.  1.
    9900012    2    1    2    0    0 -0.70816324939E+00  0.56046170575E+00 -0.75985046431E+00  0.90007752043E+02  0.90000013570E+02 0.  0.
        -12    1    1    2    0    0  0.70816324939E+00 -0.56046170575E+00  0.75985046431E+00  0.11802479568E+01  0.00000000000E+00 0.  1.
         11    1    3    3    0    0  0.27389985385E+01  0.40589884211E+01  0.71386595794E+01  0.86566714647E+01  0.51100000000E-03 0. -1.
        -11    1    3    3    0    0  0.16572372810E+01  0.20889994807E+02 -0.37317098145E+02  0.42798412736E+02  0.51100000000E-03 0.  1.
         12    1    3    3    0    0 -0.51043990689E+01 -0.24388521523E+02  0.29418588102E+02  0.38552667843E+02  0.00000000000E+00 0. -1.
</event>
<event>
 7    1  0.3863655E-015  0.9000771E+02  0.7816164E-02  0.1186339E+00
        -11   -1    0    0    0    0  0.00000000000E+00  0.00000000000E+00  0.45593999997E+02  0.45594000000E+02  0.51100000000E-03 0. -1.
         11   -1    0    0    0    0 -0.00000000000E+00 -0.00000000000E+00 -0.45593999997E+02  0.45594000000E+02  0.51100000000E-03 0.  1.
    9900012    2    1    2    0    0  0.58923897230E+00  0.81176443811E+00 -0.62202356840E+00  0.90007713006E+02  0.89999974017E+02 0.  0.
        -12    1    1    2    0    0 -0.58923897230E+00 -0.81176443811E+00  0.62202356840E+00  0.11802869944E+01  0.00000000000E+00 0.  1.
         11    1    3    3    0    0 -0.15659861231E+02 -0.27214816046E+02  0.19840033502E+02  0.37141680035E+02  0.51100000000E-03 0. -1.
        -11    1    3    3    0    0  0.60899801005E+01 -0.57291410538E+01  0.46663188673E+01  0.95752517915E+01  0.51100000000E-03 0.  1.
        -12    1    3    3    0    0  0.10159120103E+02  0.33755721538E+02 -0.25128375938E+02  0.43290781179E+02  0.00000000000E+00 0.  1.
</event>
<event>
 7    1  0.3863655E-015  0.9000771E+02  0.7816164E-02  0.1186339E+00
        -11   -1    0    0    0    0  0.00000000000E+00  0.00000000000E+00  0.45593999997E+02  0.45594000000E+02  0.51100000000E-03 0. -1.
         11   -1    0    0    0    0 -0.00000000000E+00 -0.00000000000E+00 -0.45593999997E+02  0.45594000000E+02  0.51100000000E-03 0.  1.
    9900012    2    1    2    0    0 -0.35231053789E+00  0.10924059503E+01 -0.27495477063E+00  0.90007714610E+02  0.89999975643E+02 0.  0.
        -12    1    1    2    0    0  0.35231053789E+00 -0.10924059503E+01  0.27495477063E+00  0.11802853897E+01  0.00000000000E+00 0.  1.
         11    1    3    3    0    0 -0.31469093281E+01  0.77755615137E+01  0.33504219966E+01  0.90325922630E+01  0.51100000000E-03 0. -1.
        -11    1    3    3    0    0 -0.10450442129E+02  0.34257096979E+02  0.73632394700E+01  0.36564706069E+02  0.51100000000E-03 0.  1.
         12    1    3    3    0    0  0.13245040920E+02 -0.40940252543E+02 -0.10988616237E+02  0.44410416278E+02  0.00000000000E+00 0. -1.
</event>
<event>
 7    1  0.3863655E-015  0.9000833E+02  0.7816164E-02  0.1186338E+00
        -11   -1    0    0    0    0  0.00000000000E+00  0.00000000000E+00  0.45593999997E+02  0.45594000000E+02  0.51100000000E-03 0. -1.
         11   -1    0    0    0    0 -0.00000000000E+00 -0.00000000000E+00 -0.45593999997E+02  0.45594000000E+02  0.51100000000E-03 0.  1.
    9900012    2    1    2    0    0 -0.84146909532E+00  0.79542309548E+00  0.22553056489E+00  0.90008325394E+02  0.90000594488E+02 0.  0.
        -12    1    1    2    0    0  0.84146909532E+00 -0.79542309548E+00 -0.22553056489E+00  0.11796746055E+01  0.00000000000E+00 0.  1.
         11    1    3    3    0    0  0.29712651943E+02  0.20196676331E+01 -0.19681092998E+02  0.35696864914E+02  0.51100000000E-03 0. -1.
        -11    1    3    3    0    0  0.85137977686E+01  0.21930501389E+01 -0.25057657865E+01  0.91418315339E+01  0.51100000000E-03 0.  1.
        -12    1    3    3    0    0 -0.39067918807E+02 -0.34172946765E+01  0.22412389349E+02  0.45169628946E+02  0.00000000000E+00 0.  1.
</event>
<event>
 7    1  0.3863655E-015  0.9000776E+02  0.7816164E-02  0.1186339E+00
        -11   -1    0    0    0    0  0.00000000000E+00  0.00000000000E+00  0.45593999997E+02  0.45594000000E+02  0.51100000000E-03 0. -1.
         11   -1    0    0    0    0 -0.00000000000E+00 -0.00000000000E+00 -0.45593999997E+02  0.45594000000E+02  0.51100000000E-03 0.  1.
    9900012    2    1    2    0    0  0.97353100561E+00 -0.66723529217E+00 -0.35594736936E-02  0.90007755015E+02  0.90000016582E+02 0.  0.
        -12    1    1    2    0    0 -0.97353100561E+00  0.66723529217E+00  0.35594736936E-02  0.11802449847E+01  0.00000000000E+00 0.  1.
         11    1    3    3    0    0  0.29860918883E+02 -0.60471306342E+01  0.22641056908E+02  0.37958658085E+02  0.51100000000E-03 0. -1.
        -11    1    3    3    0    0  0.19017553546E+00 -0.35463820613E+01  0.80732101005E+01  0.88198477338E+01  0.51100000000E-03 0.  1.
        -12    1    3    3    0    0 -0.29077563413E+02  0.89262774033E+01 -0.30717826482E+02  0.43229249197E+02  0.00000000000E+00 0.  1.
</event>
<event>
 7    1  0.3863655E-015  0.9000767E+02  0.7816164E-02  0.1186339E+00
        -11   -1    0    0    0    0  0.00000000000E+00  0.00000000000E+00  0.45593999997E+02  0.45594000000E+02  0.51100000000E-03 0.  1.
         11   -1    0    0    0    0 -0.00000000000E+00 -0.00000000000E+00 -0.45593999997E+02  0.45594000000E+02  0.51100000000E-03 0. -1.
    9900012    2    1    2    0    0  0.24276760712E+00 -0.25144428896E+00  0.11273960852E+01  0.90007668574E+02  0.89999928999E+02 0.  0.
        -12    1    1    2    0    0 -0.24276760712E+00  0.25144428896E+00 -0.11273960852E+01  0.11803314257E+01  0.00000000000E+00 0.  1.
         11    1    3    3    0    0  0.43681890993E+01 -0.72778333251E+01  0.46807564734E+01  0.96931633299E+01  0.51100000000E-03 0. -1.
        -11    1    3    3    0    0  0.14675263092E+02 -0.28285374485E+02  0.16145601077E+02  0.35722628556E+02  0.51100000000E-03 0.  1.
         12    1    3    3    0    0 -0.18800684584E+02  0.35311763521E+02 -0.19698961466E+02  0.44591876688E+02  0.00000000000E+00 0. -1.
</event>
<event>
 7    1  0.5334039E-015  0.9000787E+02  0.7816164E-02  0.1186339E+00
        -11   -1    0    0    0    0  0.00000000000E+00  0.00000000000E+00  0.45593999997E+02  0.45594000000E+02  0.51100000000E-03 0. -1.
         11   -1    0    0    0    0 -0.00000000000E+00 -0.00000000000E+00 -0.45593999997E+02  0.45594000000E+02  0.51100000000E-03 0.  1.
    9900012    2    1    2    0    0 -0.94090212214E+00  0.29959381721E+00  0.64626927814E+00  0.90007865585E+02  0.90000128610E+02 0.  0.
        -12    1    1    2    0    0  0.94090212214E+00 -0.29959381721E+00 -0.64626927814E+00  0.11801344155E+01  0.00000000000E+00 0.  1.
         11    1    3    3    0    0  0.49759988438E+01  0.81849217973E+01  0.12360509821E+01  0.96582261111E+01  0.51100000000E-03 0. -1.
        -11    1    3    3    0    0  0.12395548598E+02 -0.36851269587E+02 -0.16903400813E+02  0.42395644287E+02  0.51100000000E-03 0.  1.
         12    1    3    3    0    0 -0.18312449564E+02  0.28965941607E+02  0.16313619109E+02  0.37953995187E+02  0.00000000000E+00 0. -1.
</event>
<event>
 7    1  0.3863655E-015  0.9000770E+02  0.7816164E-02  0.1186339E+00
        -11   -1    0    0    0    0  0.00000000000E+00  0.00000000000E+00  0.45593999997E+02  0.45594000000E+02  0.51100000000E-03 0.  1.
         11   -1    0    0    0    0 -0.00000000000E+00 -0.00000000000E+00 -0.45593999997E+02  0.45594000000E+02  0.51100000000E-03 0. -1.
    9900012    2    1    2    0    0  0.77646766057E+00 -0.87938398369E+00  0.12992679635E+00  0.90007703770E+02  0.89999964660E+02 0.  0.
        -12    1    1    2    0    0 -0.77646766057E+00  0.87938398369E+00 -0.12992679635E+00  0.11802962302E+01  0.00000000000E+00 0.  1.
         11    1    3    3    0    0  0.15937462554E+01 -0.46521311788E+01  0.85614460704E+01  0.98732320296E+01  0.51100000000E-03 0. -1.
        -11    1    3    3    0    0 -0.10429106363E+02  0.10715140117E+02  0.33432418669E+02  0.36623859786E+02  0.51100000000E-03 0.  1.
         12    1    3    3    0    0  0.96118277678E+01 -0.69423929216E+01 -0.41863937944E+02  0.43510611955E+02  0.00000000000E+00 0. -1.
</event>
<event>
 7    1  0.3863655E-015  0.9000766E+02  0.7816164E-02  0.1186339E+00
        -11   -1    0    0    0    0  0.00000000000E+00  0.00000000000E+00  0.45593999997E+02  0.45594000000E+02  0.51100000000E-03 0. -1.
         11   -1    0    0    0    0 -0.00000000000E+00 -0.00000000000E+00 -0.45593999997E+02  0.45594000000E+02  0.51100000000E-03 0.  1.
    9900012    2    1    2    0    0 -0.40391362919E+00  0.10008631042E+01  0.47784811531E+00  0.90007655985E+02  0.89999916244E+02 0.  0.
        -12    1    1    2    0    0  0.40391362919E+00 -0.10008631042E+01 -0.47784811531E+00  0.11803440153E+01  0.00000000000E+00 0.  1.
         11    1    3    3    0    0  0.69082438285E+01  0.28935323953E+01 -0.88614570324E+01  0.11602662777E+02  0.51100000000E-03 0. -1.
        -11    1    3    3    0    0  0.26335604180E+02  0.10362236458E+02 -0.17834866750E+02  0.33451793139E+02  0.51100000000E-03 0.  1.
         12    1    3    3    0    0 -0.33647761638E+02 -0.12254905749E+02  0.27174171897E+02  0.44953200069E+02  0.00000000000E+00 0. -1.
</event>
<event>
 8    1  0.3863655E-015  0.9000772E+02  0.7816164E-02  0.1186339E+00
        -11   -1    0    0    0    0  0.00000000000E+00  0.00000000000E+00  0.45593999997E+02  0.45594000000E+02  0.51100000000E-03 0. -1.
         11   -1    0    0    0    0 -0.00000000000E+00 -0.00000000000E+00 -0.45593999997E+02  0.45594000000E+02  0.51100000000E-03 0.  1.
    9900012    2    1    2    0    0  0.79793031318E+00 -0.86583841544E+00  0.81847248257E-01  0.90007717018E+02  0.89999978082E+02 0.  0.
         23    2    3    3    0    0  0.17721825368E+02  0.55632493449E+01  0.17482609414E+02  0.64897202941E+02  0.59674051983E+02 0.  0.
        -12    1    1    2    0    0 -0.79793031318E+00  0.86583841544E+00 -0.81847248257E-01  0.11802829823E+01  0.00000000000E+00 0.  1.
         11    1    4    4    0    0  0.32587693381E+02 -0.15480590032E+02  0.55465135649E+01  0.36501647094E+02  0.51100000000E-03 0.  1.
        -11    1    4    4    0    0 -0.14865868013E+02  0.21043839377E+02  0.11936095849E+02  0.28395555847E+02  0.51100000000E-03 0. -1.
        -12    1    3    3    0    0 -0.16923895054E+02 -0.64290877604E+01 -0.17400762165E+02  0.25110514076E+02  0.00000000000E+00 0.  1.
</event>
<event>
 7    1  0.3863655E-015  0.9000776E+02  0.7816164E-02  0.1186339E+00
        -11   -1    0    0    0    0  0.00000000000E+00  0.00000000000E+00  0.45593999997E+02  0.45594000000E+02  0.51100000000E-03 0.  1.
         11   -1    0    0    0    0 -0.00000000000E+00 -0.00000000000E+00 -0.45593999997E+02  0.45594000000E+02  0.51100000000E-03 0. -1.
    9900012    2    1    2    0    0 -0.61623171593E+00 -0.95169354856E+00  0.32789499938E+00  0.90007755420E+02  0.90000016992E+02 0.  0.
        -12    1    1    2    0    0  0.61623171593E+00  0.95169354856E+00 -0.32789499938E+00  0.11802445800E+01  0.00000000000E+00 0.  1.
         11    1    3    3    0    0 -0.27178597848E+01 -0.36627017935E+02 -0.25666966972E+01  0.36817293991E+02  0.51100000000E-03 0. -1.
        -11    1    3    3    0    0  0.55778564014E+01 -0.70334076641E+01 -0.39320265773E+01  0.98001091152E+01  0.51100000000E-03 0.  1.
        -12    1    3    3    0    0 -0.34762283325E+01  0.42708732051E+02  0.68266182739E+01  0.43390352313E+02  0.00000000000E+00 0.  1.
</event>
<event>
 7    1  0.3863655E-015  0.9000771E+02  0.7816164E-02  0.1186339E+00
        -11   -1    0    0    0    0  0.00000000000E+00  0.00000000000E+00  0.45593999997E+02  0.45594000000E+02  0.51100000000E-03 0.  1.
         11   -1    0    0    0    0 -0.00000000000E+00 -0.00000000000E+00 -0.45593999997E+02  0.45594000000E+02  0.51100000000E-03 0. -1.
    9900012    2    1    2    0    0 -0.75311140813E+00  0.84696819182E+00 -0.32947004550E+00  0.90007710874E+02  0.89999971857E+02 0.  0.
        -12    1    1    2    0    0  0.75311140813E+00 -0.84696819182E+00  0.32947004550E+00  0.11802891264E+01  0.00000000000E+00 0.  1.
         11    1    3    3    0    0 -0.76206157072E+01  0.60276500670E+01 -0.16571872301E+00  0.97177061102E+01  0.51100000000E-03 0. -1.
        -11    1    3    3    0    0  0.23915126635E+02  0.85406429170E+01 -0.32500048411E+02  0.41244745246E+02  0.51100000000E-03 0.  1.
         12    1    3    3    0    0 -0.17047622336E+02 -0.13721324792E+02  0.32336297089E+02  0.39045259517E+02  0.00000000000E+00 0. -1.
</event>
<event>
 7    1  0.3863655E-015  0.9000772E+02  0.7816164E-02  0.1186339E+00
        -11   -1    0    0    0    0  0.00000000000E+00  0.00000000000E+00  0.45593999997E+02  0.45594000000E+02  0.51100000000E-03 0. -1.
         11   -1    0    0    0    0 -0.00000000000E+00 -0.00000000000E+00 -0.45593999997E+02  0.45594000000E+02  0.51100000000E-03 0.  1.
    9900012    2    1    2    0    0  0.39199234234E-01 -0.74980043688E+00 -0.91067222684E+00  0.90007719872E+02  0.89999980975E+02 0.  0.
        -12    1    1    2    0    0 -0.39199234234E-01  0.74980043688E+00  0.91067222684E+00  0.11802801277E+01  0.00000000000E+00 0.  1.
         11    1    3    3    0    0  0.10314993759E+01  0.39598465966E+01 -0.61145663779E+01  0.73574654795E+01  0.51100000000E-03 0. -1.
        -11    1    3    3    0    0  0.35480855650E+02 -0.19511130431E+02 -0.77194723328E+01  0.41220936206E+02  0.51100000000E-03 0.  1.
         12    1    3    3    0    0 -0.36473155791E+02  0.14801483398E+02  0.12923366484E+02  0.41429318187E+02  0.00000000000E+00 0. -1.
</event>
<event>
 7    1  0.3863655E-015  0.9000767E+02  0.7816164E-02  0.1186339E+00
        -11   -1    0    0    0    0  0.00000000000E+00  0.00000000000E+00  0.45593999997E+02  0.45594000000E+02  0.51100000000E-03 0.  1.
         11   -1    0    0    0    0 -0.00000000000E+00 -0.00000000000E+00 -0.45593999997E+02  0.45594000000E+02  0.51100000000E-03 0. -1.
    9900012    2    1    2    0    0 -0.10502001030E+01 -0.74844912012E-01 -0.53352523585E+00  0.90007673268E+02  0.89999933755E+02 0.  0.
        -12    1    1    2    0    0  0.10502001030E+01  0.74844912012E-01  0.53352523585E+00  0.11803267321E+01  0.00000000000E+00 0.  1.
         11    1    3    3    0    0 -0.12060412210E+02 -0.34077930005E+02 -0.50506858941E+01  0.36500250470E+02  0.51100000000E-03 0. -1.
        -11    1    3    3    0    0  0.15267644466E+01 -0.62787867190E+01 -0.79896734797E+01  0.10275653503E+02  0.51100000000E-03 0.  1.
        -12    1    3    3    0    0  0.94834476606E+01  0.40281871812E+02  0.12506834138E+02  0.43231769295E+02  0.00000000000E+00 0.  1.
</event>
<event>
 7    1  0.3863655E-015  0.9000774E+02  0.7816164E-02  0.1186339E+00
        -11   -1    0    0    0    0  0.00000000000E+00  0.00000000000E+00  0.45593999997E+02  0.45594000000E+02  0.51100000000E-03 0.  1.
         11   -1    0    0    0    0 -0.00000000000E+00 -0.00000000000E+00 -0.45593999997E+02  0.45594000000E+02  0.51100000000E-03 0. -1.
    9900012    2    1    2    0    0  0.93131924547E+00 -0.51612348071E+00 -0.50919992976E+00  0.90007735812E+02  0.89999997125E+02 0.  0.
        -12    1    1    2    0    0 -0.93131924547E+00  0.51612348071E+00  0.50919992976E+00  0.11802641877E+01  0.00000000000E+00 0.  1.
         11    1    3    3    0    0 -0.34194352913E+01 -0.92635796751E+01 -0.34625005748E+01  0.10464002896E+02  0.51100000000E-03 0. -1.
        -11    1    3    3    0    0 -0.26230100503E+02  0.27551430678E+02  0.16107052114E+02  0.41310248521E+02  0.51100000000E-03 0.  1.
         12    1    3    3    0    0  0.30580855039E+02 -0.18803974484E+02 -0.13153751469E+02  0.38233484396E+02  0.00000000000E+00 0. -1.
</event>
<event>
 7    1  0.3863655E-015  0.9000786E+02  0.7816164E-02  0.1186339E+00
        -11   -1    0    0    0    0  0.00000000000E+00  0.00000000000E+00  0.45593999997E+02  0.45594000000E+02  0.51100000000E-03 0.  1.
         11   -1    0    0    0    0 -0.00000000000E+00 -0.00000000000E+00 -0.45593999997E+02  0.45594000000E+02  0.51100000000E-03 0. -1.
    9900012    2    1    2    0    0  0.49331280964E+00 -0.48066739652E+00  0.95829412979E+00  0.90007861740E+02  0.90000124715E+02 0.  0.
        -12    1    1    2    0    0 -0.49331280964E+00  0.48066739652E+00 -0.95829412979E+00  0.11801382603E+01  0.00000000000E+00 0.  1.
         11    1    3    3    0    0 -0.48626426585E+01  0.84007281979E+01 -0.34905636072E+00  0.97128455399E+01  0.51100000000E-03 0. -1.
        -11    1    3    3    0    0  0.23287243014E+02 -0.19913925829E+02  0.31201721965E+02  0.43731082573E+02  0.51100000000E-03 0.  1.
         12    1    3    3    0    0 -0.17931287546E+02  0.11032530235E+02 -0.29894371474E+02  0.36563933627E+02  0.00000000000E+00 0. -1.
</event>
<event>
 7    1  0.3863655E-015  0.9000778E+02  0.7816164E-02  0.1186339E+00
        -11   -1    0    0    0    0  0.00000000000E+00  0.00000000000E+00  0.45593999997E+02  0.45594000000E+02  0.51100000000E-03 0. -1.
         11   -1    0    0    0    0 -0.00000000000E+00 -0.00000000000E+00 -0.45593999997E+02  0.45594000000E+02  0.51100000000E-03 0.  1.
    9900012    2    1    2    0    0  0.79640470252E-01  0.11367990471E+01  0.30703284959E+00  0.90007778051E+02  0.90000039921E+02 0.  0.
        -12    1    1    2    0    0 -0.79640470252E-01 -0.11367990471E+01 -0.30703284959E+00  0.11802219489E+01  0.00000000000E+00 0.  1.
         11    1    3    3    0    0  0.33234617133E+02 -0.10269225345E+02  0.23317575329E+02  0.41877274083E+02  0.51100000000E-03 0. -1.
        -11    1    3    3    0    0 -0.75911247633E+01 -0.48637505349E+01  0.15211898868E+01  0.91430445351E+01  0.51100000000E-03 0.  1.
        -12    1    3    3    0    0 -0.25563851899E+02  0.16269774927E+02 -0.24531732366E+02  0.38987459433E+02  0.00000000000E+00 0.  1.
</event>
<event>
 7    1  0.3863655E-015  0.9000780E+02  0.7816164E-02  0.1186339E+00
        -11   -1    0    0    0    0  0.00000000000E+00  0.00000000000E+00  0.45593999997E+02  0.45594000000E+02  0.51100000000E-03 0.  1.
         11   -1    0    0    0    0 -0.00000000000E+00 -0.00000000000E+00 -0.45593999997E+02  0.45594000000E+02  0.51100000000E-03 0. -1.
    9900012    2    1    2    0    0  0.11547813895E+01  0.23750144529E+00 -0.54216102078E-01  0.90007802398E+02  0.90000064590E+02 0.  0.
        -12    1    1    2    0    0 -0.11547813895E+01 -0.23750144529E+00  0.54216102078E-01  0.11801976020E+01  0.00000000000E+00 0.  1.
         11    1    3    3    0    0  0.44957294174E+01 -0.77193230654E+01  0.24429710167E+01  0.92610819688E+01  0.51100000000E-03 0. -1.
        -11    1    3    3    0    0  0.34211277454E+02  0.14249180257E+02 -0.15974166942E+02  0.40356221984E+02  0.51100000000E-03 0.  1.
         12    1    3    3    0    0 -0.37552225482E+02 -0.62923557459E+01  0.13476979823E+02  0.40390498445E+02  0.00000000000E+00 0. -1.
</event>
<event>
 7    1  0.3863655E-015  0.9000766E+02  0.7816164E-02  0.1186339E+00
        -11   -1    0    0    0    0  0.00000000000E+00  0.00000000000E+00  0.45593999997E+02  0.45594000000E+02  0.51100000000E-03 0.  1.
         11   -1    0    0    0    0 -0.00000000000E+00 -0.00000000000E+00 -0.45593999997E+02  0.45594000000E+02  0.51100000000E-03 0. -1.
    9900012    2    1    2    0    0 -0.55886392504E+00  0.93388840232E+00 -0.45685667345E+00  0.90007663415E+02  0.89999923772E+02 0.  0.
        -12    1    1    2    0    0  0.55886392504E+00 -0.93388840232E+00  0.45685667345E+00  0.11803365854E+01  0.00000000000E+00 0.  1.
         11    1    3    3    0    0 -0.62452439347E+01 -0.41238226798E+01 -0.46701827149E+01  0.88215413704E+01  0.51100000000E-03 0. -1.
        -11    1    3    3    0    0 -0.21235394514E+02 -0.19280621378E+02 -0.22224513845E+02  0.36285167173E+02  0.51100000000E-03 0.  1.
         12    1    3    3    0    0  0.26921774524E+02  0.24338332460E+02  0.26437839886E+02  0.44900954871E+02  0.00000000000E+00 0. -1.
</event>
<event>
 7    1  0.3863655E-015  0.9000775E+02  0.7816164E-02  0.1186339E+00
        -11   -1    0    0    0    0  0.00000000000E+00  0.00000000000E+00  0.45593999997E+02  0.45594000000E+02  0.51100000000E-03 0.  1.
         11   -1    0    0    0    0 -0.00000000000E+00 -0.00000000000E+00 -0.45593999997E+02  0.45594000000E+02  0.51100000000E-03 0. -1.
    9900012    2    1    2    0    0  0.11360965261E+00  0.10268596115E+01 -0.57065757757E+00  0.90007746686E+02  0.90000008142E+02 0.  0.
        -12    1    1    2    0    0 -0.11360965261E+00 -0.10268596115E+01  0.57065757757E+00  0.11802533142E+01  0.00000000000E+00 0.  1.
         11    1    3    3    0    0  0.83880705187E+01 -0.18737551759E+01  0.60988092133E+00  0.86164169169E+01  0.51100000000E-03 0. -1.
        -11    1    3    3    0    0  0.34427155414E+02 -0.25083985554E+01  0.11724977146E+02  0.36455399909E+02  0.51100000000E-03 0.  1.
         12    1    3    3    0    0 -0.42701616280E+02  0.54090133429E+01 -0.12905515645E+02  0.44935929860E+02  0.00000000000E+00 0. -1.
</event>
<event>
 7    1  0.3863655E-015  0.9000774E+02  0.7816164E-02  0.1186339E+00
        -11   -1    0    0    0    0  0.00000000000E+00  0.00000000000E+00  0.45593999997E+02  0.45594000000E+02  0.51100000000E-03 0. -1.
         11   -1    0    0    0    0 -0.00000000000E+00 -0.00000000000E+00 -0.45593999997E+02  0.45594000000E+02  0.51100000000E-03 0.  1.
    9900012    2    1    2    0    0  0.87120079973E+00 -0.68522802963E+00 -0.40556030203E+00  0.90007742636E+02  0.90000004039E+02 0.  0.
        -12    1    1    2    0    0 -0.87120079973E+00  0.68522802963E+00  0.40556030203E+00  0.11802573637E+01  0.00000000000E+00 0.  1.
         11    1    3    3    0    0 -0.51085773406E+01  0.56256987585E+01 -0.67306771105E+01  0.10151259212E+02  0.51100000000E-03 0. -1.
        -11    1    3    3    0    0  0.35757673852E+02  0.86921919045E+01 -0.15579713375E+02  0.39961142482E+02  0.51100000000E-03 0.  1.
         12    1    3    3    0    0 -0.29777895711E+02 -0.15003118693E+02  0.21904830184E+02  0.39895340942E+02  0.00000000000E+00 0. -1.
</event>
<event>
 7    1  0.3863655E-015  0.9000769E+02  0.7816164E-02  0.1186339E+00
        -11   -1    0    0    0    0  0.00000000000E+00  0.00000000000E+00  0.45593999997E+02  0.45594000000E+02  0.51100000000E-03 0. -1.
         11   -1    0    0    0    0 -0.00000000000E+00 -0.00000000000E+00 -0.45593999997E+02  0.45594000000E+02  0.51100000000E-03 0.  1.
    9900012    2    1    2    0    0 -0.99188684904E+00 -0.15791408351E+00 -0.61996649964E+00  0.90007688668E+02  0.89999949359E+02 0.  0.
        -12    1    1    2    0    0  0.99188684904E+00  0.15791408351E+00  0.61996649964E+00  0.11803113317E+01  0.00000000000E+00 0.  1.
         11    1    3    3    0    0 -0.18428375524E+02 -0.13253242536E+02  0.37709198096E+02  0.44014055522E+02  0.51100000000E-03 0. -1.
        -11    1    3    3    0    0  0.42783088108E+01  0.56727319530E+01 -0.32770760682E+01  0.78245154424E+01  0.51100000000E-03 0.  1.
        -12    1    3    3    0    0  0.13158179864E+02  0.74225964999E+01 -0.35052088528E+02  0.38169117704E+02  0.00000000000E+00 0.  1.
</event>
<event>
 7    1  0.3863655E-015  0.9000770E+02  0.7816164E-02  0.1186339E+00
        -11   -1    0    0    0    0  0.00000000000E+00  0.00000000000E+00  0.45593999997E+02  0.45594000000E+02  0.51100000000E-03 0. -1.
         11   -1    0    0    0    0 -0.00000000000E+00 -0.00000000000E+00 -0.45593999997E+02  0.45594000000E+02  0.51100000000E-03 0.  1.
    9900012    2    1    2    0    0  0.13946931296E+00 -0.11683545291E+01  0.92746965257E-01  0.90007700888E+02  0.89999961739E+02 0.  0.
        -12    1    1    2    0    0 -0.13946931296E+00  0.11683545291E+01 -0.92746965257E-01  0.11802991123E+01  0.00000000000E+00 0.  1.
         11    1    3    3    0    0 -0.10730294227E+02  0.48786063194E+01  0.35467322917E+01  0.12309318585E+02  0.51100000000E-03 0. -1.
        -11    1    3    3    0    0 -0.17415970615E+02 -0.32498448415E+02 -0.10497722442E+02  0.38336240799E+02  0.51100000000E-03 0.  1.
         12    1    3    3    0    0  0.28285734155E+02  0.26451487567E+02  0.70437371150E+01  0.39362141504E+02  0.00000000000E+00 0. -1.
</event>
<event>
 7    1  0.3863655E-015  0.9000761E+02  0.7816164E-02  0.1186339E+00
        -11   -1    0    0    0    0  0.00000000000E+00  0.00000000000E+00  0.45593999997E+02  0.45594000000E+02  0.51100000000E-03 0.  1.
         11   -1    0    0    0    0 -0.00000000000E+00 -0.00000000000E+00 -0.45593999997E+02  0.45594000000E+02  0.51100000000E-03 0. -1.
    9900012    2    1    2    0    0  0.62859029229E+00 -0.98996275894E+00 -0.13475485175E+00  0.90007614093E+02  0.89999873799E+02 0.  0.
        -12    1    1    2    0    0 -0.62859029229E+00  0.98996275894E+00  0.13475485175E+00  0.11803859071E+01  0.00000000000E+00 0.  1.
         11    1    3    3    0    0  0.27267530253E+02  0.17370516877E+02  0.23063080727E+02  0.39713458116E+02  0.51100000000E-03 0. -1.
        -11    1    3    3    0    0  0.38184306016E+01  0.23368392516E+01 -0.10377540372E+02  0.11301972146E+02  0.51100000000E-03 0.  1.
        -12    1    3    3    0    0 -0.30457370562E+02 -0.20697318887E+02 -0.12820295207E+02  0.38992183831E+02  0.00000000000E+00 0.  1.
</event>
<event>
 7    1  0.3863655E-015  0.9000785E+02  0.7816164E-02  0.1186339E+00
        -11   -1    0    0    0    0  0.00000000000E+00  0.00000000000E+00  0.45593999997E+02  0.45594000000E+02  0.51100000000E-03 0. -1.
         11   -1    0    0    0    0 -0.00000000000E+00 -0.00000000000E+00 -0.45593999997E+02  0.45594000000E+02  0.51100000000E-03 0.  1.
    9900012    2    1    2    0    0 -0.34400254348E+00  0.85015142705E+00 -0.74274189180E+00  0.90007847164E+02  0.90000109946E+02 0.  0.
        -12    1    1    2    0    0  0.34400254348E+00 -0.85015142705E+00  0.74274189180E+00  0.11801528361E+01  0.00000000000E+00 0.  1.
         11    1    3    3    0    0 -0.29790940822E+02 -0.20771565244E+02  0.31298603620E+01  0.36452079555E+02  0.51100000000E-03 0. -1.
        -11    1    3    3    0    0 -0.63352490378E+01 -0.44553624055E+01  0.37880383072E+01  0.86217671630E+01  0.51100000000E-03 0.  1.
        -12    1    3    3    0    0  0.35782187316E+02  0.26077079077E+02 -0.76606405610E+01  0.44934000446E+02  0.00000000000E+00 0.  1.
</event>
<event>
 7    1  0.3863655E-015  0.9000774E+02  0.7816164E-02  0.1186339E+00
        -11   -1    0    0    0    0  0.00000000000E+00  0.00000000000E+00  0.45593999997E+02  0.45594000000E+02  0.51100000000E-03 0. -1.
         11   -1    0    0    0    0 -0.00000000000E+00 -0.00000000000E+00 -0.45593999997E+02  0.45594000000E+02  0.51100000000E-03 0.  1.
    9900012    2    1    2    0    0  0.14471016541E+00  0.11310115526E+01  0.30477815515E+00  0.90007738212E+02  0.89999999556E+02 0.  0.
        -12    1    1    2    0    0 -0.14471016541E+00 -0.11310115526E+01 -0.30477815515E+00  0.11802617879E+01  0.00000000000E+00 0.  1.
         11    1    3    3    0    0 -0.11201790048E+01  0.99901868480E+01 -0.30001157319E+01  0.10490916496E+02  0.51100000000E-03 0. -1.
        -11    1    3    3    0    0  0.15575649386E+02  0.29303416231E+02  0.15981449456E+02  0.36833378661E+02  0.51100000000E-03 0.  1.
         12    1    3    3    0    0 -0.14310760216E+02 -0.38162591526E+02 -0.12676555569E+02  0.42683443055E+02  0.00000000000E+00 0. -1.
</event>
<event>
 7    1  0.3863655E-015  0.9000775E+02  0.7816164E-02  0.1186339E+00
        -11   -1    0    0    0    0  0.00000000000E+00  0.00000000000E+00  0.45593999997E+02  0.45594000000E+02  0.51100000000E-03 0. -1.
         11   -1    0    0    0    0 -0.00000000000E+00 -0.00000000000E+00 -0.45593999997E+02  0.45594000000E+02  0.51100000000E-03 0.  1.
    9900012    2    1    2    0    0  0.92813526990E+00 -0.72878540648E+00  0.20641066074E-01  0.90007750322E+02  0.90000011827E+02 0.  0.
        -12    1    1    2    0    0 -0.92813526990E+00  0.72878540648E+00 -0.20641066074E-01  0.11802496776E+01  0.00000000000E+00 0.  1.
         11    1    3    3    0    0 -0.67693333001E+01  0.33589553657E+01 -0.39141540330E+01  0.85104087171E+01  0.51100000000E-03 0. -1.
        -11    1    3    3    0    0 -0.27329183856E+02  0.13202216770E+02 -0.19376338749E+02  0.36008683972E+02  0.51100000000E-03 0.  1.
         12    1    3    3    0    0  0.35026652426E+02 -0.17289957542E+02  0.23311133848E+02  0.45488657633E+02  0.00000000000E+00 0. -1.
</event>
<event>
 7    1  0.3863655E-015  0.9000772E+02  0.7816164E-02  0.1186339E+00
        -11   -1    0    0    0    0  0.00000000000E+00  0.00000000000E+00  0.45593999997E+02  0.45594000000E+02  0.51100000000E-03 0.  1.
         11   -1    0    0    0    0 -0.00000000000E+00 -0.00000000000E+00 -0.45593999997E+02  0.45594000000E+02  0.51100000000E-03 0. -1.
    9900012    2    1    2    0    0 -0.11272020454E+01  0.32866992047E+00 -0.12020631670E+00  0.90007721251E+02  0.89999982371E+02 0.  0.
        -12    1    1    2    0    0  0.11272020454E+01 -0.32866992047E+00  0.12020631670E+00  0.11802787494E+01  0.00000000000E+00 0.  1.
         11    1    3    3    0    0 -0.25975186877E+02  0.31924211238E+02 -0.99805206650E+01  0.42349455599E+02  0.51100000000E-03 0. -1.
        -11    1    3    3    0    0  0.64558507802E+01 -0.17861263203E+01 -0.61979523091E+01  0.91259448615E+01  0.51100000000E-03 0.  1.
        -12    1    3    3    0    0  0.18392134051E+02 -0.29809414998E+02  0.16058266657E+02  0.38532320791E+02  0.00000000000E+00 0.  1.
</event>
<event>
 7    1  0.3863655E-015  0.9000772E+02  0.7816164E-02  0.1186339E+00
        -11   -1    0    0    0    0  0.00000000000E+00  0.00000000000E+00  0.45593999997E+02  0.45594000000E+02  0.51100000000E-03 0.  1.
         11   -1    0    0    0    0 -0.00000000000E+00 -0.00000000000E+00 -0.45593999997E+02  0.45594000000E+02  0.51100000000E-03 0. -1.
    9900012    2    1    2    0    0  0.56503088210E+00 -0.56578036059E+00 -0.86815163676E+00  0.90007722669E+02  0.89999983808E+02 0.  0.
        -12    1    1    2    0    0 -0.56503088210E+00  0.56578036059E+00  0.86815163676E+00  0.11802773312E+01  0.00000000000E+00 0.  1.
         11    1    3    3    0    0  0.28220297129E+02 -0.16775428776E+02  0.19543995774E+02  0.38206909738E+02  0.51100000000E-03 0. -1.
        -11    1    3    3    0    0  0.26959539624E+01  0.65914672826E+01  0.68528699713E+01  0.98831895565E+01  0.51100000000E-03 0.  1.
        -12    1    3    3    0    0 -0.30351220209E+02  0.96181811329E+01 -0.27265017382E+02  0.41917623374E+02  0.00000000000E+00 0.  1.
</event>
<event>
 7    1  0.3863655E-015  0.9000818E+02  0.7816164E-02  0.1186338E+00
        -11   -1    0    0    0    0  0.00000000000E+00  0.00000000000E+00  0.45593999997E+02  0.45594000000E+02  0.51100000000E-03 0. -1.
         11   -1    0    0    0    0 -0.00000000000E+00 -0.00000000000E+00 -0.45593999997E+02  0.45594000000E+02  0.51100000000E-03 0.  1.
    9900012    2    1    2    0    0 -0.75170987601E+00  0.36452857550E+00  0.83308640859E+00  0.90008177223E+02  0.90000444362E+02 0.  0.
        -12    1    1    2    0    0  0.75170987601E+00 -0.36452857550E+00 -0.83308640859E+00  0.11798227766E+01  0.00000000000E+00 0.  1.
         11    1    3    3    0    0 -0.16960470834E+02 -0.28029346716E+02  0.17762846847E+02  0.37266883108E+02  0.51100000000E-03 0. -1.
        -11    1    3    3    0    0  0.32114376147E+01 -0.24852282193E+01  0.93287103723E+01  0.10174208978E+02  0.51100000000E-03 0.  1.
        -12    1    3    3    0    0  0.12997323343E+02  0.30879103511E+02 -0.26258470811E+02  0.42567085137E+02  0.00000000000E+00 0.  1.
</event>
<event>
 7    1  0.3863655E-015  0.9000768E+02  0.7816164E-02  0.1186339E+00
        -11   -1    0    0    0    0  0.00000000000E+00  0.00000000000E+00  0.45593999997E+02  0.45594000000E+02  0.51100000000E-03 0.  1.
         11   -1    0    0    0    0 -0.00000000000E+00 -0.00000000000E+00 -0.45593999997E+02  0.45594000000E+02  0.51100000000E-03 0. -1.
    9900012    2    1    2    0    0  0.74092862844E-01 -0.10861483950E+01 -0.45601127258E+00  0.90007680395E+02  0.89999940977E+02 0.  0.
        -12    1    1    2    0    0 -0.74092862844E-01  0.10861483950E+01  0.45601127258E+00  0.11803196046E+01  0.00000000000E+00 0.  1.
         11    1    3    3    0    0  0.26260394491E+00  0.42975805634E+01  0.79257014328E+01  0.90196952828E+01  0.51100000000E-03 0. -1.
        -11    1    3    3    0    0 -0.16276272182E+01 -0.35671980005E+02  0.18720638548E+02  0.40318750424E+02  0.51100000000E-03 0.  1.
         12    1    3    3    0    0  0.14391161362E+01  0.30288251046E+02 -0.27102351254E+02  0.40669234689E+02  0.00000000000E+00 0. -1.
</event>
<event>
 7    1  0.3863655E-015  0.9000761E+02  0.7816164E-02  0.1186339E+00
        -11   -1    0    0    0    0  0.00000000000E+00  0.00000000000E+00  0.45593999997E+02  0.45594000000E+02  0.51100000000E-03 0. -1.
         11   -1    0    0    0    0 -0.00000000000E+00 -0.00000000000E+00 -0.45593999997E+02  0.45594000000E+02  0.51100000000E-03 0.  1.
    9900012    2    1    2    0    0  0.10175349659E+01  0.49359305948E+00  0.33808979209E+00  0.90007611834E+02  0.89999871510E+02 0.  0.
        -12    1    1    2    0    0 -0.10175349659E+01 -0.49359305948E+00 -0.33808979209E+00  0.11803881661E+01  0.00000000000E+00 0.  1.
         11    1    3    3    0    0  0.85184470062E+01  0.32367484995E+01  0.49902333657E-01  0.91127916003E+01  0.51100000000E-03 0. -1.
        -11    1    3    3    0    0 -0.25838491000E+01 -0.40211981688E+02 -0.10413323980E+02  0.41618710504E+02  0.51100000000E-03 0.  1.
         12    1    3    3    0    0 -0.49170629402E+01  0.37468826248E+02  0.10701511438E+02  0.39276109729E+02  0.00000000000E+00 0. -1.
</event>
<event>
 7    1  0.4132988E-015  0.9000778E+02  0.7816164E-02  0.1186339E+00
        -11   -1    0    0    0    0  0.00000000000E+00  0.00000000000E+00  0.45593999997E+02  0.45594000000E+02  0.51100000000E-03 0. -1.
         11   -1    0    0    0    0 -0.00000000000E+00 -0.00000000000E+00 -0.45593999997E+02  0.45594000000E+02  0.51100000000E-03 0.  1.
    9900012    2    1    2    0    0 -0.11281437886E+01  0.12055264533E+00  0.32506449812E+00  0.90007784648E+02  0.90000046606E+02 0.  0.
        -12    1    1    2    0    0  0.11281437886E+01 -0.12055264533E+00 -0.32506449812E+00  0.11802153515E+01  0.00000000000E+00 0.  1.
         11    1    3    3    0    0 -0.10117680818E+02 -0.12501474060E+02  0.34024368968E+02  0.37633920906E+02  0.51100000000E-03 0. -1.
        -11    1    3    3    0    0  0.59867898652E+01 -0.66225139298E+01  0.41210572020E+01  0.98327237510E+01  0.51100000000E-03 0.  1.
        -12    1    3    3    0    0  0.30027471643E+01  0.19244540636E+02 -0.37820361672E+02  0.42541139992E+02  0.00000000000E+00 0.  1.
</event>
<event>
 7    1  0.3863655E-015  0.9000771E+02  0.7816164E-02  0.1186339E+00
        -11   -1    0    0    0    0  0.00000000000E+00  0.00000000000E+00  0.45593999997E+02  0.45594000000E+02  0.51100000000E-03 0.  1.
         11   -1    0    0    0    0 -0.00000000000E+00 -0.00000000000E+00 -0.45593999997E+02  0.45594000000E+02  0.51100000000E-03 0. -1.
    9900012    2    1    2    0    0  0.35343033995E-01 -0.11734445084E+01 -0.12186900909E+00  0.90007714780E+02  0.89999975815E+02 0.  0.
        -12    1    1    2    0    0 -0.35343033995E-01  0.11734445084E+01  0.12186900909E+00  0.11802852196E+01  0.00000000000E+00 0.  1.
         11    1    3    3    0    0 -0.16563118920E+02  0.33638678619E+00 -0.36052659438E+02  0.39676747815E+02  0.51100000000E-03 0. -1.
        -11    1    3    3    0    0  0.52792026729E+01  0.62320062950E+01 -0.32722205225E+01  0.87985970888E+01  0.51100000000E-03 0.  1.
        -12    1    3    3    0    0  0.11319259281E+02 -0.77418375895E+01  0.39203010951E+02  0.41532369876E+02  0.00000000000E+00 0.  1.
</event>
<event>
 7    1  0.3863655E-015  0.9000773E+02  0.7816164E-02  0.1186339E+00
        -11   -1    0    0    0    0  0.00000000000E+00  0.00000000000E+00  0.45593999997E+02  0.45594000000E+02  0.51100000000E-03 0. -1.
         11   -1    0    0    0    0 -0.00000000000E+00 -0.00000000000E+00 -0.45593999997E+02  0.45594000000E+02  0.51100000000E-03 0.  1.
    9900012    2    1    2    0    0  0.19214737656E+00  0.29971803229E+00  0.11252894543E+01  0.90007733984E+02  0.89999995272E+02 0.  0.
        -12    1    1    2    0    0 -0.19214737656E+00 -0.29971803229E+00 -0.11252894543E+01  0.11802660162E+01  0.00000000000E+00 0.  1.
         11    1    3    3    0    0  0.20643121361E+01 -0.31353218407E+01 -0.72397186863E+01  0.81550692553E+01  0.51100000000E-03 0. -1.
        -11    1    3    3    0    0  0.22207457611E+02 -0.21388625694E+02  0.28370815008E+02  0.41899255687E+02  0.51100000000E-03 0.  1.
         12    1    3    3    0    0 -0.24079622370E+02  0.24823665566E+02 -0.20005806868E+02  0.39953409042E+02  0.00000000000E+00 0. -1.
</event>
<event>
 7    1  0.3863655E-015  0.9000761E+02  0.7816164E-02  0.1186339E+00
        -11   -1    0    0    0    0  0.00000000000E+00  0.00000000000E+00  0.45593999997E+02  0.45594000000E+02  0.51100000000E-03 0.  1.
         11   -1    0    0    0    0 -0.00000000000E+00 -0.00000000000E+00 -0.45593999997E+02  0.45594000000E+02  0.51100000000E-03 0. -1.
    9900012    2    1    2    0    0 -0.91649997589E+00 -0.13156186236E-01 -0.74376054880E+00  0.90007608097E+02  0.89999867724E+02 0.  0.
        -12    1    1    2    0    0  0.91649997589E+00  0.13156186236E-01  0.74376054880E+00  0.11803919031E+01  0.00000000000E+00 0.  1.
         11    1    3    3    0    0  0.23746465065E+02 -0.43781997485E+01 -0.32175113358E+02  0.40228114000E+02  0.51100000000E-03 0. -1.
        -11    1    3    3    0    0  0.53321868209E+01 -0.35684731431E+01  0.10659740941E+02  0.12441715881E+02  0.51100000000E-03 0.  1.
        -12    1    3    3    0    0 -0.29995151862E+02  0.79335167053E+01  0.20771611868E+02  0.37337778216E+02  0.00000000000E+00 0.  1.
</event>
<event>
 7    1  0.3863655E-015  0.9000779E+02  0.7816164E-02  0.1186339E+00
        -11   -1    0    0    0    0  0.00000000000E+00  0.00000000000E+00  0.45593999997E+02  0.45594000000E+02  0.51100000000E-03 0. -1.
         11   -1    0    0    0    0 -0.00000000000E+00 -0.00000000000E+00 -0.45593999997E+02  0.45594000000E+02  0.51100000000E-03 0.  1.
    9900012    2    1    2    0    0 -0.64963630787E+00 -0.68986948172E+00  0.70352461063E+00  0.90007790649E+02  0.90000052686E+02 0.  0.
        -12    1    1    2    0    0  0.64963630787E+00  0.68986948172E+00 -0.70352461063E+00  0.11802093510E+01  0.00000000000E+00 0.  1.
         11    1    3    3    0    0 -0.21371109526E+01 -0.31745021520E+02  0.19813240419E+02  0.37481703946E+02  0.51100000000E-03 0. -1.
        -11    1    3    3    0    0  0.51867936070E+01  0.30773587205E+01  0.10192812748E+02  0.11843411526E+02  0.51100000000E-03 0.  1.
        -12    1    3    3    0    0 -0.36993189623E+01  0.27977793318E+02 -0.29302528556E+02  0.40682675176E+02  0.00000000000E+00 0.  1.
</event>
<event>
 7    1  0.3863655E-015  0.9000775E+02  0.7816164E-02  0.1186339E+00
        -11   -1    0    0    0    0  0.00000000000E+00  0.00000000000E+00  0.45593999997E+02  0.45594000000E+02  0.51100000000E-03 0.  1.
         11   -1    0    0    0    0 -0.00000000000E+00 -0.00000000000E+00 -0.45593999997E+02  0.45594000000E+02  0.51100000000E-03 0. -1.
    9900012    2    1    2    0    0 -0.17706264777E+00 -0.97029997115E+00 -0.64818910801E+00  0.90007753274E+02  0.90000014817E+02 0.  0.
        -12    1    1    2    0    0  0.17706264777E+00  0.97029997115E+00  0.64818910801E+00  0.11802467263E+01  0.00000000000E+00 0.  1.
         11    1    3    3    0    0 -0.16319711992E+01 -0.10171039843E+02  0.26991680251E+01  0.10648891481E+02  0.51100000000E-03 0. -1.
        -11    1    3    3    0    0  0.38814296693E+02 -0.53715725689E+01 -0.12986798593E+01  0.39205739239E+02  0.51100000000E-03 0.  1.
         12    1    3    3    0    0 -0.37359388142E+02  0.14572312441E+02 -0.20486772738E+01  0.40153122553E+02  0.00000000000E+00 0. -1.
</event>
<event>
 7    1  0.4409747E-015  0.9000771E+02  0.7816164E-02  0.1186339E+00
        -11   -1    0    0    0    0  0.00000000000E+00  0.00000000000E+00  0.45593999997E+02  0.45594000000E+02  0.51100000000E-03 0. -1.
         11   -1    0    0    0    0 -0.00000000000E+00 -0.00000000000E+00 -0.45593999997E+02  0.45594000000E+02  0.51100000000E-03 0.  1.
    9900012    2    1    2    0    0 -0.32741573227E+00 -0.42195615537E+00  0.10525341969E+01  0.90007713469E+02  0.89999974487E+02 0.  0.
        -12    1    1    2    0    0  0.32741573227E+00  0.42195615537E+00 -0.10525341969E+01  0.11802865306E+01  0.00000000000E+00 0.  1.
         11    1    3    3    0    0 -0.13409315048E+02  0.18304905410E+02  0.29466594515E+02  0.37190852164E+02  0.51100000000E-03 0. -1.
        -11    1    3    3    0    0 -0.88152242328E+01  0.23700265850E+01  0.24904645251E+01  0.94619035135E+01  0.51100000000E-03 0.  1.
        -12    1    3    3    0    0  0.21897123549E+02 -0.21096888150E+02 -0.30904524843E+02  0.43354957792E+02  0.00000000000E+00 0.  1.
</event>
<event>
 7    1  0.3863655E-015  0.9000774E+02  0.7816164E-02  0.1186339E+00
        -11   -1    0    0    0    0  0.00000000000E+00  0.00000000000E+00  0.45593999997E+02  0.45594000000E+02  0.51100000000E-03 0.  1.
         11   -1    0    0    0    0 -0.00000000000E+00 -0.00000000000E+00 -0.45593999997E+02  0.45594000000E+02  0.51100000000E-03 0. -1.
    9900012    2    1    2    0    0  0.63362556074E+00 -0.98206790903E+00 -0.16457263217E+00  0.90007736097E+02  0.89999997414E+02 0.  0.
        -12    1    1    2    0    0 -0.63362556074E+00  0.98206790903E+00  0.16457263217E+00  0.11802639029E+01  0.00000000000E+00 0.  1.
         11    1    3    3    0    0 -0.20424649181E+02  0.17848524081E+02 -0.26700243090E+02  0.38060991676E+02  0.51100000000E-03 0. -1.
        -11    1    3    3    0    0  0.50689229972E+01  0.44520035467E+01 -0.58822411059E+01  0.89507025769E+01  0.51100000000E-03 0.  1.
        -12    1    3    3    0    0  0.15989351745E+02 -0.23282595536E+02  0.32417911564E+02  0.42996041844E+02  0.00000000000E+00 0.  1.
</event>
<event>
 7    1  0.3863655E-015  0.9000779E+02  0.7816164E-02  0.1186339E+00
        -11   -1    0    0    0    0  0.00000000000E+00  0.00000000000E+00  0.45593999997E+02  0.45594000000E+02  0.51100000000E-03 0.  1.
         11   -1    0    0    0    0 -0.00000000000E+00 -0.00000000000E+00 -0.45593999997E+02  0.45594000000E+02  0.51100000000E-03 0. -1.
    9900012    2    1    2    0    0 -0.88194822448E+00  0.70901034535E+00 -0.33519866353E+00  0.90007793881E+02  0.90000055960E+02 0.  0.
        -12    1    1    2    0    0  0.88194822448E+00 -0.70901034535E+00  0.33519866353E+00  0.11802061195E+01  0.00000000000E+00 0.  1.
         11    1    3    3    0    0  0.46644074621E+01 -0.31181699123E+00 -0.80704225538E+01  0.93266096341E+01  0.51100000000E-03 0. -1.
        -11    1    3    3    0    0 -0.26423612029E+02  0.11984141641E+02 -0.26377029641E+02  0.39211919316E+02  0.51100000000E-03 0.  1.
         12    1    3    3    0    0  0.20877256342E+02 -0.10963314304E+02  0.34112253531E+02  0.41469264930E+02  0.00000000000E+00 0. -1.
</event>
<event>
 7    1  0.3863655E-015  0.9000775E+02  0.7816164E-02  0.1186339E+00
        -11   -1    0    0    0    0  0.00000000000E+00  0.00000000000E+00  0.45593999997E+02  0.45594000000E+02  0.51100000000E-03 0. -1.
         11   -1    0    0    0    0 -0.00000000000E+00 -0.00000000000E+00 -0.45593999997E+02  0.45594000000E+02  0.51100000000E-03 0.  1.
    9900012    2    1    2    0    0  0.12053099500E+00  0.28043913405E+00  0.11400914201E+01  0.90007753299E+02  0.90000014843E+02 0.  0.
        -12    1    1    2    0    0 -0.12053099500E+00 -0.28043913405E+00 -0.11400914201E+01  0.11802467009E+01  0.00000000000E+00 0.  1.
         11    1    3    3    0    0  0.15465332726E+02  0.43633041987E+01  0.31106903388E+01  0.16367386306E+02  0.51100000000E-03 0. -1.
        -11    1    3    3    0    0  0.54848702290E+01  0.27069018075E+02  0.16171961408E+02  0.32005435117E+02  0.51100000000E-03 0.  1.
         12    1    3    3    0    0 -0.20829671960E+02 -0.31151883140E+02 -0.18142560326E+02  0.41634931876E+02  0.00000000000E+00 0. -1.
</event>
<event>
 7    1  0.3863655E-015  0.9000782E+02  0.7816164E-02  0.1186339E+00
        -11   -1    0    0    0    0  0.00000000000E+00  0.00000000000E+00  0.45593999997E+02  0.45594000000E+02  0.51100000000E-03 0. -1.
         11   -1    0    0    0    0 -0.00000000000E+00 -0.00000000000E+00 -0.45593999997E+02  0.45594000000E+02  0.51100000000E-03 0.  1.
    9900012    2    1    2    0    0 -0.11654576530E+01 -0.15472288574E+00  0.10294817143E+00  0.90007818218E+02  0.90000080619E+02 0.  0.
        -12    1    1    2    0    0  0.11654576530E+01  0.15472288574E+00 -0.10294817143E+00  0.11801817819E+01  0.00000000000E+00 0.  1.
         11    1    3    3    0    0  0.36615298139E+01 -0.63312696972E+01  0.77679780950E+01  0.10669267102E+02  0.51100000000E-03 0. -1.
        -11    1    3    3    0    0 -0.11424582376E+02 -0.30979141075E+02 -0.21210462409E+02  0.39244260473E+02  0.51100000000E-03 0.  1.
         12    1    3    3    0    0  0.65975949092E+01  0.37155687887E+02  0.13545432485E+02  0.40094290643E+02  0.00000000000E+00 0. -1.
</event>
<event>
 7    1  0.1033648E-014  0.9000786E+02  0.7816164E-02  0.1186339E+00
        -11   -1    0    0    0    0  0.00000000000E+00  0.00000000000E+00  0.45593999997E+02  0.45594000000E+02  0.51100000000E-03 0. -1.
         11   -1    0    0    0    0 -0.00000000000E+00 -0.00000000000E+00 -0.45593999997E+02  0.45594000000E+02  0.51100000000E-03 0.  1.
    9900012    2    1    2    0    0 -0.70972905826E+00  0.20929874876E+00  0.91935488609E+00  0.90007858183E+02  0.90000121111E+02 0.  0.
        -12    1    1    2    0    0  0.70972905826E+00 -0.20929874876E+00 -0.91935488609E+00  0.11801418173E+01  0.00000000000E+00 0.  1.
         11    1    3    3    0    0  0.90890442186E+01  0.21690178238E+01  0.32812377857E+01  0.99036298797E+01  0.51100000000E-03 0. -1.
        -11    1    3    3    0    0 -0.16740845783E+02  0.30482043519E+02 -0.22380982673E+02  0.41356006581E+02  0.51100000000E-03 0.  1.
         12    1    3    3    0    0  0.69420725063E+01 -0.32441762594E+02  0.20019099774E+02  0.38748221722E+02  0.00000000000E+00 0. -1.
</event>
<event>
 7    1  0.3863655E-015  0.9000770E+02  0.7816164E-02  0.1186339E+00
        -11   -1    0    0    0    0  0.00000000000E+00  0.00000000000E+00  0.45593999997E+02  0.45594000000E+02  0.51100000000E-03 0.  1.
         11   -1    0    0    0    0 -0.00000000000E+00 -0.00000000000E+00 -0.45593999997E+02  0.45594000000E+02  0.51100000000E-03 0. -1.
    9900012    2    1    2    0    0  0.73965892754E+00  0.84652347477E+00  0.35974229195E+00  0.90007698412E+02  0.89999959231E+02 0.  0.
        -12    1    1    2    0    0 -0.73965892754E+00 -0.84652347477E+00 -0.35974229195E+00  0.11803015882E+01  0.00000000000E+00 0.  1.
         11    1    3    3    0    0 -0.53619014798E+01  0.17977823612E+01 -0.81374337751E+01  0.99095831195E+01  0.51100000000E-03 0. -1.
        -11    1    3    3    0    0 -0.28773384395E+02  0.10490578608E+01  0.27939217669E+02  0.40119920939E+02  0.51100000000E-03 0.  1.
         12    1    3    3    0    0  0.34874944802E+02 -0.20003167472E+01 -0.19442041602E+02  0.39978194353E+02  0.00000000000E+00 0. -1.
</event>
<event>
 7    1  0.3863655E-015  0.9000770E+02  0.7816164E-02  0.1186339E+00
        -11   -1    0    0    0    0  0.00000000000E+00  0.00000000000E+00  0.45593999997E+02  0.45594000000E+02  0.51100000000E-03 0.  1.
         11   -1    0    0    0    0 -0.00000000000E+00 -0.00000000000E+00 -0.45593999997E+02  0.45594000000E+02  0.51100000000E-03 0. -1.
    9900012    2    1    2    0    0  0.88006914114E+00  0.46491040297E+00  0.63439136185E+00  0.90007696744E+02  0.89999957541E+02 0.  0.
        -12    1    1    2    0    0 -0.88006914114E+00 -0.46491040297E+00 -0.63439136185E+00  0.11803032559E+01  0.00000000000E+00 0.  1.
         11    1    3    3    0    0  0.85426725052E+01 -0.15936820217E+01  0.33441054431E+01  0.93112897814E+01  0.51100000000E-03 0. -1.
        -11    1    3    3    0    0  0.34637945605E+02  0.98270097906E+01  0.68202735049E+01  0.36645238819E+02  0.51100000000E-03 0.  1.
         12    1    3    3    0    0 -0.42300548969E+02 -0.77684173659E+01 -0.95299875862E+01  0.44051168144E+02  0.00000000000E+00 0. -1.
</event>
<event>
 7    1  0.3863655E-015  0.9000775E+02  0.7816164E-02  0.1186339E+00
        -11   -1    0    0    0    0  0.00000000000E+00  0.00000000000E+00  0.45593999997E+02  0.45594000000E+02  0.51100000000E-03 0.  1.
         11   -1    0    0    0    0 -0.00000000000E+00 -0.00000000000E+00 -0.45593999997E+02  0.45594000000E+02  0.51100000000E-03 0. -1.
    9900012    2    1    2    0    0  0.33468547610E+00  0.10002598475E+01 -0.52958522010E+00  0.90007748063E+02  0.90000009537E+02 0.  0.
        -12    1    1    2    0    0 -0.33468547610E+00 -0.10002598475E+01  0.52958522010E+00  0.11802519374E+01  0.00000000000E+00 0.  1.
         11    1    3    3    0    0  0.13943830068E+02  0.27882481571E+02 -0.17132923787E+02  0.35572464819E+02  0.51100000000E-03 0. -1.
        -11    1    3    3    0    0  0.17042590575E+01  0.94956120215E+01 -0.33453300830E+01  0.10210895172E+02  0.51100000000E-03 0.  1.
        -12    1    3    3    0    0 -0.15313403650E+02 -0.36377833745E+02  0.19948668650E+02  0.44224388071E+02  0.00000000000E+00 0.  1.
</event>
<event>
 7    1  0.3863655E-015  0.9000774E+02  0.7816164E-02  0.1186339E+00
        -11   -1    0    0    0    0  0.00000000000E+00  0.00000000000E+00  0.45593999997E+02  0.45594000000E+02  0.51100000000E-03 0.  1.
         11   -1    0    0    0    0 -0.00000000000E+00 -0.00000000000E+00 -0.45593999997E+02  0.45594000000E+02  0.51100000000E-03 0. -1.
    9900012    2    1    2    0    0 -0.31643774583E-02 -0.17480048516E+00 -0.11672352015E+01  0.90007744418E+02  0.90000005844E+02 0.  0.
        -12    1    1    2    0    0  0.31643774583E-02  0.17480048516E+00  0.11672352015E+01  0.11802555819E+01  0.00000000000E+00 0.  1.
         11    1    3    3    0    0  0.10766155507E+02 -0.88573116841E+01 -0.32238546423E+02  0.35123865824E+02  0.51100000000E-03 0. -1.
        -11    1    3    3    0    0  0.10794163557E+02 -0.96096434959E+01  0.24650414275E+01  0.14660683631E+02  0.51100000000E-03 0.  1.
        -12    1    3    3    0    0 -0.21563483442E+02  0.18292154695E+02  0.28606269794E+02  0.40223194963E+02  0.00000000000E+00 0.  1.
</event>
<event>
 7    1  0.3863655E-015  0.9000766E+02  0.7816164E-02  0.1186339E+00
        -11   -1    0    0    0    0  0.00000000000E+00  0.00000000000E+00  0.45593999997E+02  0.45594000000E+02  0.51100000000E-03 0.  1.
         11   -1    0    0    0    0 -0.00000000000E+00 -0.00000000000E+00 -0.45593999997E+02  0.45594000000E+02  0.51100000000E-03 0. -1.
    9900012    2    1    2    0    0 -0.10420696179E+01  0.60324349950E-01 -0.55105780672E+00  0.90007655634E+02  0.89999915888E+02 0.  0.
        -12    1    1    2    0    0  0.10420696179E+01 -0.60324349950E-01  0.55105780672E+00  0.11803443659E+01  0.00000000000E+00 0.  1.
         11    1    3    3    0    0 -0.59266527914E+01 -0.87411226137E+01 -0.33110055723E+02  0.34753535476E+02  0.51100000000E-03 0. -1.
        -11    1    3    3    0    0 -0.71333432330E+01 -0.26142158731E+01 -0.82452342425E+01  0.11211717009E+02  0.51100000000E-03 0.  1.
        -12    1    3    3    0    0  0.12017926406E+02  0.11415662837E+02  0.40804232159E+02  0.44042403149E+02  0.00000000000E+00 0.  1.
</event>
<event>
 7    1  0.3863655E-015  0.9000771E+02  0.7816164E-02  0.1186339E+00
        -11   -1    0    0    0    0  0.00000000000E+00  0.00000000000E+00  0.45593999997E+02  0.45594000000E+02  0.51100000000E-03 0. -1.
         11   -1    0    0    0    0 -0.00000000000E+00 -0.00000000000E+00 -0.45593999997E+02  0.45594000000E+02  0.51100000000E-03 0.  1.
    9900012    2    1    2    0    0  0.11669957206E+01  0.15856085470E+00 -0.77897086929E-01  0.90007708293E+02  0.89999969243E+02 0.  0.
        -12    1    1    2    0    0 -0.11669957206E+01 -0.15856085470E+00  0.77897086929E-01  0.11802917067E+01  0.00000000000E+00 0.  1.
         11    1    3    3    0    0 -0.20470016025E+02  0.38269807917E+01  0.29302130755E+02  0.35948326874E+02  0.51100000000E-03 0. -1.
        -11    1    3    3    0    0 -0.43594097016E+01  0.34882747033E+01  0.68878815252E+01  0.88665340194E+01  0.51100000000E-03 0.  1.
        -12    1    3    3    0    0  0.25996421447E+02 -0.71566946404E+01 -0.36267909367E+02  0.45192847399E+02  0.00000000000E+00 0.  1.
</event>
<event>
 7    1  0.3863655E-015  0.9000783E+02  0.7816164E-02  0.1186339E+00
        -11   -1    0    0    0    0  0.00000000000E+00  0.00000000000E+00  0.45593999997E+02  0.45594000000E+02  0.51100000000E-03 0.  1.
         11   -1    0    0    0    0 -0.00000000000E+00 -0.00000000000E+00 -0.45593999997E+02  0.45594000000E+02  0.51100000000E-03 0. -1.
    9900012    2    1    2    0    0  0.37690375372E+00  0.33045710365E+00 -0.10684264293E+01  0.90007833329E+02  0.90000095929E+02 0.  0.
        -12    1    1    2    0    0 -0.37690375372E+00 -0.33045710365E+00  0.10684264293E+01  0.11801666711E+01  0.00000000000E+00 0.  1.
         11    1    3    3    0    0 -0.32057285496E+02 -0.36243183573E+01 -0.22198468694E+02  0.39160914821E+02  0.51100000000E-03 0. -1.
        -11    1    3    3    0    0 -0.65251918036E+01  0.23714129053E+01  0.54267785483E+01  0.88120175280E+01  0.51100000000E-03 0.  1.
        -12    1    3    3    0    0  0.38959381054E+02  0.15833625556E+01  0.15703263717E+02  0.42034900980E+02  0.00000000000E+00 0.  1.
</event>
<event>
 7    1  0.3863655E-015  0.9000713E+02  0.7816164E-02  0.1186340E+00
        -11   -1    0    0    0    0  0.00000000000E+00  0.00000000000E+00  0.45593999997E+02  0.45594000000E+02  0.51100000000E-03 0.  1.
         11   -1    0    0    0    0 -0.00000000000E+00 -0.00000000000E+00 -0.45593999997E+02  0.45594000000E+02  0.51100000000E-03 0. -1.
    9900012    2    1    2    0    0  0.11749039728E+01 -0.11756485456E+00 -0.15494301191E-01  0.90007127054E+02  0.89999380329E+02 0.  0.
        -12    1    1    2    0    0 -0.11749039728E+01  0.11756485456E+00  0.15494301191E-01  0.11808729456E+01  0.00000000000E+00 0.  1.
         11    1    3    3    0    0  0.28446532395E+02 -0.27067782549E+02  0.25943312089E+01  0.39352263113E+02  0.51100000000E-03 0. -1.
        -11    1    3    3    0    0 -0.46783437444E+01 -0.78088623167E+01  0.17630645360E+00  0.91047413526E+01  0.51100000000E-03 0.  1.
        -12    1    3    3    0    0 -0.22593284678E+02  0.34759080012E+02 -0.27861319637E+01  0.41550122588E+02  0.00000000000E+00 0.  1.
</event>
<event>
 7    1  0.3863655E-015  0.9000763E+02  0.7816164E-02  0.1186339E+00
        -11   -1    0    0    0    0  0.00000000000E+00  0.00000000000E+00  0.45593999997E+02  0.45594000000E+02  0.51100000000E-03 0.  1.
         11   -1    0    0    0    0 -0.00000000000E+00 -0.00000000000E+00 -0.45593999997E+02  0.45594000000E+02  0.51100000000E-03 0. -1.
    9900012    2    1    2    0    0  0.80509480150E+00  0.38355861945E-01 -0.86233533679E+00  0.90007630971E+02  0.89999890900E+02 0.  0.
        -12    1    1    2    0    0 -0.80509480150E+00 -0.38355861945E-01  0.86233533679E+00  0.11803690290E+01  0.00000000000E+00 0.  1.
         11    1    3    3    0    0  0.15259554710E+02  0.36679649527E+02 -0.56499590601E+01  0.40126957734E+02  0.51100000000E-03 0. -1.
        -11    1    3    3    0    0  0.30571542818E+01 -0.26017577832E+01 -0.84674623480E+01  0.93708726776E+01  0.51100000000E-03 0.  1.
        -12    1    3    3    0    0 -0.17511614190E+02 -0.34039535882E+02  0.13255086071E+02  0.40509800559E+02  0.00000000000E+00 0.  1.
</event>
<event>
 7    1  0.3863655E-015  0.9000778E+02  0.7816164E-02  0.1186339E+00
        -11   -1    0    0    0    0  0.00000000000E+00  0.00000000000E+00  0.45593999997E+02  0.45594000000E+02  0.51100000000E-03 0.  1.
         11   -1    0    0    0    0 -0.00000000000E+00 -0.00000000000E+00 -0.45593999997E+02  0.45594000000E+02  0.51100000000E-03 0. -1.
    9900012    2    1    2    0    0 -0.63438185238E+00  0.29367121527E+00 -0.95091531907E+00  0.90007778385E+02  0.90000040259E+02 0.  0.
        -12    1    1    2    0    0  0.63438185238E+00 -0.29367121527E+00  0.95091531907E+00  0.11802216154E+01  0.00000000000E+00 0.  1.
         11    1    3    3    0    0  0.66933742360E+01  0.36187734814E+01  0.65947888135E+01  0.10069161829E+02  0.51100000000E-03 0. -1.
        -11    1    3    3    0    0  0.22847545076E+02  0.25553417853E+02  0.82962452209E+01  0.35267763822E+02  0.51100000000E-03 0.  1.
         12    1    3    3    0    0 -0.30175301165E+02 -0.28878520119E+02 -0.15841949353E+02  0.44670852734E+02  0.00000000000E+00 0. -1.
</event>
<event>
 7    1  0.3863655E-015  0.9000771E+02  0.7816164E-02  0.1186339E+00
        -11   -1    0    0    0    0  0.00000000000E+00  0.00000000000E+00  0.45593999997E+02  0.45594000000E+02  0.51100000000E-03 0. -1.
         11   -1    0    0    0    0 -0.00000000000E+00 -0.00000000000E+00 -0.45593999997E+02  0.45594000000E+02  0.51100000000E-03 0.  1.
    9900012    2    1    2    0    0 -0.10893873349E+01  0.30359890906E+00 -0.33786890394E+00  0.90007706621E+02  0.89999967549E+02 0.  0.
        -12    1    1    2    0    0  0.10893873349E+01 -0.30359890906E+00  0.33786890394E+00  0.11802933785E+01  0.00000000000E+00 0.  1.
         11    1    3    3    0    0 -0.26252485401E+02  0.30971121505E+02  0.87881353139E+01  0.41540759256E+02  0.51100000000E-03 0. -1.
        -11    1    3    3    0    0 -0.45386075237E+01 -0.91859903657E+01  0.13719889369E+01  0.10337491531E+02  0.51100000000E-03 0.  1.
        -12    1    3    3    0    0  0.29701705590E+02 -0.21481532230E+02 -0.10497993155E+02  0.38129455834E+02  0.00000000000E+00 0.  1.
</event>
<event>
 7    1  0.3863655E-015  0.9000778E+02  0.7816164E-02  0.1186339E+00
        -11   -1    0    0    0    0  0.00000000000E+00  0.00000000000E+00  0.45593999997E+02  0.45594000000E+02  0.51100000000E-03 0.  1.
         11   -1    0    0    0    0 -0.00000000000E+00 -0.00000000000E+00 -0.45593999997E+02  0.45594000000E+02  0.51100000000E-03 0. -1.
    9900012    2    1    2    0    0 -0.91037050041E+00 -0.47031330137E+00  0.58561468426E+00  0.90007782390E+02  0.90000044317E+02 0.  0.
        -12    1    1    2    0    0  0.91037050041E+00  0.47031330137E+00 -0.58561468426E+00  0.11802176104E+01  0.00000000000E+00 0.  1.
         11    1    3    3    0    0 -0.12771079859E+02  0.26263731658E+02  0.14753197646E+01  0.29241420110E+02  0.51100000000E-03 0. -1.
        -11    1    3    3    0    0 -0.28547950822E+01  0.16515527473E+00 -0.22865138153E+02  0.23043256590E+02  0.51100000000E-03 0.  1.
        -12    1    3    3    0    0  0.14715504440E+02 -0.26899200234E+02  0.21975433073E+02  0.37723105690E+02  0.00000000000E+00 0.  1.
</event>
<event>
 7    1  0.3863655E-015  0.9000669E+02  0.7816164E-02  0.1186341E+00
        -11   -1    0    0    0    0  0.00000000000E+00  0.00000000000E+00  0.45593999997E+02  0.45594000000E+02  0.51100000000E-03 0.  1.
         11   -1    0    0    0    0 -0.00000000000E+00 -0.00000000000E+00 -0.45593999997E+02  0.45594000000E+02  0.51100000000E-03 0. -1.
    9900012    2    1    2    0    0 -0.10810949663E+00 -0.15180524164E+00 -0.11665202505E+01  0.90006686329E+02  0.89998933782E+02 0.  0.
        -12    1    1    2    0    0  0.10810949663E+00  0.15180524164E+00  0.11665202505E+01  0.11813136711E+01  0.00000000000E+00 0.  1.
         11    1    3    3    0    0 -0.48717218669E+01  0.84458879931E+01 -0.23562838740E+01  0.10030890882E+02  0.51100000000E-03 0. -1.
        -11    1    3    3    0    0 -0.36829493497E+02  0.23464777181E+01 -0.91451774580E+00  0.36915496636E+02  0.51100000000E-03 0.  1.
         12    1    3    3    0    0  0.41593105867E+02 -0.10944170953E+02  0.21042813692E+01  0.43060298810E+02  0.00000000000E+00 0. -1.
</event>
<event>
 7    1  0.3863655E-015  0.9000768E+02  0.7816164E-02  0.1186339E+00
        -11   -1    0    0    0    0  0.00000000000E+00  0.00000000000E+00  0.45593999997E+02  0.45594000000E+02  0.51100000000E-03 0. -1.
         11   -1    0    0    0    0 -0.00000000000E+00 -0.00000000000E+00 -0.45593999997E+02  0.45594000000E+02  0.51100000000E-03 0.  1.
    9900012    2    1    2    0    0  0.54898086232E+00  0.10439183542E+01  0.44918040370E-01  0.90007676677E+02  0.89999937209E+02 0.  0.
        -12    1    1    2    0    0 -0.54898086232E+00 -0.10439183542E+01 -0.44918040370E-01  0.11803233234E+01  0.00000000000E+00 0.  1.
         11    1    3    3    0    0  0.15608247242E+02  0.23371342383E+02  0.20359273904E+02  0.34703559773E+02  0.51100000000E-03 0. -1.
        -11    1    3    3    0    0  0.14861734565E+00  0.12558215708E+02 -0.92514923149E+00  0.12593123927E+02  0.51100000000E-03 0.  1.
        -12    1    3    3    0    0 -0.15207883725E+02 -0.34885639737E+02 -0.19389206632E+02  0.42710992977E+02  0.00000000000E+00 0.  1.
</event>
<event>
 7    1  0.3863655E-015  0.9000782E+02  0.7816164E-02  0.1186339E+00
        -11   -1    0    0    0    0  0.00000000000E+00  0.00000000000E+00  0.45593999997E+02  0.45594000000E+02  0.51100000000E-03 0.  1.
         11   -1    0    0    0    0 -0.00000000000E+00 -0.00000000000E+00 -0.45593999997E+02  0.45594000000E+02  0.51100000000E-03 0. -1.
    9900012    2    1    2    0    0  0.77383015762E+00 -0.81715107325E+00 -0.35534488560E+00  0.90007822481E+02  0.90000084937E+02 0.  0.
        -12    1    1    2    0    0 -0.77383015762E+00  0.81715107325E+00  0.35534488560E+00  0.11801775193E+01  0.00000000000E+00 0.  1.
         11    1    3    3    0    0  0.21871092908E+02 -0.33835853672E+02  0.62074400256E+01  0.40764469954E+02  0.51100000000E-03 0. -1.
        -11    1    3    3    0    0  0.30184759782E+01  0.19230302447E+01 -0.91321672143E+01  0.98084515008E+01  0.51100000000E-03 0.  1.
        -12    1    3    3    0    0 -0.24115738728E+02  0.31095672354E+02  0.25693823030E+01  0.39434901026E+02  0.00000000000E+00 0.  1.
</event>
<event>
 7    1  0.3863655E-015  0.9000763E+02  0.7816164E-02  0.1186339E+00
        -11   -1    0    0    0    0  0.00000000000E+00  0.00000000000E+00  0.45593999997E+02  0.45594000000E+02  0.51100000000E-03 0. -1.
         11   -1    0    0    0    0 -0.00000000000E+00 -0.00000000000E+00 -0.45593999997E+02  0.45594000000E+02  0.51100000000E-03 0.  1.
    9900012    2    1    2    0    0  0.62012446298E+00  0.90982767713E+00  0.42534975867E+00  0.90007634307E+02  0.89999894280E+02 0.  0.
        -12    1    1    2    0    0 -0.62012446298E+00 -0.90982767713E+00 -0.42534975867E+00  0.11803656929E+01  0.00000000000E+00 0.  1.
         11    1    3    3    0    0 -0.18708062756E+01 -0.54395536985E+01 -0.52460890181E+01  0.77852495661E+01  0.51100000000E-03 0. -1.
        -11    1    3    3    0    0 -0.21314109632E+02 -0.20108316532E+02 -0.22408229021E+02  0.36888540108E+02  0.51100000000E-03 0.  1.
         12    1    3    3    0    0  0.23805040371E+02  0.26457697908E+02  0.28079667797E+02  0.45333844633E+02  0.00000000000E+00 0. -1.
</event>
<event>
 7    1  0.3863655E-015  0.9000775E+02  0.7816164E-02  0.1186339E+00
        -11   -1    0    0    0    0  0.00000000000E+00  0.00000000000E+00  0.45593999997E+02  0.45594000000E+02  0.51100000000E-03 0. -1.
         11   -1    0    0    0    0 -0.00000000000E+00 -0.00000000000E+00 -0.45593999997E+02  0.45594000000E+02  0.51100000000E-03 0.  1.
    9900012    2    1    2    0    0 -0.54504893761E+00  0.86526593891E+00  0.58925131469E+00  0.90007754008E+02  0.90000015561E+02 0.  0.
        -12    1    1    2    0    0  0.54504893761E+00 -0.86526593891E+00 -0.58925131469E+00  0.11802459919E+01  0.00000000000E+00 0.  1.
         11    1    3    3    0    0 -0.50805518825E+01  0.33786177522E+01 -0.76263885759E+00  0.61488766157E+01  0.51100000000E-03 0. -1.
        -11    1    3    3    0    0  0.20052809457E+02  0.36404151870E+02  0.47087020027E+01  0.41827614267E+02  0.51100000000E-03 0.  1.
         12    1    3    3    0    0 -0.15517306512E+02 -0.38917503683E+02 -0.33568118304E+01  0.42031263126E+02  0.00000000000E+00 0. -1.
</event>
<event>
 7    1  0.3863655E-015  0.9000778E+02  0.7816164E-02  0.1186339E+00
        -11   -1    0    0    0    0  0.00000000000E+00  0.00000000000E+00  0.45593999997E+02  0.45594000000E+02  0.51100000000E-03 0.  1.
         11   -1    0    0    0    0 -0.00000000000E+00 -0.00000000000E+00 -0.45593999997E+02  0.45594000000E+02  0.51100000000E-03 0. -1.
    9900012    2    1    2    0    0 -0.11880856828E+00 -0.53227223458E+00 -0.10466568950E+01  0.90007779739E+02  0.90000041632E+02 0.  0.
        -12    1    1    2    0    0  0.11880856828E+00  0.53227223458E+00  0.10466568950E+01  0.11802202606E+01  0.00000000000E+00 0.  1.
         11    1    3    3    0    0 -0.31766209300E+01  0.33341709178E+02 -0.16600644928E+02  0.37381036686E+02  0.51100000000E-03 0. -1.
        -11    1    3    3    0    0  0.72646820718E+01  0.64486522553E+01  0.24199747133E+01  0.10010844090E+02  0.51100000000E-03 0.  1.
        -12    1    3    3    0    0 -0.42068697101E+01 -0.40322633667E+02  0.13134013319E+02  0.42615898964E+02  0.00000000000E+00 0.  1.
</event>
<event>
 7    1  0.3863655E-015  0.9000769E+02  0.7816164E-02  0.1186339E+00
        -11   -1    0    0    0    0  0.00000000000E+00  0.00000000000E+00  0.45593999997E+02  0.45594000000E+02  0.51100000000E-03 0.  1.
         11   -1    0    0    0    0 -0.00000000000E+00 -0.00000000000E+00 -0.45593999997E+02  0.45594000000E+02  0.51100000000E-03 0. -1.
    9900012    2    1    2    0    0  0.50750812574E+00  0.93752578013E+00 -0.50656445786E+00  0.90007692144E+02  0.89999952880E+02 0.  0.
        -12    1    1    2    0    0 -0.50750812574E+00 -0.93752578013E+00  0.50656445786E+00  0.11803078565E+01  0.00000000000E+00 0.  1.
         11    1    3    3    0    0  0.43555026384E+01  0.45016733490E+00 -0.82925862099E+01  0.93776351055E+01  0.51100000000E-03 0. -1.
        -11    1    3    3    0    0 -0.18865735947E+02  0.13260162296E+02  0.38061146369E+02  0.44501671431E+02  0.51100000000E-03 0.  1.
         12    1    3    3    0    0  0.15017741434E+02 -0.12772803851E+02 -0.30275124617E+02  0.36128385607E+02  0.00000000000E+00 0. -1.
</event>
<event>
 7    1  0.3863655E-015  0.9000781E+02  0.7816164E-02  0.1186339E+00
        -11   -1    0    0    0    0  0.00000000000E+00  0.00000000000E+00  0.45593999997E+02  0.45594000000E+02  0.51100000000E-03 0.  1.
         11   -1    0    0    0    0 -0.00000000000E+00 -0.00000000000E+00 -0.45593999997E+02  0.45594000000E+02  0.51100000000E-03 0. -1.
    9900012    2    1    2    0    0 -0.45114311586E+00 -0.93544072473E+00 -0.56059830394E+00  0.90007809372E+02  0.90000071655E+02 0.  0.
        -12    1    1    2    0    0  0.45114311586E+00  0.93544072473E+00  0.56059830394E+00  0.11801906282E+01  0.00000000000E+00 0.  1.
         11    1    3    3    0    0  0.40142477281E+01  0.62166267817E-01 -0.35199683361E+02  0.35427895202E+02  0.51100000000E-03 0. -1.
        -11    1    3    3    0    0 -0.82295810748E+01  0.10063976827E+02 -0.44819002894E+01  0.13751256841E+02  0.51100000000E-03 0.  1.
        -12    1    3    3    0    0  0.37641902308E+01 -0.11061583820E+02  0.39120985347E+02  0.40828657328E+02  0.00000000000E+00 0.  1.
</event>
<event>
 7    1  0.3863655E-015  0.9000773E+02  0.7816164E-02  0.1186339E+00
        -11   -1    0    0    0    0  0.00000000000E+00  0.00000000000E+00  0.45593999997E+02  0.45594000000E+02  0.51100000000E-03 0. -1.
         11   -1    0    0    0    0 -0.00000000000E+00 -0.00000000000E+00 -0.45593999997E+02  0.45594000000E+02  0.51100000000E-03 0.  1.
    9900012    2    1    2    0    0  0.10039233071E+00  0.74220462770E+00  0.91218862427E+00  0.90007731210E+02  0.89999992462E+02 0.  0.
        -12    1    1    2    0    0 -0.10039233071E+00 -0.74220462770E+00 -0.91218862427E+00  0.11802687896E+01  0.00000000000E+00 0.  1.
         11    1    3    3    0    0  0.33566266893E+02 -0.12031963841E+02 -0.15848623108E+01  0.35692775401E+02  0.51100000000E-03 0. -1.
        -11    1    3    3    0    0  0.45224337041E+01 -0.30272712779E+01 -0.99403375412E+01  0.11332567612E+02  0.51100000000E-03 0.  1.
        -12    1    3    3    0    0 -0.37988308267E+02  0.15801439746E+02  0.12437388476E+02  0.42982388197E+02  0.00000000000E+00 0.  1.
</event>
<event>
 7    1  0.3863655E-015  0.9000776E+02  0.7816164E-02  0.1186339E+00
        -11   -1    0    0    0    0  0.00000000000E+00  0.00000000000E+00  0.45593999997E+02  0.45594000000E+02  0.51100000000E-03 0.  1.
         11   -1    0    0    0    0 -0.00000000000E+00 -0.00000000000E+00 -0.45593999997E+02  0.45594000000E+02  0.51100000000E-03 0. -1.
    9900012    2    1    2    0    0 -0.26218288560E+00  0.20990347164E+00 -0.11314498041E+01  0.90007755114E+02  0.90000016681E+02 0.  0.
        -12    1    1    2    0    0  0.26218288560E+00 -0.20990347164E+00  0.11314498041E+01  0.11802448865E+01  0.00000000000E+00 0.  1.
         11    1    3    3    0    0  0.27232202372E+02  0.26698971810E+02 -0.14070526080E+02  0.40649817295E+02  0.51100000000E-03 0. -1.
        -11    1    3    3    0    0  0.35055103682E+01  0.31719667687E+01  0.12818678565E+01  0.48982814932E+01  0.51100000000E-03 0.  1.
        -12    1    3    3    0    0 -0.30999895626E+02 -0.29661035107E+02  0.11657208419E+02  0.44459656325E+02  0.00000000000E+00 0.  1.
</event>
<event>
 7    1  0.3863655E-015  0.9000779E+02  0.7816164E-02  0.1186339E+00
        -11   -1    0    0    0    0  0.00000000000E+00  0.00000000000E+00  0.45593999997E+02  0.45594000000E+02  0.51100000000E-03 0.  1.
         11   -1    0    0    0    0 -0.00000000000E+00 -0.00000000000E+00 -0.45593999997E+02  0.45594000000E+02  0.51100000000E-03 0. -1.
    9900012    2    1    2    0    0 -0.46262917734E+00  0.85722539974E+00 -0.66635769337E+00  0.90007790816E+02  0.90000052855E+02 0.  0.
        -12    1    1    2    0    0  0.46262917734E+00 -0.85722539974E+00  0.66635769337E+00  0.11802091837E+01  0.00000000000E+00 0.  1.
         11    1    3    3    0    0 -0.25452019516E+02 -0.15517511395E+02 -0.22448504133E+02  0.37316669136E+02  0.51100000000E-03 0. -1.
        -11    1    3    3    0    0 -0.75982075401E+01 -0.35360254077E+01 -0.64210081051E+00  0.84052678255E+01  0.51100000000E-03 0.  1.
        -12    1    3    3    0    0  0.32587597879E+02  0.19910762202E+02  0.22424247250E+02  0.44285853855E+02  0.00000000000E+00 0.  1.
</event>
<event>
 7    1  0.3863655E-015  0.9000788E+02  0.7816164E-02  0.1186339E+00
        -11   -1    0    0    0    0  0.00000000000E+00  0.00000000000E+00  0.45593999997E+02  0.45594000000E+02  0.51100000000E-03 0.  1.
         11   -1    0    0    0    0 -0.00000000000E+00 -0.00000000000E+00 -0.45593999997E+02  0.45594000000E+02  0.51100000000E-03 0. -1.
    9900012    2    1    2    0    0 -0.10734974416E+01  0.38322344243E+00  0.30565930896E+00  0.90007879423E+02  0.90000142631E+02 0.  0.
        -12    1    1    2    0    0  0.10734974416E+01 -0.38322344243E+00 -0.30565930896E+00  0.11801205773E+01  0.00000000000E+00 0.  1.
         11    1    3    3    0    0 -0.83898862056E+01  0.30832617649E+02 -0.21166034743E+02  0.38328077549E+02  0.51100000000E-03 0. -1.
        -11    1    3    3    0    0 -0.22945243562E+01  0.31341833729E+01 -0.60631397115E+01  0.72006673898E+01  0.51100000000E-03 0.  1.
        -12    1    3    3    0    0  0.96109131202E+01 -0.33583577579E+02  0.27534833764E+02  0.44479134484E+02  0.00000000000E+00 0.  1.
</event>
<event>
 7    1  0.3863655E-015  0.9000858E+02  0.7816164E-02  0.1186337E+00
        -11   -1    0    0    0    0  0.00000000000E+00  0.00000000000E+00  0.45593999997E+02  0.45594000000E+02  0.51100000000E-03 0. -1.
         11   -1    0    0    0    0 -0.00000000000E+00 -0.00000000000E+00 -0.45593999997E+02  0.45594000000E+02  0.51100000000E-03 0.  1.
    9900012    2    1    2    0    0  0.11035297050E+01 -0.58487583166E-01 -0.41210596029E+00  0.90008580681E+02  0.90000853142E+02 0.  0.
        -12    1    1    2    0    0 -0.11035297050E+01  0.58487583166E-01  0.41210596029E+00  0.11794193189E+01  0.00000000000E+00 0.  1.
         11    1    3    3    0    0  0.20835916163E+02  0.23176843552E+02 -0.15236194166E+02  0.34690677311E+02  0.51100000000E-03 0. -1.
        -11    1    3    3    0    0  0.52374560972E+01  0.97792148257E+01 -0.68366648088E+00  0.11114467558E+02  0.51100000000E-03 0.  1.
        -12    1    3    3    0    0 -0.24969842555E+02 -0.33014545961E+02  0.15507754686E+02  0.44203435812E+02  0.00000000000E+00 0.  1.
</event>
<event>
 7    1  0.3863655E-015  0.9000816E+02  0.7816164E-02  0.1186338E+00
        -11   -1    0    0    0    0  0.00000000000E+00  0.00000000000E+00  0.45593999997E+02  0.45594000000E+02  0.51100000000E-03 0.  1.
         11   -1    0    0    0    0 -0.00000000000E+00 -0.00000000000E+00 -0.45593999997E+02  0.45594000000E+02  0.51100000000E-03 0. -1.
    9900012    2    1    2    0    0  0.71895000775E+00 -0.28968740982E+00 -0.88950827851E+00  0.90008155567E+02  0.90000422419E+02 0.  0.
        -12    1    1    2    0    0 -0.71895000775E+00  0.28968740982E+00  0.88950827851E+00  0.11798444332E+01  0.00000000000E+00 0.  1.
         11    1    3    3    0    0  0.20767187931E+01 -0.42191927919E+01 -0.76964916646E+01  0.90194419431E+01  0.51100000000E-03 0. -1.
        -11    1    3    3    0    0 -0.37666292033E+01 -0.38185395011E+02  0.56890486021E+01  0.38790168367E+02  0.51100000000E-03 0.  1.
         12    1    3    3    0    0  0.24088604179E+01  0.42114900393E+02  0.11179347839E+01  0.42198545257E+02  0.00000000000E+00 0. -1.
</event>
<event>
 7    1  0.3863655E-015  0.9000769E+02  0.7816164E-02  0.1186339E+00
        -11   -1    0    0    0    0  0.00000000000E+00  0.00000000000E+00  0.45593999997E+02  0.45594000000E+02  0.51100000000E-03 0.  1.
         11   -1    0    0    0    0 -0.00000000000E+00 -0.00000000000E+00 -0.45593999997E+02  0.45594000000E+02  0.51100000000E-03 0. -1.
    9900012    2    1    2    0    0  0.11319487495E+01  0.17982386410E+00 -0.28192177063E+00  0.90007693058E+02  0.89999953806E+02 0.  0.
        -12    1    1    2    0    0 -0.11319487495E+01 -0.17982386410E+00  0.28192177063E+00  0.11803069424E+01  0.00000000000E+00 0.  1.
         11    1    3    3    0    0 -0.84987305251E+01  0.29400849042E+01  0.21749353606E+00  0.89955446462E+01  0.51100000000E-03 0. -1.
        -11    1    3    3    0    0  0.14095913157E+02 -0.34699082541E+02  0.20335839415E+02  0.42617689542E+02  0.51100000000E-03 0.  1.
         12    1    3    3    0    0 -0.44652338828E+01  0.31938821501E+02 -0.20835254722E+02  0.38394458869E+02  0.00000000000E+00 0. -1.
</event>
<event>
 7    1  0.3863655E-015  0.9000767E+02  0.7816164E-02  0.1186339E+00
        -11   -1    0    0    0    0  0.00000000000E+00  0.00000000000E+00  0.45593999997E+02  0.45594000000E+02  0.51100000000E-03 0.  1.
         11   -1    0    0    0    0 -0.00000000000E+00 -0.00000000000E+00 -0.45593999997E+02  0.45594000000E+02  0.51100000000E-03 0. -1.
    9900012    2    1    2    0    0 -0.11362379252E+01 -0.31313225116E+00 -0.64013867905E-01  0.90007666909E+02  0.89999927313E+02 0.  0.
        -12    1    1    2    0    0  0.11362379252E+01  0.31313225116E+00  0.64013867905E-01  0.11803330905E+01  0.00000000000E+00 0.  1.
         11    1    3    3    0    0 -0.28854620981E+02  0.21533717657E+02 -0.24281335669E+01  0.36085814124E+02  0.51100000000E-03 0. -1.
        -11    1    3    3    0    0 -0.64599779882E+01  0.60873105012E+01 -0.31904953032E+01  0.94321750029E+01  0.51100000000E-03 0.  1.
        -12    1    3    3    0    0  0.34178361044E+02 -0.27934160410E+02  0.55546150022E+01  0.44489677783E+02  0.00000000000E+00 0.  1.
</event>
<event>
 7    1  0.3863655E-015  0.9000776E+02  0.7816164E-02  0.1186339E+00
        -11   -1    0    0    0    0  0.00000000000E+00  0.00000000000E+00  0.45593999997E+02  0.45594000000E+02  0.51100000000E-03 0. -1.
         11   -1    0    0    0    0 -0.00000000000E+00 -0.00000000000E+00 -0.45593999997E+02  0.45594000000E+02  0.51100000000E-03 0.  1.
    9900012    2    1    2    0    0 -0.11372554709E+01  0.52722172774E-01 -0.31119494683E+00  0.90007757682E+02  0.90000019284E+02 0.  0.
        -12    1    1    2    0    0  0.11372554709E+01 -0.52722172774E-01  0.31119494683E+00  0.11802423177E+01  0.00000000000E+00 0.  1.
         11    1    3    3    0    0 -0.23044613188E+01 -0.21828639901E+02 -0.30409768841E+02  0.37504054489E+02  0.51100000000E-03 0. -1.
        -11    1    3    3    0    0  0.42540186269E+01  0.30774355680E+01 -0.81939601289E+01  0.97318172511E+01  0.51100000000E-03 0.  1.
        -12    1    3    3    0    0 -0.30868127790E+01  0.18803926505E+02  0.38292534023E+02  0.42771885942E+02  0.00000000000E+00 0.  1.
</event>
<event>
 7    1  0.3863655E-015  0.9000779E+02  0.7816164E-02  0.1186339E+00
        -11   -1    0    0    0    0  0.00000000000E+00  0.00000000000E+00  0.45593999997E+02  0.45594000000E+02  0.51100000000E-03 0. -1.
         11   -1    0    0    0    0 -0.00000000000E+00 -0.00000000000E+00 -0.45593999997E+02  0.45594000000E+02  0.51100000000E-03 0.  1.
    9900012    2    1    2    0    0 -0.10473321850E+01  0.36635926303E+00 -0.40220218236E+00  0.90007792217E+02  0.90000054274E+02 0.  0.
        -12    1    1    2    0    0  0.10473321850E+01 -0.36635926303E+00  0.40220218236E+00  0.11802077829E+01  0.00000000000E+00 0.  1.
         11    1    3    3    0    0 -0.28356288356E+02 -0.10540523278E+02  0.25194621036E+02  0.39369412616E+02  0.51100000000E-03 0. -1.
        -11    1    3    3    0    0 -0.60025748919E+01 -0.38858256295E+01 -0.54647059502E+01  0.89996420784E+01  0.51100000000E-03 0.  1.
        -12    1    3    3    0    0  0.33311531063E+02  0.14792708171E+02 -0.20132117268E+02  0.41638737523E+02  0.00000000000E+00 0.  1.
</event>
<event>
 7    1  0.3863655E-015  0.9000768E+02  0.7816164E-02  0.1186339E+00
        -11   -1    0    0    0    0  0.00000000000E+00  0.00000000000E+00  0.45593999997E+02  0.45594000000E+02  0.51100000000E-03 0.  1.
         11   -1    0    0    0    0 -0.00000000000E+00 -0.00000000000E+00 -0.45593999997E+02  0.45594000000E+02  0.51100000000E-03 0. -1.
    9900012    2    1    2    0    0 -0.11144826759E+01  0.38721887996E+00 -0.33759262483E-01  0.90007682338E+02  0.89999942945E+02 0.  0.
        -12    1    1    2    0    0  0.11144826759E+01 -0.38721887996E+00  0.33759262483E-01  0.11803176622E+01  0.00000000000E+00 0.  1.
         11    1    3    3    0    0 -0.43231976397E+01  0.51359877200E+01  0.79979055933E+01  0.10441977870E+02  0.51100000000E-03 0. -1.
        -11    1    3    3    0    0 -0.37707630460E+02 -0.60231562833E+01 -0.26533972492E+01  0.38277726210E+02  0.51100000000E-03 0.  1.
         12    1    3    3    0    0  0.40916345424E+02  0.12743874433E+01 -0.53782676066E+01  0.41287978258E+02  0.00000000000E+00 0. -1.
</event>
<event>
 7    1  0.3863655E-015  0.9000802E+02  0.7816164E-02  0.1186338E+00
        -11   -1    0    0    0    0  0.00000000000E+00  0.00000000000E+00  0.45593999997E+02  0.45594000000E+02  0.51100000000E-03 0.  1.
         11   -1    0    0    0    0 -0.00000000000E+00 -0.00000000000E+00 -0.45593999997E+02  0.45594000000E+02  0.51100000000E-03 0. -1.
    9900012    2    1    2    0    0 -0.67854810425E+00  0.73849365145E+00 -0.62172635878E+00  0.90008023700E+02  0.90000288813E+02 0.  0.
        -12    1    1    2    0    0  0.67854810425E+00 -0.73849365145E+00  0.62172635878E+00  0.11799762999E+01  0.00000000000E+00 0.  1.
         11    1    3    3    0    0  0.37676370974E+01  0.69826771585E+01  0.35473991662E+01  0.86911973112E+01  0.51100000000E-03 0. -1.
        -11    1    3    3    0    0  0.18627120105E+02  0.18998692227E+02  0.24893855185E+02  0.36436574152E+02  0.51100000000E-03 0.  1.
         12    1    3    3    0    0 -0.23073305306E+02 -0.25242875734E+02 -0.29062980710E+02  0.44880252237E+02  0.00000000000E+00 0. -1.
</event>
<event>
 7    1  0.3863655E-015  0.9000769E+02  0.7816164E-02  0.1186339E+00
        -11   -1    0    0    0    0  0.00000000000E+00  0.00000000000E+00  0.45593999997E+02  0.45594000000E+02  0.51100000000E-03 0.  1.
         11   -1    0    0    0    0 -0.00000000000E+00 -0.00000000000E+00 -0.45593999997E+02  0.45594000000E+02  0.51100000000E-03 0. -1.
    9900012    2    1    2    0    0  0.60639214527E+00  0.53869030154E+00 -0.85745169232E+00  0.90007694074E+02  0.89999954836E+02 0.  0.
        -12    1    1    2    0    0 -0.60639214527E+00 -0.53869030154E+00  0.85745169232E+00  0.11803059262E+01  0.00000000000E+00 0.  1.
         11    1    3    3    0    0 -0.19784933174E+00  0.24167191778E+02 -0.27739865355E+02  0.36791200483E+02  0.51100000000E-03 0. -1.
        -11    1    3    3    0    0  0.50196359022E+01  0.77239349562E+01 -0.30118999247E+01  0.96916178844E+01  0.51100000000E-03 0.  1.
        -12    1    3    3    0    0 -0.42153944252E+01 -0.31352436433E+02  0.29894313587E+02  0.43524875707E+02  0.00000000000E+00 0.  1.
</event>
<event>
 7    1  0.3863655E-015  0.9000758E+02  0.7816164E-02  0.1186339E+00
        -11   -1    0    0    0    0  0.00000000000E+00  0.00000000000E+00  0.45593999997E+02  0.45594000000E+02  0.51100000000E-03 0. -1.
         11   -1    0    0    0    0 -0.00000000000E+00 -0.00000000000E+00 -0.45593999997E+02  0.45594000000E+02  0.51100000000E-03 0.  1.
    9900012    2    1    2    0    0 -0.10096041028E+01  0.60448891685E+00 -0.93147069063E-01  0.90007583264E+02  0.89999842563E+02 0.  0.
        -12    1    1    2    0    0  0.10096041028E+01 -0.60448891685E+00  0.93147069063E-01  0.11804167364E+01  0.00000000000E+00 0.  1.
         11    1    3    3    0    0  0.65028846599E+01 -0.35763014937E+01 -0.26911650109E+01  0.78942897496E+01  0.51100000000E-03 0. -1.
        -11    1    3    3    0    0 -0.94480474198E+01 -0.94922355250E+01 -0.37438618658E+02  0.39762020856E+02  0.51100000000E-03 0.  1.
         12    1    3    3    0    0  0.19355586572E+01  0.13673025935E+02  0.40036636599E+02  0.42351272658E+02  0.00000000000E+00 0. -1.
</event>
<event>
 7    1  0.3863655E-015  0.9000796E+02  0.7816164E-02  0.1186339E+00
        -11   -1    0    0    0    0  0.00000000000E+00  0.00000000000E+00  0.45593999997E+02  0.45594000000E+02  0.51100000000E-03 0. -1.
         11   -1    0    0    0    0 -0.00000000000E+00 -0.00000000000E+00 -0.45593999997E+02  0.45594000000E+02  0.51100000000E-03 0.  1.
    9900012    2    1    2    0    0  0.15504672460E+00  0.83555812585E+00  0.81872213000E+00  0.90007956444E+02  0.90000220669E+02 0.  0.
        -12    1    1    2    0    0 -0.15504672460E+00 -0.83555812585E+00 -0.81872213000E+00  0.11800435562E+01  0.00000000000E+00 0.  1.
         11    1    3    3    0    0 -0.11369531879E+02  0.13796776093E+02 -0.10751194349E+01  0.17910141478E+02  0.51100000000E-03 0. -1.
        -11    1    3    3    0    0  0.32224040630E+02  0.14397344219E+02  0.10318894871E+02  0.36771618223E+02  0.51100000000E-03 0.  1.
         12    1    3    3    0    0 -0.20699462027E+02 -0.27358562186E+02 -0.84250533059E+01  0.35326196743E+02  0.00000000000E+00 0. -1.
</event>
<event>
 7    1  0.3863655E-015  0.9000805E+02  0.7816164E-02  0.1186338E+00
        -11   -1    0    0    0    0  0.00000000000E+00  0.00000000000E+00  0.45593999997E+02  0.45594000000E+02  0.51100000000E-03 0.  1.
         11   -1    0    0    0    0 -0.00000000000E+00 -0.00000000000E+00 -0.45593999997E+02  0.45594000000E+02  0.51100000000E-03 0. -1.
    9900012    2    1    2    0    0  0.10113535399E+01  0.67521661021E-01 -0.60405747399E+00  0.90008050599E+02  0.90000316066E+02 0.  0.
        -12    1    1    2    0    0 -0.10113535399E+01 -0.67521661021E-01  0.60405747399E+00  0.11799494011E+01  0.00000000000E+00 0.  1.
         11    1    3    3    0    0 -0.33233083308E+02 -0.49740205457E+01 -0.11767525380E+02  0.35604119991E+02  0.51100000000E-03 0. -1.
        -11    1    3    3    0    0 -0.46155606800E+01  0.11744232490E+02  0.77822052190E+01  0.14825421259E+02  0.51100000000E-03 0.  1.
        -12    1    3    3    0    0  0.38859997528E+02 -0.67026902836E+01  0.33812626869E+01  0.39578509348E+02  0.00000000000E+00 0.  1.
</event>
<event>
 7    1  0.3863655E-015  0.9000774E+02  0.7816164E-02  0.1186339E+00
        -11   -1    0    0    0    0  0.00000000000E+00  0.00000000000E+00  0.45593999997E+02  0.45594000000E+02  0.51100000000E-03 0. -1.
         11   -1    0    0    0    0 -0.00000000000E+00 -0.00000000000E+00 -0.45593999997E+02  0.45594000000E+02  0.51100000000E-03 0.  1.
    9900012    2    1    2    0    0  0.22440138726E+00 -0.90708083980E+00 -0.72100995116E+00  0.90007742832E+02  0.90000004238E+02 0.  0.
        -12    1    1    2    0    0 -0.22440138726E+00  0.90708083980E+00  0.72100995116E+00  0.11802571678E+01  0.00000000000E+00 0.  1.
         11    1    3    3    0    0  0.34562159199E+01 -0.87435464764E+00 -0.96409902918E+01  0.10279037825E+02  0.51100000000E-03 0. -1.
        -11    1    3    3    0    0  0.90276176120E+01 -0.31070347142E+02 -0.17845200688E+02  0.36950176442E+02  0.51100000000E-03 0.  1.
         12    1    3    3    0    0 -0.12259432145E+02  0.31037620950E+02  0.26765181028E+02  0.42778528565E+02  0.00000000000E+00 0. -1.
</event>
<event>
 7    1  0.4030132E-015  0.9000778E+02  0.7816164E-02  0.1186339E+00
        -11   -1    0    0    0    0  0.00000000000E+00  0.00000000000E+00  0.45593999997E+02  0.45594000000E+02  0.51100000000E-03 0. -1.
         11   -1    0    0    0    0 -0.00000000000E+00 -0.00000000000E+00 -0.45593999997E+02  0.45594000000E+02  0.51100000000E-03 0.  1.
    9900012    2    1    2    0    0  0.53627418701E+00 -0.10193937338E+01  0.25722276594E+00  0.90007780893E+02  0.90000042801E+02 0.  0.
        -12    1    1    2    0    0 -0.53627418701E+00  0.10193937338E+01 -0.25722276594E+00  0.11802191066E+01  0.00000000000E+00 0.  1.
         11    1    3    3    0    0 -0.95607238129E+01  0.78953504634E+00  0.13653001780E+01  0.96899355133E+01  0.51100000000E-03 0.  1.
        -11    1    3    3    0    0  0.13271911966E+02  0.37952661308E+02  0.23853357534E+01  0.40277015462E+02  0.51100000000E-03 0. -1.
         12    1    3    3    0    0 -0.31749139664E+01 -0.39761590088E+02 -0.34934131655E+01  0.40040829918E+02  0.00000000000E+00 0. -1.
</event>
<event>
 7    1  0.3863655E-015  0.9000769E+02  0.7816164E-02  0.1186339E+00
        -11   -1    0    0    0    0  0.00000000000E+00  0.00000000000E+00  0.45593999997E+02  0.45594000000E+02  0.51100000000E-03 0.  1.
         11   -1    0    0    0    0 -0.00000000000E+00 -0.00000000000E+00 -0.45593999997E+02  0.45594000000E+02  0.51100000000E-03 0. -1.
    9900012    2    1    2    0    0 -0.25730927199E+00  0.15944583484E+00 -0.11408343312E+01  0.90007689021E+02  0.89999949716E+02 0.  0.
        -12    1    1    2    0    0  0.25730927199E+00 -0.15944583484E+00  0.11408343312E+01  0.11803109789E+01  0.00000000000E+00 0.  1.
         11    1    3    3    0    0 -0.19795528108E+02 -0.21359737507E+01 -0.36186616981E+02  0.41302500720E+02  0.51100000000E-03 0. -1.
        -11    1    3    3    0    0  0.79166969734E+01 -0.10484514738E+02  0.50180376204E+01  0.14063422132E+02  0.51100000000E-03 0.  1.
        -12    1    3    3    0    0  0.11621521862E+02  0.12779934323E+02  0.30027745030E+02  0.34641766169E+02  0.00000000000E+00 0.  1.
</event>
<event>
 7    1  0.3863655E-015  0.9000776E+02  0.7816164E-02  0.1186339E+00
        -11   -1    0    0    0    0  0.00000000000E+00  0.00000000000E+00  0.45593999997E+02  0.45594000000E+02  0.51100000000E-03 0.  1.
         11   -1    0    0    0    0 -0.00000000000E+00 -0.00000000000E+00 -0.45593999997E+02  0.45594000000E+02  0.51100000000E-03 0. -1.
    9900012    2    1    2    0    0  0.64659739821E+00  0.89796823299E+00 -0.41051236626E+00  0.90007764623E+02  0.90000026316E+02 0.  0.
        -12    1    1    2    0    0 -0.64659739821E+00 -0.89796823299E+00  0.41051236626E+00  0.11802353772E+01  0.00000000000E+00 0.  1.
         11    1    3    3    0    0 -0.96550086701E+00  0.41500257096E+01  0.11013016900E+02  0.11808532797E+02  0.51100000000E-03 0. -1.
        -11    1    3    3    0    0 -0.84258470843E+01  0.33683138038E+02  0.74694238634E+01  0.35515362595E+02  0.51100000000E-03 0.  1.
         12    1    3    3    0    0  0.10037945349E+02 -0.36935195514E+02 -0.18892953130E+02  0.42683869230E+02  0.00000000000E+00 0. -1.
</event>
<event>
 7    1  0.3863655E-015  0.9000774E+02  0.7816164E-02  0.1186339E+00
        -11   -1    0    0    0    0  0.00000000000E+00  0.00000000000E+00  0.45593999997E+02  0.45594000000E+02  0.51100000000E-03 0.  1.
         11   -1    0    0    0    0 -0.00000000000E+00 -0.00000000000E+00 -0.45593999997E+02  0.45594000000E+02  0.51100000000E-03 0. -1.
    9900012    2    1    2    0    0  0.88162389626E+00  0.78340797313E+00  0.44918299120E-01  0.90007743079E+02  0.90000004487E+02 0.  0.
        -12    1    1    2    0    0 -0.88162389626E+00 -0.78340797313E+00 -0.44918299120E-01  0.11802569214E+01  0.00000000000E+00 0.  1.
         11    1    3    3    0    0  0.24981317210E+02 -0.31084239977E+02 -0.11153292266E+02  0.41408841002E+02  0.51100000000E-03 0. -1.
        -11    1    3    3    0    0 -0.16524208970E+01 -0.41534638803E+01  0.29671231010E+01  0.53652191739E+01  0.51100000000E-03 0.  1.
        -12    1    3    3    0    0 -0.22447272416E+02  0.36021111831E+02  0.82310874642E+01  0.43233682903E+02  0.00000000000E+00 0.  1.
</event>
<event>
 7    1  0.3863655E-015  0.9000779E+02  0.7816164E-02  0.1186339E+00
        -11   -1    0    0    0    0  0.00000000000E+00  0.00000000000E+00  0.45593999997E+02  0.45594000000E+02  0.51100000000E-03 0. -1.
         11   -1    0    0    0    0 -0.00000000000E+00 -0.00000000000E+00 -0.45593999997E+02  0.45594000000E+02  0.51100000000E-03 0.  1.
    9900012    2    1    2    0    0  0.64422088785E+00  0.46628965434E+00  0.87204124105E+00  0.90007787087E+02  0.90000049076E+02 0.  0.
        -12    1    1    2    0    0 -0.64422088785E+00 -0.46628965434E+00 -0.87204124105E+00  0.11802129131E+01  0.00000000000E+00 0.  1.
         11    1    3    3    0    0 -0.10658222353E+02  0.13045516400E+02 -0.49104289400E+01  0.17546951716E+02  0.51100000000E-03 0. -1.
        -11    1    3    3    0    0  0.80598020922E+01 -0.24660672757E+02 -0.26956559392E+02  0.37413437226E+02  0.51100000000E-03 0.  1.
         12    1    3    3    0    0  0.32426411487E+01  0.12081446011E+02  0.32739029573E+02  0.35047398145E+02  0.00000000000E+00 0. -1.
</event>
<event>
 7    1  0.3863655E-015  0.9000777E+02  0.7816164E-02  0.1186339E+00
        -11   -1    0    0    0    0  0.00000000000E+00  0.00000000000E+00  0.45593999997E+02  0.45594000000E+02  0.51100000000E-03 0. -1.
         11   -1    0    0    0    0 -0.00000000000E+00 -0.00000000000E+00 -0.45593999997E+02  0.45594000000E+02  0.51100000000E-03 0.  1.
    9900012    2    1    2    0    0  0.56627655260E+00  0.67049381241E+00  0.78911802756E+00  0.90007771909E+02  0.90000033698E+02 0.  0.
        -12    1    1    2    0    0 -0.56627655260E+00 -0.67049381241E+00 -0.78911802756E+00  0.11802280915E+01  0.00000000000E+00 0.  1.
         11    1    3    3    0    0  0.87105448429E+01 -0.49411752055E+00  0.59190045937E+01  0.10542881922E+02  0.51100000000E-03 0. -1.
        -11    1    3    3    0    0  0.23852839052E+02  0.27980278858E+02 -0.79661898202E+01  0.37620660764E+02  0.51100000000E-03 0.  1.
         12    1    3    3    0    0 -0.31997107342E+02 -0.26815667525E+02  0.28363032541E+01  0.41844229222E+02  0.00000000000E+00 0. -1.
</event>
<event>
 7    1  0.3863655E-015  0.9000774E+02  0.7816164E-02  0.1186339E+00
        -11   -1    0    0    0    0  0.00000000000E+00  0.00000000000E+00  0.45593999997E+02  0.45594000000E+02  0.51100000000E-03 0.  1.
         11   -1    0    0    0    0 -0.00000000000E+00 -0.00000000000E+00 -0.45593999997E+02  0.45594000000E+02  0.51100000000E-03 0. -1.
    9900012    2    1    2    0    0 -0.32866318265E-01 -0.50255753031E+00 -0.10674177839E+01  0.90007735203E+02  0.89999996508E+02 0.  0.
        -12    1    1    2    0    0  0.32866318265E-01  0.50255753031E+00  0.10674177839E+01  0.11802647972E+01  0.00000000000E+00 0.  1.
         11    1    3    3    0    0 -0.22707864069E+02 -0.28964608883E+02  0.88372652914E+00  0.36815440120E+02  0.51100000000E-03 0. -1.
        -11    1    3    3    0    0 -0.63642573035E+01 -0.43116209831E+01  0.45368866026E+01  0.89262078641E+01  0.51100000000E-03 0.  1.
        -12    1    3    3    0    0  0.29039255055E+02  0.32773672336E+02 -0.64880309156E+01  0.44266087219E+02  0.00000000000E+00 0.  1.
</event>
<event>
 7    1  0.3863655E-015  0.9000777E+02  0.7816164E-02  0.1186339E+00
        -11   -1    0    0    0    0  0.00000000000E+00  0.00000000000E+00  0.45593999997E+02  0.45594000000E+02  0.51100000000E-03 0.  1.
         11   -1    0    0    0    0 -0.00000000000E+00 -0.00000000000E+00 -0.45593999997E+02  0.45594000000E+02  0.51100000000E-03 0. -1.
    9900012    2    1    2    0    0  0.11632844598E+01 -0.58417156581E-01 -0.19050309764E+00  0.90007773442E+02  0.90000035251E+02 0.  0.
        -12    1    1    2    0    0 -0.11632844598E+01  0.58417156581E-01  0.19050309764E+00  0.11802265583E+01  0.00000000000E+00 0.  1.
         11    1    3    3    0    0  0.26061689512E+02 -0.19905704916E+02  0.20758818766E+02  0.38812076796E+02  0.51100000000E-03 0. -1.
        -11    1    3    3    0    0  0.61421492298E+01 -0.35997304353E+01 -0.66735103706E+01  0.97580631938E+01  0.51100000000E-03 0.  1.
        -12    1    3    3    0    0 -0.31040554282E+02  0.23447018195E+02 -0.14275811493E+02  0.41437633452E+02  0.00000000000E+00 0.  1.
</event>
<event>
 7    1  0.3863655E-015  0.9000770E+02  0.7816164E-02  0.1186339E+00
        -11   -1    0    0    0    0  0.00000000000E+00  0.00000000000E+00  0.45593999997E+02  0.45594000000E+02  0.51100000000E-03 0.  1.
         11   -1    0    0    0    0 -0.00000000000E+00 -0.00000000000E+00 -0.45593999997E+02  0.45594000000E+02  0.51100000000E-03 0. -1.
    9900012    2    1    2    0    0 -0.46742923693E+00  0.56331679289E+00 -0.92590518345E+00  0.90007696518E+02  0.89999957312E+02 0.  0.
        -12    1    1    2    0    0  0.46742923693E+00 -0.56331679289E+00  0.92590518345E+00  0.11803034819E+01  0.00000000000E+00 0.  1.
         11    1    3    3    0    0  0.57652382377E+01  0.46724560191E+01  0.84353467416E+01  0.11234985185E+02  0.51100000000E-03 0. -1.
        -11    1    3    3    0    0  0.31716030890E+02 -0.13825612509E+02  0.86411393505E+01  0.35661231978E+02  0.51100000000E-03 0.  1.
         12    1    3    3    0    0 -0.37948698364E+02  0.97164732823E+01 -0.18002391276E+02  0.43111479356E+02  0.00000000000E+00 0. -1.
</event>
<event>
 7    1  0.3863655E-015  0.9000770E+02  0.7816164E-02  0.1186339E+00
        -11   -1    0    0    0    0  0.00000000000E+00  0.00000000000E+00  0.45593999997E+02  0.45594000000E+02  0.51100000000E-03 0.  1.
         11   -1    0    0    0    0 -0.00000000000E+00 -0.00000000000E+00 -0.45593999997E+02  0.45594000000E+02  0.51100000000E-03 0. -1.
    9900012    2    1    2    0    0 -0.93963192810E+00 -0.12390366184E+00  0.70345784935E+00  0.90007697825E+02  0.89999958637E+02 0.  0.
        -12    1    1    2    0    0  0.93963192810E+00  0.12390366184E+00 -0.70345784935E+00  0.11803021747E+01  0.00000000000E+00 0.  1.
         11    1    3    3    0    0  0.30766498635E+02 -0.13457566572E+02 -0.49019065418E+01  0.33936885896E+02  0.51100000000E-03 0. -1.
        -11    1    3    3    0    0  0.10769967597E+02 -0.78475910910E+00  0.31228382368E+01  0.11241003862E+02  0.51100000000E-03 0.  1.
        -12    1    3    3    0    0 -0.42476098161E+02  0.14118422019E+02  0.24825261543E+01  0.44829808068E+02  0.00000000000E+00 0.  1.
</event>
<event>
 7    1  0.3863655E-015  0.9000778E+02  0.7816164E-02  0.1186339E+00
        -11   -1    0    0    0    0  0.00000000000E+00  0.00000000000E+00  0.45593999997E+02  0.45594000000E+02  0.51100000000E-03 0. -1.
         11   -1    0    0    0    0 -0.00000000000E+00 -0.00000000000E+00 -0.45593999997E+02  0.45594000000E+02  0.51100000000E-03 0.  1.
    9900012    2    1    2    0    0 -0.43982492335E+00  0.36460120417E+00  0.10327385679E+01  0.90007775890E+02  0.90000037731E+02 0.  0.
        -12    1    1    2    0    0  0.43982492335E+00 -0.36460120417E+00 -0.10327385679E+01  0.11802241105E+01  0.00000000000E+00 0.  1.
         11    1    3    3    0    0  0.95028186402E+01  0.53130784318E+01  0.25885412821E+01  0.11190751126E+02  0.51100000000E-03 0. -1.
        -11    1    3    3    0    0 -0.33807165202E+02 -0.21625218095E+02 -0.19498557584E+02  0.44618025783E+02  0.51100000000E-03 0.  1.
         12    1    3    3    0    0  0.23864521639E+02  0.16676740867E+02  0.17942754870E+02  0.34198998981E+02  0.00000000000E+00 0. -1.
</event>
<event>
 7    1  0.3863655E-015  0.9000777E+02  0.7816164E-02  0.1186339E+00
        -11   -1    0    0    0    0  0.00000000000E+00  0.00000000000E+00  0.45593999997E+02  0.45594000000E+02  0.51100000000E-03 0. -1.
         11   -1    0    0    0    0 -0.00000000000E+00 -0.00000000000E+00 -0.45593999997E+02  0.45594000000E+02  0.51100000000E-03 0.  1.
    9900012    2    1    2    0    0  0.11723792536E+01 -0.75558223763E-01  0.11293674520E+00  0.90007772536E+02  0.90000034333E+02 0.  0.
        -12    1    1    2    0    0 -0.11723792536E+01  0.75558223763E-01 -0.11293674520E+00  0.11802274644E+01  0.00000000000E+00 0.  1.
         11    1    3    3    0    0  0.10747757151E+01 -0.20323010014E+00 -0.85164835056E+01  0.85864391266E+01  0.51100000000E-03 0. -1.
        -11    1    3    3    0    0  0.38045397298E+00 -0.20800745935E+02 -0.30573784994E+02  0.36980699098E+02  0.51100000000E-03 0.  1.
         12    1    3    3    0    0 -0.28285043454E+00  0.20928417812E+02  0.39203205245E+02  0.44440634311E+02  0.00000000000E+00 0. -1.
</event>
<event>
 7    1  0.3863655E-015  0.9000796E+02  0.7816164E-02  0.1186339E+00
        -11   -1    0    0    0    0  0.00000000000E+00  0.00000000000E+00  0.45593999997E+02  0.45594000000E+02  0.51100000000E-03 0.  1.
         11   -1    0    0    0    0 -0.00000000000E+00 -0.00000000000E+00 -0.45593999997E+02  0.45594000000E+02  0.51100000000E-03 0. -1.
    9900012    2    1    2    0    0 -0.10411663666E+01  0.50129130727E+00 -0.23912777788E+00  0.90007956581E+02  0.90000220807E+02 0.  0.
        -12    1    1    2    0    0  0.10411663666E+01 -0.50129130727E+00  0.23912777788E+00  0.11800434195E+01  0.00000000000E+00 0.  1.
         11    1    3    3    0    0 -0.19857624840E+01 -0.13125655619E+02 -0.12740593532E+00  0.13275628821E+02  0.51100000000E-03 0. -1.
        -11    1    3    3    0    0  0.26190159122E+02 -0.11534535182E+02  0.20826892147E+02  0.35393917181E+02  0.51100000000E-03 0.  1.
         12    1    3    3    0    0 -0.25245563004E+02  0.25161482108E+02 -0.20938613990E+02  0.41338410578E+02  0.00000000000E+00 0. -1.
</event>
<event>
 7    1  0.3863655E-015  0.9000778E+02  0.7816164E-02  0.1186339E+00
        -11   -1    0    0    0    0  0.00000000000E+00  0.00000000000E+00  0.45593999997E+02  0.45594000000E+02  0.51100000000E-03 0.  1.
         11   -1    0    0    0    0 -0.00000000000E+00 -0.00000000000E+00 -0.45593999997E+02  0.45594000000E+02  0.51100000000E-03 0. -1.
    9900012    2    1    2    0    0 -0.86976577338E+00 -0.76499251582E+00 -0.22628986120E+00  0.90007782583E+02  0.90000044513E+02 0.  0.
        -12    1    1    2    0    0  0.86976577338E+00  0.76499251582E+00  0.22628986120E+00  0.11802174169E+01  0.00000000000E+00 0.  1.
         11    1    3    3    0    0  0.25442819355E+02 -0.53686880647E+01 -0.26369550233E+02  0.37033944537E+02  0.51100000000E-03 0. -1.
        -11    1    3    3    0    0  0.67404309662E+01  0.55327849839E+01 -0.26650994035E+01  0.91185456286E+01  0.51100000000E-03 0.  1.
        -12    1    3    3    0    0 -0.33053016094E+02 -0.92908943505E+00  0.28808359775E+02  0.43855292417E+02  0.00000000000E+00 0.  1.
</event>
<event>
 7    1  0.3863655E-015  0.9000776E+02  0.7816164E-02  0.1186339E+00
        -11   -1    0    0    0    0  0.00000000000E+00  0.00000000000E+00  0.45593999997E+02  0.45594000000E+02  0.51100000000E-03 0.  1.
         11   -1    0    0    0    0 -0.00000000000E+00 -0.00000000000E+00 -0.45593999997E+02  0.45594000000E+02  0.51100000000E-03 0. -1.
    9900012    2    1    2    0    0 -0.41575724208E+00  0.41710244775E+00 -0.10228123736E+01  0.90007756937E+02  0.90000018528E+02 0.  0.
        -12    1    1    2    0    0  0.41575724208E+00 -0.41710244775E+00  0.10228123736E+01  0.11802430631E+01  0.00000000000E+00 0.  1.
         11    1    3    3    0    0  0.23303477854E+02  0.23826666476E+02 -0.21904687486E+02  0.39882044201E+02  0.51100000000E-03 0. -1.
        -11    1    3    3    0    0  0.73453655941E+01 -0.14585443383E+01  0.42525725120E+01  0.86119754139E+01  0.51100000000E-03 0.  1.
        -12    1    3    3    0    0 -0.31064600691E+02 -0.21951019690E+02  0.16629302601E+02  0.41513737323E+02  0.00000000000E+00 0.  1.
</event>
<event>
 7    1  0.3863655E-015  0.9000771E+02  0.7816164E-02  0.1186339E+00
        -11   -1    0    0    0    0  0.00000000000E+00  0.00000000000E+00  0.45593999997E+02  0.45594000000E+02  0.51100000000E-03 0.  1.
         11   -1    0    0    0    0 -0.00000000000E+00 -0.00000000000E+00 -0.45593999997E+02  0.45594000000E+02  0.51100000000E-03 0. -1.
    9900012    2    1    2    0    0 -0.36688518820E+00 -0.70134547031E-01 -0.11196220454E+01  0.90007713119E+02  0.89999974133E+02 0.  0.
        -12    1    1    2    0    0  0.36688518820E+00  0.70134547031E-01  0.11196220454E+01  0.11802868806E+01  0.00000000000E+00 0.  1.
         11    1    3    3    0    0 -0.35851811182E+02  0.14518831080E+02  0.18149156080E+02  0.42726346528E+02  0.51100000000E-03 0. -1.
        -11    1    3    3    0    0  0.58465873585E+00 -0.64906102235E+00 -0.79992281434E+01  0.80467855196E+01  0.51100000000E-03 0.  1.
        -12    1    3    3    0    0  0.34900267258E+02 -0.13939904605E+02 -0.11269549982E+02  0.39234581072E+02  0.00000000000E+00 0.  1.
</event>
<event>
 7    1  0.3863655E-015  0.9000771E+02  0.7816164E-02  0.1186339E+00
        -11   -1    0    0    0    0  0.00000000000E+00  0.00000000000E+00  0.45593999997E+02  0.45594000000E+02  0.51100000000E-03 0.  1.
         11   -1    0    0    0    0 -0.00000000000E+00 -0.00000000000E+00 -0.45593999997E+02  0.45594000000E+02  0.51100000000E-03 0. -1.
    9900012    2    1    2    0    0  0.93899410736E+00 -0.37776446405E+00  0.60718385203E+00  0.90007708445E+02  0.89999969397E+02 0.  0.
        -12    1    1    2    0    0 -0.93899410736E+00  0.37776446405E+00 -0.60718385203E+00  0.11802915547E+01  0.00000000000E+00 0.  1.
         11    1    3    3    0    0 -0.59623263210E+01 -0.39154097791E+02 -0.92596708348E+01  0.40673507510E+02  0.51100000000E-03 0. -1.
        -11    1    3    3    0    0  0.24713569504E+01 -0.64059976392E+00  0.93220947722E+01  0.96653724417E+01  0.51100000000E-03 0.  1.
        -12    1    3    3    0    0  0.44299634780E+01  0.39416933090E+02  0.54475991466E+00  0.39668828493E+02  0.00000000000E+00 0.  1.
</event>
<event>
 7    1  0.3880260E-015  0.9000772E+02  0.7816164E-02  0.1186339E+00
        -11   -1    0    0    0    0  0.00000000000E+00  0.00000000000E+00  0.45593999997E+02  0.45594000000E+02  0.51100000000E-03 0.  1.
         11   -1    0    0    0    0 -0.00000000000E+00 -0.00000000000E+00 -0.45593999997E+02  0.45594000000E+02  0.51100000000E-03 0. -1.
    9900012    2    1    2    0    0  0.21710008959E+00 -0.86099473044E+00 -0.77757487083E+00  0.90007717384E+02  0.89999978453E+02 0.  0.
        -12    1    1    2    0    0 -0.21710008959E+00  0.86099473044E+00  0.77757487083E+00  0.11802826164E+01  0.00000000000E+00 0.  1.
         11    1    3    3    0    0 -0.82604892674E+01  0.20958229861E+01 -0.25050784004E+01  0.88827684299E+01  0.51100000000E-03 0. -1.
        -11    1    3    3    0    0 -0.30037260441E+02 -0.10136358155E+01  0.22293319186E+02  0.37420002043E+02  0.51100000000E-03 0.  1.
         12    1    3    3    0    0  0.38514849798E+02 -0.19431819010E+01 -0.20565815656E+02  0.43704946910E+02  0.00000000000E+00 0. -1.
</event>
<event>
 7    1  0.3863655E-015  0.9000802E+02  0.7816164E-02  0.1186338E+00
        -11   -1    0    0    0    0  0.00000000000E+00  0.00000000000E+00  0.45593999997E+02  0.45594000000E+02  0.51100000000E-03 0.  1.
         11   -1    0    0    0    0 -0.00000000000E+00 -0.00000000000E+00 -0.45593999997E+02  0.45594000000E+02  0.51100000000E-03 0. -1.
    9900012    2    1    2    0    0 -0.91790647933E+00  0.52317847302E+00 -0.52544470551E+00  0.90008016882E+02  0.90000281905E+02 0.  0.
        -12    1    1    2    0    0  0.91790647933E+00 -0.52317847302E+00  0.52544470551E+00  0.11799831177E+01  0.00000000000E+00 0.  1.
         11    1    3    3    0    0 -0.16949813476E+01 -0.20611853235E+02 -0.31911549347E+02  0.38027206544E+02  0.51100000000E-03 0. -1.
        -11    1    3    3    0    0  0.47295718871E+01 -0.87115155761E+01  0.24238835941E+01  0.10204634526E+02  0.51100000000E-03 0.  1.
        -12    1    3    3    0    0 -0.39524970188E+01  0.29846547285E+02  0.28962221047E+02  0.41776175812E+02  0.00000000000E+00 0.  1.
</event>
<event>
 7    1  0.3863655E-015  0.9000769E+02  0.7816164E-02  0.1186339E+00
        -11   -1    0    0    0    0  0.00000000000E+00  0.00000000000E+00  0.45593999997E+02  0.45594000000E+02  0.51100000000E-03 0.  1.
         11   -1    0    0    0    0 -0.00000000000E+00 -0.00000000000E+00 -0.45593999997E+02  0.45594000000E+02  0.51100000000E-03 0. -1.
    9900012    2    1    2    0    0  0.31586536212E+00  0.11338431647E+01  0.88148925812E-01  0.90007685854E+02  0.89999946508E+02 0.  0.
        -12    1    1    2    0    0 -0.31586536212E+00 -0.11338431647E+01 -0.88148925812E-01  0.11803141456E+01  0.00000000000E+00 0.  1.
         11    1    3    3    0    0  0.18717358629E+02  0.61849863510E+01  0.18309203559E+01  0.19797622075E+02  0.51100000000E-03 0. -1.
        -11    1    3    3    0    0  0.17353135275E+02  0.96894746384E+01  0.17976655703E+02  0.26798831564E+02  0.51100000000E-03 0.  1.
         12    1    3    3    0    0 -0.35754628542E+02 -0.14740617825E+02 -0.19719427133E+02  0.43411232216E+02  0.00000000000E+00 0. -1.
</event>
<event>
 7    1  0.3863655E-015  0.9000774E+02  0.7816164E-02  0.1186339E+00
        -11   -1    0    0    0    0  0.00000000000E+00  0.00000000000E+00  0.45593999997E+02  0.45594000000E+02  0.51100000000E-03 0.  1.
         11   -1    0    0    0    0 -0.00000000000E+00 -0.00000000000E+00 -0.45593999997E+02  0.45594000000E+02  0.51100000000E-03 0. -1.
    9900012    2    1    2    0    0 -0.12503396931E+00 -0.67821078122E+00 -0.95782133074E+00  0.90007735174E+02  0.89999996479E+02 0.  0.
        -12    1    1    2    0    0  0.12503396931E+00  0.67821078122E+00  0.95782133074E+00  0.11802648257E+01  0.00000000000E+00 0.  1.
         11    1    3    3    0    0 -0.23364331570E+02 -0.31419402349E+02  0.21686027865E+00  0.39155049002E+02  0.51100000000E-03 0. -1.
        -11    1    3    3    0    0 -0.19809567024E+01  0.44453370835E+00  0.97400452458E+01  0.99493859773E+01  0.51100000000E-03 0.  1.
        -12    1    3    3    0    0  0.25220254303E+02  0.30296657859E+02 -0.10914726855E+02  0.40903300195E+02  0.00000000000E+00 0.  1.
</event>
<event>
 7    1  0.3863655E-015  0.9000778E+02  0.7816164E-02  0.1186339E+00
        -11   -1    0    0    0    0  0.00000000000E+00  0.00000000000E+00  0.45593999997E+02  0.45594000000E+02  0.51100000000E-03 0.  1.
         11   -1    0    0    0    0 -0.00000000000E+00 -0.00000000000E+00 -0.45593999997E+02  0.45594000000E+02  0.51100000000E-03 0. -1.
    9900012    2    1    2    0    0  0.61076024339E+00 -0.95893028877E+00 -0.31678512048E+00  0.90007776214E+02  0.90000038060E+02 0.  0.
        -12    1    1    2    0    0 -0.61076024339E+00  0.95893028877E+00  0.31678512048E+00  0.11802237865E+01  0.00000000000E+00 0.  1.
         11    1    3    3    0    0 -0.17333914286E+01 -0.16522528523E+02 -0.36396790692E+02  0.40009061069E+02  0.51100000000E-03 0. -1.
        -11    1    3    3    0    0 -0.61816060427E+01 -0.71316094381E+01  0.53226134645E+01  0.10835235152E+02  0.51100000000E-03 0.  1.
        -12    1    3    3    0    0  0.85257577146E+01  0.22695207672E+02  0.30757392107E+02  0.39163479993E+02  0.00000000000E+00 0.  1.
</event>
<event>
 7    1  0.3863655E-015  0.9000778E+02  0.7816164E-02  0.1186339E+00
        -11   -1    0    0    0    0  0.00000000000E+00  0.00000000000E+00  0.45593999997E+02  0.45594000000E+02  0.51100000000E-03 0. -1.
         11   -1    0    0    0    0 -0.00000000000E+00 -0.00000000000E+00 -0.45593999997E+02  0.45594000000E+02  0.51100000000E-03 0.  1.
    9900012    2    1    2    0    0  0.96366208573E-01 -0.28827561249E+00  0.11404039319E+01  0.90007783747E+02  0.90000045693E+02 0.  0.
        -12    1    1    2    0    0 -0.96366208573E-01  0.28827561249E+00 -0.11404039319E+01  0.11802162526E+01  0.00000000000E+00 0.  1.
         11    1    3    3    0    0  0.22964363523E+01  0.49617902968E+01 -0.55516071749E+01  0.77918755993E+01  0.51100000000E-03 0. -1.
        -11    1    3    3    0    0 -0.16626637628E+02 -0.33683631768E+02 -0.18224086562E+02  0.41751041414E+02  0.51100000000E-03 0.  1.
         12    1    3    3    0    0  0.14426567484E+02  0.28433565858E+02  0.24916097669E+02  0.40464866734E+02  0.00000000000E+00 0. -1.
</event>
<event>
 7    1  0.3863655E-015  0.9000784E+02  0.7816164E-02  0.1186339E+00
        -11   -1    0    0    0    0  0.00000000000E+00  0.00000000000E+00  0.45593999997E+02  0.45594000000E+02  0.51100000000E-03 0.  1.
         11   -1    0    0    0    0 -0.00000000000E+00 -0.00000000000E+00 -0.45593999997E+02  0.45594000000E+02  0.51100000000E-03 0. -1.
    9900012    2    1    2    0    0 -0.22094558308E+00 -0.10586687966E+01 -0.47241504128E+00  0.90007842153E+02  0.90000104870E+02 0.  0.
        -12    1    1    2    0    0  0.22094558308E+00  0.10586687966E+01  0.47241504128E+00  0.11801578466E+01  0.00000000000E+00 0.  1.
         11    1    3    3    0    0  0.44517344883E+01  0.13674283442E+02 -0.15449326039E+01  0.14463429214E+02  0.51100000000E-03 0. -1.
        -11    1    3    3    0    0 -0.10366271566E+02  0.11209122518E+02  0.31591141061E+02  0.35087094602E+02  0.51100000000E-03 0.  1.
         12    1    3    3    0    0  0.56935914945E+01 -0.25942074757E+02 -0.30518623498E+02  0.40457318337E+02  0.00000000000E+00 0. -1.
</event>
<event>
 7    1  0.3863655E-015  0.9000775E+02  0.7816164E-02  0.1186339E+00
        -11   -1    0    0    0    0  0.00000000000E+00  0.00000000000E+00  0.45593999997E+02  0.45594000000E+02  0.51100000000E-03 0.  1.
         11   -1    0    0    0    0 -0.00000000000E+00 -0.00000000000E+00 -0.45593999997E+02  0.45594000000E+02  0.51100000000E-03 0. -1.
    9900012    2    1    2    0    0 -0.48694242555E+00 -0.96009543659E+00 -0.48383463701E+00  0.90007749124E+02  0.90000010613E+02 0.  0.
        -12    1    1    2    0    0  0.48694242555E+00  0.96009543659E+00  0.48383463701E+00  0.11802508755E+01  0.00000000000E+00 0.  1.
         11    1    3    3    0    0  0.20832986091E+01 -0.14363358530E+01  0.82217732594E+01  0.86023688347E+01  0.51100000000E-03 0. -1.
        -11    1    3    3    0    0 -0.33251395186E+02 -0.16918836801E+02  0.13559856149E+02  0.39695995007E+02  0.51100000000E-03 0.  1.
         12    1    3    3    0    0  0.30681154152E+02  0.17395077218E+02 -0.22265464046E+02  0.41709385283E+02  0.00000000000E+00 0. -1.
</event>
<event>
 7    1  0.3863655E-015  0.9000769E+02  0.7816164E-02  0.1186339E+00
        -11   -1    0    0    0    0  0.00000000000E+00  0.00000000000E+00  0.45593999997E+02  0.45594000000E+02  0.51100000000E-03 0.  1.
         11   -1    0    0    0    0 -0.00000000000E+00 -0.00000000000E+00 -0.45593999997E+02  0.45594000000E+02  0.51100000000E-03 0. -1.
    9900012    2    1    2    0    0  0.33633381661E+00  0.10363585338E+01  0.45384140264E+00  0.90007690098E+02  0.89999950807E+02 0.  0.
        -12    1    1    2    0    0 -0.33633381661E+00 -0.10363585338E+01 -0.45384140264E+00  0.11803099023E+01  0.00000000000E+00 0.  1.
         11    1    3    3    0    0  0.88531043805E+01 -0.22362754484E+01 -0.46668490980E+00  0.91430946686E+01  0.51100000000E-03 0. -1.
        -11    1    3    3    0    0  0.45523315936E+01 -0.18019000902E+02  0.34395128874E+02  0.39095178820E+02  0.51100000000E-03 0.  1.
         12    1    3    3    0    0 -0.13069102157E+02  0.21291634884E+02 -0.33474602561E+02  0.41769416609E+02  0.00000000000E+00 0. -1.
</event>
<event>
 7    1  0.3863655E-015  0.9000808E+02  0.7816164E-02  0.1186338E+00
        -11   -1    0    0    0    0  0.00000000000E+00  0.00000000000E+00  0.45593999997E+02  0.45594000000E+02  0.51100000000E-03 0.  1.
         11   -1    0    0    0    0 -0.00000000000E+00 -0.00000000000E+00 -0.45593999997E+02  0.45594000000E+02  0.51100000000E-03 0. -1.
    9900012    2    1    2    0    0 -0.65745970205E+00  0.96579654983E+00  0.16487590336E+00  0.90008084622E+02  0.90000350538E+02 0.  0.
        -12    1    1    2    0    0  0.65745970205E+00 -0.96579654983E+00 -0.16487590336E+00  0.11799153779E+01  0.00000000000E+00 0.  1.
         11    1    3    3    0    0  0.12179370480E+02 -0.23876627942E+02 -0.23840906096E+02  0.35872262695E+02  0.51100000000E-03 0. -1.
        -11    1    3    3    0    0  0.22925262831E+00 -0.36057473188E+01 -0.83599979139E+01  0.91073341805E+01  0.51100000000E-03 0.  1.
        -12    1    3    3    0    0 -0.13066082810E+02  0.28448171810E+02  0.32365779913E+02  0.45028487746E+02  0.00000000000E+00 0.  1.
</event>
<event>
 7    1  0.3863655E-015  0.9000776E+02  0.7816164E-02  0.1186339E+00
        -11   -1    0    0    0    0  0.00000000000E+00  0.00000000000E+00  0.45593999997E+02  0.45594000000E+02  0.51100000000E-03 0. -1.
         11   -1    0    0    0    0 -0.00000000000E+00 -0.00000000000E+00 -0.45593999997E+02  0.45594000000E+02  0.51100000000E-03 0.  1.
    9900012    2    1    2    0    0  0.58840499034E+00  0.51136460474E+00  0.88614678780E+00  0.90007758363E+02  0.90000019974E+02 0.  0.
        -12    1    1    2    0    0 -0.58840499034E+00 -0.51136460474E+00 -0.88614678780E+00  0.11802416368E+01  0.00000000000E+00 0.  1.
         11    1    3    3    0    0 -0.37529107238E+02  0.15799272541E+01  0.14612009018E+02  0.40304352966E+02  0.51100000000E-03 0. -1.
        -11    1    3    3    0    0  0.65428146542E+00  0.89600786911E+01 -0.23203079348E+01  0.92787350194E+01  0.51100000000E-03 0.  1.
        -12    1    3    3    0    0  0.37463230763E+02 -0.10028641340E+02 -0.11405554296E+02  0.40424670378E+02  0.00000000000E+00 0.  1.
</event>
<event>
 7    1  0.3863655E-015  0.9000789E+02  0.7816164E-02  0.1186339E+00
        -11   -1    0    0    0    0  0.00000000000E+00  0.00000000000E+00  0.45593999997E+02  0.45594000000E+02  0.51100000000E-03 0. -1.
         11   -1    0    0    0    0 -0.00000000000E+00 -0.00000000000E+00 -0.45593999997E+02  0.45594000000E+02  0.51100000000E-03 0.  1.
    9900012    2    1    2    0    0  0.73149848921E+00 -0.59530705596E+00  0.70935125137E+00  0.90007889951E+02  0.90000153298E+02 0.  0.
        -12    1    1    2    0    0 -0.73149848921E+00  0.59530705596E+00 -0.70935125137E+00  0.11801100493E+01  0.00000000000E+00 0.  1.
         11    1    3    3    0    0  0.20279461394E+02  0.25479551936E+02  0.17233904116E+02  0.36843881074E+02  0.51100000000E-03 0. -1.
        -11    1    3    3    0    0  0.18770440698E+01  0.78182730803E+01  0.29797827632E+01  0.85748349240E+01  0.51100000000E-03 0.  1.
        -12    1    3    3    0    0 -0.21425006974E+02 -0.33893132072E+02 -0.19504335628E+02  0.44589173953E+02  0.00000000000E+00 0.  1.
</event>
<event>
 7    1  0.3863655E-015  0.9000774E+02  0.7816164E-02  0.1186339E+00
        -11   -1    0    0    0    0  0.00000000000E+00  0.00000000000E+00  0.45593999997E+02  0.45594000000E+02  0.51100000000E-03 0. -1.
         11   -1    0    0    0    0 -0.00000000000E+00 -0.00000000000E+00 -0.45593999997E+02  0.45594000000E+02  0.51100000000E-03 0.  1.
    9900012    2    1    2    0    0  0.51925177944E+00  0.97341309200E+00  0.41935323162E+00  0.90007740456E+02  0.90000001830E+02 0.  0.
        -12    1    1    2    0    0 -0.51925177944E+00 -0.97341309200E+00 -0.41935323162E+00  0.11802595439E+01  0.00000000000E+00 0.  1.
         11    1    3    3    0    0 -0.10362357650E+02  0.14293149708E+00 -0.26750950073E+01  0.10703037842E+02  0.51100000000E-03 0. -1.
        -11    1    3    3    0    0 -0.29122319231E+02 -0.29694627208E+01 -0.17546698061E+02  0.34129368575E+02  0.51100000000E-03 0.  1.
         12    1    3    3    0    0  0.40003928660E+02  0.37999443157E+01  0.20641146300E+02  0.45175334040E+02  0.00000000000E+00 0. -1.
</event>
<event>
 7    1  0.3863655E-015  0.9000776E+02  0.7816164E-02  0.1186339E+00
        -11   -1    0    0    0    0  0.00000000000E+00  0.00000000000E+00  0.45593999997E+02  0.45594000000E+02  0.51100000000E-03 0. -1.
         11   -1    0    0    0    0 -0.00000000000E+00 -0.00000000000E+00 -0.45593999997E+02  0.45594000000E+02  0.51100000000E-03 0.  1.
    9900012    2    1    2    0    0  0.74445001693E-01 -0.11696001388E+01 -0.13948340624E+00  0.90007761819E+02  0.90000023475E+02 0.  0.
        -12    1    1    2    0    0 -0.74445001693E-01  0.11696001388E+01  0.13948340624E+00  0.11802381808E+01  0.00000000000E+00 0.  1.
         11    1    3    3    0    0 -0.65460529053E+00 -0.81272110878E+01  0.54979514426E+01  0.98339991091E+01  0.51100000000E-03 0. -1.
        -11    1    3    3    0    0  0.22585237188E+02 -0.28742068251E+02 -0.10503195388E+02  0.38033097952E+02  0.51100000000E-03 0.  1.
         12    1    3    3    0    0 -0.21856186896E+02  0.35699679200E+02  0.48657605397E+01  0.42140664758E+02  0.00000000000E+00 0. -1.
</event>
<event>
 7    1  0.3863655E-015  0.9000778E+02  0.7816164E-02  0.1186339E+00
        -11   -1    0    0    0    0  0.00000000000E+00  0.00000000000E+00  0.45593999997E+02  0.45594000000E+02  0.51100000000E-03 0.  1.
         11   -1    0    0    0    0 -0.00000000000E+00 -0.00000000000E+00 -0.45593999997E+02  0.45594000000E+02  0.51100000000E-03 0. -1.
    9900012    2    1    2    0    0  0.32144606248E+00  0.92368736565E+00 -0.66060905308E+00  0.90007775343E+02  0.90000037177E+02 0.  0.
        -12    1    1    2    0    0 -0.32144606248E+00 -0.92368736565E+00  0.66060905308E+00  0.11802246572E+01  0.00000000000E+00 0.  1.
         11    1    3    3    0    0 -0.19247753781E+02 -0.18130465647E+00 -0.36251983509E+02  0.41045282379E+02  0.51100000000E-03 0. -1.
        -11    1    3    3    0    0  0.38195637195E+00  0.97910526612E+01  0.31661184808E+01  0.10297325351E+02  0.51100000000E-03 0.  1.
        -12    1    3    3    0    0  0.19187243471E+02 -0.86860606391E+01  0.32425255975E+02  0.38665167613E+02  0.00000000000E+00 0.  1.
</event>
<event>
 7    1  0.3863655E-015  0.9000775E+02  0.7816164E-02  0.1186339E+00
        -11   -1    0    0    0    0  0.00000000000E+00  0.00000000000E+00  0.45593999997E+02  0.45594000000E+02  0.51100000000E-03 0. -1.
         11   -1    0    0    0    0 -0.00000000000E+00 -0.00000000000E+00 -0.45593999997E+02  0.45594000000E+02  0.51100000000E-03 0.  1.
    9900012    2    1    2    0    0 -0.90808197599E+00  0.73628325498E+00 -0.16208264844E+00  0.90007747192E+02  0.90000008655E+02 0.  0.
        -12    1    1    2    0    0  0.90808197599E+00 -0.73628325498E+00  0.16208264844E+00  0.11802528083E+01  0.00000000000E+00 0.  1.
         11    1    3    3    0    0 -0.60503895365E+00 -0.64181517633E+01  0.28481598152E+01  0.70477484905E+01  0.51100000000E-03 0. -1.
        -11    1    3    3    0    0 -0.25184003762E+02  0.21683994827E+02  0.25907618303E+02  0.42138276703E+02  0.51100000000E-03 0.  1.
         12    1    3    3    0    0  0.24880960740E+02 -0.14529559808E+02 -0.28917860767E+02  0.40821721998E+02  0.00000000000E+00 0. -1.
</event>
<event>
 7    1  0.3863655E-015  0.9000781E+02  0.7816164E-02  0.1186339E+00
        -11   -1    0    0    0    0  0.00000000000E+00  0.00000000000E+00  0.45593999997E+02  0.45594000000E+02  0.51100000000E-03 0. -1.
         11   -1    0    0    0    0 -0.00000000000E+00 -0.00000000000E+00 -0.45593999997E+02  0.45594000000E+02  0.51100000000E-03 0.  1.
    9900012    2    1    2    0    0  0.77517458114E-01  0.56774586673E+00  0.10317486458E+01  0.90007809510E+02  0.90000071795E+02 0.  0.
        -12    1    1    2    0    0 -0.77517458114E-01 -0.56774586673E+00 -0.10317486458E+01  0.11801904904E+01  0.00000000000E+00 0.  1.
         11    1    3    3    0    0 -0.23344932013E+02  0.22618737524E+02  0.12166935907E+02  0.34707743624E+02  0.51100000000E-03 0. -1.
        -11    1    3    3    0    0 -0.11635729031E+02 -0.50782168932E+01 -0.10287081095E+02  0.16340211585E+02  0.51100000000E-03 0.  1.
        -12    1    3    3    0    0  0.35058178502E+02 -0.16972774764E+02 -0.84810616555E+00  0.38959854301E+02  0.00000000000E+00 0.  1.
</event>
<event>
 7    1  0.3863655E-015  0.9000781E+02  0.7816164E-02  0.1186339E+00
        -11   -1    0    0    0    0  0.00000000000E+00  0.00000000000E+00  0.45593999997E+02  0.45594000000E+02  0.51100000000E-03 0.  1.
         11   -1    0    0    0    0 -0.00000000000E+00 -0.00000000000E+00 -0.45593999997E+02  0.45594000000E+02  0.51100000000E-03 0. -1.
    9900012    2    1    2    0    0  0.55313286873E+00 -0.52289071470E+00 -0.90193392862E+00  0.90007807015E+02  0.90000069268E+02 0.  0.
        -12    1    1    2    0    0 -0.55313286873E+00  0.52289071470E+00  0.90193392862E+00  0.11801929849E+01  0.00000000000E+00 0.  1.
         11    1    3    3    0    0  0.20251415929E+02 -0.22910756894E+00 -0.33495221597E+02  0.39142077200E+02  0.51100000000E-03 0. -1.
        -11    1    3    3    0    0  0.11870664783E+01 -0.88589518087E+01 -0.23713919937E+01  0.92473593107E+01  0.51100000000E-03 0.  1.
        -12    1    3    3    0    0 -0.20885349538E+02  0.85651686629E+01  0.34964679662E+02  0.41618370505E+02  0.00000000000E+00 0.  1.
</event>
<event>
 7    1  0.3863655E-015  0.9000774E+02  0.7816164E-02  0.1186339E+00
        -11   -1    0    0    0    0  0.00000000000E+00  0.00000000000E+00  0.45593999997E+02  0.45594000000E+02  0.51100000000E-03 0.  1.
         11   -1    0    0    0    0 -0.00000000000E+00 -0.00000000000E+00 -0.45593999997E+02  0.45594000000E+02  0.51100000000E-03 0. -1.
    9900012    2    1    2    0    0 -0.85425623214E+00 -0.10817674731E+00  0.80719473990E+00  0.90007737628E+02  0.89999998965E+02 0.  0.
        -12    1    1    2    0    0  0.85425623214E+00  0.10817674731E+00 -0.80719473990E+00  0.11802623721E+01  0.00000000000E+00 0.  1.
         11    1    3    3    0    0 -0.86309099258E+01  0.37198687749E+01 -0.10411556451E+01  0.94558994912E+01  0.51100000000E-03 0. -1.
        -11    1    3    3    0    0 -0.13314002398E+02 -0.30947238869E+02  0.22458116629E+02  0.40489026368E+02  0.51100000000E-03 0.  1.
         12    1    3    3    0    0  0.21090656091E+02  0.27119193347E+02 -0.20609766244E+02  0.40062811768E+02  0.00000000000E+00 0. -1.
</event>
<event>
 7    1  0.4179160E-015  0.9000774E+02  0.7816164E-02  0.1186339E+00
        -11   -1    0    0    0    0  0.00000000000E+00  0.00000000000E+00  0.45593999997E+02  0.45594000000E+02  0.51100000000E-03 0. -1.
         11   -1    0    0    0    0 -0.00000000000E+00 -0.00000000000E+00 -0.45593999997E+02  0.45594000000E+02  0.51100000000E-03 0.  1.
    9900012    2    1    2    0    0  0.92212436361E+00 -0.61003439949E+00  0.41297439849E+00  0.90007744450E+02  0.90000005876E+02 0.  0.
        -12    1    1    2    0    0 -0.92212436361E+00  0.61003439949E+00 -0.41297439849E+00  0.11802555504E+01  0.00000000000E+00 0.  1.
         11    1    3    3    0    0  0.38661461468E+01 -0.17092143080E+01 -0.76462686115E+01  0.87369287235E+01  0.51100000000E-03 0. -1.
        -11    1    3    3    0    0 -0.19932322674E+02 -0.33107668364E+02 -0.86202407883E+01  0.39594491324E+02  0.51100000000E-03 0.  1.
         12    1    3    3    0    0  0.16988300891E+02  0.34206848273E+02  0.16679483798E+02  0.41676324402E+02  0.00000000000E+00 0. -1.
</event>
<event>
 7    1  0.3863655E-015  0.9000775E+02  0.7816164E-02  0.1186339E+00
        -11   -1    0    0    0    0  0.00000000000E+00  0.00000000000E+00  0.45593999997E+02  0.45594000000E+02  0.51100000000E-03 0. -1.
         11   -1    0    0    0    0 -0.00000000000E+00 -0.00000000000E+00 -0.45593999997E+02  0.45594000000E+02  0.51100000000E-03 0.  1.
    9900012    2    1    2    0    0  0.27396148168E+00  0.92061284735E+00  0.68586687930E+00  0.90007747364E+02  0.90000008829E+02 0.  0.
        -12    1    1    2    0    0 -0.27396148168E+00 -0.92061284735E+00 -0.68586687930E+00  0.11802526358E+01  0.00000000000E+00 0.  1.
         11    1    3    3    0    0  0.40372706604E+01 -0.89249048472E+01  0.34575232350E+02  0.35936056729E+02  0.51100000000E-03 0. -1.
        -11    1    3    3    0    0 -0.25157139229E+01 -0.24292356898E+01  0.88876424220E+01  0.95509261677E+01  0.51100000000E-03 0.  1.
        -12    1    3    3    0    0 -0.12475952558E+01  0.12274753384E+02 -0.42777007892E+02  0.44520764468E+02  0.00000000000E+00 0.  1.
</event>
<event>
 7    1  0.3863655E-015  0.9000775E+02  0.7816164E-02  0.1186339E+00
        -11   -1    0    0    0    0  0.00000000000E+00  0.00000000000E+00  0.45593999997E+02  0.45594000000E+02  0.51100000000E-03 0.  1.
         11   -1    0    0    0    0 -0.00000000000E+00 -0.00000000000E+00 -0.45593999997E+02  0.45594000000E+02  0.51100000000E-03 0. -1.
    9900012    2    1    2    0    0  0.44586185596E+00  0.31909279318E+00 -0.10451720946E+01  0.90007746759E+02  0.90000008216E+02 0.  0.
        -12    1    1    2    0    0 -0.44586185596E+00 -0.31909279318E+00  0.10451720946E+01  0.11802532409E+01  0.00000000000E+00 0.  1.
         11    1    3    3    0    0  0.38806613499E+01  0.14767717511E+02 -0.37021109222E+02  0.40046317449E+02  0.51100000000E-03 0. -1.
        -11    1    3    3    0    0  0.95660041280E+01  0.16282684731E+01  0.15826354707E+01  0.98318069800E+01  0.51100000000E-03 0.  1.
        -12    1    3    3    0    0 -0.13000803622E+02 -0.16076893191E+02  0.34393301656E+02  0.40129622330E+02  0.00000000000E+00 0.  1.
</event>
<event>
 7    1  0.3863655E-015  0.9000770E+02  0.7816164E-02  0.1186339E+00
        -11   -1    0    0    0    0  0.00000000000E+00  0.00000000000E+00  0.45593999997E+02  0.45594000000E+02  0.51100000000E-03 0.  1.
         11   -1    0    0    0    0 -0.00000000000E+00 -0.00000000000E+00 -0.45593999997E+02  0.45594000000E+02  0.51100000000E-03 0. -1.
    9900012    2    1    2    0    0 -0.17650270720E+00  0.73743725317E+00  0.90450592145E+00  0.90007704329E+02  0.89999965227E+02 0.  0.
        -12    1    1    2    0    0  0.17650270720E+00 -0.73743725317E+00 -0.90450592145E+00  0.11802956706E+01  0.00000000000E+00 0.  1.
         11    1    3    3    0    0  0.16566785042E+02 -0.87700848585E+01  0.17164802186E+01  0.18823364727E+02  0.51100000000E-03 0. -1.
        -11    1    3    3    0    0 -0.29368896057E+02 -0.20025869559E+02  0.10607683929E+02  0.37095693359E+02  0.51100000000E-03 0.  1.
         12    1    3    3    0    0  0.12625608308E+02  0.29533391670E+02 -0.11419658226E+02  0.34088646244E+02  0.00000000000E+00 0. -1.
</event>
<event>
 7    1  0.3863655E-015  0.9000773E+02  0.7816164E-02  0.1186339E+00
        -11   -1    0    0    0    0  0.00000000000E+00  0.00000000000E+00  0.45593999997E+02  0.45594000000E+02  0.51100000000E-03 0. -1.
         11   -1    0    0    0    0 -0.00000000000E+00 -0.00000000000E+00 -0.45593999997E+02  0.45594000000E+02  0.51100000000E-03 0.  1.
    9900012    2    1    2    0    0 -0.10622872524E+01  0.73020020245E-01 -0.50916794798E+00  0.90007729637E+02  0.89999990868E+02 0.  0.
        -12    1    1    2    0    0  0.10622872524E+01 -0.73020020245E-01  0.50916794798E+00  0.11802703627E+01  0.00000000000E+00 0.  1.
         11    1    3    3    0    0 -0.32891306046E+02  0.63788154364E+01  0.20824877768E+02  0.39448736787E+02  0.51100000000E-03 0. -1.
        -11    1    3    3    0    0 -0.63979706429E+01  0.79754868779E+00 -0.58565568002E+01  0.87103025247E+01  0.51100000000E-03 0.  1.
        -12    1    3    3    0    0  0.38226989436E+02 -0.71033441039E+01 -0.15477488916E+02  0.41848690326E+02  0.00000000000E+00 0.  1.
</event>
<event>
 7    1  0.3863655E-015  0.9000794E+02  0.7816164E-02  0.1186339E+00
        -11   -1    0    0    0    0  0.00000000000E+00  0.00000000000E+00  0.45593999997E+02  0.45594000000E+02  0.51100000000E-03 0.  1.
         11   -1    0    0    0    0 -0.00000000000E+00 -0.00000000000E+00 -0.45593999997E+02  0.45594000000E+02  0.51100000000E-03 0. -1.
    9900012    2    1    2    0    0 -0.52074519752E+00 -0.33254201893E+00 -0.10053762944E+01  0.90007940150E+02  0.90000204160E+02 0.  0.
        -12    1    1    2    0    0  0.52074519752E+00  0.33254201893E+00  0.10053762944E+01  0.11800598495E+01  0.00000000000E+00 0.  1.
         11    1    3    3    0    0 -0.25970609217E+02 -0.19296775348E+02 -0.21440724380E+02  0.38814208019E+02  0.51100000000E-03 0. -1.
        -11    1    3    3    0    0 -0.10466360523E+00 -0.88487886748E+01  0.16202764449E+01  0.89965166315E+01  0.51100000000E-03 0.  1.
        -12    1    3    3    0    0  0.25554527625E+02  0.27813022004E+02  0.18815071641E+02  0.42197215500E+02  0.00000000000E+00 0.  1.
</event>
<event>
 7    1  0.3863655E-015  0.9000781E+02  0.7816164E-02  0.1186339E+00
        -11   -1    0    0    0    0  0.00000000000E+00  0.00000000000E+00  0.45593999997E+02  0.45594000000E+02  0.51100000000E-03 0.  1.
         11   -1    0    0    0    0 -0.00000000000E+00 -0.00000000000E+00 -0.45593999997E+02  0.45594000000E+02  0.51100000000E-03 0. -1.
    9900012    2    1    2    0    0 -0.15389515894E+00 -0.11689758064E+01  0.51649377842E-01  0.90007806874E+02  0.90000069125E+02 0.  0.
        -12    1    1    2    0    0  0.15389515894E+00  0.11689758064E+01 -0.51649377842E-01  0.11801931257E+01  0.00000000000E+00 0.  1.
         11    1    3    3    0    0  0.93170075333E+01  0.40454417826E+01  0.24575833093E+01  0.10450451884E+02  0.51100000000E-03 0. -1.
        -11    1    3    3    0    0  0.12085791505E+02 -0.66754874552E+01  0.34294374517E+02  0.36969346936E+02  0.51100000000E-03 0.  1.
         12    1    3    3    0    0 -0.21556694197E+02  0.14610698663E+01 -0.36700308448E+02  0.42588008055E+02  0.00000000000E+00 0. -1.
</event>
<event>
 7    1  0.4457242E-015  0.9000775E+02  0.7816164E-02  0.1186339E+00
        -11   -1    0    0    0    0  0.00000000000E+00  0.00000000000E+00  0.45593999997E+02  0.45594000000E+02  0.51100000000E-03 0. -1.
         11   -1    0    0    0    0 -0.00000000000E+00 -0.00000000000E+00 -0.45593999997E+02  0.45594000000E+02  0.51100000000E-03 0.  1.
    9900012    2    1    2    0    0  0.12000977333E+00 -0.25983380300E+00  0.11450254155E+01  0.90007746149E+02  0.90000007598E+02 0.  0.
        -12    1    1    2    0    0 -0.12000977333E+00  0.25983380300E+00 -0.11450254155E+01  0.11802538511E+01  0.00000000000E+00 0.  1.
         11    1    3    3    0    0 -0.53828066832E+01  0.76967808774E+00 -0.82666463810E+01  0.98946679984E+01  0.51100000000E-03 0. -1.
        -11    1    3    3    0    0 -0.17139860644E+02 -0.13411172237E+02 -0.27503027745E+02  0.35072081476E+02  0.51100000000E-03 0.  1.
         12    1    3    3    0    0  0.22642677100E+02  0.12381660346E+02  0.36914699542E+02  0.45040996675E+02  0.00000000000E+00 0. -1.
</event>
<event>
 7    1  0.3863655E-015  0.9000775E+02  0.7816164E-02  0.1186339E+00
        -11   -1    0    0    0    0  0.00000000000E+00  0.00000000000E+00  0.45593999997E+02  0.45594000000E+02  0.51100000000E-03 0.  1.
         11   -1    0    0    0    0 -0.00000000000E+00 -0.00000000000E+00 -0.45593999997E+02  0.45594000000E+02  0.51100000000E-03 0. -1.
    9900012    2    1    2    0    0  0.53233943437E+00  0.99482730335E+00 -0.34628360146E+00  0.90007754699E+02  0.90000016261E+02 0.  0.
        -12    1    1    2    0    0 -0.53233943437E+00 -0.99482730335E+00  0.34628360146E+00  0.11802453006E+01  0.00000000000E+00 0.  1.
         11    1    3    3    0    0 -0.16194590428E+02 -0.45042068395E+00 -0.22486929058E+02  0.27715151391E+02  0.51100000000E-03 0. -1.
        -11    1    3    3    0    0 -0.72851458744E+01 -0.77343950102E+01 -0.14226944708E+02  0.17756693740E+02  0.51100000000E-03 0.  1.
        -12    1    3    3    0    0  0.24012075737E+02  0.91796429974E+01  0.36367590164E+02  0.44535909569E+02  0.00000000000E+00 0.  1.
</event>
<event>
 7    1  0.3863655E-015  0.9000793E+02  0.7816164E-02  0.1186339E+00
        -11   -1    0    0    0    0  0.00000000000E+00  0.00000000000E+00  0.45593999997E+02  0.45594000000E+02  0.51100000000E-03 0.  1.
         11   -1    0    0    0    0 -0.00000000000E+00 -0.00000000000E+00 -0.45593999997E+02  0.45594000000E+02  0.51100000000E-03 0. -1.
    9900012    2    1    2    0    0 -0.55342881033E-01 -0.51206426049E+00 -0.10617359202E+01  0.90007933982E+02  0.90000197911E+02 0.  0.
        -12    1    1    2    0    0  0.55342881033E-01  0.51206426049E+00  0.10617359202E+01  0.11800660175E+01  0.00000000000E+00 0.  1.
         11    1    3    3    0    0  0.87455573164E+01 -0.31325869691E+02 -0.82235096307E+01  0.33547294907E+02  0.51100000000E-03 0. -1.
        -11    1    3    3    0    0  0.19288957041E+01  0.20996108387E+02 -0.17785198938E+02  0.27583881300E+02  0.51100000000E-03 0.  1.
        -12    1    3    3    0    0 -0.10729795902E+02  0.98176970434E+01  0.24946972649E+02  0.28876757776E+02  0.00000000000E+00 0.  1.
</event>
<event>
 7    1  0.3863655E-015  0.9000773E+02  0.7816164E-02  0.1186339E+00
        -11   -1    0    0    0    0  0.00000000000E+00  0.00000000000E+00  0.45593999997E+02  0.45594000000E+02  0.51100000000E-03 0.  1.
         11   -1    0    0    0    0 -0.00000000000E+00 -0.00000000000E+00 -0.45593999997E+02  0.45594000000E+02  0.51100000000E-03 0. -1.
    9900012    2    1    2    0    0 -0.84609397258E-01 -0.11771778273E+01 -0.11394332650E-01  0.90007730447E+02  0.89999991689E+02 0.  0.
        -12    1    1    2    0    0  0.84609397258E-01  0.11771778273E+01  0.11394332650E-01  0.11802695531E+01  0.00000000000E+00 0.  1.
         11    1    3    3    0    0  0.35357487067E+02 -0.14477737049E+02  0.18688281095E+02  0.42532441880E+02  0.51100000000E-03 0. -1.
        -11    1    3    3    0    0 -0.53337791537E+01 -0.55399387071E+01 -0.60066695754E+01  0.97580838584E+01  0.51100000000E-03 0.  1.
        -12    1    3    3    0    0 -0.30108317310E+02  0.18840497929E+02 -0.12693005852E+02  0.37717204709E+02  0.00000000000E+00 0.  1.
</event>
<event>
 7    1  0.3863655E-015  0.9000765E+02  0.7816164E-02  0.1186339E+00
        -11   -1    0    0    0    0  0.00000000000E+00  0.00000000000E+00  0.45593999997E+02  0.45594000000E+02  0.51100000000E-03 0.  1.
         11   -1    0    0    0    0 -0.00000000000E+00 -0.00000000000E+00 -0.45593999997E+02  0.45594000000E+02  0.51100000000E-03 0. -1.
    9900012    2    1    2    0    0 -0.67175477237E+00 -0.35837633673E+00 -0.90196260008E+00  0.90007650643E+02  0.89999910831E+02 0.  0.
        -12    1    1    2    0    0  0.67175477237E+00  0.35837633673E+00  0.90196260008E+00  0.11803493571E+01  0.00000000000E+00 0.  1.
         11    1    3    3    0    0  0.26786750742E+01 -0.82711697568E+01  0.60555840409E+01  0.10595170958E+02  0.51100000000E-03 0. -1.
        -11    1    3    3    0    0 -0.15683786372E+02  0.93503943422E+01  0.32920882100E+02  0.37645657224E+02  0.51100000000E-03 0.  1.
         12    1    3    3    0    0  0.12333356526E+02 -0.14376009221E+01 -0.39878428741E+02  0.41766822461E+02  0.00000000000E+00 0. -1.
</event>
<event>
 7    1  0.3863655E-015  0.9000775E+02  0.7816164E-02  0.1186339E+00
        -11   -1    0    0    0    0  0.00000000000E+00  0.00000000000E+00  0.45593999997E+02  0.45594000000E+02  0.51100000000E-03 0.  1.
         11   -1    0    0    0    0 -0.00000000000E+00 -0.00000000000E+00 -0.45593999997E+02  0.45594000000E+02  0.51100000000E-03 0. -1.
    9900012    2    1    2    0    0  0.57602787517E-01  0.51673840536E+00 -0.10595527510E+01  0.90007750580E+02  0.90000012088E+02 0.  0.
        -12    1    1    2    0    0 -0.57602787517E-01 -0.51673840536E+00  0.10595527510E+01  0.11802494198E+01  0.00000000000E+00 0.  1.
         11    1    3    3    0    0 -0.73845188973E+01 -0.60444860891E+01  0.12833815685E+01  0.96288109306E+01  0.51100000000E-03 0. -1.
        -11    1    3    3    0    0 -0.32981602387E+02  0.12338442575E+02 -0.14028360526E+02  0.37905384321E+02  0.51100000000E-03 0.  1.
         12    1    3    3    0    0  0.40423724072E+02 -0.57772180805E+01  0.11685426207E+02  0.42473555329E+02  0.00000000000E+00 0. -1.
</event>
<event>
 7    1  0.3863655E-015  0.9000773E+02  0.7816164E-02  0.1186339E+00
        -11   -1    0    0    0    0  0.00000000000E+00  0.00000000000E+00  0.45593999997E+02  0.45594000000E+02  0.51100000000E-03 0. -1.
         11   -1    0    0    0    0 -0.00000000000E+00 -0.00000000000E+00 -0.45593999997E+02  0.45594000000E+02  0.51100000000E-03 0.  1.
    9900012    2    1    2    0    0  0.44140213720E+00  0.80668095544E+00  0.73991257503E+00  0.90007728578E+02  0.89999989795E+02 0.  0.
        -12    1    1    2    0    0 -0.44140213720E+00 -0.80668095544E+00 -0.73991257503E+00  0.11802714219E+01  0.00000000000E+00 0.  1.
         11    1    3    3    0    0 -0.42111818314E+01  0.58998993746E+00  0.15537987481E+02  0.16109351190E+02  0.51100000000E-03 0.  1.
        -11    1    3    3    0    0 -0.19455654426E+02  0.23959204197E+01  0.22243593978E+02  0.29648615434E+02  0.51100000000E-03 0. -1.
        -12    1    3    3    0    0  0.24108238395E+02 -0.21792294017E+01 -0.37041668884E+02  0.44249761954E+02  0.00000000000E+00 0.  1.
</event>
<event>
 7    1  0.3863655E-015  0.9000812E+02  0.7816164E-02  0.1186338E+00
        -11   -1    0    0    0    0  0.00000000000E+00  0.00000000000E+00  0.45593999997E+02  0.45594000000E+02  0.51100000000E-03 0. -1.
         11   -1    0    0    0    0 -0.00000000000E+00 -0.00000000000E+00 -0.45593999997E+02  0.45594000000E+02  0.51100000000E-03 0.  1.
    9900012    2    1    2    0    0 -0.11507025708E+00  0.11505641187E+01 -0.23467898914E+00  0.90008121539E+02  0.90000387942E+02 0.  0.
        -12    1    1    2    0    0  0.11507025708E+00 -0.11505641187E+01  0.23467898914E+00  0.11798784612E+01  0.00000000000E+00 0.  1.
         11    1    3    3    0    0  0.71286582692E+01 -0.10853031717E+02 -0.10870527677E+02  0.16934415797E+02  0.51100000000E-03 0. -1.
        -11    1    3    3    0    0  0.76137160497E+01  0.35572337412E+02  0.22519567751E+02  0.42784235333E+02  0.51100000000E-03 0.  1.
         12    1    3    3    0    0 -0.14857444576E+02 -0.23568741577E+02 -0.11883719063E+02  0.30289470408E+02  0.00000000000E+00 0. -1.
</event>
<event>
 7    1  0.3863655E-015  0.9000811E+02  0.7816164E-02  0.1186338E+00
        -11   -1    0    0    0    0  0.00000000000E+00  0.00000000000E+00  0.45593999997E+02  0.45594000000E+02  0.51100000000E-03 0.  1.
         11   -1    0    0    0    0 -0.00000000000E+00 -0.00000000000E+00 -0.45593999997E+02  0.45594000000E+02  0.51100000000E-03 0. -1.
    9900012    2    1    2    0    0  0.11421807019E+01  0.63135483975E-01  0.28909860316E+00  0.90008109816E+02  0.90000376064E+02 0.  0.
        -12    1    1    2    0    0 -0.11421807019E+01 -0.63135483975E-01 -0.28909860316E+00  0.11798901845E+01  0.00000000000E+00 0.  1.
         11    1    3    3    0    0  0.10627474587E+02 -0.40077786103E+02 -0.88040019268E+01  0.42387292969E+02  0.51100000000E-03 0. -1.
        -11    1    3    3    0    0  0.66371086602E+01  0.66381993639E+01  0.18731709716E+00  0.93889291252E+01  0.51100000000E-03 0.  1.
        -12    1    3    3    0    0 -0.16122402545E+02  0.33502722223E+02  0.89057834328E+01  0.38231887722E+02  0.00000000000E+00 0.  1.
</event>
<event>
 7    1  0.3863655E-015  0.9000778E+02  0.7816164E-02  0.1186339E+00
        -11   -1    0    0    0    0  0.00000000000E+00  0.00000000000E+00  0.45593999997E+02  0.45594000000E+02  0.51100000000E-03 0. -1.
         11   -1    0    0    0    0 -0.00000000000E+00 -0.00000000000E+00 -0.45593999997E+02  0.45594000000E+02  0.51100000000E-03 0.  1.
    9900012    2    1    2    0    0 -0.80809765622E+00  0.19981243909E+00  0.83664889784E+00  0.90007776203E+02  0.90000038049E+02 0.  0.
        -12    1    1    2    0    0  0.80809765622E+00 -0.19981243909E+00 -0.83664889784E+00  0.11802237970E+01  0.00000000000E+00 0.  1.
         11    1    3    3    0    0 -0.29272616352E+02 -0.83800894228E+01  0.29141292176E+02  0.42146493054E+02  0.51100000000E-03 0. -1.
        -11    1    3    3    0    0 -0.43717566984E+01  0.11749076422E+00 -0.53645829167E+01  0.69213301353E+01  0.51100000000E-03 0.  1.
        -12    1    3    3    0    0  0.32836275394E+02  0.84624110977E+01 -0.22940060362E+02  0.40939953013E+02  0.00000000000E+00 0.  1.
</event>
<event>
 7    1  0.3863655E-015  0.9000776E+02  0.7816164E-02  0.1186339E+00
        -11   -1    0    0    0    0  0.00000000000E+00  0.00000000000E+00  0.45593999997E+02  0.45594000000E+02  0.51100000000E-03 0. -1.
         11   -1    0    0    0    0 -0.00000000000E+00 -0.00000000000E+00 -0.45593999997E+02  0.45594000000E+02  0.51100000000E-03 0.  1.
    9900012    2    1    2    0    0 -0.28756179417E+00 -0.92790055302E+00  0.67028055928E+00  0.90007759664E+02  0.90000021292E+02 0.  0.
        -12    1    1    2    0    0  0.28756179417E+00  0.92790055302E+00 -0.67028055928E+00  0.11802403357E+01  0.00000000000E+00 0.  1.
         11    1    3    3    0    0 -0.18056710330E+02 -0.19148142139E+02 -0.66927757295E+01  0.27156755744E+02  0.51100000000E-03 0. -1.
        -11    1    3    3    0    0  0.18841181669E+02  0.10112030577E+02 -0.23000696807E+02  0.31405020983E+02  0.51100000000E-03 0.  1.
         12    1    3    3    0    0 -0.10720331328E+01  0.81082110093E+01  0.30363753096E+02  0.31445982937E+02  0.00000000000E+00 0. -1.
</event>
<event>
 7    1  0.3863655E-015  0.9000766E+02  0.7816164E-02  0.1186339E+00
        -11   -1    0    0    0    0  0.00000000000E+00  0.00000000000E+00  0.45593999997E+02  0.45594000000E+02  0.51100000000E-03 0. -1.
         11   -1    0    0    0    0 -0.00000000000E+00 -0.00000000000E+00 -0.45593999997E+02  0.45594000000E+02  0.51100000000E-03 0.  1.
    9900012    2    1    2    0    0 -0.98494158589E-02  0.46243896080E+00  0.10859325933E+01  0.90007662590E+02  0.89999922937E+02 0.  0.
        -12    1    1    2    0    0  0.98494158589E-02 -0.46243896080E+00 -0.10859325933E+01  0.11803374097E+01  0.00000000000E+00 0.  1.
         11    1    3    3    0    0  0.13799367130E+01  0.20529510540E+01 -0.99350322064E+01  0.10238344523E+02  0.51100000000E-03 0. -1.
        -11    1    3    3    0    0 -0.20707773141E+02 -0.27598763080E+02 -0.15572249667E+02  0.37854967336E+02  0.51100000000E-03 0.  1.
         12    1    3    3    0    0  0.19317987012E+02  0.26008250987E+02  0.26593214467E+02  0.41914350732E+02  0.00000000000E+00 0. -1.
</event>
<event>
 7    1  0.3863655E-015  0.9000777E+02  0.7816164E-02  0.1186339E+00
        -11   -1    0    0    0    0  0.00000000000E+00  0.00000000000E+00  0.45593999997E+02  0.45594000000E+02  0.51100000000E-03 0.  1.
         11   -1    0    0    0    0 -0.00000000000E+00 -0.00000000000E+00 -0.45593999997E+02  0.45594000000E+02  0.51100000000E-03 0. -1.
    9900012    2    1    2    0    0  0.77449887787E+00  0.85167556065E+00 -0.26027707800E+00  0.90007769544E+02  0.90000031302E+02 0.  0.
        -12    1    1    2    0    0 -0.77449887787E+00 -0.85167556065E+00  0.26027707800E+00  0.11802304562E+01  0.00000000000E+00 0.  1.
         11    1    3    3    0    0  0.94472593867E+01 -0.24504040037E+02 -0.34214609413E+02  0.43131637873E+02  0.51100000000E-03 0. -1.
        -11    1    3    3    0    0  0.37588825226E+01  0.85487100433E+01  0.35761643099E+01  0.99999296326E+01  0.51100000000E-03 0.  1.
        -12    1    3    3    0    0 -0.12431643031E+02  0.16807005554E+02  0.30378168026E+02  0.36876202038E+02  0.00000000000E+00 0.  1.
</event>
<event>
 7    1  0.3863655E-015  0.9000763E+02  0.7816164E-02  0.1186339E+00
        -11   -1    0    0    0    0  0.00000000000E+00  0.00000000000E+00  0.45593999997E+02  0.45594000000E+02  0.51100000000E-03 0. -1.
         11   -1    0    0    0    0 -0.00000000000E+00 -0.00000000000E+00 -0.45593999997E+02  0.45594000000E+02  0.51100000000E-03 0.  1.
    9900012    2    1    2    0    0 -0.10468432975E+00  0.94608297841E+00 -0.69802670417E+00  0.90007630104E+02  0.89999890022E+02 0.  0.
        -12    1    1    2    0    0  0.10468432975E+00 -0.94608297841E+00  0.69802670417E+00  0.11803698957E+01  0.00000000000E+00 0.  1.
         11    1    3    3    0    0  0.58096462632E+01  0.23143248896E+02 -0.14452498131E+02  0.27896893405E+02  0.51100000000E-03 0. -1.
        -11    1    3    3    0    0  0.15734788777E+02  0.13373860375E+00 -0.13518158401E+02  0.20744687770E+02  0.51100000000E-03 0.  1.
        -12    1    3    3    0    0 -0.21649119370E+02 -0.22330904522E+02  0.27272629827E+02  0.41366048929E+02  0.00000000000E+00 0.  1.
</event>
<event>
 7    1  0.3863655E-015  0.9000771E+02  0.7816164E-02  0.1186339E+00
        -11   -1    0    0    0    0  0.00000000000E+00  0.00000000000E+00  0.45593999997E+02  0.45594000000E+02  0.51100000000E-03 0.  1.
         11   -1    0    0    0    0 -0.00000000000E+00 -0.00000000000E+00 -0.45593999997E+02  0.45594000000E+02  0.51100000000E-03 0. -1.
    9900012    2    1    2    0    0  0.55126524454E+00  0.39414079241E+00 -0.96635215092E+00  0.90007713249E+02  0.89999974264E+02 0.  0.
        -12    1    1    2    0    0 -0.55126524454E+00 -0.39414079241E+00  0.96635215092E+00  0.11802867506E+01  0.00000000000E+00 0.  1.
         11    1    3    3    0    0  0.18461832118E+02 -0.37937638139E+02 -0.18383106865E+01  0.42231303782E+02  0.51100000000E-03 0. -1.
        -11    1    3    3    0    0  0.52839356758E+01  0.75279636315E+01  0.57849999379E+00  0.92154693406E+01  0.51100000000E-03 0.  1.
        -12    1    3    3    0    0 -0.23194502549E+02  0.30803815300E+02  0.29345854178E+00  0.38560940126E+02  0.00000000000E+00 0.  1.
</event>
<event>
 7    1  0.3863655E-015  0.9000770E+02  0.7816164E-02  0.1186339E+00
        -11   -1    0    0    0    0  0.00000000000E+00  0.00000000000E+00  0.45593999997E+02  0.45594000000E+02  0.51100000000E-03 0.  1.
         11   -1    0    0    0    0 -0.00000000000E+00 -0.00000000000E+00 -0.45593999997E+02  0.45594000000E+02  0.51100000000E-03 0. -1.
    9900012    2    1    2    0    0  0.65239093402E-01  0.11722462538E+01 -0.12125133343E+00  0.90007695249E+02  0.89999956027E+02 0.  0.
        -12    1    1    2    0    0 -0.65239093402E-01 -0.11722462538E+01  0.12125133343E+00  0.11803047508E+01  0.00000000000E+00 0.  1.
         11    1    3    3    0    0  0.14242140928E+02 -0.28230338886E+02 -0.17348215372E+02  0.36065928363E+02  0.51100000000E-03 0. -1.
        -11    1    3    3    0    0 -0.31258107893E+01 -0.89226038655E+01 -0.19989533775E+01  0.96633000418E+01  0.51100000000E-03 0.  1.
        -12    1    3    3    0    0 -0.11051091045E+02  0.38325189005E+02  0.19225917416E+02  0.44278466844E+02  0.00000000000E+00 0.  1.
</event>
<event>
 7    1  0.3863655E-015  0.9000772E+02  0.7816164E-02  0.1186339E+00
        -11   -1    0    0    0    0  0.00000000000E+00  0.00000000000E+00  0.45593999997E+02  0.45594000000E+02  0.51100000000E-03 0.  1.
         11   -1    0    0    0    0 -0.00000000000E+00 -0.00000000000E+00 -0.45593999997E+02  0.45594000000E+02  0.51100000000E-03 0. -1.
    9900012    2    1    2    0    0 -0.48759801192E+00  0.22549848992E+00 -0.10509364201E+01  0.90007716666E+02  0.89999977726E+02 0.  0.
        -12    1    1    2    0    0  0.48759801192E+00 -0.22549848992E+00  0.10509364201E+01  0.11802833343E+01  0.00000000000E+00 0.  1.
         11    1    3    3    0    0  0.33424848823E+01 -0.34161602140E+02 -0.37483135677E+01  0.34528786843E+02  0.51100000000E-03 0. -1.
        -11    1    3    3    0    0  0.12515769428E+02  0.32216063961E+01  0.13477760517E+02  0.18672794675E+02  0.51100000000E-03 0.  1.
        -12    1    3    3    0    0 -0.16345852322E+02  0.31165494234E+02 -0.10780383369E+02  0.36806135148E+02  0.00000000000E+00 0.  1.
</event>
<event>
 7    1  0.3863655E-015  0.9000775E+02  0.7816164E-02  0.1186339E+00
        -11   -1    0    0    0    0  0.00000000000E+00  0.00000000000E+00  0.45593999997E+02  0.45594000000E+02  0.51100000000E-03 0. -1.
         11   -1    0    0    0    0 -0.00000000000E+00 -0.00000000000E+00 -0.45593999997E+02  0.45594000000E+02  0.51100000000E-03 0.  1.
    9900012    2    1    2    0    0 -0.77485085140E+00  0.84157023061E+00  0.29044650232E+00  0.90007748558E+02  0.90000010039E+02 0.  0.
        -12    1    1    2    0    0  0.77485085140E+00 -0.84157023061E+00 -0.29044650232E+00  0.11802514417E+01  0.00000000000E+00 0.  1.
         11    1    3    3    0    0  0.10047472420E+02  0.30614881473E+01  0.30510454285E+01  0.10937700406E+02  0.51100000000E-03 0. -1.
        -11    1    3    3    0    0 -0.12374232698E+02 -0.39661599108E+02 -0.12648974435E+01  0.41566381181E+02  0.51100000000E-03 0.  1.
         12    1    3    3    0    0  0.15519094271E+01  0.37441681192E+02 -0.14957014827E+01  0.37503666971E+02  0.00000000000E+00 0. -1.
</event>
<event>
 7    1  0.3863655E-015  0.9000773E+02  0.7816164E-02  0.1186339E+00
        -11   -1    0    0    0    0  0.00000000000E+00  0.00000000000E+00  0.45593999997E+02  0.45594000000E+02  0.51100000000E-03 0.  1.
         11   -1    0    0    0    0 -0.00000000000E+00 -0.00000000000E+00 -0.45593999997E+02  0.45594000000E+02  0.51100000000E-03 0. -1.
    9900012    2    1    2    0    0 -0.44652721733E+00 -0.33784872166E+00 -0.10389995727E+01  0.90007725275E+02  0.89999986449E+02 0.  0.
        -12    1    1    2    0    0  0.44652721733E+00  0.33784872166E+00  0.10389995727E+01  0.11802747251E+01  0.00000000000E+00 0.  1.
         11    1    3    3    0    0 -0.35058254778E+01  0.69063801093E+01 -0.46689081524E+01  0.90436498214E+01  0.51100000000E-03 0. -1.
        -11    1    3    3    0    0 -0.28426313468E+02  0.21047893232E+02 -0.95376522978E+01  0.36633808409E+02  0.51100000000E-03 0.  1.
         12    1    3    3    0    0  0.31485611729E+02 -0.28292122063E+02  0.13167560877E+02  0.44330267045E+02  0.00000000000E+00 0. -1.
</event>
<event>
 7    1  0.3863655E-015  0.9000764E+02  0.7816164E-02  0.1186339E+00
        -11   -1    0    0    0    0  0.00000000000E+00  0.00000000000E+00  0.45593999997E+02  0.45594000000E+02  0.51100000000E-03 0.  1.
         11   -1    0    0    0    0 -0.00000000000E+00 -0.00000000000E+00 -0.45593999997E+02  0.45594000000E+02  0.51100000000E-03 0. -1.
    9900012    2    1    2    0    0 -0.93181691115E+00  0.33084912558E+00 -0.64460096256E+00  0.90007638064E+02  0.89999898086E+02 0.  0.
        -12    1    1    2    0    0  0.93181691115E+00 -0.33084912558E+00  0.64460096256E+00  0.11803619363E+01  0.00000000000E+00 0.  1.
         11    1    3    3    0    0 -0.54764295871E+01 -0.15927369345E+01  0.13205166709E+02  0.14384176029E+02  0.51100000000E-03 0. -1.
        -11    1    3    3    0    0 -0.11960119398E+02 -0.31773858190E+02  0.37907870912E+01  0.34161273210E+02  0.51100000000E-03 0.  1.
         12    1    3    3    0    0  0.16504732074E+02  0.33697444250E+02 -0.17640554763E+02  0.41462188825E+02  0.00000000000E+00 0. -1.
</event>
<event>
 7    1  0.3863655E-015  0.9000768E+02  0.7816164E-02  0.1186339E+00
        -11   -1    0    0    0    0  0.00000000000E+00  0.00000000000E+00  0.45593999997E+02  0.45594000000E+02  0.51100000000E-03 0.  1.
         11   -1    0    0    0    0 -0.00000000000E+00 -0.00000000000E+00 -0.45593999997E+02  0.45594000000E+02  0.51100000000E-03 0. -1.
    9900012    2    1    2    0    0  0.85880171544E+00  0.52521961708E+00  0.61623827132E+00  0.90007684093E+02  0.89999944723E+02 0.  0.
        -12    1    1    2    0    0 -0.85880171544E+00 -0.52521961708E+00 -0.61623827132E+00  0.11803159067E+01  0.00000000000E+00 0.  1.
         11    1    3    3    0    0 -0.60910977522E+01 -0.57258228612E+01  0.10905504513E+01  0.84306476509E+01  0.51100000000E-03 0. -1.
        -11    1    3    3    0    0  0.16810011330E+02 -0.32986297590E+02  0.12523073620E+02  0.39083240434E+02  0.51100000000E-03 0.  1.
         12    1    3    3    0    0 -0.98601118627E+01  0.39237340068E+02 -0.12997385800E+02  0.42493796009E+02  0.00000000000E+00 0. -1.
</event>
<event>
 7    1  0.3863655E-015  0.9000773E+02  0.7816164E-02  0.1186339E+00
        -11   -1    0    0    0    0  0.00000000000E+00  0.00000000000E+00  0.45593999997E+02  0.45594000000E+02  0.51100000000E-03 0. -1.
         11   -1    0    0    0    0 -0.00000000000E+00 -0.00000000000E+00 -0.45593999997E+02  0.45594000000E+02  0.51100000000E-03 0.  1.
    9900012    2    1    2    0    0  0.48969371660E+00  0.10026503556E+01  0.38462610298E+00  0.90007726764E+02  0.89999987958E+02 0.  0.
        -12    1    1    2    0    0 -0.48969371660E+00 -0.10026503556E+01 -0.38462610298E+00  0.11802732356E+01  0.00000000000E+00 0.  1.
         11    1    3    3    0    0 -0.12072707418E+01 -0.11215541573E+02 -0.35758788601E+00  0.11285997730E+02  0.51100000000E-03 0. -1.
        -11    1    3    3    0    0 -0.13970375346E+02 -0.56349620062E+01 -0.33682457360E+02  0.36897589599E+02  0.51100000000E-03 0.  1.
         12    1    3    3    0    0  0.15667339804E+02  0.17853153935E+02  0.34424671349E+02  0.41824139435E+02  0.00000000000E+00 0. -1.
</event>
<event>
 7    1  0.3863655E-015  0.9000784E+02  0.7816164E-02  0.1186339E+00
        -11   -1    0    0    0    0  0.00000000000E+00  0.00000000000E+00  0.45593999997E+02  0.45594000000E+02  0.51100000000E-03 0.  1.
         11   -1    0    0    0    0 -0.00000000000E+00 -0.00000000000E+00 -0.45593999997E+02  0.45594000000E+02  0.51100000000E-03 0. -1.
    9900012    2    1    2    0    0 -0.24699982450E+00 -0.14439457936E+00 -0.11449552257E+01  0.90007838496E+02  0.90000101164E+02 0.  0.
        -12    1    1    2    0    0  0.24699982450E+00  0.14439457936E+00  0.11449552257E+01  0.11801615045E+01  0.00000000000E+00 0.  1.
         11    1    3    3    0    0 -0.42453588576E+01  0.54413996811E+00  0.82837228439E+01  0.93241205779E+01  0.51100000000E-03 0. -1.
        -11    1    3    3    0    0 -0.27259039879E+02 -0.84358422452E+01  0.21735717456E+02  0.35870044649E+02  0.51100000000E-03 0.  1.
         12    1    3    3    0    0  0.31257398912E+02  0.77473076977E+01 -0.31164395526E+02  0.44813673269E+02  0.00000000000E+00 0. -1.
</event>
<event>
 7    1  0.3863655E-015  0.9000777E+02  0.7816164E-02  0.1186339E+00
        -11   -1    0    0    0    0  0.00000000000E+00  0.00000000000E+00  0.45593999997E+02  0.45594000000E+02  0.51100000000E-03 0.  1.
         11   -1    0    0    0    0 -0.00000000000E+00 -0.00000000000E+00 -0.45593999997E+02  0.45594000000E+02  0.51100000000E-03 0. -1.
    9900012    2    1    2    0    0 -0.10893297725E+01 -0.43328769152E+00  0.13628686885E+00  0.90007766257E+02  0.90000027972E+02 0.  0.
        -12    1    1    2    0    0  0.10893297725E+01  0.43328769152E+00 -0.13628686885E+00  0.11802337427E+01  0.00000000000E+00 0.  1.
         11    1    3    3    0    0 -0.16265774667E+02  0.19666741023E+02  0.35844912639E+02  0.44002430505E+02  0.51100000000E-03 0. -1.
        -11    1    3    3    0    0 -0.27645196307E+01 -0.42294866131E+01 -0.63400729838E+01  0.81072591854E+01  0.51100000000E-03 0.  1.
        -12    1    3    3    0    0  0.17940964525E+02 -0.15870542101E+02 -0.29368552787E+02  0.37898076567E+02  0.00000000000E+00 0.  1.
</event>
<event>
 7    1  0.3863655E-015  0.9000775E+02  0.7816164E-02  0.1186339E+00
        -11   -1    0    0    0    0  0.00000000000E+00  0.00000000000E+00  0.45593999997E+02  0.45594000000E+02  0.51100000000E-03 0.  1.
         11   -1    0    0    0    0 -0.00000000000E+00 -0.00000000000E+00 -0.45593999997E+02  0.45594000000E+02  0.51100000000E-03 0. -1.
    9900012    2    1    2    0    0 -0.59416032572E+00  0.45246392950E+00 -0.91391280503E+00  0.90007751418E+02  0.90000012937E+02 0.  0.
        -12    1    1    2    0    0  0.59416032572E+00 -0.45246392950E+00  0.91391280503E+00  0.11802485820E+01  0.00000000000E+00 0.  1.
         11    1    3    3    0    0  0.35942687580E+01 -0.73753331887E+01  0.77159525453E+00  0.82407321912E+01  0.51100000000E-03 0. -1.
        -11    1    3    3    0    0 -0.14465318034E+02 -0.32206534699E+02  0.13406402539E+02  0.37765565432E+02  0.51100000000E-03 0.  1.
         12    1    3    3    0    0  0.10276888950E+02  0.40034331817E+02 -0.15091910599E+02  0.44001453795E+02  0.00000000000E+00 0. -1.
</event>
<event>
 7    1  0.3863655E-015  0.9000773E+02  0.7816164E-02  0.1186339E+00
        -11   -1    0    0    0    0  0.00000000000E+00  0.00000000000E+00  0.45593999997E+02  0.45594000000E+02  0.51100000000E-03 0.  1.
         11   -1    0    0    0    0 -0.00000000000E+00 -0.00000000000E+00 -0.45593999997E+02  0.45594000000E+02  0.51100000000E-03 0. -1.
    9900012    2    1    2    0    0 -0.58237105346E+00 -0.10201716818E+01  0.11456921573E+00  0.90007732060E+02  0.89999993323E+02 0.  0.
        -12    1    1    2    0    0  0.58237105346E+00  0.10201716818E+01 -0.11456921573E+00  0.11802679397E+01  0.00000000000E+00 0.  1.
         11    1    3    3    0    0  0.25265677041E+02 -0.23809449780E+02 -0.10185829537E+02  0.36180042272E+02  0.51100000000E-03 0. -1.
        -11    1    3    3    0    0 -0.56673480624E+01 -0.11555965086E+02  0.41301061429E+01  0.13517283016E+02  0.51100000000E-03 0.  1.
        -12    1    3    3    0    0 -0.20180700032E+02  0.34345243185E+02  0.61702926103E+01  0.40310406772E+02  0.00000000000E+00 0.  1.
</event>
<event>
 7    1  0.3863655E-015  0.9000772E+02  0.7816164E-02  0.1186339E+00
        -11   -1    0    0    0    0  0.00000000000E+00  0.00000000000E+00  0.45593999997E+02  0.45594000000E+02  0.51100000000E-03 0. -1.
         11   -1    0    0    0    0 -0.00000000000E+00 -0.00000000000E+00 -0.45593999997E+02  0.45594000000E+02  0.51100000000E-03 0.  1.
    9900012    2    1    2    0    0 -0.78140414757E+00  0.59027283907E+00  0.65882670315E+00  0.90007717368E+02  0.89999978437E+02 0.  0.
        -12    1    1    2    0    0  0.78140414757E+00 -0.59027283907E+00 -0.65882670315E+00  0.11802826319E+01  0.00000000000E+00 0.  1.
         11    1    3    3    0    0  0.10297552260E+02  0.15378475604E+02  0.33547391672E+02  0.38314025927E+02  0.51100000000E-03 0. -1.
        -11    1    3    3    0    0 -0.31431451291E+00  0.39530476274E+01  0.60063461521E+01  0.71973309996E+01  0.51100000000E-03 0.  1.
        -12    1    3    3    0    0 -0.10764641895E+02 -0.18741250393E+02 -0.38894911121E+02  0.44496360441E+02  0.00000000000E+00 0.  1.
</event>
<event>
 7    1  0.3863655E-015  0.9000783E+02  0.7816164E-02  0.1186339E+00
        -11   -1    0    0    0    0  0.00000000000E+00  0.00000000000E+00  0.45593999997E+02  0.45594000000E+02  0.51100000000E-03 0.  1.
         11   -1    0    0    0    0 -0.00000000000E+00 -0.00000000000E+00 -0.45593999997E+02  0.45594000000E+02  0.51100000000E-03 0. -1.
    9900012    2    1    2    0    0  0.11242369926E+00  0.11746528658E+01 -0.18765561712E-01  0.90007830271E+02  0.90000092830E+02 0.  0.
        -12    1    1    2    0    0 -0.11242369926E+00 -0.11746528658E+01  0.18765561712E-01  0.11801697291E+01  0.00000000000E+00 0.  1.
         11    1    3    3    0    0 -0.13219938629E+02  0.39432564657E+01 -0.40759448431E+02  0.43030787648E+02  0.51100000000E-03 0. -1.
        -11    1    3    3    0    0  0.53848857599E+01 -0.67454816396E+01  0.46416131911E+01  0.98001576760E+01  0.51100000000E-03 0.  1.
        -12    1    3    3    0    0  0.79474765684E+01  0.39768780398E+01  0.36099069678E+02  0.37176884947E+02  0.00000000000E+00 0.  1.
</event>
<event>
 7    1  0.3863655E-015  0.9000814E+02  0.7816164E-02  0.1186338E+00
        -11   -1    0    0    0    0  0.00000000000E+00  0.00000000000E+00  0.45593999997E+02  0.45594000000E+02  0.51100000000E-03 0. -1.
         11   -1    0    0    0    0 -0.00000000000E+00 -0.00000000000E+00 -0.45593999997E+02  0.45594000000E+02  0.51100000000E-03 0.  1.
    9900012    2    1    2    0    0 -0.11304271296E+01  0.30683794884E+00 -0.14161637910E+00  0.90008139745E+02  0.90000406389E+02 0.  0.
        -12    1    1    2    0    0  0.11304271296E+01 -0.30683794884E+00  0.14161637910E+00  0.11798602549E+01  0.00000000000E+00 0.  1.
         11    1    3    3    0    0  0.74196896384E+01 -0.27245857860E+00  0.72903376151E+01  0.10405529819E+02  0.51100000000E-03 0. -1.
        -11    1    3    3    0    0 -0.41728751638E+02 -0.11675480344E+02  0.58765739523E+00  0.43335330805E+02  0.51100000000E-03 0.  1.
         12    1    3    3    0    0  0.33178634870E+02  0.12254776872E+02 -0.80196113895E+01  0.36267279121E+02  0.00000000000E+00 0. -1.
</event>
<event>
 7    1  0.3863655E-015  0.9000776E+02  0.7816164E-02  0.1186339E+00
        -11   -1    0    0    0    0  0.00000000000E+00  0.00000000000E+00  0.45593999997E+02  0.45594000000E+02  0.51100000000E-03 0.  1.
         11   -1    0    0    0    0 -0.00000000000E+00 -0.00000000000E+00 -0.45593999997E+02  0.45594000000E+02  0.51100000000E-03 0. -1.
    9900012    2    1    2    0    0 -0.10348266952E+01  0.55263925814E+00  0.12922721439E+00  0.90007755910E+02  0.90000017488E+02 0.  0.
        -12    1    1    2    0    0  0.10348266952E+01 -0.55263925814E+00 -0.12922721439E+00  0.11802440899E+01  0.00000000000E+00 0.  1.
         11    1    3    3    0    0  0.73335326656E+01  0.27266543333E+01  0.58792424474E+01  0.97867684772E+01  0.51100000000E-03 0. -1.
        -11    1    3    3    0    0 -0.11502600939E+00  0.37097755553E+02  0.77167164626E+01  0.37892009861E+02  0.51100000000E-03 0.  1.
         12    1    3    3    0    0 -0.82533333514E+01 -0.39271770629E+02 -0.13466731696E+02  0.42328977572E+02  0.00000000000E+00 0. -1.
</event>
<event>
 7    1  0.3863655E-015  0.9000779E+02  0.7816164E-02  0.1186339E+00
        -11   -1    0    0    0    0  0.00000000000E+00  0.00000000000E+00  0.45593999997E+02  0.45594000000E+02  0.51100000000E-03 0.  1.
         11   -1    0    0    0    0 -0.00000000000E+00 -0.00000000000E+00 -0.45593999997E+02  0.45594000000E+02  0.51100000000E-03 0. -1.
    9900012    2    1    2    0    0 -0.85944808042E+00 -0.77466841006E+00 -0.23267320481E+00  0.90007788592E+02  0.90000050601E+02 0.  0.
        -12    1    1    2    0    0  0.85944808042E+00  0.77466841006E+00  0.23267320481E+00  0.11802114085E+01  0.00000000000E+00 0.  1.
         11    1    3    3    0    0  0.35174387231E+02 -0.67671403851E+01 -0.68599900892E+01  0.36470415001E+02  0.51100000000E-03 0. -1.
        -11    1    3    3    0    0  0.61275608334E+01 -0.66834697684E+01  0.42848071573E+00  0.90774096468E+01  0.51100000000E-03 0.  1.
        -12    1    3    3    0    0 -0.42161396145E+02  0.12675941743E+02  0.61988361687E+01  0.44459963943E+02  0.00000000000E+00 0.  1.
</event>
<event>
 7    1  0.3863655E-015  0.9000774E+02  0.7816164E-02  0.1186339E+00
        -11   -1    0    0    0    0  0.00000000000E+00  0.00000000000E+00  0.45593999997E+02  0.45594000000E+02  0.51100000000E-03 0.  1.
         11   -1    0    0    0    0 -0.00000000000E+00 -0.00000000000E+00 -0.45593999997E+02  0.45594000000E+02  0.51100000000E-03 0. -1.
    9900012    2    1    2    0    0 -0.58335824175E+00 -0.76590667064E+00 -0.68270805115E+00  0.90007741490E+02  0.90000002878E+02 0.  0.
        -12    1    1    2    0    0  0.58335824175E+00  0.76590667064E+00  0.68270805115E+00  0.11802585096E+01  0.00000000000E+00 0.  1.
         11    1    3    3    0    0 -0.44017340640E+01 -0.26480153476E+01 -0.77050839044E+01  0.92604301351E+01  0.51100000000E-03 0. -1.
        -11    1    3    3    0    0 -0.19646974715E+02  0.34303528696E+02  0.94716193268E+01  0.40650304665E+02  0.51100000000E-03 0.  1.
         12    1    3    3    0    0  0.23465350537E+02 -0.32421420019E+02 -0.24492434735E+01  0.40097006690E+02  0.00000000000E+00 0. -1.
</event>
<event>
 7    1  0.3863655E-015  0.9000777E+02  0.7816164E-02  0.1186339E+00
        -11   -1    0    0    0    0  0.00000000000E+00  0.00000000000E+00  0.45593999997E+02  0.45594000000E+02  0.51100000000E-03 0.  1.
         11   -1    0    0    0    0 -0.00000000000E+00 -0.00000000000E+00 -0.45593999997E+02  0.45594000000E+02  0.51100000000E-03 0. -1.
    9900012    2    1    2    0    0  0.11605280493E+01  0.20128193011E+00  0.74899979436E-01  0.90007767067E+02  0.90000028793E+02 0.  0.
        -12    1    1    2    0    0 -0.11605280493E+01 -0.20128193011E+00 -0.74899979436E-01  0.11802329327E+01  0.00000000000E+00 0.  1.
         11    1    3    3    0    0 -0.22946229692E+01  0.26841663016E+01 -0.90979679676E+01  0.97592553357E+01  0.51100000000E-03 0. -1.
        -11    1    3    3    0    0 -0.29067894675E+02  0.23368180048E+02  0.10284033834E+02  0.38688185428E+02  0.51100000000E-03 0.  1.
         12    1    3    3    0    0  0.32523045694E+02 -0.25851064419E+02 -0.11111658871E+01  0.41560326303E+02  0.00000000000E+00 0. -1.
</event>
<event>
 7    1  0.3863655E-015  0.9000680E+02  0.7816164E-02  0.1186341E+00
        -11   -1    0    0    0    0  0.00000000000E+00  0.00000000000E+00  0.45593999997E+02  0.45594000000E+02  0.51100000000E-03 0. -1.
         11   -1    0    0    0    0 -0.00000000000E+00 -0.00000000000E+00 -0.45593999997E+02  0.45594000000E+02  0.51100000000E-03 0.  1.
    9900012    2    1    2    0    0 -0.92898509707E+00 -0.84221427741E-01  0.72465068191E+00  0.90006803501E+02  0.89999052502E+02 0.  0.
        -12    1    1    2    0    0  0.92898509707E+00  0.84221427741E-01 -0.72465068191E+00  0.11811964994E+01  0.00000000000E+00 0.  1.
         11    1    3    3    0    0  0.90844885530E+01  0.26066135253E+01 -0.60670598720E-02  0.94510530319E+01  0.51100000000E-03 0. -1.
        -11    1    3    3    0    0  0.24966674923E+02 -0.11265300566E+02 -0.24364834842E+02  0.36659064782E+02  0.51100000000E-03 0.  1.
         12    1    3    3    0    0 -0.34980148573E+02  0.85744656134E+01  0.25095552584E+02  0.43896685686E+02  0.00000000000E+00 0. -1.
</event>
<event>
 7    1  0.3863655E-015  0.9000759E+02  0.7816164E-02  0.1186339E+00
        -11   -1    0    0    0    0  0.00000000000E+00  0.00000000000E+00  0.45593999997E+02  0.45594000000E+02  0.51100000000E-03 0.  1.
         11   -1    0    0    0    0 -0.00000000000E+00 -0.00000000000E+00 -0.45593999997E+02  0.45594000000E+02  0.51100000000E-03 0. -1.
    9900012    2    1    2    0    0  0.71730416908E+00 -0.79860275190E+00 -0.49099094285E+00  0.90007591710E+02  0.89999851120E+02 0.  0.
        -12    1    1    2    0    0 -0.71730416908E+00  0.79860275190E+00  0.49099094285E+00  0.11804082905E+01  0.00000000000E+00 0.  1.
         11    1    3    3    0    0 -0.84073998367E+01  0.24133765910E+01 -0.50735563626E+01  0.10111861006E+02  0.51100000000E-03 0. -1.
        -11    1    3    3    0    0  0.24040268183E+02  0.23447406265E+01 -0.31946132732E+02  0.40049815227E+02  0.51100000000E-03 0.  1.
         12    1    3    3    0    0 -0.14915564177E+02 -0.55567199695E+01  0.36528698151E+02  0.39845915477E+02  0.00000000000E+00 0. -1.
</event>
<event>
 7    1  0.3863655E-015  0.9000785E+02  0.7816164E-02  0.1186339E+00
        -11   -1    0    0    0    0  0.00000000000E+00  0.00000000000E+00  0.45593999997E+02  0.45594000000E+02  0.51100000000E-03 0. -1.
         11   -1    0    0    0    0 -0.00000000000E+00 -0.00000000000E+00 -0.45593999997E+02  0.45594000000E+02  0.51100000000E-03 0.  1.
    9900012    2    1    2    0    0  0.66073477157E+00 -0.65693955566E+00  0.72429663574E+00  0.90007853554E+02  0.90000116421E+02 0.  0.
        -12    1    1    2    0    0 -0.66073477157E+00  0.65693955566E+00 -0.72429663574E+00  0.11801464463E+01  0.00000000000E+00 0.  1.
         11    1    3    3    0    0  0.19425632330E+01  0.10477749724E+02 -0.87917054138E+00  0.10692508232E+02  0.51100000000E-03 0. -1.
        -11    1    3    3    0    0  0.21843187164E+02 -0.37500228831E+02 -0.48095919996E+01  0.43663762587E+02  0.51100000000E-03 0.  1.
         12    1    3    3    0    0 -0.23125015625E+02  0.26365539551E+02  0.64130591768E+01  0.35651582735E+02  0.00000000000E+00 0. -1.
</event>
<event>
 7    1  0.3863655E-015  0.9000780E+02  0.7816164E-02  0.1186339E+00
        -11   -1    0    0    0    0  0.00000000000E+00  0.00000000000E+00  0.45593999997E+02  0.45594000000E+02  0.51100000000E-03 0.  1.
         11   -1    0    0    0    0 -0.00000000000E+00 -0.00000000000E+00 -0.45593999997E+02  0.45594000000E+02  0.51100000000E-03 0. -1.
    9900012    2    1    2    0    0  0.33917117820E+00  0.10054924977E+01 -0.51654281814E+00  0.90007801401E+02  0.90000063579E+02 0.  0.
        -12    1    1    2    0    0 -0.33917117820E+00 -0.10054924977E+01  0.51654281814E+00  0.11801985994E+01  0.00000000000E+00 0.  1.
         11    1    3    3    0    0  0.22466756267E+02 -0.64935802348E+00 -0.28687700665E+02  0.36443942881E+02  0.51100000000E-03 0. -1.
        -11    1    3    3    0    0  0.17536744739E+01  0.64518151495E+00 -0.90982211416E+01  0.92881247596E+01  0.51100000000E-03 0.  1.
        -12    1    3    3    0    0 -0.23881259562E+02  0.10096690062E+01  0.37269378989E+02  0.44275733760E+02  0.00000000000E+00 0.  1.
</event>
<event>
 7    1  0.3863655E-015  0.9000773E+02  0.7816164E-02  0.1186339E+00
        -11   -1    0    0    0    0  0.00000000000E+00  0.00000000000E+00  0.45593999997E+02  0.45594000000E+02  0.51100000000E-03 0.  1.
         11   -1    0    0    0    0 -0.00000000000E+00 -0.00000000000E+00 -0.45593999997E+02  0.45594000000E+02  0.51100000000E-03 0. -1.
    9900012    2    1    2    0    0 -0.18152948380E+00  0.90766913857E+00 -0.73226738838E+00  0.90007732341E+02  0.89999993608E+02 0.  0.
        -12    1    1    2    0    0  0.18152948380E+00 -0.90766913857E+00  0.73226738838E+00  0.11802676589E+01  0.00000000000E+00 0.  1.
         11    1    3    3    0    0  0.28360216099E+02 -0.22882490182E+02 -0.47940438895E+01  0.36754497293E+02  0.51100000000E-03 0. -1.
        -11    1    3    3    0    0  0.50275532508E+01  0.59827516758E+01 -0.10038366827E+02  0.12721572942E+02  0.51100000000E-03 0.  1.
        -12    1    3    3    0    0 -0.33569298834E+02  0.17807407645E+02  0.14100143328E+02  0.40531662107E+02  0.00000000000E+00 0.  1.
</event>
<event>
 7    1  0.3942988E-015  0.9000776E+02  0.7816164E-02  0.1186339E+00
        -11   -1    0    0    0    0  0.00000000000E+00  0.00000000000E+00  0.45593999997E+02  0.45594000000E+02  0.51100000000E-03 0.  1.
         11   -1    0    0    0    0 -0.00000000000E+00 -0.00000000000E+00 -0.45593999997E+02  0.45594000000E+02  0.51100000000E-03 0. -1.
    9900012    2    1    2    0    0  0.44270635620E-01 -0.11360895860E+01  0.31671507377E+00  0.90007759400E+02  0.90000021024E+02 0.  0.
        -12    1    1    2    0    0 -0.44270635620E-01  0.11360895860E+01 -0.31671507377E+00  0.11802406002E+01  0.00000000000E+00 0.  1.
         11    1    3    3    0    0  0.61078934573E+01  0.69549948851E+00  0.76979894194E+01  0.98513513483E+01  0.51100000000E-03 0. -1.
        -11    1    3    3    0    0 -0.65873845938E+01  0.29018797113E+02  0.22421415626E+02  0.37258611093E+02  0.51100000000E-03 0.  1.
         12    1    3    3    0    0  0.52376177210E+00 -0.30850386187E+02 -0.29802689972E+02  0.42897796958E+02  0.00000000000E+00 0. -1.
</event>
<event>
 7    1  0.3863655E-015  0.9000747E+02  0.7816164E-02  0.1186340E+00
        -11   -1    0    0    0    0  0.00000000000E+00  0.00000000000E+00  0.45593999997E+02  0.45594000000E+02  0.51100000000E-03 0. -1.
         11   -1    0    0    0    0 -0.00000000000E+00 -0.00000000000E+00 -0.45593999997E+02  0.45594000000E+02  0.51100000000E-03 0.  1.
    9900012    2    1    2    0    0 -0.15804479751E-01 -0.21484678910E+00  0.11607078372E+01  0.90007469777E+02  0.89999727577E+02 0.  0.
        -12    1    1    2    0    0  0.15804479751E-01  0.21484678910E+00 -0.11607078372E+01  0.11805302232E+01  0.00000000000E+00 0.  1.
         11    1    3    3    0    0  0.43365999095E+01 -0.26838569419E+02  0.35438853403E+02  0.44665727779E+02  0.51100000000E-03 0. -1.
        -11    1    3    3    0    0 -0.16972744500E+01  0.13511380029E+01 -0.98737305995E+01  0.10109246791E+02  0.51100000000E-03 0.  1.
        -12    1    3    3    0    0 -0.26551299393E+01  0.25272584627E+02 -0.24404414966E+02  0.35232495208E+02  0.00000000000E+00 0.  1.
</event>
<event>
 7    1  0.3863655E-015  0.9000778E+02  0.7816164E-02  0.1186339E+00
        -11   -1    0    0    0    0  0.00000000000E+00  0.00000000000E+00  0.45593999997E+02  0.45594000000E+02  0.51100000000E-03 0.  1.
         11   -1    0    0    0    0 -0.00000000000E+00 -0.00000000000E+00 -0.45593999997E+02  0.45594000000E+02  0.51100000000E-03 0. -1.
    9900012    2    1    2    0    0 -0.58175805774E+00  0.10242940181E+01  0.72842764320E-01  0.90007776826E+02  0.90000038680E+02 0.  0.
        -12    1    1    2    0    0  0.58175805774E+00 -0.10242940181E+01 -0.72842764320E-01  0.11802231745E+01  0.00000000000E+00 0.  1.
         11    1    3    3    0    0 -0.11931650251E+02 -0.21057259177E+02 -0.28872388429E+02  0.37674756212E+02  0.51100000000E-03 0. -1.
        -11    1    3    3    0    0 -0.43705398110E+01  0.74948287754E+01 -0.65441380522E+01  0.10867374095E+02  0.51100000000E-03 0.  1.
        -12    1    3    3    0    0  0.15720432004E+02  0.14586724420E+02  0.35489369246E+02  0.41465646518E+02  0.00000000000E+00 0.  1.
</event>
<event>
 7    1  0.4205687E-015  0.9000767E+02  0.7816164E-02  0.1186339E+00
        -11   -1    0    0    0    0  0.00000000000E+00  0.00000000000E+00  0.45593999997E+02  0.45594000000E+02  0.51100000000E-03 0. -1.
         11   -1    0    0    0    0 -0.00000000000E+00 -0.00000000000E+00 -0.45593999997E+02  0.45594000000E+02  0.51100000000E-03 0.  1.
    9900012    2    1    2    0    0 -0.31061901691E+00  0.23505939220E+00  0.11141989216E+01  0.90007671093E+02  0.89999931552E+02 0.  0.
        -12    1    1    2    0    0  0.31061901691E+00 -0.23505939220E+00 -0.11141989216E+01  0.11803289068E+01  0.00000000000E+00 0.  1.
         11    1    3    3    0    0 -0.82944595969E+01 -0.24187463599E+02  0.27232667733E+02  0.37355717734E+02  0.51100000000E-03 0. -1.
        -11    1    3    3    0    0  0.25108318905E+01 -0.86468909696E+01  0.16140250435E+01  0.91475722093E+01  0.51100000000E-03 0.  1.
        -12    1    3    3    0    0  0.54730086896E+01  0.33069413961E+02 -0.27732493855E+02  0.43504381150E+02  0.00000000000E+00 0.  1.
</event>
<event>
 7    1  0.3863655E-015  0.9000775E+02  0.7816164E-02  0.1186339E+00
        -11   -1    0    0    0    0  0.00000000000E+00  0.00000000000E+00  0.45593999997E+02  0.45594000000E+02  0.51100000000E-03 0. -1.
         11   -1    0    0    0    0 -0.00000000000E+00 -0.00000000000E+00 -0.45593999997E+02  0.45594000000E+02  0.51100000000E-03 0.  1.
    9900012    2    1    2    0    0 -0.82532541099E+00 -0.78891137726E+00  0.29908170297E+00  0.90007748730E+02  0.90000010213E+02 0.  0.
        -12    1    1    2    0    0  0.82532541099E+00  0.78891137726E+00 -0.29908170297E+00  0.11802512700E+01  0.00000000000E+00 0.  1.
         11    1    3    3    0    0 -0.24354986367E+01  0.25736202974E+01  0.77898927330E+01  0.85578971773E+01  0.51100000000E-03 0. -1.
        -11    1    3    3    0    0 -0.32749676407E+02  0.40435109840E+01 -0.25735905234E+02  0.41847677406E+02  0.51100000000E-03 0.  1.
         12    1    3    3    0    0  0.34359849632E+02 -0.74060426587E+01  0.18245094204E+02  0.39602174147E+02  0.00000000000E+00 0. -1.
</event>
<event>
 7    1  0.3863655E-015  0.9000772E+02  0.7816164E-02  0.1186339E+00
        -11   -1    0    0    0    0  0.00000000000E+00  0.00000000000E+00  0.45593999997E+02  0.45594000000E+02  0.51100000000E-03 0. -1.
         11   -1    0    0    0    0 -0.00000000000E+00 -0.00000000000E+00 -0.45593999997E+02  0.45594000000E+02  0.51100000000E-03 0.  1.
    9900012    2    1    2    0    0  0.69212515241E-01  0.11747832684E+01  0.90270870320E-01  0.90007722520E+02  0.89999983657E+02 0.  0.
        -12    1    1    2    0    0 -0.69212515241E-01 -0.11747832684E+01 -0.90270870320E-01  0.11802774801E+01  0.00000000000E+00 0.  1.
         11    1    3    3    0    0 -0.84110173089E+01  0.13715709289E+02  0.31626026995E+02  0.35483397205E+02  0.51100000000E-03 0. -1.
        -11    1    3    3    0    0 -0.59043573964E+01  0.89190444390E+00  0.82220958791E+01  0.10161682474E+02  0.51100000000E-03 0.  1.
        -12    1    3    3    0    0  0.14384587221E+02 -0.13432830464E+02 -0.39757852004E+02  0.44362642840E+02  0.00000000000E+00 0.  1.
</event>
<event>
 7    1  0.3863655E-015  0.9000781E+02  0.7816164E-02  0.1186339E+00
        -11   -1    0    0    0    0  0.00000000000E+00  0.00000000000E+00  0.45593999997E+02  0.45594000000E+02  0.51100000000E-03 0. -1.
         11   -1    0    0    0    0 -0.00000000000E+00 -0.00000000000E+00 -0.45593999997E+02  0.45594000000E+02  0.51100000000E-03 0.  1.
    9900012    2    1    2    0    0 -0.64211886585E+00  0.50223859268E+00  0.85339704946E+00  0.90007810708E+02  0.90000073009E+02 0.  0.
        -12    1    1    2    0    0  0.64211886585E+00 -0.50223859268E+00 -0.85339704946E+00  0.11801892924E+01  0.00000000000E+00 0.  1.
         11    1    3    3    0    0  0.14434255776E+01  0.16551295354E+01 -0.81388202800E+01  0.84299067010E+01  0.51100000000E-03 0. -1.
        -11    1    3    3    0    0  0.21119544702E+02 -0.26903044433E+02 -0.17055019462E+02  0.38218878285E+02  0.51100000000E-03 0.  1.
         12    1    3    3    0    0 -0.23205089146E+02  0.25750153491E+02  0.26047236792E+02  0.43359025722E+02  0.00000000000E+00 0. -1.
</event>
<event>
 7    1  0.3863655E-015  0.9000778E+02  0.7816164E-02  0.1186339E+00
        -11   -1    0    0    0    0  0.00000000000E+00  0.00000000000E+00  0.45593999997E+02  0.45594000000E+02  0.51100000000E-03 0.  1.
         11   -1    0    0    0    0 -0.00000000000E+00 -0.00000000000E+00 -0.45593999997E+02  0.45594000000E+02  0.51100000000E-03 0. -1.
    9900012    2    1    2    0    0  0.78602195200E+00 -0.11291349698E+00 -0.87311622250E+00  0.90007783111E+02  0.90000045048E+02 0.  0.
        -12    1    1    2    0    0 -0.78602195200E+00  0.11291349698E+00  0.87311622250E+00  0.11802168889E+01  0.00000000000E+00 0.  1.
         11    1    3    3    0    0  0.69781630388E+01 -0.99418210910E+01 -0.39420540002E+01  0.12770057009E+02  0.51100000000E-03 0. -1.
        -11    1    3    3    0    0 -0.16824741643E+02 -0.27255744680E+02 -0.14117864228E+02  0.35003737515E+02  0.51100000000E-03 0.  1.
         12    1    3    3    0    0  0.10632600556E+02  0.37084652274E+02  0.17186802005E+02  0.42233988588E+02  0.00000000000E+00 0. -1.
</event>
<event>
 7    1  0.3863655E-015  0.9000775E+02  0.7816164E-02  0.1186339E+00
        -11   -1    0    0    0    0  0.00000000000E+00  0.00000000000E+00  0.45593999997E+02  0.45594000000E+02  0.51100000000E-03 0.  1.
         11   -1    0    0    0    0 -0.00000000000E+00 -0.00000000000E+00 -0.45593999997E+02  0.45594000000E+02  0.51100000000E-03 0. -1.
    9900012    2    1    2    0    0 -0.77095686839E+00 -0.77373919895E+00 -0.44715752746E+00  0.90007747190E+02  0.90000008653E+02 0.  0.
        -12    1    1    2    0    0  0.77095686839E+00  0.77373919895E+00  0.44715752746E+00  0.11802528099E+01  0.00000000000E+00 0.  1.
         11    1    3    3    0    0  0.16955609297E+02 -0.13125074728E+02 -0.29496773636E+02  0.36466696155E+02  0.51100000000E-03 0. -1.
        -11    1    3    3    0    0  0.75794820666E+01 -0.20838918068E+01 -0.45396832649E+01  0.90774378470E+01  0.51100000000E-03 0.  1.
        -12    1    3    3    0    0 -0.25306048232E+02  0.14435227336E+02  0.33589299373E+02  0.44463613188E+02  0.00000000000E+00 0.  1.
</event>
<event>
 7    1  0.3863655E-015  0.9000773E+02  0.7816164E-02  0.1186339E+00
        -11   -1    0    0    0    0  0.00000000000E+00  0.00000000000E+00  0.45593999997E+02  0.45594000000E+02  0.51100000000E-03 0.  1.
         11   -1    0    0    0    0 -0.00000000000E+00 -0.00000000000E+00 -0.45593999997E+02  0.45594000000E+02  0.51100000000E-03 0. -1.
    9900012    2    1    2    0    0  0.46787958166E+00 -0.98763751699E+00  0.44576006944E+00  0.90007728333E+02  0.89999989547E+02 0.  0.
        -12    1    1    2    0    0 -0.46787958166E+00  0.98763751699E+00 -0.44576006944E+00  0.11802716668E+01  0.00000000000E+00 0.  1.
         11    1    3    3    0    0 -0.31627525057E+02  0.26051604862E+02  0.23436819931E+01  0.41042408588E+02  0.51100000000E-03 0. -1.
        -11    1    3    3    0    0 -0.15170966423E+01 -0.50073957518E+01 -0.66878056650E+01  0.84913096347E+01  0.51100000000E-03 0.  1.
        -12    1    3    3    0    0  0.33612501281E+02 -0.22031846627E+02  0.47898837414E+01  0.40474010111E+02  0.00000000000E+00 0.  1.
</event>
<event>
 7    1  0.3863655E-015  0.9000792E+02  0.7816164E-02  0.1186339E+00
        -11   -1    0    0    0    0  0.00000000000E+00  0.00000000000E+00  0.45593999997E+02  0.45594000000E+02  0.51100000000E-03 0.  1.
         11   -1    0    0    0    0 -0.00000000000E+00 -0.00000000000E+00 -0.45593999997E+02  0.45594000000E+02  0.51100000000E-03 0. -1.
    9900012    2    1    2    0    0 -0.84744506920E+00 -0.63857735575E-01 -0.81874952883E+00  0.90007918754E+02  0.90000182482E+02 0.  0.
        -12    1    1    2    0    0  0.84744506920E+00  0.63857735575E-01  0.81874952883E+00  0.11800812458E+01  0.00000000000E+00 0.  1.
         11    1    3    3    0    0 -0.48500620527E+01 -0.30224533984E+01  0.71052618343E+01  0.91182823194E+01  0.51100000000E-03 0. -1.
        -11    1    3    3    0    0 -0.20510405848E+02 -0.68804092204E+01  0.28571858784E+02  0.35838078823E+02  0.51100000000E-03 0.  1.
         12    1    3    3    0    0  0.24513022831E+02  0.98390048832E+01 -0.36495870147E+02  0.45051557612E+02  0.00000000000E+00 0. -1.
</event>
<event>
 7    1  0.3863655E-015  0.9000777E+02  0.7816164E-02  0.1186339E+00
        -11   -1    0    0    0    0  0.00000000000E+00  0.00000000000E+00  0.45593999997E+02  0.45594000000E+02  0.51100000000E-03 0.  1.
         11   -1    0    0    0    0 -0.00000000000E+00 -0.00000000000E+00 -0.45593999997E+02  0.45594000000E+02  0.51100000000E-03 0. -1.
    9900012    2    1    2    0    0 -0.11664156616E+01  0.14439696363E+00  0.10754767950E+00  0.90007770157E+02  0.90000031923E+02 0.  0.
        -12    1    1    2    0    0  0.11664156616E+01 -0.14439696363E+00 -0.10754767950E+00  0.11802298429E+01  0.00000000000E+00 0.  1.
         11    1    3    3    0    0  0.22936617639E+02 -0.25549786732E+02 -0.96725345215E+01  0.35671248297E+02  0.51100000000E-03 0. -1.
        -11    1    3    3    0    0  0.47290167579E+01 -0.78823898646E+01  0.17120105607E+01  0.93502219168E+01  0.51100000000E-03 0.  1.
        -12    1    3    3    0    0 -0.28832050058E+02  0.33576573560E+02  0.80680716403E+01  0.44986299943E+02  0.00000000000E+00 0.  1.
</event>
<event>
 7    1  0.3863655E-015  0.9000738E+02  0.7816164E-02  0.1186340E+00
        -11   -1    0    0    0    0  0.00000000000E+00  0.00000000000E+00  0.45593999997E+02  0.45594000000E+02  0.51100000000E-03 0.  1.
         11   -1    0    0    0    0 -0.00000000000E+00 -0.00000000000E+00 -0.45593999997E+02  0.45594000000E+02  0.51100000000E-03 0. -1.
    9900012    2    1    2    0    0 -0.96694017791E-01  0.63358132498E+00 -0.99151376849E+00  0.90007375343E+02  0.89999631896E+02 0.  0.
        -12    1    1    2    0    0  0.96694017791E-01 -0.63358132498E+00  0.99151376849E+00  0.11806246574E+01  0.00000000000E+00 0.  1.
         11    1    3    3    0    0  0.74303712469E+01  0.91992145671E+01 -0.68661616120E+01  0.13674068197E+02  0.51100000000E-03 0. -1.
        -11    1    3    3    0    0 -0.12582466021E+02  0.13507906792E+02  0.34922590758E+02  0.39501510637E+02  0.51100000000E-03 0.  1.
         12    1    3    3    0    0  0.50554007563E+01 -0.22073540034E+02 -0.29047942915E+02  0.36831796508E+02  0.00000000000E+00 0. -1.
</event>
<event>
 7    1  0.3863655E-015  0.9000767E+02  0.7816164E-02  0.1186339E+00
        -11   -1    0    0    0    0  0.00000000000E+00  0.00000000000E+00  0.45593999997E+02  0.45594000000E+02  0.51100000000E-03 0. -1.
         11   -1    0    0    0    0 -0.00000000000E+00 -0.00000000000E+00 -0.45593999997E+02  0.45594000000E+02  0.51100000000E-03 0.  1.
    9900012    2    1    2    0    0  0.81808170630E+00  0.40030417256E+00  0.75078397452E+00  0.90007670518E+02  0.89999930969E+02 0.  0.
        -12    1    1    2    0    0 -0.81808170630E+00 -0.40030417256E+00 -0.75078397452E+00  0.11803294816E+01  0.00000000000E+00 0.  1.
         11    1    3    3    0    0  0.29188752428E+02  0.64010807068E+01  0.20047163786E+02  0.35983966967E+02  0.51100000000E-03 0. -1.
        -11    1    3    3    0    0  0.24247050915E+01  0.66955338057E+01  0.81788899234E+01  0.10844519739E+02  0.51100000000E-03 0.  1.
        -12    1    3    3    0    0 -0.30795375813E+02 -0.12696310340E+02 -0.27475269735E+02  0.43179183813E+02  0.00000000000E+00 0.  1.
</event>
<event>
 7    1  0.3863655E-015  0.9000792E+02  0.7816164E-02  0.1186339E+00
        -11   -1    0    0    0    0  0.00000000000E+00  0.00000000000E+00  0.45593999997E+02  0.45594000000E+02  0.51100000000E-03 0.  1.
         11   -1    0    0    0    0 -0.00000000000E+00 -0.00000000000E+00 -0.45593999997E+02  0.45594000000E+02  0.51100000000E-03 0. -1.
    9900012    2    1    2    0    0 -0.71451205389E+00  0.63818934081E-01 -0.93701216970E+00  0.90007918589E+02  0.90000182314E+02 0.  0.
        -12    1    1    2    0    0  0.71451205389E+00 -0.63818934081E-01  0.93701216970E+00  0.11800814115E+01  0.00000000000E+00 0.  1.
         11    1    3    3    0    0  0.10499441100E+02 -0.85860633633E+01  0.40285359219E+01  0.14148775545E+02  0.51100000000E-03 0. -1.
        -11    1    3    3    0    0 -0.25374104236E+02  0.15530851142E+02  0.27032920709E+02  0.40197404211E+02  0.51100000000E-03 0.  1.
         12    1    3    3    0    0  0.14160151082E+02 -0.68809688450E+01 -0.31998468801E+02  0.35661738832E+02  0.00000000000E+00 0. -1.
</event>
<event>
 7    1  0.3863655E-015  0.9000792E+02  0.7816164E-02  0.1186339E+00
        -11   -1    0    0    0    0  0.00000000000E+00  0.00000000000E+00  0.45593999997E+02  0.45594000000E+02  0.51100000000E-03 0. -1.
         11   -1    0    0    0    0 -0.00000000000E+00 -0.00000000000E+00 -0.45593999997E+02  0.45594000000E+02  0.51100000000E-03 0.  1.
    9900012    2    1    2    0    0 -0.11110274954E+01  0.39774307057E+00  0.39506200560E-02  0.90007916421E+02  0.90000180118E+02 0.  0.
        -12    1    1    2    0    0  0.11110274954E+01 -0.39774307057E+00 -0.39506200560E-02  0.11800835789E+01  0.00000000000E+00 0.  1.
         11    1    3    3    0    0 -0.21167634799E+01 -0.41552780877E+01 -0.22836545460E+01  0.51925044018E+01  0.51100000000E-03 0. -1.
        -11    1    3    3    0    0 -0.31750823480E+02 -0.18813128115E+02 -0.16478798783E+02  0.40417810316E+02  0.51100000000E-03 0.  1.
         12    1    3    3    0    0  0.32756559464E+02  0.23366149274E+02  0.18766403950E+02  0.44397601703E+02  0.00000000000E+00 0. -1.
</event>
<event>
 7    1  0.3863655E-015  0.9000799E+02  0.7816164E-02  0.1186339E+00
        -11   -1    0    0    0    0  0.00000000000E+00  0.00000000000E+00  0.45593999997E+02  0.45594000000E+02  0.51100000000E-03 0.  1.
         11   -1    0    0    0    0 -0.00000000000E+00 -0.00000000000E+00 -0.45593999997E+02  0.45594000000E+02  0.51100000000E-03 0. -1.
    9900012    2    1    2    0    0  0.55278509418E+00 -0.19102209048E+00 -0.10248729342E+01  0.90007989267E+02  0.90000253925E+02 0.  0.
        -12    1    1    2    0    0 -0.55278509418E+00  0.19102209048E+00  0.10248729342E+01  0.11800107332E+01  0.00000000000E+00 0.  1.
         11    1    3    3    0    0  0.39160490757E+01  0.28935917322E+01 -0.41200520375E+02  0.41487241327E+02  0.51100000000E-03 0. -1.
        -11    1    3    3    0    0 -0.72216727507E+01  0.56999470731E+01  0.23476073803E+01  0.94949046666E+01  0.51100000000E-03 0.  1.
        -12    1    3    3    0    0  0.38584087691E+01 -0.87845608958E+01  0.37828040061E+02  0.39025843273E+02  0.00000000000E+00 0.  1.
</event>
<event>
 7    1  0.3863655E-015  0.9000771E+02  0.7816164E-02  0.1186339E+00
        -11   -1    0    0    0    0  0.00000000000E+00  0.00000000000E+00  0.45593999997E+02  0.45594000000E+02  0.51100000000E-03 0.  1.
         11   -1    0    0    0    0 -0.00000000000E+00 -0.00000000000E+00 -0.45593999997E+02  0.45594000000E+02  0.51100000000E-03 0. -1.
    9900012    2    1    2    0    0  0.30598416850E+00 -0.11379029343E+01  0.68070619956E-01  0.90007710625E+02  0.89999971605E+02 0.  0.
        -12    1    1    2    0    0 -0.30598416850E+00  0.11379029343E+01 -0.68070619956E-01  0.11802893749E+01  0.00000000000E+00 0.  1.
         11    1    3    3    0    0  0.82980249987E+00 -0.65567754211E+01  0.10025929175E+02  0.12008294309E+02  0.51100000000E-03 0. -1.
        -11    1    3    3    0    0 -0.27890549875E+02 -0.24237813784E+02 -0.32736265469E+01  0.37095431260E+02  0.51100000000E-03 0.  1.
         12    1    3    3    0    0  0.27366731544E+02  0.29656686271E+02 -0.66842320084E+01  0.40903985056E+02  0.00000000000E+00 0. -1.
</event>
<event>
 7    1  0.3863655E-015  0.9000769E+02  0.7816164E-02  0.1186339E+00
        -11   -1    0    0    0    0  0.00000000000E+00  0.00000000000E+00  0.45593999997E+02  0.45594000000E+02  0.51100000000E-03 0. -1.
         11   -1    0    0    0    0 -0.00000000000E+00 -0.00000000000E+00 -0.45593999997E+02  0.45594000000E+02  0.51100000000E-03 0.  1.
    9900012    2    1    2    0    0 -0.76079248173E+00  0.65094911675E+00 -0.62498058208E+00  0.90007686194E+02  0.89999946852E+02 0.  0.
        -12    1    1    2    0    0  0.76079248173E+00 -0.65094911675E+00  0.62498058208E+00  0.11803138061E+01  0.00000000000E+00 0.  1.
         11    1    3    3    0    0 -0.39783686251E+01  0.81972741893E+01 -0.35025232103E+01  0.97616796788E+01  0.51100000000E-03 0. -1.
        -11    1    3    3    0    0  0.31936335542E+02 -0.21642061312E+02 -0.17451089596E+02  0.42342046172E+02  0.51100000000E-03 0.  1.
         12    1    3    3    0    0 -0.28718759399E+02  0.14095736240E+02  0.20328632225E+02  0.37903960343E+02  0.00000000000E+00 0. -1.
</event>
<event>
 7    1  0.3863655E-015  0.9000778E+02  0.7816164E-02  0.1186339E+00
        -11   -1    0    0    0    0  0.00000000000E+00  0.00000000000E+00  0.45593999997E+02  0.45594000000E+02  0.51100000000E-03 0.  1.
         11   -1    0    0    0    0 -0.00000000000E+00 -0.00000000000E+00 -0.45593999997E+02  0.45594000000E+02  0.51100000000E-03 0. -1.
    9900012    2    1    2    0    0  0.59500041690E+00  0.54890680692E+00 -0.85883599681E+00  0.90007778221E+02  0.90000040093E+02 0.  0.
        -12    1    1    2    0    0 -0.59500041690E+00 -0.54890680692E+00  0.85883599681E+00  0.11802217792E+01  0.00000000000E+00 0.  1.
         11    1    3    3    0    0 -0.24172957203E+02  0.26782603616E+02 -0.13291673266E+02  0.38448774946E+02  0.51100000000E-03 0. -1.
        -11    1    3    3    0    0 -0.50549663224E+01  0.18738955692E+01  0.89266281615E+01  0.10428272135E+02  0.51100000000E-03 0.  1.
        -12    1    3    3    0    0  0.29822923942E+02 -0.28107592379E+02  0.35062091079E+01  0.41130731140E+02  0.00000000000E+00 0.  1.
</event>
<event>
 7    1  0.3863655E-015  0.9000776E+02  0.7816164E-02  0.1186339E+00
        -11   -1    0    0    0    0  0.00000000000E+00  0.00000000000E+00  0.45593999997E+02  0.45594000000E+02  0.51100000000E-03 0. -1.
         11   -1    0    0    0    0 -0.00000000000E+00 -0.00000000000E+00 -0.45593999997E+02  0.45594000000E+02  0.51100000000E-03 0.  1.
    9900012    2    1    2    0    0  0.79097629986E+00  0.43884064113E+00  0.75811747008E+00  0.90007759892E+02  0.90000021522E+02 0.  0.
        -12    1    1    2    0    0 -0.79097629986E+00 -0.43884064113E+00 -0.75811747008E+00  0.11802401085E+01  0.00000000000E+00 0.  1.
         11    1    3    3    0    0 -0.21809895455E+02  0.29649662234E+02  0.42312377442E+01  0.37049661044E+02  0.51100000000E-03 0. -1.
        -11    1    3    3    0    0  0.77001040271E+01  0.53064877989E+01 -0.11184799964E+02  0.14579100291E+02  0.51100000000E-03 0.  1.
        -12    1    3    3    0    0  0.14900767728E+02 -0.34517309392E+02  0.77116796902E+01  0.38378998556E+02  0.00000000000E+00 0.  1.
</event>
<event>
 7    1  0.3863655E-015  0.9000775E+02  0.7816164E-02  0.1186339E+00
        -11   -1    0    0    0    0  0.00000000000E+00  0.00000000000E+00  0.45593999997E+02  0.45594000000E+02  0.51100000000E-03 0. -1.
         11   -1    0    0    0    0 -0.00000000000E+00 -0.00000000000E+00 -0.45593999997E+02  0.45594000000E+02  0.51100000000E-03 0.  1.
    9900012    2    1    2    0    0  0.26227251235E+00  0.62451422987E+00 -0.96653593509E+00  0.90007747227E+02  0.90000008691E+02 0.  0.
        -12    1    1    2    0    0 -0.26227251235E+00 -0.62451422987E+00  0.96653593509E+00  0.11802527729E+01  0.00000000000E+00 0.  1.
         11    1    3    3    0    0 -0.12121544119E+02  0.12205969262E+02  0.22218843380E+02  0.28099724534E+02  0.51100000000E-03 0. -1.
        -11    1    3    3    0    0 -0.17783316874E+02  0.50887793283E+01  0.28471304606E+01  0.18714918814E+02  0.51100000000E-03 0.  1.
        -12    1    3    3    0    0  0.30167133505E+02 -0.16670234361E+02 -0.26032509776E+02  0.43193103880E+02  0.00000000000E+00 0.  1.
</event>
<event>
 7    1  0.3863655E-015  0.9000777E+02  0.7816164E-02  0.1186339E+00
        -11   -1    0    0    0    0  0.00000000000E+00  0.00000000000E+00  0.45593999997E+02  0.45594000000E+02  0.51100000000E-03 0. -1.
         11   -1    0    0    0    0 -0.00000000000E+00 -0.00000000000E+00 -0.45593999997E+02  0.45594000000E+02  0.51100000000E-03 0.  1.
    9900012    2    1    2    0    0 -0.98993596869E+00 -0.63111039016E+00  0.12108752043E+00  0.90007773016E+02  0.90000034820E+02 0.  0.
        -12    1    1    2    0    0  0.98993596869E+00  0.63111039016E+00 -0.12108752043E+00  0.11802269842E+01  0.00000000000E+00 0.  1.
         11    1    3    3    0    0  0.46272908404E+01 -0.98853138517E+01  0.75361250283E+01  0.13263650748E+02  0.51100000000E-03 0. -1.
        -11    1    3    3    0    0  0.23675687909E+02 -0.10093933129E+02 -0.26369526092E+02  0.36848033741E+02  0.51100000000E-03 0.  1.
         12    1    3    3    0    0 -0.29292914718E+02  0.19348136591E+02  0.18954488584E+02  0.39896088527E+02  0.00000000000E+00 0. -1.
</event>
<event>
 7    1  0.3863655E-015  0.9000771E+02  0.7816164E-02  0.1186339E+00
        -11   -1    0    0    0    0  0.00000000000E+00  0.00000000000E+00  0.45593999997E+02  0.45594000000E+02  0.51100000000E-03 0.  1.
         11   -1    0    0    0    0 -0.00000000000E+00 -0.00000000000E+00 -0.45593999997E+02  0.45594000000E+02  0.51100000000E-03 0. -1.
    9900012    2    1    2    0    0 -0.39044693302E+00  0.86365653088E+00 -0.70337829331E+00  0.90007706632E+02  0.89999967560E+02 0.  0.
        -12    1    1    2    0    0  0.39044693302E+00 -0.86365653088E+00  0.70337829331E+00  0.11802933679E+01  0.00000000000E+00 0.  1.
         11    1    3    3    0    0 -0.12784846997E+02  0.13370786543E+02 -0.27877655883E+02  0.33457345132E+02  0.51100000000E-03 0. -1.
        -11    1    3    3    0    0 -0.74712241714E+01  0.25907171736E+01 -0.93947853608E+01  0.12279780060E+02  0.51100000000E-03 0.  1.
        -12    1    3    3    0    0  0.19865624235E+02 -0.15097847186E+02  0.36569062950E+02  0.44270581439E+02  0.00000000000E+00 0.  1.
</event>
<event>
 7    1  0.3863655E-015  0.9000775E+02  0.7816164E-02  0.1186339E+00
        -11   -1    0    0    0    0  0.00000000000E+00  0.00000000000E+00  0.45593999997E+02  0.45594000000E+02  0.51100000000E-03 0.  1.
         11   -1    0    0    0    0 -0.00000000000E+00 -0.00000000000E+00 -0.45593999997E+02  0.45594000000E+02  0.51100000000E-03 0. -1.
    9900012    2    1    2    0    0  0.18475784883E+00 -0.46915723621E+00 -0.10671177470E+01  0.90007752458E+02  0.90000013990E+02 0.  0.
        -12    1    1    2    0    0 -0.18475784883E+00  0.46915723621E+00  0.10671177470E+01  0.11802475423E+01  0.00000000000E+00 0.  1.
         11    1    3    3    0    0 -0.36051521484E+02  0.23949763334E+02 -0.58523012886E+01  0.43675540017E+02  0.51100000000E-03 0. -1.
        -11    1    3    3    0    0  0.50827884309E+01 -0.61956789413E+01  0.63224467248E+01  0.10207571142E+02  0.51100000000E-03 0.  1.
        -12    1    3    3    0    0  0.31153490902E+02 -0.18223241629E+02 -0.15372631832E+01  0.36124641299E+02  0.00000000000E+00 0.  1.
</event>
<event>
 7    1  0.3863655E-015  0.9000774E+02  0.7816164E-02  0.1186339E+00
        -11   -1    0    0    0    0  0.00000000000E+00  0.00000000000E+00  0.45593999997E+02  0.45594000000E+02  0.51100000000E-03 0. -1.
         11   -1    0    0    0    0 -0.00000000000E+00 -0.00000000000E+00 -0.45593999997E+02  0.45594000000E+02  0.51100000000E-03 0.  1.
    9900012    2    1    2    0    0  0.26641527740E+00  0.87009684035E+00  0.75164694123E+00  0.90007737853E+02  0.89999999193E+02 0.  0.
        -12    1    1    2    0    0 -0.26641527740E+00 -0.87009684035E+00 -0.75164694123E+00  0.11802621471E+01  0.00000000000E+00 0.  1.
         11    1    3    3    0    0 -0.14951779881E+02 -0.20100358229E+02 -0.26115404444E+00  0.25052910494E+02  0.51100000000E-03 0. -1.
        -11    1    3    3    0    0 -0.65024712527E+01 -0.18530309259E+02 -0.22041339031E+01  0.19761394186E+02  0.51100000000E-03 0.  1.
        -12    1    3    3    0    0  0.21720666411E+02  0.39500764329E+02  0.32169348888E+01  0.45193433173E+02  0.00000000000E+00 0.  1.
</event>
<event>
 7    1  0.3863655E-015  0.9000773E+02  0.7816164E-02  0.1186339E+00
        -11   -1    0    0    0    0  0.00000000000E+00  0.00000000000E+00  0.45593999997E+02  0.45594000000E+02  0.51100000000E-03 0.  1.
         11   -1    0    0    0    0 -0.00000000000E+00 -0.00000000000E+00 -0.45593999997E+02  0.45594000000E+02  0.51100000000E-03 0. -1.
    9900012    2    1    2    0    0 -0.72090417838E+00  0.86086137302E+00 -0.36368090481E+00  0.90007725058E+02  0.89999986229E+02 0.  0.
        -12    1    1    2    0    0  0.72090417838E+00 -0.86086137302E+00  0.36368090481E+00  0.11802749419E+01  0.00000000000E+00 0.  1.
         11    1    3    3    0    0 -0.44190561518E+01  0.30288057675E+01  0.72541670066E+01  0.90180186777E+01  0.51100000000E-03 0. -1.
        -11    1    3    3    0    0 -0.35574495328E+02 -0.12669637323E+02 -0.13096313393E+02  0.39969711689E+02  0.51100000000E-03 0.  1.
         12    1    3    3    0    0  0.39272647301E+02  0.10501692929E+02  0.54784654819E+01  0.41019994691E+02  0.00000000000E+00 0. -1.
</event>
<event>
 7    1  0.3863655E-015  0.9000774E+02  0.7816164E-02  0.1186339E+00
        -11   -1    0    0    0    0  0.00000000000E+00  0.00000000000E+00  0.45593999997E+02  0.45594000000E+02  0.51100000000E-03 0.  1.
         11   -1    0    0    0    0 -0.00000000000E+00 -0.00000000000E+00 -0.45593999997E+02  0.45594000000E+02  0.51100000000E-03 0. -1.
    9900012    2    1    2    0    0 -0.54406906413E+00 -0.42920236348E+00 -0.95539599629E+00  0.90007742687E+02  0.90000004090E+02 0.  0.
        -12    1    1    2    0    0  0.54406906413E+00  0.42920236348E+00  0.95539599629E+00  0.11802573131E+01  0.00000000000E+00 0.  1.
         11    1    3    3    0    0  0.50534771829E+01  0.11823585722E+02  0.17138451360E+02  0.21425716470E+02  0.51100000000E-03 0. -1.
        -11    1    3    3    0    0 -0.21965092450E+02  0.20199165404E+01  0.16631537947E+02  0.27625231292E+02  0.51100000000E-03 0.  1.
         12    1    3    3    0    0  0.16367546203E+02 -0.14272704626E+02 -0.34725385303E+02  0.40956794925E+02  0.00000000000E+00 0. -1.
</event>
<event>
 7    1  0.3863655E-015  0.9000767E+02  0.7816164E-02  0.1186339E+00
        -11   -1    0    0    0    0  0.00000000000E+00  0.00000000000E+00  0.45593999997E+02  0.45594000000E+02  0.51100000000E-03 0. -1.
         11   -1    0    0    0    0 -0.00000000000E+00 -0.00000000000E+00 -0.45593999997E+02  0.45594000000E+02  0.51100000000E-03 0.  1.
    9900012    2    1    2    0    0  0.28333094327E+00 -0.10416942685E+01  0.47726830451E+00  0.90007665977E+02  0.89999926367E+02 0.  0.
        -12    1    1    2    0    0 -0.28333094327E+00  0.10416942685E+01 -0.47726830451E+00  0.11803340235E+01  0.00000000000E+00 0.  1.
         11    1    3    3    0    0  0.28810302182E+02 -0.38276218656E+01  0.19728894716E+02  0.35127104747E+02  0.51100000000E-03 0. -1.
        -11    1    3    3    0    0  0.22987164067E+01  0.10573513337E+01  0.11219926925E+02  0.11501688982E+02  0.51100000000E-03 0.  1.
        -12    1    3    3    0    0 -0.30825687646E+02  0.17285762634E+01 -0.30471553337E+02  0.43378872247E+02  0.00000000000E+00 0.  1.
</event>
<event>
 7    1  0.3863655E-015  0.9000780E+02  0.7816164E-02  0.1186339E+00
        -11   -1    0    0    0    0  0.00000000000E+00  0.00000000000E+00  0.45593999997E+02  0.45594000000E+02  0.51100000000E-03 0.  1.
         11   -1    0    0    0    0 -0.00000000000E+00 -0.00000000000E+00 -0.45593999997E+02  0.45594000000E+02  0.51100000000E-03 0. -1.
    9900012    2    1    2    0    0 -0.21660294089E+00 -0.40449529803E+00 -0.10873506748E+01  0.90007803080E+02  0.90000065281E+02 0.  0.
        -12    1    1    2    0    0  0.21660294089E+00  0.40449529803E+00  0.10873506748E+01  0.11801969201E+01  0.00000000000E+00 0.  1.
         11    1    3    3    0    0  0.10637628854E+02  0.86627371369E+01  0.20729111164E+00  0.13720245340E+02  0.51100000000E-03 0. -1.
        -11    1    3    3    0    0 -0.35795134755E+02  0.98603753745E+01  0.16101619908E+02  0.40469505045E+02  0.51100000000E-03 0.  1.
         12    1    3    3    0    0  0.24940902961E+02 -0.18927607809E+02 -0.17396261695E+02  0.35818052695E+02  0.00000000000E+00 0. -1.
</event>
<event>
 7    1  0.3863655E-015  0.9000771E+02  0.7816164E-02  0.1186339E+00
        -11   -1    0    0    0    0  0.00000000000E+00  0.00000000000E+00  0.45593999997E+02  0.45594000000E+02  0.51100000000E-03 0. -1.
         11   -1    0    0    0    0 -0.00000000000E+00 -0.00000000000E+00 -0.45593999997E+02  0.45594000000E+02  0.51100000000E-03 0.  1.
    9900012    2    1    2    0    0  0.75092627901E+00  0.57929028036E+00  0.70258275573E+00  0.90007707649E+02  0.89999968590E+02 0.  0.
        -12    1    1    2    0    0 -0.75092627901E+00 -0.57929028036E+00 -0.70258275573E+00  0.11802923511E+01  0.00000000000E+00 0.  1.
         11    1    3    3    0    0  0.25403194641E+02 -0.17528349076E+02  0.23984151544E+02  0.39087144240E+02  0.51100000000E-03 0. -1.
        -11    1    3    3    0    0  0.35319452920E+00  0.70077737741E+01  0.71372184716E+01  0.10008672610E+02  0.51100000000E-03 0.  1.
        -12    1    3    3    0    0 -0.25005462892E+02  0.11099865582E+02 -0.30418787260E+02  0.40911890799E+02  0.00000000000E+00 0.  1.
</event>
<event>
 7    1  0.3863655E-015  0.9000775E+02  0.7816164E-02  0.1186339E+00
        -11   -1    0    0    0    0  0.00000000000E+00  0.00000000000E+00  0.45593999997E+02  0.45594000000E+02  0.51100000000E-03 0.  1.
         11   -1    0    0    0    0 -0.00000000000E+00 -0.00000000000E+00 -0.45593999997E+02  0.45594000000E+02  0.51100000000E-03 0. -1.
    9900012    2    1    2    0    0  0.42765475940E+00  0.10052722236E+00 -0.10954426504E+01  0.90007750486E+02  0.90000011992E+02 0.  0.
        -12    1    1    2    0    0 -0.42765475940E+00 -0.10052722236E+00  0.10954426504E+01  0.11802495143E+01  0.00000000000E+00 0.  1.
         11    1    3    3    0    0  0.48830092859E+00  0.93576190453E+01  0.51782651386E+00  0.93846479184E+01  0.51100000000E-03 0. -1.
        -11    1    3    3    0    0 -0.36080840067E+02 -0.30407160118E+01  0.16543799302E+02  0.39809173181E+02  0.51100000000E-03 0.  1.
         12    1    3    3    0    0  0.36020193897E+02 -0.62163758111E+01 -0.18157068466E+02  0.40813929386E+02  0.00000000000E+00 0. -1.
</event>
<event>
 7    1  0.3863655E-015  0.9000773E+02  0.7816164E-02  0.1186339E+00
        -11   -1    0    0    0    0  0.00000000000E+00  0.00000000000E+00  0.45593999997E+02  0.45594000000E+02  0.51100000000E-03 0.  1.
         11   -1    0    0    0    0 -0.00000000000E+00 -0.00000000000E+00 -0.45593999997E+02  0.45594000000E+02  0.51100000000E-03 0. -1.
    9900012    2    1    2    0    0  0.69992584398E+00  0.83016586341E+00  0.46256887453E+00  0.90007728204E+02  0.89999989417E+02 0.  0.
        -12    1    1    2    0    0 -0.69992584398E+00 -0.83016586341E+00 -0.46256887453E+00  0.11802717956E+01  0.00000000000E+00 0.  1.
         11    1    3    3    0    0  0.19175911925E+01 -0.78421320588E+01 -0.16216522167E+01  0.82344366766E+01  0.51100000000E-03 0. -1.
        -11    1    3    3    0    0  0.14449314861E+02 -0.27331679652E+02  0.21807063341E+02  0.37833205314E+02  0.51100000000E-03 0.  1.
         12    1    3    3    0    0 -0.15666980209E+02  0.36003977574E+02 -0.19722842249E+02  0.43940086213E+02  0.00000000000E+00 0. -1.
</event>
<event>
 7    1  0.3863655E-015  0.9000772E+02  0.7816164E-02  0.1186339E+00
        -11   -1    0    0    0    0  0.00000000000E+00  0.00000000000E+00  0.45593999997E+02  0.45594000000E+02  0.51100000000E-03 0.  1.
         11   -1    0    0    0    0 -0.00000000000E+00 -0.00000000000E+00 -0.45593999997E+02  0.45594000000E+02  0.51100000000E-03 0. -1.
    9900012    2    1    2    0    0  0.18057852406E+00 -0.13169937644E+00 -0.11589256765E+01  0.90007719502E+02  0.89999980600E+02 0.  0.
        -12    1    1    2    0    0 -0.18057852406E+00  0.13169937644E+00  0.11589256765E+01  0.11802804975E+01  0.00000000000E+00 0.  1.
         11    1    3    3    0    0  0.28786880428E+02 -0.21411229376E+02 -0.23977794471E+02  0.43151591582E+02  0.51100000000E-03 0. -1.
        -11    1    3    3    0    0 -0.29995693931E-01  0.14786689983E+01 -0.31379915100E+01  0.34690564605E+01  0.51100000000E-03 0.  1.
        -12    1    3    3    0    0 -0.28576306210E+02  0.19800861001E+02  0.25956860304E+02  0.43387071460E+02  0.00000000000E+00 0.  1.
</event>
<event>
 7    1  0.3863655E-015  0.9000775E+02  0.7816164E-02  0.1186339E+00
        -11   -1    0    0    0    0  0.00000000000E+00  0.00000000000E+00  0.45593999997E+02  0.45594000000E+02  0.51100000000E-03 0.  1.
         11   -1    0    0    0    0 -0.00000000000E+00 -0.00000000000E+00 -0.45593999997E+02  0.45594000000E+02  0.51100000000E-03 0. -1.
    9900012    2    1    2    0    0  0.30902740524E+00 -0.15651746665E+00 -0.11282655894E+01  0.90007754731E+02  0.90000016294E+02 0.  0.
        -12    1    1    2    0    0 -0.30902740524E+00  0.15651746665E+00  0.11282655894E+01  0.11802452689E+01  0.00000000000E+00 0.  1.
         11    1    3    3    0    0 -0.82082387745E+01 -0.81575158013E+00 -0.59564017749E+01  0.10174446264E+02  0.51100000000E-03 0. -1.
        -11    1    3    3    0    0 -0.16755992902E+02  0.43181594073E+01  0.35757449063E+02  0.39724110594E+02  0.51100000000E-03 0.  1.
         12    1    3    3    0    0  0.25273259081E+02 -0.36589252938E+01 -0.30929312877E+02  0.40109197872E+02  0.00000000000E+00 0. -1.
</event>
<event>
 7    1  0.3863655E-015  0.9000775E+02  0.7816164E-02  0.1186339E+00
        -11   -1    0    0    0    0  0.00000000000E+00  0.00000000000E+00  0.45593999997E+02  0.45594000000E+02  0.51100000000E-03 0. -1.
         11   -1    0    0    0    0 -0.00000000000E+00 -0.00000000000E+00 -0.45593999997E+02  0.45594000000E+02  0.51100000000E-03 0.  1.
    9900012    2    1    2    0    0  0.10725979220E+01  0.94350975267E-01  0.48335475337E+00  0.90007745694E+02  0.90000007137E+02 0.  0.
        -12    1    1    2    0    0 -0.10725979220E+01 -0.94350975267E-01 -0.48335475337E+00  0.11802543058E+01  0.00000000000E+00 0.  1.
         11    1    3    3    0    0  0.86604904374E+01 -0.28345106416E+01 -0.60772185300E+01  0.10953133365E+02  0.51100000000E-03 0. -1.
        -11    1    3    3    0    0  0.21276756725E+02  0.31234888601E+02  0.78779575402E+01  0.38605451143E+02  0.51100000000E-03 0.  1.
         12    1    3    3    0    0 -0.28864649240E+02 -0.28306026984E+02 -0.13173842568E+01  0.40449161186E+02  0.00000000000E+00 0. -1.
</event>
<event>
 7    1  0.3863655E-015  0.9000774E+02  0.7816164E-02  0.1186339E+00
        -11   -1    0    0    0    0  0.00000000000E+00  0.00000000000E+00  0.45593999997E+02  0.45594000000E+02  0.51100000000E-03 0.  1.
         11   -1    0    0    0    0 -0.00000000000E+00 -0.00000000000E+00 -0.45593999997E+02  0.45594000000E+02  0.51100000000E-03 0. -1.
    9900012    2    1    2    0    0 -0.46237488886E-01  0.83108790070E+00 -0.83675805839E+00  0.90007741955E+02  0.90000003349E+02 0.  0.
        -12    1    1    2    0    0  0.46237488886E-01 -0.83108790070E+00  0.83675805839E+00  0.11802580448E+01  0.00000000000E+00 0.  1.
         11    1    3    3    0    0  0.18233643773E+01  0.11976243776E+02 -0.24052291858E+01  0.12350716592E+02  0.51100000000E-03 0. -1.
        -11    1    3    3    0    0 -0.28575590669E+02  0.19228565937E+02  0.10944462235E+02  0.36139775649E+02  0.51100000000E-03 0.  1.
         12    1    3    3    0    0  0.26705988803E+02 -0.30373721812E+02 -0.93759911073E+01  0.41517249715E+02  0.00000000000E+00 0. -1.
</event>
<event>
 7    1  0.3863655E-015  0.9000771E+02  0.7816164E-02  0.1186339E+00
        -11   -1    0    0    0    0  0.00000000000E+00  0.00000000000E+00  0.45593999997E+02  0.45594000000E+02  0.51100000000E-03 0.  1.
         11   -1    0    0    0    0 -0.00000000000E+00 -0.00000000000E+00 -0.45593999997E+02  0.45594000000E+02  0.51100000000E-03 0. -1.
    9900012    2    1    2    0    0  0.33090249594E+00  0.11236018837E+01  0.14532119630E+00  0.90007705162E+02  0.89999966070E+02 0.  0.
        -12    1    1    2    0    0 -0.33090249594E+00 -0.11236018837E+01 -0.14532119630E+00  0.11802948381E+01  0.00000000000E+00 0.  1.
         11    1    3    3    0    0 -0.17879689407E+02 -0.17020371775E+02 -0.31258969610E+02  0.39830886634E+02  0.51100000000E-03 0. -1.
        -11    1    3    3    0    0 -0.67804892270E+01  0.42162800649E+01  0.40784490353E+00  0.79948977148E+01  0.51100000000E-03 0.  1.
        -12    1    3    3    0    0  0.24991081130E+02  0.13927693594E+02  0.30996445903E+02  0.42181920814E+02  0.00000000000E+00 0.  1.
</event>
<event>
 7    1  0.3863655E-015  0.9000768E+02  0.7816164E-02  0.1186339E+00
        -11   -1    0    0    0    0  0.00000000000E+00  0.00000000000E+00  0.45593999997E+02  0.45594000000E+02  0.51100000000E-03 0.  1.
         11   -1    0    0    0    0 -0.00000000000E+00 -0.00000000000E+00 -0.45593999997E+02  0.45594000000E+02  0.51100000000E-03 0. -1.
    9900012    2    1    2    0    0  0.92557551734E+00 -0.54533650541E+00 -0.48895832848E+00  0.90007677083E+02  0.89999937620E+02 0.  0.
        -12    1    1    2    0    0 -0.92557551734E+00  0.54533650541E+00  0.48895832848E+00  0.11803229174E+01  0.00000000000E+00 0.  1.
         11    1    3    3    0    0  0.42363019234E+01  0.85296547332E+01  0.47687838466E+01  0.10650941906E+02  0.51100000000E-03 0. -1.
        -11    1    3    3    0    0  0.27432911553E+01  0.28453523158E+02  0.18943830740E+02  0.34292817759E+02  0.51100000000E-03 0.  1.
         12    1    3    3    0    0 -0.60540175614E+01 -0.37528514397E+02 -0.24201572915E+02  0.45063917418E+02  0.00000000000E+00 0. -1.
</event>
<event>
 7    1  0.3863655E-015  0.9000774E+02  0.7816164E-02  0.1186339E+00
        -11   -1    0    0    0    0  0.00000000000E+00  0.00000000000E+00  0.45593999997E+02  0.45594000000E+02  0.51100000000E-03 0. -1.
         11   -1    0    0    0    0 -0.00000000000E+00 -0.00000000000E+00 -0.45593999997E+02  0.45594000000E+02  0.51100000000E-03 0.  1.
    9900012    2    1    2    0    0 -0.93593231445E+00  0.46441858268E+00  0.54895593568E+00  0.90007743021E+02  0.90000004429E+02 0.  0.
        -12    1    1    2    0    0  0.93593231445E+00 -0.46441858268E+00 -0.54895593568E+00  0.11802569790E+01  0.00000000000E+00 0.  1.
         11    1    3    3    0    0  0.14144162146E+02 -0.33765677433E+02  0.38736328347E+01  0.36812814711E+02  0.51100000000E-03 0. -1.
        -11    1    3    3    0    0 -0.19119145586E+01 -0.28505308246E-01  0.12918317466E+02  0.13059064141E+02  0.51100000000E-03 0.  1.
        -12    1    3    3    0    0 -0.13168179902E+02  0.34258601324E+02 -0.16242994365E+02  0.40135864169E+02  0.00000000000E+00 0.  1.
</event>
<event>
 7    1  0.3863655E-015  0.9000765E+02  0.7816164E-02  0.1186339E+00
        -11   -1    0    0    0    0  0.00000000000E+00  0.00000000000E+00  0.45593999997E+02  0.45594000000E+02  0.51100000000E-03 0.  1.
         11   -1    0    0    0    0 -0.00000000000E+00 -0.00000000000E+00 -0.45593999997E+02  0.45594000000E+02  0.51100000000E-03 0. -1.
    9900012    2    1    2    0    0 -0.11695051389E+01 -0.14674973411E+00 -0.62887516386E-01  0.90007647259E+02  0.89999907402E+02 0.  0.
        -12    1    1    2    0    0  0.11695051389E+01  0.14674973411E+00  0.62887516386E-01  0.11803527414E+01  0.00000000000E+00 0.  1.
         11    1    3    3    0    0 -0.19126760897E+02  0.20421445588E+02 -0.17394667846E+02  0.32946060342E+02  0.51100000000E-03 0. -1.
        -11    1    3    3    0    0 -0.14128759599E+02  0.27762102989E+00 -0.18632009549E+01  0.14253786840E+02  0.51100000000E-03 0.  1.
        -12    1    3    3    0    0  0.32086015356E+02 -0.20845816352E+02  0.19194981285E+02  0.42807800076E+02  0.00000000000E+00 0.  1.
</event>
<event>
 7    1  0.3863655E-015  0.9000777E+02  0.7816164E-02  0.1186339E+00
        -11   -1    0    0    0    0  0.00000000000E+00  0.00000000000E+00  0.45593999997E+02  0.45594000000E+02  0.51100000000E-03 0. -1.
         11   -1    0    0    0    0 -0.00000000000E+00 -0.00000000000E+00 -0.45593999997E+02  0.45594000000E+02  0.51100000000E-03 0.  1.
    9900012    2    1    2    0    0  0.10306358558E+01  0.57480853385E+00 -0.18365096911E-01  0.90007765958E+02  0.90000027668E+02 0.  0.
        -12    1    1    2    0    0 -0.10306358558E+01 -0.57480853385E+00  0.18365096911E-01  0.11802340423E+01  0.00000000000E+00 0.  1.
         11    1    3    3    0    0 -0.57392514665E+01  0.55418385006E+01  0.31233289016E+01  0.85677397866E+01  0.51100000000E-03 0. -1.
        -11    1    3    3    0    0  0.36906232003E+02  0.50507215215E+01  0.19872895480E+02  0.42219802505E+02  0.51100000000E-03 0.  1.
         12    1    3    3    0    0 -0.30136344680E+02 -0.10017751488E+02 -0.23014589478E+02  0.39220223666E+02  0.00000000000E+00 0. -1.
</event>
<event>
 7    1  0.3863655E-015  0.9000772E+02  0.7816164E-02  0.1186339E+00
        -11   -1    0    0    0    0  0.00000000000E+00  0.00000000000E+00  0.45593999997E+02  0.45594000000E+02  0.51100000000E-03 0.  1.
         11   -1    0    0    0    0 -0.00000000000E+00 -0.00000000000E+00 -0.45593999997E+02  0.45594000000E+02  0.51100000000E-03 0. -1.
    9900012    2    1    2    0    0 -0.70951029029E+00  0.62492864814E+00 -0.70648255672E+00  0.90007721105E+02  0.89999982223E+02 0.  0.
        -12    1    1    2    0    0  0.70951029029E+00 -0.62492864814E+00  0.70648255672E+00  0.11802788951E+01  0.00000000000E+00 0.  1.
         11    1    3    3    0    0  0.24437396835E+02  0.29596015306E+02 -0.13238465932E+02  0.40600091952E+02  0.51100000000E-03 0. -1.
        -11    1    3    3    0    0  0.22470497682E+01 -0.84844285268E+01 -0.58756735787E+01  0.10562116282E+02  0.51100000000E-03 0.  1.
        -12    1    3    3    0    0 -0.27393956893E+02 -0.20486658131E+02  0.18407656954E+02  0.38845512871E+02  0.00000000000E+00 0.  1.
</event>
<event>
 7    1  0.3863655E-015  0.9000774E+02  0.7816164E-02  0.1186339E+00
        -11   -1    0    0    0    0  0.00000000000E+00  0.00000000000E+00  0.45593999997E+02  0.45594000000E+02  0.51100000000E-03 0. -1.
         11   -1    0    0    0    0 -0.00000000000E+00 -0.00000000000E+00 -0.45593999997E+02  0.45594000000E+02  0.51100000000E-03 0.  1.
    9900012    2    1    2    0    0  0.44246539429E+00  0.99271070267E+00  0.46017270129E+00  0.90007741944E+02  0.90000003337E+02 0.  0.
        -12    1    1    2    0    0 -0.44246539429E+00 -0.99271070267E+00 -0.46017270129E+00  0.11802580562E+01  0.00000000000E+00 0.  1.
         11    1    3    3    0    0 -0.54577151053E+01 -0.12977486572E+02  0.30731238350E+02  0.33802526868E+02  0.51100000000E-03 0. -1.
        -11    1    3    3    0    0 -0.11599811085E+01 -0.13175667615E+01  0.11256931786E+02  0.11392982570E+02  0.51100000000E-03 0.  1.
        -12    1    3    3    0    0  0.70601616081E+01  0.15287764036E+02 -0.41527997435E+02  0.44812232505E+02  0.00000000000E+00 0.  1.
</event>
<event>
 7    1  0.3863655E-015  0.9000777E+02  0.7816164E-02  0.1186339E+00
        -11   -1    0    0    0    0  0.00000000000E+00  0.00000000000E+00  0.45593999997E+02  0.45594000000E+02  0.51100000000E-03 0.  1.
         11   -1    0    0    0    0 -0.00000000000E+00 -0.00000000000E+00 -0.45593999997E+02  0.45594000000E+02  0.51100000000E-03 0. -1.
    9900012    2    1    2    0    0  0.11558165471E+01  0.19413416156E+00  0.13909766464E+00  0.90007767767E+02  0.90000029502E+02 0.  0.
        -12    1    1    2    0    0 -0.11558165471E+01 -0.19413416156E+00 -0.13909766464E+00  0.11802322329E+01  0.00000000000E+00 0.  1.
         11    1    3    3    0    0  0.42608977031E+01  0.69808565247E+01  0.65184537712E+01  0.10458386438E+02  0.51100000000E-03 0. -1.
        -11    1    3    3    0    0 -0.24305744776E+02 -0.59736806194E+01  0.28993063077E+02  0.38302112163E+02  0.51100000000E-03 0.  1.
         12    1    3    3    0    0  0.21200663620E+02 -0.81304174370E+00 -0.35372419184E+02  0.41247269167E+02  0.00000000000E+00 0. -1.
</event>
<event>
 7    1  0.3863655E-015  0.9000773E+02  0.7816164E-02  0.1186339E+00
        -11   -1    0    0    0    0  0.00000000000E+00  0.00000000000E+00  0.45593999997E+02  0.45594000000E+02  0.51100000000E-03 0.  1.
         11   -1    0    0    0    0 -0.00000000000E+00 -0.00000000000E+00 -0.45593999997E+02  0.45594000000E+02  0.51100000000E-03 0. -1.
    9900012    2    1    2    0    0  0.38089804300E+00  0.54588096302E+00 -0.97466898543E+00  0.90007725042E+02  0.89999986213E+02 0.  0.
        -12    1    1    2    0    0 -0.38089804300E+00 -0.54588096302E+00  0.97466898543E+00  0.11802749578E+01  0.00000000000E+00 0.  1.
         11    1    3    3    0    0 -0.96550776863E+01 -0.34934764906E+01 -0.36549040811E+01  0.10898771822E+02  0.51100000000E-03 0. -1.
        -11    1    3    3    0    0  0.19767780817E+02  0.25756269485E+02 -0.26176165506E+02  0.41705421915E+02  0.51100000000E-03 0.  1.
         12    1    3    3    0    0 -0.97318050877E+01 -0.21716912031E+02  0.28856400602E+02  0.37403531306E+02  0.00000000000E+00 0. -1.
</event>
<event>
 7    1  0.3863655E-015  0.9000800E+02  0.7816164E-02  0.1186339E+00
        -11   -1    0    0    0    0  0.00000000000E+00  0.00000000000E+00  0.45593999997E+02  0.45594000000E+02  0.51100000000E-03 0. -1.
         11   -1    0    0    0    0 -0.00000000000E+00 -0.00000000000E+00 -0.45593999997E+02  0.45594000000E+02  0.51100000000E-03 0.  1.
    9900012    2    1    2    0    0 -0.46100527744E+00 -0.84403724537E+00 -0.68372356084E+00  0.90007998879E+02  0.90000263664E+02 0.  0.
        -12    1    1    2    0    0  0.46100527744E+00  0.84403724537E+00  0.68372356084E+00  0.11800011208E+01  0.00000000000E+00 0.  1.
         11    1    3    3    0    0  0.30437645905E+02 -0.12258911591E+02  0.21515189197E+02  0.39238177431E+02  0.51100000000E-03 0. -1.
        -11    1    3    3    0    0  0.57732040547E+01  0.46688141678E+00 -0.81563500115E+01  0.10003694772E+02  0.51100000000E-03 0.  1.
        -12    1    3    3    0    0 -0.36671855237E+02  0.10947992929E+02 -0.14042562747E+02  0.40766126677E+02  0.00000000000E+00 0.  1.
</event>
<event>
 7    1  0.3863655E-015  0.9000762E+02  0.7816164E-02  0.1186339E+00
        -11   -1    0    0    0    0  0.00000000000E+00  0.00000000000E+00  0.45593999997E+02  0.45594000000E+02  0.51100000000E-03 0.  1.
         11   -1    0    0    0    0 -0.00000000000E+00 -0.00000000000E+00 -0.45593999997E+02  0.45594000000E+02  0.51100000000E-03 0. -1.
    9900012    2    1    2    0    0  0.20625926891E+00  0.57549927617E+00 -0.10097306702E+01  0.90007619413E+02  0.89999879190E+02 0.  0.
        -12    1    1    2    0    0 -0.20625926891E+00 -0.57549927617E+00  0.10097306702E+01  0.11803805866E+01  0.00000000000E+00 0.  1.
         11    1    3    3    0    0  0.96309015073E+00 -0.12082696993E+01  0.77917119442E+01  0.79434396572E+01  0.51100000000E-03 0. -1.
        -11    1    3    3    0    0  0.31218698206E+02 -0.22838112782E+02  0.58696338607E+01  0.39123383226E+02  0.51100000000E-03 0.  1.
         12    1    3    3    0    0 -0.31975529088E+02  0.24621881757E+02 -0.14671076475E+02  0.42940796530E+02  0.00000000000E+00 0. -1.
</event>
<event>
 7    1  0.3863655E-015  0.9000775E+02  0.7816164E-02  0.1186339E+00
        -11   -1    0    0    0    0  0.00000000000E+00  0.00000000000E+00  0.45593999997E+02  0.45594000000E+02  0.51100000000E-03 0.  1.
         11   -1    0    0    0    0 -0.00000000000E+00 -0.00000000000E+00 -0.45593999997E+02  0.45594000000E+02  0.51100000000E-03 0. -1.
    9900012    2    1    2    0    0  0.23859003530E+00  0.10853231101E+01 -0.39765613358E+00  0.90007753475E+02  0.90000015021E+02 0.  0.
        -12    1    1    2    0    0 -0.23859003530E+00 -0.10853231101E+01  0.39765613358E+00  0.11802465246E+01  0.00000000000E+00 0.  1.
         11    1    3    3    0    0  0.15826631335E+02  0.32151410371E+02 -0.11650910598E+02  0.37682080175E+02  0.51100000000E-03 0. -1.
        -11    1    3    3    0    0 -0.63470283608E+01 -0.17372960918E+02 -0.13265298697E+02  0.22761210202E+02  0.51100000000E-03 0.  1.
        -12    1    3    3    0    0 -0.92410129394E+01 -0.13693126343E+02  0.24518553161E+02  0.29564463099E+02  0.00000000000E+00 0.  1.
</event>
<event>
 7    1  0.3863655E-015  0.9000756E+02  0.7816164E-02  0.1186339E+00
        -11   -1    0    0    0    0  0.00000000000E+00  0.00000000000E+00  0.45593999997E+02  0.45594000000E+02  0.51100000000E-03 0.  1.
         11   -1    0    0    0    0 -0.00000000000E+00 -0.00000000000E+00 -0.45593999997E+02  0.45594000000E+02  0.51100000000E-03 0. -1.
    9900012    2    1    2    0    0  0.45237400552E+00 -0.10820432521E+01 -0.13409403350E+00  0.90007558960E+02  0.89999817938E+02 0.  0.
        -12    1    1    2    0    0 -0.45237400552E+00  0.10820432521E+01  0.13409403350E+00  0.11804410405E+01  0.00000000000E+00 0.  1.
         11    1    3    3    0    0 -0.44410154378E+00 -0.17387170465E+01 -0.41359611290E+02  0.41398524242E+02  0.51100000000E-03 0. -1.
        -11    1    3    3    0    0  0.85547785829E+01 -0.30035132541E+01  0.31491307380E+01  0.95980390256E+01  0.51100000000E-03 0.  1.
        -12    1    3    3    0    0 -0.76583030336E+01  0.36601870485E+01  0.38076386518E+02  0.39010995692E+02  0.00000000000E+00 0.  1.
</event>
<event>
 7    1  0.3863655E-015  0.9000751E+02  0.7816164E-02  0.1186340E+00
        -11   -1    0    0    0    0  0.00000000000E+00  0.00000000000E+00  0.45593999997E+02  0.45594000000E+02  0.51100000000E-03 0.  1.
         11   -1    0    0    0    0 -0.00000000000E+00 -0.00000000000E+00 -0.45593999997E+02  0.45594000000E+02  0.51100000000E-03 0. -1.
    9900012    2    1    2    0    0  0.99768567307E+00 -0.63078532487E+00  0.17328127307E-01  0.90007505573E+02  0.89999763846E+02 0.  0.
        -12    1    1    2    0    0 -0.99768567307E+00  0.63078532487E+00 -0.17328127307E-01  0.11804944271E+01  0.00000000000E+00 0.  1.
         11    1    3    3    0    0 -0.14537166660E+02  0.49870801833E+01  0.30306359760E+01  0.15664767408E+02  0.51100000000E-03 0. -1.
        -11    1    3    3    0    0  0.16915265769E+02  0.20863358187E+02  0.24339288948E+02  0.36246474554E+02  0.51100000000E-03 0.  1.
         12    1    3    3    0    0 -0.13804134357E+01 -0.26481223695E+02 -0.27352596797E+02  0.38096263611E+02  0.00000000000E+00 0. -1.
</event>
<event>
 7    1  0.3863655E-015  0.9000769E+02  0.7816164E-02  0.1186339E+00
        -11   -1    0    0    0    0  0.00000000000E+00  0.00000000000E+00  0.45593999997E+02  0.45594000000E+02  0.51100000000E-03 0. -1.
         11   -1    0    0    0    0 -0.00000000000E+00 -0.00000000000E+00 -0.45593999997E+02  0.45594000000E+02  0.51100000000E-03 0.  1.
    9900012    2    1    2    0    0 -0.24741549782E+00 -0.89616675902E+00 -0.72718654855E+00  0.90007690903E+02  0.89999951623E+02 0.  0.
        -12    1    1    2    0    0  0.24741549782E+00  0.89616675902E+00  0.72718654855E+00  0.11803090972E+01  0.00000000000E+00 0.  1.
         11    1    3    3    0    0 -0.55838316569E+01 -0.29390508651E+02  0.23973854592E+02  0.38337017085E+02  0.51100000000E-03 0. -1.
        -11    1    3    3    0    0 -0.71806483247E+01  0.43287787222E+00  0.51376645575E+01  0.88399485848E+01  0.51100000000E-03 0.  1.
        -12    1    3    3    0    0  0.12517064484E+02  0.28061464020E+02 -0.29838705698E+02  0.42830725233E+02  0.00000000000E+00 0.  1.
</event>
<event>
 7    1  0.3863655E-015  0.9000774E+02  0.7816164E-02  0.1186339E+00
        -11   -1    0    0    0    0  0.00000000000E+00  0.00000000000E+00  0.45593999997E+02  0.45594000000E+02  0.51100000000E-03 0.  1.
         11   -1    0    0    0    0 -0.00000000000E+00 -0.00000000000E+00 -0.45593999997E+02  0.45594000000E+02  0.51100000000E-03 0. -1.
    9900012    2    1    2    0    0 -0.20199834857E+00  0.10713397160E+01 -0.45215382764E+00  0.90007739349E+02  0.90000000709E+02 0.  0.
        -12    1    1    2    0    0  0.20199834857E+00 -0.10713397160E+01  0.45215382764E+00  0.11802606507E+01  0.00000000000E+00 0.  1.
         11    1    3    3    0    0  0.14883057532E+02  0.32690903071E+02 -0.16801725740E+02  0.39654741624E+02  0.51100000000E-03 0. -1.
        -11    1    3    3    0    0  0.81925179330E+01 -0.15281078696E+00  0.50037432649E+01  0.96009451692E+01  0.51100000000E-03 0.  1.
        -12    1    3    3    0    0 -0.23277573814E+02 -0.31466752568E+02  0.11345828648E+02  0.40752052556E+02  0.00000000000E+00 0.  1.
</event>
<event>
 7    1  0.5565751E-015  0.9000785E+02  0.7816164E-02  0.1186339E+00
        -11   -1    0    0    0    0  0.00000000000E+00  0.00000000000E+00  0.45593999997E+02  0.45594000000E+02  0.51100000000E-03 0. -1.
         11   -1    0    0    0    0 -0.00000000000E+00 -0.00000000000E+00 -0.45593999997E+02  0.45594000000E+02  0.51100000000E-03 0.  1.
    9900012    2    1    2    0    0 -0.65493276318E+00  0.91047855510E+00  0.36720558927E+00  0.90007852523E+02  0.90000115376E+02 0.  0.
        -12    1    1    2    0    0  0.65493276318E+00 -0.91047855510E+00 -0.36720558927E+00  0.11801474774E+01  0.00000000000E+00 0.  1.
         11    1    3    3    0    0 -0.41735545368E+01  0.26191207461E+01 -0.85320771773E+01  0.98526489928E+01  0.51100000000E-03 0. -1.
        -11    1    3    3    0    0  0.32138980995E+02 -0.26767063458E+01 -0.21212099069E+02  0.38600932676E+02  0.51100000000E-03 0.  1.
         12    1    3    3    0    0 -0.28620359222E+02  0.96806415477E+00  0.30111381835E+02  0.41554270854E+02  0.00000000000E+00 0. -1.
</event>
<event>
 7    1  0.3863655E-015  0.9000689E+02  0.7816164E-02  0.1186341E+00
        -11   -1    0    0    0    0  0.00000000000E+00  0.00000000000E+00  0.45593999997E+02  0.45594000000E+02  0.51100000000E-03 0. -1.
         11   -1    0    0    0    0 -0.00000000000E+00 -0.00000000000E+00 -0.45593999997E+02  0.45594000000E+02  0.51100000000E-03 0.  1.
    9900012    2    1    2    0    0 -0.97383060441E+00 -0.64054283604E+00  0.19076025084E+00  0.90006885846E+02  0.89999135935E+02 0.  0.
        -12    1    1    2    0    0  0.97383060441E+00  0.64054283604E+00 -0.19076025084E+00  0.11811141537E+01  0.00000000000E+00 0.  1.
         11    1    3    3    0    0  0.16821464824E+01  0.10847874291E+02  0.84918110808E+01  0.13878647237E+02  0.51100000000E-03 0. -1.
        -11    1    3    3    0    0  0.24467239975E+02  0.19510325004E+02 -0.14473372012E+02  0.34478647180E+02  0.51100000000E-03 0.  1.
         12    1    3    3    0    0 -0.27123217061E+02 -0.30998742131E+02  0.61723211817E+01  0.41649591429E+02  0.00000000000E+00 0. -1.
</event>
<event>
 7    1  0.3863655E-015  0.9000816E+02  0.7816164E-02  0.1186338E+00
        -11   -1    0    0    0    0  0.00000000000E+00  0.00000000000E+00  0.45593999997E+02  0.45594000000E+02  0.51100000000E-03 0.  1.
         11   -1    0    0    0    0 -0.00000000000E+00 -0.00000000000E+00 -0.45593999997E+02  0.45594000000E+02  0.51100000000E-03 0. -1.
    9900012    2    1    2    0    0 -0.88991201170E+00  0.68188083382E+00  0.36758049576E+00  0.90008160909E+02  0.90000427832E+02 0.  0.
        -12    1    1    2    0    0  0.88991201170E+00 -0.68188083382E+00 -0.36758049576E+00  0.11798390911E+01  0.00000000000E+00 0.  1.
         11    1    3    3    0    0  0.12744125146E+01  0.20281352610E+02 -0.20901962846E+02  0.29152177312E+02  0.51100000000E-03 0. -1.
        -11    1    3    3    0    0  0.36678872969E+01  0.84463847586E+01 -0.13163820088E+02  0.16064898763E+02  0.51100000000E-03 0.  1.
        -12    1    3    3    0    0 -0.58322118233E+01 -0.28045856535E+02  0.34433363429E+02  0.44791084834E+02  0.00000000000E+00 0.  1.
</event>
<event>
 7    1  0.3863655E-015  0.9000771E+02  0.7816164E-02  0.1186339E+00
        -11   -1    0    0    0    0  0.00000000000E+00  0.00000000000E+00  0.45593999997E+02  0.45594000000E+02  0.51100000000E-03 0.  1.
         11   -1    0    0    0    0 -0.00000000000E+00 -0.00000000000E+00 -0.45593999997E+02  0.45594000000E+02  0.51100000000E-03 0. -1.
    9900012    2    1    2    0    0 -0.10428796183E+01  0.14107474193E+00 -0.53439038941E+00  0.90007714836E+02  0.89999975871E+02 0.  0.
        -12    1    1    2    0    0  0.10428796183E+01 -0.14107474193E+00  0.53439038941E+00  0.11802851645E+01  0.00000000000E+00 0.  1.
         11    1    3    3    0    0 -0.20824546491E+02 -0.73848298189E+01  0.24621223724E+02  0.33081748835E+02  0.51100000000E-03 0. -1.
        -11    1    3    3    0    0 -0.10818797838E+02 -0.78448561260E+01  0.16133690748E+01  0.13460724881E+02  0.51100000000E-03 0.  1.
         12    1    3    3    0    0  0.30600464711E+02  0.15370760687E+02 -0.26768983188E+02  0.43465241119E+02  0.00000000000E+00 0. -1.
</event>
<event>
 7    1  0.3863655E-015  0.9000785E+02  0.7816164E-02  0.1186339E+00
        -11   -1    0    0    0    0  0.00000000000E+00  0.00000000000E+00  0.45593999997E+02  0.45594000000E+02  0.51100000000E-03 0. -1.
         11   -1    0    0    0    0 -0.00000000000E+00 -0.00000000000E+00 -0.45593999997E+02  0.45594000000E+02  0.51100000000E-03 0.  1.
    9900012    2    1    2    0    0  0.45890936737E+00  0.10700686180E+01 -0.19262805409E+00  0.90007851610E+02  0.90000114451E+02 0.  0.
        -12    1    1    2    0    0 -0.45890936737E+00 -0.10700686180E+01  0.19262805409E+00  0.11801483898E+01  0.00000000000E+00 0.  1.
         11    1    3    3    0    0 -0.87670168710E+01  0.41328187422E+02 -0.58232985029E+01  0.42647279704E+02  0.51100000000E-03 0. -1.
        -11    1    3    3    0    0 -0.88208757895E+00 -0.29594499804E+01 -0.62165155622E+01  0.69412886901E+01  0.51100000000E-03 0.  1.
        -12    1    3    3    0    0  0.10108013817E+02 -0.37298668824E+02  0.11847186011E+02  0.40419283216E+02  0.00000000000E+00 0.  1.
</event>
<event>
 7    1  0.3863655E-015  0.9000790E+02  0.7816164E-02  0.1186339E+00
        -11   -1    0    0    0    0  0.00000000000E+00  0.00000000000E+00  0.45593999997E+02  0.45594000000E+02  0.51100000000E-03 0.  1.
         11   -1    0    0    0    0 -0.00000000000E+00 -0.00000000000E+00 -0.45593999997E+02  0.45594000000E+02  0.51100000000E-03 0. -1.
    9900012    2    1    2    0    0 -0.64138152763E+00 -0.75134257018E+00 -0.64557020652E+00  0.90007895423E+02  0.90000158842E+02 0.  0.
        -12    1    1    2    0    0  0.64138152763E+00  0.75134257018E+00  0.64557020652E+00  0.11801045773E+01  0.00000000000E+00 0.  1.
         11    1    3    3    0    0 -0.28292813678E+02 -0.27093771219E+01 -0.31821154855E+02  0.42666262160E+02  0.51100000000E-03 0. -1.
        -11    1    3    3    0    0 -0.18132723551E+01  0.55036444451E+01  0.68235154411E+01  0.89520065934E+01  0.51100000000E-03 0.  1.
        -12    1    3    3    0    0  0.29464704505E+02 -0.35456098935E+01  0.24352069207E+02  0.38389626669E+02  0.00000000000E+00 0.  1.
</event>
<event>
 7    1  0.3863655E-015  0.9000774E+02  0.7816164E-02  0.1186339E+00
        -11   -1    0    0    0    0  0.00000000000E+00  0.00000000000E+00  0.45593999997E+02  0.45594000000E+02  0.51100000000E-03 0. -1.
         11   -1    0    0    0    0 -0.00000000000E+00 -0.00000000000E+00 -0.45593999997E+02  0.45594000000E+02  0.51100000000E-03 0.  1.
    9900012    2    1    2    0    0  0.13722306149E+00 -0.38272071066E+00  0.11080184073E+01  0.90007741511E+02  0.90000002898E+02 0.  0.
        -12    1    1    2    0    0 -0.13722306149E+00  0.38272071066E+00 -0.11080184073E+01  0.11802584895E+01  0.00000000000E+00 0.  1.
         11    1    3    3    0    0  0.51549944828E+01 -0.47919701220E+01 -0.12175095075E+02  0.14063068162E+02  0.51100000000E-03 0. -1.
        -11    1    3    3    0    0  0.32853114948E+02  0.13420053425E+02  0.26326443992E+01  0.35585893448E+02  0.51100000000E-03 0.  1.
         12    1    3    3    0    0 -0.37870886369E+02 -0.90108040135E+01  0.10650469083E+02  0.40358779901E+02  0.00000000000E+00 0. -1.
</event>
<event>
 7    1  0.3863655E-015  0.9000776E+02  0.7816164E-02  0.1186339E+00
        -11   -1    0    0    0    0  0.00000000000E+00  0.00000000000E+00  0.45593999997E+02  0.45594000000E+02  0.51100000000E-03 0. -1.
         11   -1    0    0    0    0 -0.00000000000E+00 -0.00000000000E+00 -0.45593999997E+02  0.45594000000E+02  0.51100000000E-03 0.  1.
    9900012    2    1    2    0    0  0.19643268540E+00 -0.97735210329E+00  0.63180205861E+00  0.90007755629E+02  0.90000017203E+02 0.  0.
        -12    1    1    2    0    0 -0.19643268540E+00  0.97735210329E+00 -0.63180205861E+00  0.11802443709E+01  0.00000000000E+00 0.  1.
         11    1    3    3    0    0 -0.76800885609E+01  0.32946777892E+02  0.12938351170E+02  0.36219813156E+02  0.51100000000E-03 0. -1.
        -11    1    3    3    0    0 -0.33954092329E+01  0.68670856249E+01  0.37438291933E+01  0.85265424487E+01  0.51100000000E-03 0.  1.
        -12    1    3    3    0    0  0.11271930479E+02 -0.40791215620E+02 -0.16050378305E+02  0.45261400025E+02  0.00000000000E+00 0.  1.
</event>
<event>
 7    1  0.3863655E-015  0.9000782E+02  0.7816164E-02  0.1186339E+00
        -11   -1    0    0    0    0  0.00000000000E+00  0.00000000000E+00  0.45593999997E+02  0.45594000000E+02  0.51100000000E-03 0.  1.
         11   -1    0    0    0    0 -0.00000000000E+00 -0.00000000000E+00 -0.45593999997E+02  0.45594000000E+02  0.51100000000E-03 0. -1.
    9900012    2    1    2    0    0 -0.48299344991E+00  0.66932187514E+00 -0.84352863063E+00  0.90007824167E+02  0.90000086646E+02 0.  0.
        -12    1    1    2    0    0  0.48299344991E+00 -0.66932187514E+00  0.84352863063E+00  0.11801758326E+01  0.00000000000E+00 0.  1.
         11    1    3    3    0    0  0.99290927133E+01  0.11861512840E+01  0.16059322704E+01  0.10127825813E+02  0.51100000000E-03 0. -1.
        -11    1    3    3    0    0 -0.21893324302E+02 -0.25334621231E+02  0.24497839730E+02  0.41488610890E+02  0.51100000000E-03 0.  1.
         12    1    3    3    0    0  0.11481238139E+02  0.24817791822E+02 -0.26947300631E+02  0.38391387464E+02  0.00000000000E+00 0. -1.
</event>
<event>
 7    1  0.3863655E-015  0.9000773E+02  0.7816164E-02  0.1186339E+00
        -11   -1    0    0    0    0  0.00000000000E+00  0.00000000000E+00  0.45593999997E+02  0.45594000000E+02  0.51100000000E-03 0. -1.
         11   -1    0    0    0    0 -0.00000000000E+00 -0.00000000000E+00 -0.45593999997E+02  0.45594000000E+02  0.51100000000E-03 0.  1.
    9900012    2    1    2    0    0  0.40231760371E-01 -0.10916331335E+01  0.44695077207E+00  0.90007726097E+02  0.89999987282E+02 0.  0.
        -12    1    1    2    0    0 -0.40231760371E-01  0.10916331335E+01 -0.44695077207E+00  0.11802739027E+01  0.00000000000E+00 0.  1.
         11    1    3    3    0    0  0.31243925415E+02 -0.98085264302E+01 -0.22956758935E+02  0.39992534893E+02  0.51100000000E-03 0. -1.
        -11    1    3    3    0    0 -0.49792835968E+01  0.42407277061E+01 -0.70238478273E+01  0.95974723327E+01  0.51100000000E-03 0.  1.
        -12    1    3    3    0    0 -0.26224410058E+02  0.44761655907E+01  0.30427557534E+02  0.40417718872E+02  0.00000000000E+00 0.  1.
</event>
<event>
 7    1  0.3863655E-015  0.9000776E+02  0.7816164E-02  0.1186339E+00
        -11   -1    0    0    0    0  0.00000000000E+00  0.00000000000E+00  0.45593999997E+02  0.45594000000E+02  0.51100000000E-03 0.  1.
         11   -1    0    0    0    0 -0.00000000000E+00 -0.00000000000E+00 -0.45593999997E+02  0.45594000000E+02  0.51100000000E-03 0. -1.
    9900012    2    1    2    0    0 -0.10139263557E+00  0.10889323786E+01  0.44374017450E+00  0.90007762933E+02  0.90000024604E+02 0.  0.
        -12    1    1    2    0    0  0.10139263557E+00 -0.10889323786E+01 -0.44374017450E+00  0.11802370670E+01  0.00000000000E+00 0.  1.
         11    1    3    3    0    0  0.33887391858E+01  0.63642006197E+01  0.53655929790E+00  0.72301105758E+01  0.51100000000E-03 0. -1.
        -11    1    3    3    0    0 -0.38597004028E+01 -0.21881551536E+02  0.36420768824E+02  0.42663473684E+02  0.51100000000E-03 0.  1.
         12    1    3    3    0    0  0.36956858138E+00  0.16606283295E+02 -0.36513587947E+02  0.40114178673E+02  0.00000000000E+00 0. -1.
</event>
<event>
 7    1  0.3863655E-015  0.9000778E+02  0.7816164E-02  0.1186339E+00
        -11   -1    0    0    0    0  0.00000000000E+00  0.00000000000E+00  0.45593999997E+02  0.45594000000E+02  0.51100000000E-03 0. -1.
         11   -1    0    0    0    0 -0.00000000000E+00 -0.00000000000E+00 -0.45593999997E+02  0.45594000000E+02  0.51100000000E-03 0.  1.
    9900012    2    1    2    0    0  0.93485702023E+00 -0.50648857332E+00 -0.51228539966E+00  0.90007777710E+02  0.90000039576E+02 0.  0.
        -12    1    1    2    0    0 -0.93485702023E+00  0.50648857332E+00  0.51228539966E+00  0.11802222900E+01  0.00000000000E+00 0.  1.
         11    1    3    3    0    0 -0.87974547679E+01  0.30814669352E+00 -0.66068705801E+01  0.11006402859E+02  0.51100000000E-03 0. -1.
        -11    1    3    3    0    0  0.41008283927E+02  0.22657449846E+01 -0.11934728607E+02  0.42769740450E+02  0.51100000000E-03 0.  1.
         12    1    3    3    0    0 -0.31275972139E+02 -0.30803802514E+01  0.18029313788E+02  0.36231634401E+02  0.00000000000E+00 0. -1.
</event>
<event>
 7    1  0.3863655E-015  0.9000771E+02  0.7816164E-02  0.1186339E+00
        -11   -1    0    0    0    0  0.00000000000E+00  0.00000000000E+00  0.45593999997E+02  0.45594000000E+02  0.51100000000E-03 0. -1.
         11   -1    0    0    0    0 -0.00000000000E+00 -0.00000000000E+00 -0.45593999997E+02  0.45594000000E+02  0.51100000000E-03 0.  1.
    9900012    2    1    2    0    0  0.69442624192E+00  0.95413819004E+00 -0.21705693429E-01  0.90007712481E+02  0.89999973485E+02 0.  0.
        -12    1    1    2    0    0 -0.69442624192E+00 -0.95413819004E+00  0.21705693429E-01  0.11802875193E+01  0.00000000000E+00 0.  1.
         11    1    3    3    0    0  0.17786474582E+02 -0.10774761424E+02  0.16532235515E+02  0.26566312751E+02  0.51100000000E-03 0. -1.
        -11    1    3    3    0    0  0.12627291330E+02 -0.11138741650E+02  0.79763626504E+01  0.18631758190E+02  0.51100000000E-03 0.  1.
        -12    1    3    3    0    0 -0.29719339670E+02  0.22867641264E+02 -0.24530303859E+02  0.44809641539E+02  0.00000000000E+00 0.  1.
</event>
<event>
 7    1  0.3863655E-015  0.9000774E+02  0.7816164E-02  0.1186339E+00
        -11   -1    0    0    0    0  0.00000000000E+00  0.00000000000E+00  0.45593999997E+02  0.45594000000E+02  0.51100000000E-03 0. -1.
         11   -1    0    0    0    0 -0.00000000000E+00 -0.00000000000E+00 -0.45593999997E+02  0.45594000000E+02  0.51100000000E-03 0.  1.
    9900012    2    1    2    0    0  0.11771034125E+01  0.81325911222E-01  0.28667314607E-01  0.90007742332E+02  0.90000003731E+02 0.  0.
        -12    1    1    2    0    0 -0.11771034125E+01 -0.81325911222E-01 -0.28667314607E-01  0.11802576679E+01  0.00000000000E+00 0.  1.
         11    1    3    3    0    0 -0.21487068902E+02  0.84363586664E+01 -0.23725736978E+02  0.33102520643E+02  0.51100000000E-03 0. -1.
        -11    1    3    3    0    0 -0.86854995565E+01  0.99163539501E+01 -0.61368208982E+00  0.13196536825E+02  0.51100000000E-03 0.  1.
        -12    1    3    3    0    0  0.31349671871E+02 -0.18271386705E+02  0.24368086382E+02  0.43708684863E+02  0.00000000000E+00 0.  1.
</event>
<event>
 7    1  0.3863655E-015  0.9000786E+02  0.7816164E-02  0.1186339E+00
        -11   -1    0    0    0    0  0.00000000000E+00  0.00000000000E+00  0.45593999997E+02  0.45594000000E+02  0.51100000000E-03 0. -1.
         11   -1    0    0    0    0 -0.00000000000E+00 -0.00000000000E+00 -0.45593999997E+02  0.45594000000E+02  0.51100000000E-03 0.  1.
    9900012    2    1    2    0    0  0.85008564002E+00 -0.48875055912E+00  0.65666632013E+00  0.90007858754E+02  0.90000121690E+02 0.  0.
        -12    1    1    2    0    0 -0.85008564002E+00  0.48875055912E+00 -0.65666632013E+00  0.11801412460E+01  0.00000000000E+00 0.  1.
         11    1    3    3    0    0 -0.12439678831E+01  0.25170575925E+02  0.30778758528E+02  0.39779860800E+02  0.51100000000E-03 0. -1.
        -11    1    3    3    0    0 -0.22766429601E+01  0.66574988742E+01 -0.87916046112E+01  0.11260448762E+02  0.51100000000E-03 0.  1.
        -12    1    3    3    0    0  0.43706964831E+01 -0.32316825358E+02 -0.21330487596E+02  0.38967549192E+02  0.00000000000E+00 0.  1.
</event>
<event>
 7    1  0.3863655E-015  0.9000770E+02  0.7816164E-02  0.1186339E+00
        -11   -1    0    0    0    0  0.00000000000E+00  0.00000000000E+00  0.45593999997E+02  0.45594000000E+02  0.51100000000E-03 0.  1.
         11   -1    0    0    0    0 -0.00000000000E+00 -0.00000000000E+00 -0.45593999997E+02  0.45594000000E+02  0.51100000000E-03 0. -1.
    9900012    2    1    2    0    0  0.82425579640E+00 -0.79551373061E+00 -0.28438222376E+00  0.90007697936E+02  0.89999958749E+02 0.  0.
        -12    1    1    2    0    0 -0.82425579640E+00  0.79551373061E+00  0.28438222376E+00  0.11803020642E+01  0.00000000000E+00 0.  1.
         11    1    3    3    0    0 -0.99427287047E+01  0.17750997357E+00  0.15584353457E+01  0.10065688495E+02  0.51100000000E-03 0. -1.
        -11    1    3    3    0    0  0.10135041811E+02 -0.13331591738E+02  0.36227532609E+02  0.39910957517E+02  0.51100000000E-03 0.  1.
         12    1    3    3    0    0  0.63194269000E+00  0.12358568034E+02 -0.38070350178E+02  0.40031051924E+02  0.00000000000E+00 0. -1.
</event>
<event>
 7    1  0.3863655E-015  0.9000829E+02  0.7816164E-02  0.1186338E+00
        -11   -1    0    0    0    0  0.00000000000E+00  0.00000000000E+00  0.45593999997E+02  0.45594000000E+02  0.51100000000E-03 0. -1.
         11   -1    0    0    0    0 -0.00000000000E+00 -0.00000000000E+00 -0.45593999997E+02  0.45594000000E+02  0.51100000000E-03 0.  1.
    9900012    2    1    2    0    0  0.63553466850E+00 -0.74078450440E+00  0.66260745481E+00  0.90008290444E+02  0.90000559076E+02 0.  0.
        -12    1    1    2    0    0 -0.63553466850E+00  0.74078450440E+00 -0.66260745481E+00  0.11797095558E+01  0.00000000000E+00 0.  1.
         11    1    3    3    0    0  0.48037767389E+01  0.25553267094E+02  0.24075135463E+02  0.35435263198E+02  0.51100000000E-03 0. -1.
        -11    1    3    3    0    0  0.12167559261E+01  0.82869466241E+01  0.47698445139E+01  0.96387445387E+01  0.51100000000E-03 0.  1.
        -12    1    3    3    0    0 -0.53849979965E+01 -0.34580998222E+02 -0.28182372522E+02  0.44934282707E+02  0.00000000000E+00 0.  1.
</event>
<event>
 7    1  0.3863655E-015  0.9000776E+02  0.7816164E-02  0.1186339E+00
        -11   -1    0    0    0    0  0.00000000000E+00  0.00000000000E+00  0.45593999997E+02  0.45594000000E+02  0.51100000000E-03 0.  1.
         11   -1    0    0    0    0 -0.00000000000E+00 -0.00000000000E+00 -0.45593999997E+02  0.45594000000E+02  0.51100000000E-03 0. -1.
    9900012    2    1    2    0    0  0.48971088139E-01  0.16377113333E+00 -0.11678007900E+01  0.90007755179E+02  0.90000016748E+02 0.  0.
        -12    1    1    2    0    0 -0.48971088139E-01 -0.16377113333E+00  0.11678007900E+01  0.11802448206E+01  0.00000000000E+00 0.  1.
         11    1    3    3    0    0 -0.17133728175E+02  0.25127741606E+01 -0.19381841609E+02  0.25991045757E+02  0.51100000000E-03 0. -1.
        -11    1    3    3    0    0 -0.17475642953E+02 -0.10699461561E+02  0.19578237897E+02  0.28340500591E+02  0.51100000000E-03 0.  1.
         12    1    3    3    0    0  0.34658342216E+02  0.83504585333E+01 -0.13641970778E+01  0.35676208831E+02  0.00000000000E+00 0. -1.
</event>
<event>
 7    1  0.3863655E-015  0.9000776E+02  0.7816164E-02  0.1186339E+00
        -11   -1    0    0    0    0  0.00000000000E+00  0.00000000000E+00  0.45593999997E+02  0.45594000000E+02  0.51100000000E-03 0. -1.
         11   -1    0    0    0    0 -0.00000000000E+00 -0.00000000000E+00 -0.45593999997E+02  0.45594000000E+02  0.51100000000E-03 0.  1.
    9900012    2    1    2    0    0  0.63688504927E+00 -0.34962252515E+00  0.93011342164E+00  0.90007758731E+02  0.90000020346E+02 0.  0.
        -12    1    1    2    0    0 -0.63688504927E+00  0.34962252515E+00 -0.93011342164E+00  0.11802412691E+01  0.00000000000E+00 0.  1.
         11    1    3    3    0    0 -0.54016800128E+01  0.70583102405E+01 -0.19871352405E+01  0.91075022447E+01  0.51100000000E-03 0. -1.
        -11    1    3    3    0    0 -0.80706342061E+01  0.34728830176E+02 -0.41886970939E+01  0.35899470268E+02  0.51100000000E-03 0.  1.
         12    1    3    3    0    0  0.14109199268E+02 -0.42136762942E+02  0.71059457561E+01  0.45000786219E+02  0.00000000000E+00 0. -1.
</event>
<event>
 7    1  0.3863655E-015  0.9000764E+02  0.7816164E-02  0.1186339E+00
        -11   -1    0    0    0    0  0.00000000000E+00  0.00000000000E+00  0.45593999997E+02  0.45594000000E+02  0.51100000000E-03 0. -1.
         11   -1    0    0    0    0 -0.00000000000E+00 -0.00000000000E+00 -0.45593999997E+02  0.45594000000E+02  0.51100000000E-03 0.  1.
    9900012    2    1    2    0    0  0.52882245605E+00  0.10484855262E+01  0.11949150830E+00  0.90007638484E+02  0.89999898512E+02 0.  0.
        -12    1    1    2    0    0 -0.52882245605E+00 -0.10484855262E+01 -0.11949150830E+00  0.11803615164E+01  0.00000000000E+00 0.  1.
         11    1    3    3    0    0  0.56981849736E+01 -0.17788108059E+02  0.29664910104E+02  0.35055570058E+02  0.51100000000E-03 0. -1.
        -11    1    3    3    0    0  0.35420971162E+01 -0.25557781738E+01  0.90067320361E+01  0.10009978835E+02  0.51100000000E-03 0.  1.
        -12    1    3    3    0    0 -0.87114596338E+01  0.21392371759E+02 -0.38552150632E+02  0.44942089591E+02  0.00000000000E+00 0.  1.
</event>
<event>
 7    1  0.3863655E-015  0.9000772E+02  0.7816164E-02  0.1186339E+00
        -11   -1    0    0    0    0  0.00000000000E+00  0.00000000000E+00  0.45593999997E+02  0.45594000000E+02  0.51100000000E-03 0.  1.
         11   -1    0    0    0    0 -0.00000000000E+00 -0.00000000000E+00 -0.45593999997E+02  0.45594000000E+02  0.51100000000E-03 0. -1.
    9900012    2    1    2    0    0  0.81687241010E+00 -0.85175117273E+00 -0.17564022286E-01  0.90007716522E+02  0.89999977580E+02 0.  0.
        -12    1    1    2    0    0 -0.81687241010E+00  0.85175117273E+00  0.17564022286E-01  0.11802834785E+01  0.00000000000E+00 0.  1.
         11    1    3    3    0    0 -0.81715719817E+01 -0.10184734211E+02  0.74255891968E+01  0.15021410545E+02  0.51100000000E-03 0. -1.
        -11    1    3    3    0    0 -0.31144326217E+02  0.12701066439E+02 -0.85241655183E+01  0.34697947234E+02  0.51100000000E-03 0.  1.
         12    1    3    3    0    0  0.40132770609E+02 -0.33680834007E+01  0.10810122993E+01  0.40288358742E+02  0.00000000000E+00 0. -1.
</event>
<event>
 7    1  0.3863655E-015  0.9000773E+02  0.7816164E-02  0.1186339E+00
        -11   -1    0    0    0    0  0.00000000000E+00  0.00000000000E+00  0.45593999997E+02  0.45594000000E+02  0.51100000000E-03 0. -1.
         11   -1    0    0    0    0 -0.00000000000E+00 -0.00000000000E+00 -0.45593999997E+02  0.45594000000E+02  0.51100000000E-03 0.  1.
    9900012    2    1    2    0    0 -0.89667771132E+00 -0.71252391786E+00  0.28516289129E+00  0.90007729215E+02  0.89999990441E+02 0.  0.
        -12    1    1    2    0    0  0.89667771132E+00  0.71252391786E+00 -0.28516289129E+00  0.11802707851E+01  0.00000000000E+00 0.  1.
         11    1    3    3    0    0  0.95806558884E+01 -0.17432437766E+01  0.10017914396E+02  0.13970915333E+02  0.51100000000E-03 0. -1.
        -11    1    3    3    0    0  0.26671990795E+02 -0.19045334298E+02 -0.81901981536E+01  0.33781639947E+02  0.51100000000E-03 0.  1.
         12    1    3    3    0    0 -0.37149324394E+02  0.20076054156E+02 -0.15425533516E+01  0.42255173935E+02  0.00000000000E+00 0. -1.
</event>
<event>
 7    1  0.3863655E-015  0.9000767E+02  0.7816164E-02  0.1186339E+00
        -11   -1    0    0    0    0  0.00000000000E+00  0.00000000000E+00  0.45593999997E+02  0.45594000000E+02  0.51100000000E-03 0. -1.
         11   -1    0    0    0    0 -0.00000000000E+00 -0.00000000000E+00 -0.45593999997E+02  0.45594000000E+02  0.51100000000E-03 0.  1.
    9900012    2    1    2    0    0  0.92806791978E+00 -0.32981036567E+00 -0.65045730409E+00  0.90007669688E+02  0.89999930128E+02 0.  0.
        -12    1    1    2    0    0 -0.92806791978E+00  0.32981036567E+00  0.65045730409E+00  0.11803303120E+01  0.00000000000E+00 0.  1.
         11    1    3    3    0    0  0.34647936343E+02  0.21100487042E+02  0.10489217379E+02  0.41901476438E+02  0.51100000000E-03 0. -1.
        -11    1    3    3    0    0 -0.14279736928E+01 -0.11601384468E+01 -0.97839011880E+01  0.99553881291E+01  0.51100000000E-03 0.  1.
        -12    1    3    3    0    0 -0.32291894730E+02 -0.20270158961E+02 -0.13557734954E+01  0.38150805120E+02  0.00000000000E+00 0.  1.
</event>
<event>
 7    1  0.3863655E-015  0.9000777E+02  0.7816164E-02  0.1186339E+00
        -11   -1    0    0    0    0  0.00000000000E+00  0.00000000000E+00  0.45593999997E+02  0.45594000000E+02  0.51100000000E-03 0. -1.
         11   -1    0    0    0    0 -0.00000000000E+00 -0.00000000000E+00 -0.45593999997E+02  0.45594000000E+02  0.51100000000E-03 0.  1.
    9900012    2    1    2    0    0 -0.10759955910E+01  0.26889523085E+00  0.40356059857E+00  0.90007774465E+02  0.90000036288E+02 0.  0.
        -12    1    1    2    0    0  0.10759955910E+01 -0.26889523085E+00 -0.40356059857E+00  0.11802255352E+01  0.00000000000E+00 0.  1.
         11    1    3    3    0    0 -0.53506933033E+01  0.36904410668E+01  0.80810640175E+01  0.10370769981E+02  0.51100000000E-03 0. -1.
        -11    1    3    3    0    0  0.22233174948E+02 -0.32251282647E+02 -0.19390280650E+02  0.43708606528E+02  0.51100000000E-03 0.  1.
         12    1    3    3    0    0 -0.17958477236E+02  0.28829736811E+02  0.11712777231E+02  0.35928397956E+02  0.00000000000E+00 0. -1.
</event>
<event>
 7    1  0.3863655E-015  0.9000774E+02  0.7816164E-02  0.1186339E+00
        -11   -1    0    0    0    0  0.00000000000E+00  0.00000000000E+00  0.45593999997E+02  0.45594000000E+02  0.51100000000E-03 0.  1.
         11   -1    0    0    0    0 -0.00000000000E+00 -0.00000000000E+00 -0.45593999997E+02  0.45594000000E+02  0.51100000000E-03 0. -1.
    9900012    2    1    2    0    0 -0.39863626670E+00 -0.63279510933E+00 -0.91305099537E+00  0.90007744670E+02  0.90000006100E+02 0.  0.
        -12    1    1    2    0    0  0.39863626670E+00  0.63279510933E+00  0.91305099537E+00  0.11802553299E+01  0.00000000000E+00 0.  1.
         11    1    3    3    0    0 -0.53948154718E-01  0.10836872361E+02 -0.23673371969E+01  0.11092565016E+02  0.51100000000E-03 0. -1.
        -11    1    3    3    0    0  0.27468084796E+02  0.11719020377E+02  0.22173406578E+02  0.37195309926E+02  0.51100000000E-03 0.  1.
         12    1    3    3    0    0 -0.27812772908E+02 -0.23188687848E+02 -0.20719120377E+02  0.41719869728E+02  0.00000000000E+00 0. -1.
</event>
<event>
 7    1  0.3863655E-015  0.9000778E+02  0.7816164E-02  0.1186339E+00
        -11   -1    0    0    0    0  0.00000000000E+00  0.00000000000E+00  0.45593999997E+02  0.45594000000E+02  0.51100000000E-03 0.  1.
         11   -1    0    0    0    0 -0.00000000000E+00 -0.00000000000E+00 -0.45593999997E+02  0.45594000000E+02  0.51100000000E-03 0. -1.
    9900012    2    1    2    0    0  0.28534164347E+00  0.84628630449E+00 -0.77156184646E+00  0.90007776273E+02  0.90000038120E+02 0.  0.
        -12    1    1    2    0    0 -0.28534164347E+00 -0.84628630449E+00  0.77156184646E+00  0.11802237269E+01  0.00000000000E+00 0.  1.
         11    1    3    3    0    0 -0.26920616050E+01  0.61725388487E+01  0.73922779585E+01  0.99996602543E+01  0.51100000000E-03 0. -1.
        -11    1    3    3    0    0 -0.87047931958E+00  0.36867817267E+02 -0.98992252023E-01  0.36878225066E+02  0.51100000000E-03 0.  1.
         12    1    3    3    0    0  0.38478825680E+01 -0.42194069812E+02 -0.80648475529E+01  0.43129890953E+02  0.00000000000E+00 0. -1.
</event>
<event>
 7    1  0.3863655E-015  0.9000774E+02  0.7816164E-02  0.1186339E+00
        -11   -1    0    0    0    0  0.00000000000E+00  0.00000000000E+00  0.45593999997E+02  0.45594000000E+02  0.51100000000E-03 0.  1.
         11   -1    0    0    0    0 -0.00000000000E+00 -0.00000000000E+00 -0.45593999997E+02  0.45594000000E+02  0.51100000000E-03 0. -1.
    9900012    2    1    2    0    0 -0.91774564391E+00  0.49840251560E+00 -0.54985490502E+00  0.90007744709E+02  0.90000006140E+02 0.  0.
        -12    1    1    2    0    0  0.91774564391E+00 -0.49840251560E+00  0.54985490502E+00  0.11802552906E+01  0.00000000000E+00 0.  1.
         11    1    3    3    0    0  0.26653301786E+02  0.97920221940E+01 -0.27842262945E+02  0.39767748251E+02  0.51100000000E-03 0. -1.
        -11    1    3    3    0    0 -0.40193097257E+01  0.82034934488E+01 -0.13534031319E+01  0.92349258651E+01  0.51100000000E-03 0.  1.
        -12    1    3    3    0    0 -0.23551737704E+02 -0.17497113127E+02  0.28645811172E+02  0.41005070594E+02  0.00000000000E+00 0.  1.
</event>
<event>
 7    1  0.3863655E-015  0.9000779E+02  0.7816164E-02  0.1186339E+00
        -11   -1    0    0    0    0  0.00000000000E+00  0.00000000000E+00  0.45593999997E+02  0.45594000000E+02  0.51100000000E-03 0. -1.
         11   -1    0    0    0    0 -0.00000000000E+00 -0.00000000000E+00 -0.45593999997E+02  0.45594000000E+02  0.51100000000E-03 0.  1.
    9900012    2    1    2    0    0  0.62015162440E+00  0.69002363853E+00  0.72949771766E+00  0.90007793417E+02  0.90000055490E+02 0.  0.
        -12    1    1    2    0    0 -0.62015162440E+00 -0.69002363853E+00 -0.72949771766E+00  0.11802065832E+01  0.00000000000E+00 0.  1.
         11    1    3    3    0    0 -0.12014065027E+01 -0.79068483781E+01 -0.15112810573E+02  0.17098499131E+02  0.51100000000E-03 0. -1.
        -11    1    3    3    0    0 -0.27318134905E+02 -0.10100546737E+02  0.23530954480E+02  0.37443388710E+02  0.51100000000E-03 0.  1.
         12    1    3    3    0    0  0.29139693032E+02  0.18697418754E+02 -0.76886461901E+01  0.35465905576E+02  0.00000000000E+00 0. -1.
</event>
<event>
 7    1  0.3863655E-015  0.9000728E+02  0.7816164E-02  0.1186340E+00
        -11   -1    0    0    0    0  0.00000000000E+00  0.00000000000E+00  0.45593999997E+02  0.45594000000E+02  0.51100000000E-03 0. -1.
         11   -1    0    0    0    0 -0.00000000000E+00 -0.00000000000E+00 -0.45593999997E+02  0.45594000000E+02  0.51100000000E-03 0.  1.
    9900012    2    1    2    0    0  0.23567962319E+00  0.65259101437E+00  0.95534568023E+00  0.90007277642E+02  0.89999532906E+02 0.  0.
        -12    1    1    2    0    0 -0.23567962319E+00 -0.65259101437E+00 -0.95534568023E+00  0.11807223575E+01  0.00000000000E+00 0.  1.
         11    1    3    3    0    0  0.32191839986E+02  0.26489909911E+02  0.10399557763E+01  0.41702654556E+02  0.51100000000E-03 0. -1.
        -11    1    3    3    0    0 -0.20838565842E+01  0.91082535470E+00  0.72000476254E+01  0.75506785893E+01  0.51100000000E-03 0.  1.
        -12    1    3    3    0    0 -0.29872303778E+02 -0.26748144252E+02 -0.72846577214E+01  0.40753944497E+02  0.00000000000E+00 0.  1.
</event>
<event>
 7    1  0.3863655E-015  0.9000779E+02  0.7816164E-02  0.1186339E+00
        -11   -1    0    0    0    0  0.00000000000E+00  0.00000000000E+00  0.45593999997E+02  0.45594000000E+02  0.51100000000E-03 0.  1.
         11   -1    0    0    0    0 -0.00000000000E+00 -0.00000000000E+00 -0.45593999997E+02  0.45594000000E+02  0.51100000000E-03 0. -1.
    9900012    2    1    2    0    0  0.60105936278E+00 -0.10146232818E+01 -0.46425479188E-01  0.90007793202E+02  0.90000055272E+02 0.  0.
        -12    1    1    2    0    0 -0.60105936278E+00  0.10146232818E+01  0.46425479188E-01  0.11802067982E+01  0.00000000000E+00 0.  1.
         11    1    3    3    0    0  0.23661842369E+02 -0.30213414275E+02 -0.72382942379E+01  0.39052862766E+02  0.51100000000E-03 0. -1.
        -11    1    3    3    0    0 -0.73762091617E+01  0.59710260194E+01 -0.13226333384E+02  0.16278744066E+02  0.51100000000E-03 0.  1.
        -12    1    3    3    0    0 -0.15684573845E+02  0.23227764974E+02  0.20418202143E+02  0.34676186370E+02  0.00000000000E+00 0.  1.
</event>
<event>
 7    1  0.3863655E-015  0.9000779E+02  0.7816164E-02  0.1186339E+00
        -11   -1    0    0    0    0  0.00000000000E+00  0.00000000000E+00  0.45593999997E+02  0.45594000000E+02  0.51100000000E-03 0. -1.
         11   -1    0    0    0    0 -0.00000000000E+00 -0.00000000000E+00 -0.45593999997E+02  0.45594000000E+02  0.51100000000E-03 0.  1.
    9900012    2    1    2    0    0 -0.94129506250E+00  0.71189958772E+00 -0.68207951210E-02  0.90007794958E+02  0.90000057052E+02 0.  0.
        -12    1    1    2    0    0  0.94129506250E+00 -0.71189958772E+00  0.68207951210E-02  0.11802050419E+01  0.00000000000E+00 0.  1.
         11    1    3    3    0    0 -0.11243906630E+02 -0.30563813731E+02  0.18320641750E+02  0.37366001398E+02  0.51100000000E-03 0. -1.
        -11    1    3    3    0    0  0.62962235425E+00 -0.76221195406E+01 -0.83759628204E+01  0.11342393223E+02  0.51100000000E-03 0.  1.
        -12    1    3    3    0    0  0.96729892130E+01  0.38897832859E+02 -0.99514997249E+01  0.41299400337E+02  0.00000000000E+00 0.  1.
</event>
<event>
 7    1  0.3863655E-015  0.9000771E+02  0.7816164E-02  0.1186339E+00
        -11   -1    0    0    0    0  0.00000000000E+00  0.00000000000E+00  0.45593999997E+02  0.45594000000E+02  0.51100000000E-03 0. -1.
         11   -1    0    0    0    0 -0.00000000000E+00 -0.00000000000E+00 -0.45593999997E+02  0.45594000000E+02  0.51100000000E-03 0.  1.
    9900012    2    1    2    0    0  0.10059734248E+01 -0.17834097460E+00 -0.59101979254E+00  0.90007706634E+02  0.89999967562E+02 0.  0.
        -12    1    1    2    0    0 -0.10059734248E+01  0.17834097460E+00  0.59101979254E+00  0.11802933660E+01  0.00000000000E+00 0.  1.
         11    1    3    3    0    0  0.46100787558E+00 -0.43814164869E+01 -0.11281304767E+02  0.12111035306E+02  0.51100000000E-03 0. -1.
        -11    1    3    3    0    0  0.37002799167E+02 -0.80395655444E+01 -0.40984735564E+00  0.37868321001E+02  0.51100000000E-03 0.  1.
         12    1    3    3    0    0 -0.36457833618E+02  0.12242641057E+02  0.11100132330E+02  0.40028350327E+02  0.00000000000E+00 0. -1.
</event>
<event>
 7    1  0.3863655E-015  0.9000789E+02  0.7816164E-02  0.1186339E+00
        -11   -1    0    0    0    0  0.00000000000E+00  0.00000000000E+00  0.45593999997E+02  0.45594000000E+02  0.51100000000E-03 0.  1.
         11   -1    0    0    0    0 -0.00000000000E+00 -0.00000000000E+00 -0.45593999997E+02  0.45594000000E+02  0.51100000000E-03 0. -1.
    9900012    2    1    2    0    0  0.12352401468E+00  0.57050683077E+00 -0.10256319037E+01  0.90007891095E+02  0.90000154457E+02 0.  0.
        -12    1    1    2    0    0 -0.12352401468E+00 -0.57050683077E+00  0.10256319037E+01  0.11801089052E+01  0.00000000000E+00 0.  1.
         11    1    3    3    0    0  0.63139687241E+01 -0.11810942807E+01  0.80436065944E+01  0.10293725859E+02  0.51100000000E-03 0. -1.
        -11    1    3    3    0    0 -0.71194649417E+01 -0.26896286022E+02  0.23435064934E+02  0.36377180368E+02  0.51100000000E-03 0.  1.
         12    1    3    3    0    0  0.92902023229E+00  0.28647887133E+02 -0.32504303432E+02  0.43336984868E+02  0.00000000000E+00 0. -1.
</event>
<event>
 7    1  0.3863655E-015  0.9000792E+02  0.7816164E-02  0.1186339E+00
        -11   -1    0    0    0    0  0.00000000000E+00  0.00000000000E+00  0.45593999997E+02  0.45594000000E+02  0.51100000000E-03 0.  1.
         11   -1    0    0    0    0 -0.00000000000E+00 -0.00000000000E+00 -0.45593999997E+02  0.45594000000E+02  0.51100000000E-03 0. -1.
    9900012    2    1    2    0    0 -0.56721781631E+00 -0.33212506087E-01 -0.10342886235E+01  0.90007918614E+02  0.90000182339E+02 0.  0.
        -12    1    1    2    0    0  0.56721781631E+00  0.33212506087E-01  0.10342886235E+01  0.11800813864E+01  0.00000000000E+00 0.  1.
         11    1    3    3    0    0  0.15787233733E+02 -0.25035767633E+02 -0.16067619947E+02  0.33677809028E+02  0.51100000000E-03 0. -1.
        -11    1    3    3    0    0 -0.38644040395E+01 -0.23270101406E+01 -0.13901598848E+02  0.14615164918E+02  0.51100000000E-03 0.  1.
        -12    1    3    3    0    0 -0.12490047510E+02  0.27329565268E+02  0.28934930172E+02  0.41714944667E+02  0.00000000000E+00 0.  1.
</event>
<event>
 7    1  0.3863655E-015  0.9000773E+02  0.7816164E-02  0.1186339E+00
        -11   -1    0    0    0    0  0.00000000000E+00  0.00000000000E+00  0.45593999997E+02  0.45594000000E+02  0.51100000000E-03 0.  1.
         11   -1    0    0    0    0 -0.00000000000E+00 -0.00000000000E+00 -0.45593999997E+02  0.45594000000E+02  0.51100000000E-03 0. -1.
    9900012    2    1    2    0    0  0.17008146937E+00 -0.84939782570E+00 -0.80164215564E+00  0.90007731167E+02  0.89999992418E+02 0.  0.
        -12    1    1    2    0    0 -0.17008146937E+00  0.84939782570E+00  0.80164215564E+00  0.11802688330E+01  0.00000000000E+00 0.  1.
         11    1    3    3    0    0  0.46186379590E+01 -0.30484148193E+02 -0.26389536940E+02  0.40583528282E+02  0.51100000000E-03 0. -1.
        -11    1    3    3    0    0 -0.11346027306E+01 -0.47530603223E+01 -0.19331360560E+01  0.52550852568E+01  0.51100000000E-03 0.  1.
        -12    1    3    3    0    0 -0.33139537590E+01  0.34387810690E+02  0.27521030840E+02  0.44169117628E+02  0.00000000000E+00 0.  1.
</event>
<event>
 7    1  0.3863655E-015  0.9000789E+02  0.7816164E-02  0.1186339E+00
        -11   -1    0    0    0    0  0.00000000000E+00  0.00000000000E+00  0.45593999997E+02  0.45594000000E+02  0.51100000000E-03 0.  1.
         11   -1    0    0    0    0 -0.00000000000E+00 -0.00000000000E+00 -0.45593999997E+02  0.45594000000E+02  0.51100000000E-03 0. -1.
    9900012    2    1    2    0    0 -0.58187643975E+00 -0.91054625442E+00 -0.47432354240E+00  0.90007890897E+02  0.90000154257E+02 0.  0.
        -12    1    1    2    0    0  0.58187643975E+00  0.91054625442E+00  0.47432354240E+00  0.11801091032E+01  0.00000000000E+00 0.  1.
         11    1    3    3    0    0 -0.94019219513E+01 -0.37372282685E+00 -0.35545569307E+01  0.10058363702E+02  0.51100000000E-03 0. -1.
        -11    1    3    3    0    0 -0.29374788739E+02  0.13605632869E+02  0.17429700309E+02  0.36766641298E+02  0.51100000000E-03 0.  1.
         12    1    3    3    0    0  0.38194834250E+02 -0.14142456296E+02 -0.14349466921E+02  0.43182885897E+02  0.00000000000E+00 0. -1.
</event>
<event>
 7    1  0.3863655E-015  0.9000767E+02  0.7816164E-02  0.1186339E+00
        -11   -1    0    0    0    0  0.00000000000E+00  0.00000000000E+00  0.45593999997E+02  0.45594000000E+02  0.51100000000E-03 0.  1.
         11   -1    0    0    0    0 -0.00000000000E+00 -0.00000000000E+00 -0.45593999997E+02  0.45594000000E+02  0.51100000000E-03 0. -1.
    9900012    2    1    2    0    0  0.20782931656E+00 -0.11158088133E+01  0.32395701839E+00  0.90007673570E+02  0.89999934061E+02 0.  0.
        -12    1    1    2    0    0 -0.20782931656E+00  0.11158088133E+01 -0.32395701839E+00  0.11803264305E+01  0.00000000000E+00 0.  1.
         11    1    3    3    0    0 -0.16725935028E+02  0.15282197185E+01 -0.13521596436E+02  0.21562141092E+02  0.51100000000E-03 0. -1.
        -11    1    3    3    0    0  0.62992052344E+01 -0.13856624106E+02 -0.23517019856E+02  0.28013144082E+02  0.51100000000E-03 0.  1.
        -12    1    3    3    0    0  0.10634559110E+02  0.11212595574E+02  0.37362573310E+02  0.40432388395E+02  0.00000000000E+00 0.  1.
</event>
<event>
 7    1  0.3863655E-015  0.9000793E+02  0.7816164E-02  0.1186339E+00
        -11   -1    0    0    0    0  0.00000000000E+00  0.00000000000E+00  0.45593999997E+02  0.45594000000E+02  0.51100000000E-03 0.  1.
         11   -1    0    0    0    0 -0.00000000000E+00 -0.00000000000E+00 -0.45593999997E+02  0.45594000000E+02  0.51100000000E-03 0. -1.
    9900012    2    1    2    0    0 -0.93924526753E+00 -0.61035640943E+00  0.37127036603E+00  0.90007932924E+02  0.90000196838E+02 0.  0.
        -12    1    1    2    0    0  0.93924526753E+00  0.61035640943E+00 -0.37127036603E+00  0.11800670760E+01  0.00000000000E+00 0.  1.
         11    1    3    3    0    0 -0.14585569597E+02  0.22393557095E+01 -0.39736482840E+02  0.42387989139E+02  0.51100000000E-03 0. -1.
        -11    1    3    3    0    0  0.29735189171E+01 -0.86177209446E+01  0.48348332146E+01  0.10319037819E+02  0.51100000000E-03 0.  1.
        -12    1    3    3    0    0  0.10672805413E+02  0.57680088256E+01  0.35272919991E+02  0.37300905966E+02  0.00000000000E+00 0.  1.
</event>
<event>
 7    1  0.3863655E-015  0.9000830E+02  0.7816164E-02  0.1186338E+00
        -11   -1    0    0    0    0  0.00000000000E+00  0.00000000000E+00  0.45593999997E+02  0.45594000000E+02  0.51100000000E-03 0. -1.
         11   -1    0    0    0    0 -0.00000000000E+00 -0.00000000000E+00 -0.45593999997E+02  0.45594000000E+02  0.51100000000E-03 0.  1.
    9900012    2    1    2    0    0 -0.42409190960E+00  0.70926046433E-01  0.10985497572E+01  0.90008298334E+02  0.90000567070E+02 0.  0.
        -12    1    1    2    0    0  0.42409190960E+00 -0.70926046433E-01 -0.10985497572E+01  0.11797016661E+01  0.00000000000E+00 0.  1.
         11    1    3    3    0    0 -0.31597025723E+02  0.18452845366E+02  0.35986266833E+01  0.36767236106E+02  0.51100000000E-03 0. -1.
        -11    1    3    3    0    0 -0.79245924927E+01 -0.44194474332E+01  0.59813305987E+01  0.10867704347E+02  0.51100000000E-03 0.  1.
        -12    1    3    3    0    0  0.39097526306E+02 -0.13962471887E+02 -0.84814075248E+01  0.42373357880E+02  0.00000000000E+00 0.  1.
</event>
<event>
 7    1  0.3863655E-015  0.9000777E+02  0.7816164E-02  0.1186339E+00
        -11   -1    0    0    0    0  0.00000000000E+00  0.00000000000E+00  0.45593999997E+02  0.45594000000E+02  0.51100000000E-03 0. -1.
         11   -1    0    0    0    0 -0.00000000000E+00 -0.00000000000E+00 -0.45593999997E+02  0.45594000000E+02  0.51100000000E-03 0.  1.
    9900012    2    1    2    0    0  0.29950074994E+00 -0.50179710053E+00  0.10253962235E+01  0.90007771868E+02  0.90000033656E+02 0.  0.
        -12    1    1    2    0    0 -0.29950074994E+00  0.50179710053E+00 -0.10253962235E+01  0.11802281324E+01  0.00000000000E+00 0.  1.
         11    1    3    3    0    0 -0.85140122420E+01 -0.12293476813E+02 -0.92499855558E+01  0.17583520969E+02  0.51100000000E-03 0. -1.
        -11    1    3    3    0    0 -0.29952142582E+02  0.82653606803E+01 -0.31908392530E+01  0.31235052231E+02  0.51100000000E-03 0.  1.
         12    1    3    3    0    0  0.38765655574E+02  0.35263190324E+01  0.13466221032E+02  0.41189198668E+02  0.00000000000E+00 0. -1.
</event>
<event>
 7    1  0.3863655E-015  0.9000773E+02  0.7816164E-02  0.1186339E+00
        -11   -1    0    0    0    0  0.00000000000E+00  0.00000000000E+00  0.45593999997E+02  0.45594000000E+02  0.51100000000E-03 0.  1.
         11   -1    0    0    0    0 -0.00000000000E+00 -0.00000000000E+00 -0.45593999997E+02  0.45594000000E+02  0.51100000000E-03 0. -1.
    9900012    2    1    2    0    0  0.43903958197E+00  0.12058702501E-01 -0.10955064126E+01  0.90007730765E+02  0.89999992011E+02 0.  0.
        -12    1    1    2    0    0 -0.43903958197E+00 -0.12058702501E-01  0.10955064126E+01  0.11802692349E+01  0.00000000000E+00 0.  1.
         11    1    3    3    0    0  0.69249329043E+00 -0.58190845927E+01 -0.36433312042E+01  0.69003735391E+01  0.51100000000E-03 0. -1.
        -11    1    3    3    0    0 -0.94023104343E+01 -0.13438652656E+01  0.41439975443E+02  0.42514479655E+02  0.51100000000E-03 0.  1.
         12    1    3    3    0    0  0.91488567258E+01  0.71750085608E+01 -0.38892150651E+02  0.40592877571E+02  0.00000000000E+00 0. -1.
</event>
